Membrane in water
40167
    1TCq1    O1    1   4.552   3.015  10.716 -0.4888 -0.2251 -0.4899
    1TCq1    C1    2   4.612   3.058  10.832  0.5989  0.7279 -0.4323
    1TCq1    O2    3   4.550   3.121  10.916 -0.1501  0.0404 -0.3751
    1TCq1    C2    4   4.692   2.943  10.850  0.4374 -0.2999 -0.3183
    1TCq1    C3    5   0.069   2.928  10.756 -0.2600 -0.5505  0.2193
    1TCq1    C4    6   0.181   2.863  10.786 -0.3063  0.3612  0.2672
    1TCq1    C5    7   0.202   2.814  10.906 -0.4189 -0.1444 -0.0855
    1TCq1    C6    8   0.102   2.822  11.002 -0.0183 -0.2161 -0.0604
    1TCq1    C7    9   4.715   2.891  10.978 -0.1122  0.5478  0.4234
    1TCq1    C8   10   0.110   2.744  11.128 -0.4470  0.5333 -0.6285
    1TCq1    O4   11   0.011   2.753  11.204 -0.1608 -0.0846 -0.4873
    1TCq1    C9   12   0.284   2.844  10.687  0.7200  0.1812  0.9647
    1TCq1    O5   13   0.377   2.770  10.721  0.0019  0.1277 -0.0239
    1TCq1    O6   14   0.276   2.917  10.586 -0.0316 -0.0003 -1.0496
    1TCq1    H1   15   4.597   2.938  10.674  0.0484 -0.4981  0.5749
    1TCq1    H2   16   0.050   2.978  10.662 -1.5848  1.2609  1.4612
    1TCq1    H3   17   0.299   2.773  10.928  0.2640  2.2755  1.4051
    1TCq1    H4   18   4.650   2.891  11.066  0.8476  1.2997  1.1293
    2MPD2     C   19   0.309   2.373  11.422 -0.0865  0.0748 -0.7041
    2MPD2    C1   20   0.191   2.444  11.442  0.2675 -0.8572  0.5497
    2MPD2    C2   21   0.158   2.541  11.344  1.1656 -0.2262  0.0771
    2MPD2    C3   22   0.251   2.580  11.245 -0.2466  0.0323  1.0468
    2MPD2    C4   23   0.376   2.520  11.242 -0.4422 -0.7551 -0.1981
    2MPD2    C5   24   0.401   2.417  11.333 -0.2679 -0.7089  0.1092
    2MPD2     H   25   0.077   2.611  11.365 -0.9294 -2.4836 -0.3897
    2MPD2    H1   26   0.452   2.556  11.174  1.2645  1.2771  2.7750
    2MPD2    H2   27   0.328   2.294  11.494 -0.3058 -1.2000 -2.0441
    2MPD2    H3   28   0.491   2.359  11.319  0.2410  0.2092 -0.4352
    2MPD2     N   29   0.228   2.672  11.142  0.2383  0.0512  0.4663
    2MPD2    H5   30   0.295   2.690  11.069 -0.6782  1.6153  0.0030
    2MPD2    N1   31   0.099   2.413  11.544  0.1255 -0.1851 -0.1417
    2MPD2    H7   32   0.009   2.460  11.536  0.4297  0.3299 -0.6117
    3TCq1    O1   33   0.081   3.518  10.062 -0.8097 -0.1443 -0.4463
    3TCq1    C1   34   0.075   3.488  10.191  0.4009 -0.2318 -0.1023
    3TCq1    O2   35   0.077   3.376  10.240 -0.1220 -0.1231 -0.7266
    3TCq1    C2   36   4.705   3.586  10.246 -0.0859 -0.0180 -0.1692
    3TCq1    C3   37   4.720   3.709  10.201  0.1210  0.4386 -0.3645
    3TCq1    C4   38   4.628   3.806  10.244  0.6859  0.3227  0.3952
    3TCq1    C5   39   4.520   3.769  10.313  0.3901 -0.3156  0.1183
    3TCq1    C6   40   4.507   3.639  10.353  0.5291 -0.0884  0.2691
    3TCq1    C7   41   4.605   3.543  10.324  0.4625 -0.2195 -0.0018
    3TCq1    C8   42   4.410   3.610  10.467  0.7197  0.2805 -0.2175
    3TCq1    O4   43   4.406   3.490  10.499  0.0374 -0.1120 -0.0568
    3TCq1    C9   44   4.625   3.938  10.171 -0.0961 -0.0927  0.1775
    3TCq1    O5   45   4.518   4.008  10.181  0.0679 -0.7391  0.1077
    3TCq1    O6   46   4.718   3.956  10.087  0.2596  0.0639 -0.2315
    3TCq1    H1   47   0.057   3.610  10.038  1.1920 -0.0153 -1.9597
    3TCq1    H2   48   0.090   3.738  10.150  0.9785  2.2573  2.1869
    3TCq1    H3   49   4.439   3.840  10.327  2.4640  2.1926 -0.7438
    3TCq1    H4   50   4.601   3.442  10.362  1.6506  0.9153  3.0627
    4MPD2     C   51   4.070   3.718  10.835 -0.1422 -0.1953 -0.3895
    4MPD2    C1   52   4.087   3.830  10.756  0.0545 -0.2138 -0.0569
    4MPD2    C2   53   4.182   3.836  10.653 -0.3743  0.0362 -0.1508
    4MPD2    C3   54   4.258   3.720  10.629  0.5773 -0.2548  0.3834
    4MPD2    C4   55   4.241   3.612  10.716 -0.1276 -0.3253  0.3174
    4MPD2    C5   56   4.157   3.610  10.816  0.2195 -0.7783 -0.0625
    4MPD2     H   57   4.211   3.923  10.595 -0.5398  0.4515  0.3875
    4MPD2    H1   58   4.308   3.527  10.709  1.4132  0.8187  1.1576
    4MPD2    H2   59   4.015   3.721  10.929 -2.1926  0.1472 -1.5896
    4MPD2    H3   60   4.144   3.526  10.883  0.0703 -0.8211 -0.1448
    4MPD2     N   61   4.354   3.722  10.524  0.2804  0.8884 -0.2484
    4MPD2    H5   62   4.360   3.810  10.473 -0.2273 -0.5982 -2.8970
    4MPD2    N1   63   4.010   3.943  10.773 -1.6433 -0.1997  0.3129
    4MPD2    H7   64   4.019   4.020  10.708  1.3055 -1.5554 -0.8759
    5TCq1    O1   65   4.210   0.924  11.640  0.2913  0.2834  0.1425
    5TCq1    C1   66   4.119   0.891  11.542 -0.0641  0.5221  0.2099
    5TCq1    O2   67   4.097   0.953  11.437 -0.0317  0.1936  0.0457
    5TCq1    C2   68   4.136   0.750  11.534 -0.6385  0.1777  0.1444
    5TCq1    C3   69   4.122   0.677  11.653  0.1643 -0.0182 -0.2360
    5TCq1    C4   70   4.144   0.546  11.654 -0.3113 -1.1135  0.5933
    5TCq1    C5   71   4.185   0.487  11.541  0.1068  0.3079  0.9426
    5TCq1    C6   72   4.203   0.560  11.424  0.2058 -0.4074  0.4827
    5TCq1    C7   73   4.167   0.696  11.412 -0.0322 -0.0560  0.4780
    5TCq1    C8   74   4.300   0.503  11.334  0.6220 -0.3946 -0.2962
    5TCq1    O4   75   4.308   0.380  11.331 -0.9166  0.3895  0.1843
    5TCq1    C9   76   4.154   0.482  11.774  0.7759  0.5166  0.4844
    5TCq1    O5   77   4.137   0.357  11.779 -0.2908  0.2035  0.2127
    5TCq1    O6   78   4.178   0.551  11.874 -0.0578  0.0850 -0.4395
    5TCq1    H1   79   4.267   0.848  11.665  0.5606 -0.5846 -3.1111
    5TCq1    H2   80   4.095   0.729  11.745 -0.9410  1.9244 -1.6497
    5TCq1    H3   81   4.217   0.384  11.556  0.0504  0.2551  0.6841
    5TCq1    H4   82   4.183   0.761  11.327 -0.4273  2.2478  2.1447
    6MPD2     C   83   4.524   0.682  11.090  0.6200 -0.4002 -0.4287
    6MPD2    C1   84   4.457   0.576  11.151 -0.5529  0.1974 -0.2973
    6MPD2    C2   85   4.501   0.451  11.122 -0.2616  0.6702 -0.0431
    6MPD2    C3   86   4.603   0.440  11.030 -0.2033  0.1258 -0.8761
    6MPD2    C4   87   4.669   0.541  10.963 -0.3317 -0.5252  0.7495
    6MPD2    C5   88   4.619   0.660  10.995 -0.1529 -0.0463 -0.1903
    6MPD2     H   89   4.451   0.362  11.159  2.1333 -0.7437 -0.2243
    6MPD2    H1   90   0.021   0.516  10.887 -1.8477 -0.3872 -0.7329
    6MPD2    H2   91   4.500   0.786  11.105 -0.6216 -0.6811 -0.4033
    6MPD2    H3   92   4.659   0.741  10.935  3.1217 -0.7907  1.0122
    6MPD2     N   93   4.638   0.309  10.999 -0.1927 -0.2574  0.2459
    6MPD2    H5   94   4.578   0.240  11.043 -0.5714 -1.2995 -1.8755
    6MPD2    N1   95   4.361   0.598  11.251 -0.4672  0.3331  0.3463
    6MPD2    H7   96   4.332   0.693  11.273 -0.1772  0.0516  1.9221
    7TCq1    O1   97   1.332   4.603  12.582 -0.0334  0.6427 -0.1792
    7TCq1    C1   98   1.381   4.486  12.613 -0.4807 -0.1004  0.4669
    7TCq1    O2   99   1.501   4.464  12.592  0.1899  0.0305  0.3912
    7TCq1    C2  100   1.319   4.460  12.751  0.7875  0.6619  0.3138
    7TCq1    C3  101   1.184   4.477  12.771  0.1308  0.4005 -0.5093
    7TCq1    C4  102   1.144   4.465  12.901 -0.1526 -0.0455 -0.5760
    7TCq1    C5  103   1.226   4.432  13.007 -0.1029  0.2087 -0.4757
    7TCq1    C6  104   1.360   4.427  12.972 -0.8354  0.5177  0.1774
    7TCq1    C7  105   1.405   4.420  12.845  0.6570  0.0561  0.3017
    7TCq1    C8  106   1.443   4.351  13.071 -0.2768 -0.3931  0.1939
    7TCq1    O4  107   1.385   4.282  13.160  0.2351  0.0996 -0.2576
    7TCq1    C9  108   1.005   4.473  12.928  0.2047 -0.0784 -0.5089
    7TCq1    O5  109   0.981   4.476  13.050  1.1549  0.1490  0.3302
    7TCq1    O6  110   0.936   4.493  12.829  0.0917  0.0602 -0.2481
    7TCq1    H1  111   1.243   4.621  12.620 -0.2906  1.9595 -1.4150
    7TCq1    H2  112   1.114   4.500  12.691  0.7139  0.0849 -1.1111
    7TCq1    H3  113   1.194   4.429  13.111 -2.6341 -0.5698 -1.2813
    7TCq1    H4  114   1.507   4.395  12.817 -0.5756 -3.1804 -1.3531
    8MPD2     C  115   1.879   4.311  13.344  0.4065  0.6892 -0.5877
    8MPD2    C1  116   1.778   4.226  13.320 -0.6584  0.4832  0.0252
    8MPD2    C2  117   1.673   4.267  13.244 -0.6081 -0.0351  0.4973
    8MPD2    C3  118   1.671   4.389  13.183 -0.3176 -0.6187 -0.7191
    8MPD2    C4  119   1.775   4.478  13.204  0.6013 -0.3853 -0.0946
    8MPD2    C5  120   1.878   4.434  13.287 -0.0674 -0.0619 -0.0596
    8MPD2     H  121   1.596   4.192  13.230 -1.3527  1.1078 -1.5249
    8MPD2    H1  122   1.779   4.577  13.162 -0.8966 -0.3138 -0.0867
    8MPD2    H2  123   1.963   4.285  13.407 -1.7531 -2.8749  0.7784
    8MPD2    H3  124   1.958   4.506  13.302  0.7435 -0.6516 -1.5401
    8MPD2     N  125   1.571   4.414  13.084  0.7106 -0.1190  0.3309
    8MPD2    H5  126   1.593   4.494  13.025  0.5452  0.9482  1.7289
    8MPD2    N1  127   1.784   4.096  13.383 -0.4717  0.4193  0.8889
    8MPD2    H7  128   1.873   4.087  13.431 -0.4394 -1.1826  0.5254
    9TCq1    O1  129   0.071   3.458  10.553 -0.4977  0.3375  0.4129
    9TCq1    C1  130   0.061   3.334  10.596  0.0674 -0.4230  0.1353
    9TCq1    O2  131   4.680   3.290  10.648 -0.4173  0.2032  0.3145
    9TCq1    C2  132   0.196   3.293  10.633 -0.1518 -0.5776 -0.8410
    9TCq1    C3  133   0.303   3.301  10.548 -0.3391 -0.1300 -0.3276
    9TCq1    C4  134   0.421   3.248  10.591 -0.8449  0.0567  0.0547
    9TCq1    C5  135   0.436   3.184  10.713  0.0514 -0.6285  0.3412
    9TCq1    C6  136   0.323   3.180  10.796 -0.1836  0.0589 -0.5680
    9TCq1    C7  137   0.205   3.230  10.755  0.7664  0.4148  0.5120
    9TCq1    C8  138   0.344   3.137  10.935  0.1269 -0.2230  0.0849
    9TCq1    O4  139   0.447   3.083  10.969  1.1193  0.3705  0.6653
    9TCq1    C9  140   0.546   3.260  10.515  0.1168  0.3774  0.1182
    9TCq1    O5  141   0.657   3.255  10.576  0.1804  0.0890 -0.0764
    9TCq1    O6  142   0.532   3.264  10.392 -0.0640 -0.2391  0.3074
    9TCq1    H1  143   0.166   3.483  10.549 -0.1508 -1.1693 -1.1199
    9TCq1    H2  144   0.304   3.366  10.461 -3.3004  0.3411 -0.0295
    9TCq1    H3  145   0.528   3.130  10.731 -0.4722 -1.2137  1.2753
    9TCq1    H4  146   0.115   3.231  10.816  0.8588 -1.5111  0.6690
   10MPD2     C  147   0.281   3.025  11.205 -0.2770  0.3460  0.2671
   10MPD2    C1  148   0.212   3.129  11.142  0.3574  0.3673  0.3137
   10MPD2    C2  149   0.113   3.189  11.216 -0.4775  0.6044 -0.6661
   10MPD2    C3  150   0.079   3.154  11.344  0.7657 -0.3299 -0.0969
   10MPD2    C4  151   0.156   3.052  11.407  0.2838 -0.4572 -0.5541
   10MPD2    C5  152   0.249   2.987  11.334  0.1348  0.0007  0.4642
   10MPD2     H  153   0.056   3.269  11.171 -1.0711  1.0640  0.9166
   10MPD2    H1  154   0.143   3.030  11.513  2.0338 -0.8145 -0.4170
   10MPD2    H2  155   0.339   2.960  11.140  0.0432  1.0030 -0.1058
   10MPD2    H3  156   0.316   2.910  11.370 -0.0581  0.5259  1.9117
   10MPD2     N  157   4.708   3.226  11.426  0.5918 -0.8639  0.0645
   10MPD2    H5  158   4.682   3.176  11.511  0.3145 -2.0856 -0.7392
   10MPD2    N1  159   0.236   3.169  11.009  0.7125  0.4297  0.0108
   10MPD2    H7  160   0.176   3.246  10.979  1.2841  0.0705 -2.0295
   11TCq1    O1  161   1.702   2.940  13.729  0.1924  0.4456  0.3618
   11TCq1    C1  162   1.648   3.008  13.830 -0.5597  0.3558 -0.0017
   11TCq1    O2  163   1.695   3.114  13.878  0.3674 -0.0698 -0.4031
   11TCq1    C2  164   1.510   2.966  13.832 -0.2774  0.0508 -0.9347
   11TCq1    C3  165   1.459   2.860  13.760 -0.0645  0.0077  0.2606
   11TCq1    C4  166   1.323   2.845  13.744  0.1984  0.6574  0.2132
   11TCq1    C5  167   1.240   2.927  13.819 -0.7556 -0.0646  0.6893
   11TCq1    C6  168   1.290   3.032  13.889 -0.2547 -0.6262 -0.0668
   11TCq1    C7  169   1.426   3.059  13.890 -0.1703 -0.0582  0.2198
   11TCq1    C8  170   1.200   3.128  13.958 -0.0603  0.2451 -0.5775
   11TCq1    O4  171   1.249   3.221  14.022 -0.2382  0.2288 -0.2075
   11TCq1    C9  172   1.273   2.744  13.657  0.2480  0.3445  0.7253
   11TCq1    O5  173   1.359   2.661  13.611  0.0538 -0.0820 -0.5586
   11TCq1    O6  174   1.153   2.766  13.625 -0.4029  0.0747 -0.2522
   11TCq1    H1  175   1.794   2.953  13.698 -0.3593 -2.0731 -2.3501
   11TCq1    H2  176   1.517   2.784  13.709 -2.5048 -2.7048  1.4993
   11TCq1    H3  177   1.136   2.904  13.804 -0.4702 -0.9999  0.1330
   11TCq1    H4  178   1.473   3.138  13.947  0.2168  1.0530 -1.6483
   12MPD2     C  179   0.961   3.250  14.102  0.2346  0.1852  0.4300
   12MPD2    C1  180   0.956   3.139  14.014  0.3593  0.3755  0.5273
   12MPD2    C2  181   0.839   3.083  13.977 -0.2189  0.3318  0.7210
   12MPD2    C3  182   0.724   3.123  14.038  0.1664 -0.6055  0.2622
   12MPD2    C4  183   0.725   3.238  14.115  0.1340  0.8393 -0.2085
   12MPD2    C5  184   0.842   3.303  14.140  0.4366 -0.2191  0.1018
   12MPD2     H  185   0.831   3.004  13.903 -2.4857  1.6168 -0.3882
   12MPD2    H1  186   0.632   3.283  14.149  0.0490  2.1679 -2.1757
   12MPD2    H2  187   1.054   3.299  14.127  0.5642 -0.4323  0.4134
   12MPD2    H3  188   0.827   3.391  14.201 -0.6249  0.1666 -0.7350
   12MPD2     N  189   0.604   3.053  13.999 -0.6564 -0.2124 -0.0036
   12MPD2    H5  190   0.614   2.980  13.930 -0.3339 -0.2329  0.0616
   12MPD2    N1  191   1.073   3.081  13.953  0.9805  0.2177  0.3893
   12MPD2    H7  192   1.072   2.996  13.899 -1.4326  1.4747 -1.5178
   13TCq1    O1  193   0.106   2.131  11.261 -0.1220  0.1006 -0.0397
   13TCq1    C1  194   0.203   2.149  11.167  0.5294  0.7811  0.4111
   13TCq1    O2  195   0.312   2.103  11.166 -0.4102  0.2584  0.6145
   13TCq1    C2  196   0.157   2.256  11.089 -0.0053 -0.0609  0.6306
   13TCq1    C3  197   0.211   2.269  10.971 -0.0923  0.0748 -0.7405
   13TCq1    C4  198   0.152   2.360  10.880  0.4911 -0.1707 -0.0875
   13TCq1    C5  199   0.047   2.440  10.919 -0.4569  0.7185  0.3073
   13TCq1    C6  200   4.713   2.417  11.043  0.0866 -0.0057 -0.5483
   13TCq1    C7  201   0.051   2.326  11.130 -0.1738 -0.7616 -0.4289
   13TCq1    C8  202   4.588   2.476  11.083  0.0382 -0.2280 -0.0494
   13TCq1    O4  203   4.571   2.484  11.204  0.1667 -0.5243 -0.0205
   13TCq1    C9  204   0.194   2.374  10.747  0.3612 -0.7799 -0.3535
   13TCq1    O5  205   0.106   2.411  10.665  0.2423 -0.3299  0.6456
   13TCq1    O6  206   0.320   2.352  10.721  0.0569  0.0645  0.9079
   13TCq1    H1  207   0.025   2.164  11.215  1.1157 -0.7192 -2.7794
   13TCq1    H2  208   0.295   2.210  10.937  0.1890  0.4534 -0.6942
   13TCq1    H3  209   0.018   2.519  10.852 -1.1497 -0.5549 -0.8830
   13TCq1    H4  210   0.018   2.331  11.233  0.1538  1.0120 -0.4061
   14MPD2     C  211   4.375   2.696  10.880  0.9437 -0.1360 -0.0425
   14MPD2    C1  212   4.415   2.635  10.997 -0.1364 -0.0664 -0.4767
   14MPD2    C2  213   4.366   2.675  11.120 -0.2529  0.1162 -0.2156
   14MPD2    C3  214   4.281   2.779  11.132 -0.6628  0.2669  0.0254
   14MPD2    C4  215   4.250   2.847  11.018 -0.7569  0.2858  0.6309
   14MPD2    C5  216   4.294   2.805  10.893  0.6337  0.0440  0.2542
   14MPD2     H  217   4.405   2.622  11.206 -2.7274  0.4541  1.0938
   14MPD2    H1  218   4.191   2.936  11.032 -1.1779  0.3388 -1.4364
   14MPD2    H2  219   4.405   2.670  10.779 -0.8768 -0.1929 -0.5531
   14MPD2    H3  220   4.272   2.858  10.801 -2.0734 -0.1341  0.8138
   14MPD2     N  221   4.233   2.827  11.253 -0.5962 -0.5667 -0.4896
   14MPD2    H5  222   4.197   2.922  11.252  2.1744  0.4911 -1.3455
   14MPD2    N1  223   4.520   2.536  10.973 -0.0338 -0.4234 -0.4878
   14MPD2    H7  224   4.552   2.526  10.877 -0.6868  1.5973 -0.9143
   15TCq1    O1  225   1.017   2.184   2.437  0.0305 -0.5664 -0.2738
   15TCq1    C1  226   1.077   2.149   2.318 -0.2032  0.0513 -0.5176
   15TCq1    O2  227   1.112   2.036   2.284  0.8337  0.4782  0.0012
   15TCq1    C2  228   1.051   2.257   2.220 -0.2517  0.1549 -0.6445
   15TCq1    C3  229   0.959   2.357   2.242 -0.5676  0.6200 -0.1445
   15TCq1    C4  230   0.962   2.462   2.163  0.8062  0.5042  0.7017
   15TCq1    C5  231   1.042   2.471   2.054  0.1136  0.0625  0.3121
   15TCq1    C6  232   1.138   2.366   2.039 -0.1196 -0.0327 -0.4304
   15TCq1    C7  233   1.133   2.257   2.117 -0.1436  0.4356 -0.3701
   15TCq1    C8  234   1.241   2.357   1.931  0.0302  0.1268  0.5666
   15TCq1    O4  235   1.293   2.247   1.929  0.2044 -0.5169  0.5186
   15TCq1    C9  236   0.861   2.558   2.186 -0.1734 -0.9375  0.2422
   15TCq1    O5  237   0.834   2.637   2.096  0.3206  0.4654 -0.4978
   15TCq1    O6  238   0.813   2.567   2.297 -0.2091 -0.2328  0.2102
   15TCq1    H1  239   0.998   2.279   2.453 -1.2662 -1.2970  2.5255
   15TCq1    H2  240   0.895   2.357   2.329  1.2897  1.1061  1.2191
   15TCq1    H3  241   1.046   2.566   2.001  1.5784 -0.0342  0.2480
   15TCq1    H4  242   1.197   2.169   2.116  1.6113  1.6982  1.0092
   16MPD2     C  243   1.268   2.594   1.656 -0.1285  0.0438 -0.0734
   16MPD2    C1  244   1.302   2.479   1.728 -0.7593 -1.0298  0.5375
   16MPD2    C2  245   1.397   2.387   1.675 -0.5371  0.6181  0.2138
   16MPD2    C3  246   1.450   2.409   1.547  0.4893  0.1508 -0.0807
   16MPD2    C4  247   1.413   2.521   1.477  0.2216  0.2999 -0.0223
   16MPD2    C5  248   1.325   2.613   1.533  0.6324 -0.3523 -0.0946
   16MPD2     H  249   1.436   2.308   1.738  0.4336  1.1189  0.2426
   16MPD2    H1  250   1.430   2.545   1.373 -1.4223 -0.4869 -0.4893
   16MPD2    H2  251   1.211   2.675   1.698 -2.3415 -1.5751  0.0293
   16MPD2    H3  252   1.299   2.702   1.478 -0.9775 -0.6878  0.1196
   16MPD2     N  253   1.534   2.313   1.491  0.2076  0.4284 -0.3846
   16MPD2    H5  254   1.566   2.235   1.548 -1.9349  0.8663  1.4115
   16MPD2    N1  255   1.232   2.461   1.844  0.9350 -0.0191  0.3017
   16MPD2    H7  256   1.177   2.544   1.862  1.3299  0.5331 -1.0282
   17TCq1    O1  257   4.182   2.240  10.681 -0.1317 -0.1623  0.1000
   17TCq1    C1  258   4.294   2.314  10.661 -0.9125 -0.4051 -0.2142
   17TCq1    O2  259   4.363   2.308  10.557  0.2439 -0.2145  0.4379
   17TCq1    C2  260   4.356   2.291  10.793  0.6286  0.3516  0.4017
   17TCq1    C3  261   4.293   2.318  10.908 -0.2126 -0.3544  0.0300
   17TCq1    C4  262   4.326   2.258  11.028  0.6621 -0.3126  0.8408
   17TCq1    C5  263   4.435   2.172  11.032 -0.0823 -0.4136 -0.7121
   17TCq1    C6  264   4.502   2.153  10.913 -0.3995  0.0766  0.7603
   17TCq1    C7  265   4.468   2.218  10.795 -0.3836 -0.0119 -0.1379
   17TCq1    C8  266   4.621   2.066  10.920  0.5780  0.6659 -0.7179
   17TCq1    O4  267   4.662   2.039  11.036  0.2530  0.5451  0.1376
   17TCq1    C9  268   4.236   2.275  11.138 -0.5812 -0.3976  0.1342
   17TCq1    O5  269   4.287   2.247  11.249  0.0193 -0.0461 -0.2124
   17TCq1    O6  270   4.111   2.304  11.115  0.2271 -0.6023 -0.3178
   17TCq1    H1  271   4.132   2.278  10.756  0.7187  1.3921 -0.1374
   17TCq1    H2  272   4.200   2.374  10.906 -0.2583 -0.4643 -0.6873
   17TCq1    H3  273   4.460   2.116  11.122 -0.7042  1.9888  0.9505
   17TCq1    H4  274   4.507   2.180  10.701 -1.9254 -0.5499 -0.5518
   18MPD2     C  275   0.171   1.920  10.862 -0.2433  1.3268  0.0793
   18MPD2    C1  276   0.089   1.985  10.771 -0.3424  0.5957  0.2056
   18MPD2    C2  277   0.131   1.992  10.642  0.0055 -0.2146 -0.0015
   18MPD2    C3  278   0.254   1.945  10.608  0.5290  0.2580  0.0167
   18MPD2    C4  279   0.332   1.887  10.698 -1.1279  0.1839  0.9991
   18MPD2    C5  280   0.295   1.875  10.829  0.2457  0.2801  0.3514
   18MPD2     H  281   0.056   2.033  10.575  0.7622  1.0723 -0.0474
   18MPD2    H1  282   0.433   1.856  10.675 -1.5585 -0.2976 -0.2353
   18MPD2    H2  283   0.144   1.905  10.966  1.9815  1.1196  0.6196
   18MPD2    H3  284   0.360   1.831  10.903  1.7082  0.7596 -0.6429
   18MPD2     N  285   0.303   1.954  10.476 -0.7668  0.6130 -0.1148
   18MPD2    H5  286   0.400   1.927  10.467 -1.3363 -0.4871 -2.9122
   18MPD2    N1  287   4.683   2.045  10.800 -0.7764 -0.5272 -0.2590
   18MPD2    H7  288   4.638   2.089  10.720 -0.0075  0.4495 -0.1643
   19TMC2    C1  289   1.273   2.575  13.268 -0.6261  0.8503 -0.3280
   19TMC2    C2  290   1.190   2.614  13.166  0.0497 -0.8443  0.3946
   19TMC2    C3  291   1.060   2.582  13.175  0.2188 -0.3754  0.7343
   19TMC2    C4  292   1.227   2.503  13.373 -1.4443  0.2410  0.4936
   19TMC2    C5  293   1.088   2.490  13.392  0.4792 -0.3523  0.1021
   19TMC2    C6  294   1.008   2.527  13.294 -0.5052  0.5292  0.3291
   19TMC2     C  295   1.413   2.610  13.258  0.0511 -0.2637 -0.3789
   19TMC2     O  296   1.447   2.637  13.144 -0.1254 -0.7322 -0.0510
   19TMC2     H  297   1.225   2.677  13.085 -2.2504 -0.2325 -0.1248
   19TMC2    H1  298   1.298   2.464  13.445 -2.8632 -2.1540  0.5854
   19TMC2    H2  299   0.904   2.494  13.292  0.0559 -1.3147  1.1582
   19TMC2    C7  300   1.038   2.447  13.521  0.2269  0.3389  0.5751
   19TMC2    C8  301   0.972   2.646  13.090 -0.2322 -0.3070 -0.7940
   19TMC2    O1  302   0.918   2.408  13.519  0.1948  0.4933 -0.7361
   19TMC2    O2  303   0.988   2.656  12.969 -0.6292 -0.1832  0.0480
   19TMC2    O5  304   0.881   2.698  13.169 -0.1869 -0.0820  0.3119
   19TMC2    H5  305   0.909   2.692  13.263 -1.0112  1.5830  0.6816
   20MPD2     C  306   1.711   2.635  13.293 -0.0250 -0.0925  0.0243
   20MPD2    C1  307   1.619   2.623  13.395  0.5794  0.0993  0.6262
   20MPD2    C2  308   1.670   2.616  13.528  0.5205 -0.4397 -0.4444
   20MPD2    C3  309   1.811   2.633  13.558 -0.5552  0.0119  0.2290
   20MPD2    C4  310   1.896   2.645  13.450  1.1407 -0.2835  0.6251
   20MPD2    C5  311   1.842   2.658  13.325  0.1651 -0.2146  0.4473
   20MPD2     H  312   1.601   2.618  13.611 -0.7175 -0.8995 -1.4663
   20MPD2    H1  313   2.004   2.638  13.444  1.1024  0.5864 -1.0882
   20MPD2    H2  314   1.678   2.630  13.190  1.1260  1.7576 -0.4257
   20MPD2    H3  315   1.913   2.665  13.244  0.3984  1.5061  0.8059
   20MPD2     N  316   1.863   2.638  13.689 -0.1359  0.0443  0.3080
   20MPD2    H5  317   1.962   2.657  13.694 -0.5746  1.9795  1.6526
   20MPD2    N1  318   1.479   2.620  13.380 -0.6053  0.0610  0.2866
   20MPD2    H7  319   1.424   2.626  13.465 -0.7389  1.9904  0.0805
   21MPD2     C  320   4.489   3.858  14.497 -0.5030  1.0020 -0.0426
   21MPD2    C1  321   4.487   3.728  14.468  0.0890  0.3220  0.8525
   21MPD2    C2  322   4.367   3.658  14.465 -0.1249  0.8501  0.8638
   21MPD2    C3  323   4.246   3.720  14.478 -0.1306 -0.3491 -0.3179
   21MPD2    C4  324   4.251   3.855  14.493 -0.5569  0.3111 -0.0926
   21MPD2    C5  325   4.369   3.921  14.513  0.0218  0.2832 -0.1641
   21MPD2     H  326   4.368   3.550  14.455  3.2332  0.9220  0.4317
   21MPD2    H1  327   4.156   3.907  14.485 -0.2484  0.3960 -2.9688
   21MPD2    H2  328   4.576   3.922  14.505  0.5199 -0.3801 -0.2230
   21MPD2    H3  329   4.375   4.028  14.530  1.6366  0.3491 -1.0873
   21MPD2     N  330   4.117   3.660  14.477 -0.5262 -0.1061  0.2202
   21MPD2    H5  331   4.041   3.727  14.477 -0.1509  0.3297  0.8052
   21MPD2    N1  332   4.596   3.671  14.407 -0.2896 -0.2706  0.0396
   21MPD2    H7  333   4.571   3.580  14.371  0.4974  0.4261 -2.2314
   22TCq2    C1  334   4.087   3.526  14.471 -0.1757 -0.2617  0.2105
   22TCq2    O2  335   4.170   3.438  14.443  0.0629  0.0813 -0.0606
   22TCq2    C2  336   3.944   3.495  14.471 -0.6505  0.2262  0.4108
   22TCq2    C3  337   3.894   3.417  14.377  1.1089  0.1295  0.4361
   22TCq2    C4  338   3.761   3.418  14.340  0.0885  0.3692 -0.2576
   22TCq2    C5  339   3.676   3.516  14.391  0.9021 -0.6963  0.4122
   22TCq2    C6  340   3.727   3.611  14.479  0.0733  0.1983 -0.2153
   22TCq2    C7  341   3.865   3.599  14.521  1.3078  0.6080  0.4054
   22TCq2    C8  342   3.646   3.716  14.540  0.6097 -0.0982 -0.2812
   22TCq2    O4  343   3.698   3.797  14.617  0.6253  0.9787  0.1256
   22TCq2    C9  344   3.710   3.319  14.252 -0.0310 -0.1409 -0.8959
   22TCq2    O5  345   3.796   3.238  14.208  0.1204  0.0768  0.6637
   22TCq2    O6  346   3.589   3.316  14.225 -0.4405 -0.2415  0.0085
   22TCq2    H2  347   3.956   3.347  14.322  1.5582  0.3647  0.6391
   22TCq2    H3  348   3.569   3.503  14.375  0.4501  0.7911  2.2029
   22TCq2    H4  349   3.888   3.659  14.609 -1.4338 -0.5374  1.8966
   23MPD2     C  350   0.982   0.240  14.715 -0.0489 -0.3041 -0.1627
   23MPD2    C1  351   0.949   0.128  14.787  0.2787 -0.1734 -0.0942
   23MPD2    C2  352   0.816   0.084  14.767  0.5700  0.7775  0.7086
   23MPD2    C3  353   0.742   0.136  14.659 -0.0650 -0.7578 -0.4398
   23MPD2    C4  354   0.793   0.221  14.567  0.1908 -0.5063 -0.1231
   23MPD2    C5  355   0.908   0.280  14.605  0.6490 -0.7439  0.3808
   23MPD2     H  356   0.779   0.005  14.831 -1.6428  0.3120 -1.1626
   23MPD2    H1  357   0.736   0.265  14.485  0.7392 -0.4203 -0.4638
   23MPD2    H2  358   1.063   0.303  14.750  0.0216 -1.2750  1.4090
   23MPD2    H3  359   0.955   0.348  14.535  0.8644 -0.7308  0.5398
   23MPD2     N  360   0.613   0.093  14.628  0.0964 -0.4538 -0.2440
   23MPD2    H5  361   0.576   0.144  14.548  2.0321  1.9502  0.3808
   23MPD2    N1  362   1.028   0.075  14.886 -0.4491 -0.7327 -0.5613
   23MPD2    H7  363   1.118   0.121  14.896 -0.4098 -0.1756 -3.6207
   24TCq2    C1  364   0.555   4.706  14.672  0.4750 -0.2555 -0.5115
   24TCq2    O2  365   0.589   4.626  14.755  1.0067  0.1440 -0.2709
   24TCq2    C2  366   0.425   4.689  14.606  0.4601 -0.3821  0.1629
   24TCq2    C3  367   0.376   0.059  14.514 -0.0142 -0.4222 -0.1271
   24TCq2    C4  368   0.247   0.036  14.459 -0.5781 -0.0480 -0.3005
   24TCq2    C5  369   0.174   4.654  14.497 -0.3148 -0.6841  0.7601
   24TCq2    C6  370   0.219   4.569  14.593 -0.7556  0.1832 -0.5221
   24TCq2    C7  371   0.348   4.583  14.646  0.9828 -0.6254 -0.1919
   24TCq2    C8  372   0.154   4.444  14.612 -0.9556  0.6840 -1.0254
   24TCq2    O4  373   0.236   4.356  14.652  0.1296 -0.6558 -0.2071
   24TCq2    C9  374   0.186   0.137  14.376 -0.3471 -1.4592  1.1905
   24TCq2    O5  375   0.259   0.228  14.332 -0.1837 -0.7054  0.1539
   24TCq2    O6  376   0.072   0.119  14.329  1.1324 -0.2154 -0.3619
   24TCq2    H2  377   0.423   0.154  14.493 -0.3065  0.1633  1.8926
   24TCq2    H3  378   0.076   4.651  14.451  0.1258 -1.9082 -0.1058
   24TCq2    H4  379   0.388   4.513  14.718  0.1713 -0.7132  0.1654
   25TMC2    C1  380   3.599   1.373  11.368  0.3322 -0.0914 -0.4576
   25TMC2    C2  381   3.463   1.378  11.383 -0.4732 -0.1726  0.2702
   25TMC2    C3  382   3.410   1.443  11.494 -0.1236  0.1637 -0.2943
   25TMC2    C4  383   3.687   1.453  11.446  0.0276  0.1231 -0.0441
   25TMC2    C5  384   3.625   1.503  11.561 -0.8008 -0.1153  0.2001
   25TMC2    C6  385   3.492   1.498  11.590 -0.3814 -0.1663  0.0010
   25TMC2     C  386   3.655   1.333  11.243  0.3869 -1.0731 -0.7184
   25TMC2     O  387   3.728   1.416  11.194 -0.7050  0.6358  0.2851
   25TMC2     H  388   3.394   1.347  11.306 -1.3029  1.9511  0.1446
   25TMC2    H1  389   3.794   1.446  11.429  0.1146 -1.7312  1.1975
   25TMC2    H2  390   3.451   1.558  11.670 -2.1269 -1.5570  0.1382
   25TMC2    C7  391   3.710   1.601  11.613  0.1499  0.2700  0.5459
   25TMC2    C8  392   3.273   1.444  11.511  0.1131  0.4432  0.3294
   25TMC2    O1  393   3.790   1.650  11.537 -0.1089  0.4423  0.1670
   25TMC2    O2  394   3.209   1.529  11.576  0.0434  0.2408  0.1990
   25TMC2    O5  395   3.216   1.328  11.479 -0.4297 -0.0792 -0.8440
   25TMC2    H5  396   3.282   1.263  11.447  1.4255  0.5795  1.6478
   26MPD2     C  397   3.676   1.058  10.806  0.2952  0.3317  0.4665
   26MPD2    C1  398   3.568   1.018  10.878 -0.0430  0.2516 -0.6947
   26MPD2    C2  399   3.542   1.075  11.000 -0.5840  0.0116 -0.7643
   26MPD2    C3  400   3.626   1.171  11.053 -0.3948  0.1673  0.2979
   26MPD2    C4  401   3.733   1.214  10.971  0.4704 -0.4154  0.0827
   26MPD2    C5  402   3.768   1.152  10.853  0.2239 -0.4027 -0.2018
   26MPD2     H  403   3.459   1.037  11.059  0.7499 -1.0385  0.4347
   26MPD2    H1  404   3.798   1.295  11.003  0.1976  0.5820 -1.8696
   26MPD2    H2  405   3.694   1.020  10.707 -1.2588 -1.3418  0.8094
   26MPD2    H3  406   3.853   1.190  10.797 -0.3462 -0.1924 -0.9240
   26MPD2     N  407   3.589   1.228  11.180  0.0448 -0.4190  0.3081
   26MPD2    H5  408   3.513   1.187  11.233 -0.1305 -0.5675 -0.0585
   26MPD2    N1  409   3.492   0.919  10.820  0.2030  0.1397 -0.3315
   26MPD2    H7  410   3.521   0.890  10.727  0.0275  0.4497 -0.4841
   27TMC2    C1  411   3.011   3.779  12.069  0.2001 -0.9979 -0.9611
   27TMC2    C2  412   3.138   3.817  12.099  0.3616  0.1006  0.2041
   27TMC2    C3  413   3.172   3.951  12.098 -0.0518  1.0418 -0.1478
   27TMC2    C4  414   2.922   3.874  12.021 -0.8400 -0.0514  0.2116
   27TMC2    C5  415   2.951   4.006  12.028 -0.3415  0.4976 -0.4559
   27TMC2    C6  416   3.078   4.043  12.057 -0.1466 -0.0878  0.1778
   27TMC2     C  417   2.964   3.655  12.129  0.2954  0.6675 -0.6373
   27TMC2     O  418   3.046   3.569  12.161 -0.2328 -0.9122 -0.8190
   27TMC2     H  419   3.207   3.757  12.156 -0.7336 -1.5206 -0.1832
   27TMC2    H1  420   2.828   3.851  11.971 -0.1697 -2.8241  0.2366
   27TMC2    H2  421   3.118   4.143  12.046 -1.1423  0.5597  2.5486
   27TMC2    C7  422   2.900   4.082  11.920 -0.4134  0.0944  0.4534
   27TMC2    C8  423   3.303   3.980  12.157 -0.2992 -0.3311 -0.1973
   27TMC2    O1  424   2.873   4.026  11.816 -0.0152 -0.1648 -0.1446
   27TMC2    O2  425   3.393   3.899  12.156 -0.1034 -0.3588  0.0063
   27TMC2    O5  426   3.295   4.094  12.226  0.1576  0.0531 -0.6318
   27TMC2    H5  427   3.222   4.155  12.200  0.0617 -0.0174 -0.5275
   28MPD2     C  428   2.637   3.356  12.380  0.5089 -0.4290 -0.4065
   28MPD2    C1  429   2.577   3.478  12.370 -0.6992  0.2456 -0.0887
   28MPD2    C2  430   2.634   3.574  12.288  0.5485 -0.0892  0.3126
   28MPD2    C3  431   2.759   3.552  12.222 -0.8382  0.2147 -0.2304
   28MPD2    C4  432   2.817   3.422  12.234 -0.7389 -0.2584  0.1446
   28MPD2    C5  433   2.754   3.332  12.317 -0.8026  0.2174  0.2770
   28MPD2     H  434   2.588   3.671  12.275  0.4914 -0.1634 -0.0453
   28MPD2    H1  435   2.910   3.385  12.193  0.7802  3.1493  0.4798
   28MPD2    H2  436   2.605   3.281  12.452 -1.2292  1.4661  0.7685
   28MPD2    H3  437   2.798   3.233  12.315  0.6840  0.8548  1.3559
   28MPD2     N  438   2.827   3.660  12.157  0.3306 -0.2003  0.1302
   28MPD2    H5  439   2.778   3.749  12.156 -0.5460 -0.6787  0.6515
   28MPD2    N1  440   2.463   3.505  12.450 -0.0906  0.1167  0.2186
   28MPD2    H7  441   2.450   3.432  12.520 -2.0303  0.8582  0.6334
   29MPD2     C  442   2.685   1.192  13.890  0.9384 -1.1815  0.0604
   29MPD2    C1  443   2.804   1.198  13.955  0.1511  0.6743  0.0710
   29MPD2    C2  444   2.823   1.301  14.043  0.1923  0.5730  0.6454
   29MPD2    C3  445   2.738   1.410  14.042  0.1081  0.8156  0.2580
   29MPD2    C4  446   2.619   1.400  13.978 -0.6088  0.2607 -0.2785
   29MPD2    C5  447   2.588   1.292  13.905  0.3561  0.1392  0.1718
   29MPD2     H  448   2.917   1.301  14.097  0.6963  0.1673 -0.2231
   29MPD2    H1  449   2.545   1.480  13.970 -0.3966  0.3916 -0.9471
   29MPD2    H2  450   2.654   1.114  13.821 -0.4891 -0.2713 -0.3255
   29MPD2    H3  451   2.492   1.299  13.855  1.0441  2.6696 -0.7793
   29MPD2     N  452   2.759   1.523  14.120  0.0278 -0.2196 -0.4315
   29MPD2    H5  453   2.684   1.591  14.122  0.7805  0.5079  2.9503
   29MPD2    N1  454   2.907   1.098  13.951  0.0812 -0.0606  0.8679
   29MPD2    H7  455   2.981   1.106  14.021 -0.7617  1.1838  1.6100
   30TCq2    C1  456   2.875   1.551  14.187 -0.2163 -0.2711  0.0344
   30TCq2    O2  457   2.984   1.492  14.187  0.2377  0.2083 -0.0190
   30TCq2    C2  458   2.864   1.671  14.267  0.0116  0.2932  0.2698
   30TCq2    C3  459   2.746   1.736  14.294  0.0822 -0.1449  0.3514
   30TCq2    C4  460   2.750   1.853  14.365  0.0418 -0.0124  0.3439
   30TCq2    C5  461   2.870   1.912  14.400 -0.5766 -0.7211  0.4204
   30TCq2    C6  462   2.984   1.849  14.368  0.2213 -0.8354 -0.7585
   30TCq2    C7  463   2.988   1.728  14.304  0.0923 -0.6737 -0.4211
   30TCq2    C8  464   3.110   1.872  14.439  0.4522  0.2222 -0.4934
   30TCq2    O4  465   3.198   1.785  14.433 -0.0562 -0.6571 -0.4655
   30TCq2    C9  466   2.638   1.943  14.366  0.0365 -0.5911 -0.5304
   30TCq2    O5  467   2.546   1.919  14.286 -0.5437  0.4777  0.6239
   30TCq2    O6  468   2.643   2.047  14.440  0.1446  0.0694 -0.1339
   30TCq2    H2  469   2.649   1.705  14.256  0.3468 -0.4891 -0.0373
   30TCq2    H3  470   2.871   2.013  14.440 -0.7479 -0.4260 -0.3302
   30TCq2    H4  471   3.080   1.680  14.273  0.0344 -0.7185 -0.5255
   31MPD2     C  472   0.467   0.834  14.893  0.3237  0.0321 -0.1987
   31MPD2    C1  473   0.376   0.796  14.801  0.4774 -0.0744 -0.2383
   31MPD2    C2  474   0.280   0.698  14.840  0.0621  0.3084  0.7457
   31MPD2    C3  475   0.284   0.651  14.974  0.7074  0.2117  0.5283
   31MPD2    C4  476   0.388   0.686  15.061 -0.4026  0.1631 -0.2211
   31MPD2    C5  477   0.481   0.775  15.014 -0.5203  0.1080  0.7382
   31MPD2     H  478   0.201   0.668  14.772 -0.2324 -0.3487  1.3815
   31MPD2    H1  479   0.389   0.646  15.162  0.7787 -1.3600 -0.8361
   31MPD2    H2  480   0.549   0.899  14.865  0.3752 -0.6344 -1.6270
   31MPD2    H3  481   0.555   0.816  15.081  0.6920  0.6766 -0.9579
   31MPD2     N  482   0.182   0.558  15.014 -0.8566 -0.1913  0.7346
   31MPD2    H5  483   0.179   0.541  15.114  1.5215  0.6020  0.9621
   31MPD2    N1  484   0.371   0.854  14.670  0.0089  0.2370  0.1369
   31MPD2    H7  485   0.431   0.936  14.665  1.0596 -0.2900  3.3712
   32TCq2    C1  486   0.079   0.510  14.944  0.1848  0.3117 -0.4707
   32TCq2    O2  487   0.030   0.534  14.835 -0.4394 -0.0777  0.1380
   32TCq2    C2  488   0.004   0.409  15.026 -0.2038 -0.0332 -0.0009
   32TCq2    C3  489   4.594   0.402  15.001  0.3812 -0.6064  0.0003
   32TCq2    C4  490   4.511   0.338  15.092 -0.2794  0.0829  0.4855
   32TCq2    C5  491   4.563   0.272  15.206 -0.4895  0.0207 -0.2101
   32TCq2    C6  492   4.696   0.294  15.233  0.0182  1.0427 -0.2262
   32TCq2    C7  493   0.055   0.359  15.143 -0.4715  0.1628 -0.1854
   32TCq2    C8  494   0.035   0.267  15.366 -0.2451  0.3620 -0.2147
   32TCq2    O4  495   0.157   0.255  15.370  0.0039  0.6653 -0.1546
   32TCq2    C9  496   4.364   0.339  15.077 -0.3189  0.3156  0.5518
   32TCq2    O5  497   4.327   0.417  14.985 -0.6442  0.3597  0.4529
   32TCq2    O6  498   4.288   0.298  15.167  0.0464  0.3318  0.3716
   32TCq2    H2  499   4.551   0.441  14.909  1.3874 -1.3832 -0.7896
   32TCq2    H3  500   4.499   0.220  15.277 -2.9437  2.1782 -0.8242
   32TCq2    H4  501   0.162   0.360  15.161 -0.5395 -3.1450  0.5637
   33MPD2     C  502   0.063   1.908   9.696 -0.5298  0.0146 -0.2066
   33MPD2    C1  503   0.124   2.027   9.731 -0.1843  0.0709 -0.3323
   33MPD2    C2  504   0.130   2.127   9.636 -0.8031  0.3196 -1.2701
   33MPD2    C3  505   0.081   2.118   9.511 -1.0224  0.9573  0.6691
   33MPD2    C4  506   0.001   2.002   9.480 -0.6005  0.3420  0.1029
   33MPD2    C5  507   4.718   1.902   9.575 -0.1900  0.6775 -0.1047
   33MPD2     H  508   0.193   2.213   9.656 -0.4511 -0.5589  1.3786
   33MPD2    H1  509   4.682   1.983   9.381 -3.8534  0.5054  1.3909
   33MPD2    H2  510   0.059   1.812   9.745 -1.1137  1.2908  2.2052
   33MPD2    H3  511   4.682   1.807   9.539  0.2042  0.6216 -0.3624
   33MPD2     N  512   0.097   2.209   9.405 -0.0873  0.0307  0.2322
   33MPD2    H5  513   0.036   2.193   9.325  0.1628  1.2697 -0.2029
   33MPD2    N1  514   0.183   2.038   9.858  0.3423 -0.4058 -0.1155
   33MPD2    H7  515   0.167   1.965   9.927 -0.0558 -0.9071 -0.7381
   34TCq2    C1  516   0.162   2.334   9.415  0.1605 -0.9041  0.7343
   34TCq2    O2  517   0.230   2.378   9.506 -0.1425 -0.7020 -0.0622
   34TCq2    C2  518   0.154   2.416   9.293 -0.2223 -0.0601  0.3590
   34TCq2    C3  519   0.134   2.360   9.170  0.2718  0.2183  0.2794
   34TCq2    C4  520   0.130   2.439   9.060  0.3272 -0.8682 -0.7849
   34TCq2    C5  521   0.152   2.577   9.066 -0.1999  0.3302  0.6455
   34TCq2    C6  522   0.199   2.621   9.192  0.6324 -0.9225  0.3554
   34TCq2    C7  523   0.184   2.547   9.306 -0.0348 -0.1907  0.1573
   34TCq2    C8  524   0.231   2.763   9.212  0.4685  0.7183  0.1063
   34TCq2    O4  525   0.205   2.806   9.322  0.4069  0.6764  0.6345
   34TCq2    C9  526   0.139   2.369   8.931  1.0797 -0.0761 -0.5566
   34TCq2    O5  527   0.104   2.433   8.828  0.7883 -0.7508  0.6934
   34TCq2    O6  528   0.138   2.242   8.935  0.3547  0.1297  0.4272
   34TCq2    H2  529   0.111   2.255   9.157 -1.0358  0.5070  0.2785
   34TCq2    H3  530   0.165   2.638   8.978 -1.1527 -0.0091  0.2697
   34TCq2    H4  531   0.207   2.595   9.400 -0.6701 -0.1170  0.2745
   35MPD2     C  532   2.084   4.087  12.027 -0.7654  0.5515  0.1499
   35MPD2    C1  533   1.986   4.011  11.982 -0.4754  0.0757  0.2214
   35MPD2    C2  534   1.919   4.050  11.867  0.1671 -0.7914 -0.1241
   35MPD2    C3  535   1.944   4.173  11.814  0.2082 -0.1350  0.8936
   35MPD2    C4  536   2.054   4.248  11.863  0.1029  0.2452  0.5913
   35MPD2    C5  537   2.127   4.203  11.976 -0.3854  0.0903 -0.0093
   35MPD2     H  538   1.826   4.002  11.839 -0.0755 -0.0484 -0.6079
   35MPD2    H1  539   2.069   4.347  11.822 -1.1751  0.5503  0.8566
   35MPD2    H2  540   2.148   4.045  12.104 -0.4737 -0.9132 -0.8910
   35MPD2    H3  541   2.211   4.258  12.018  0.3394  1.1839 -2.8616
   35MPD2     N  542   1.879   4.213  11.697  0.1074  0.6518 -0.0851
   35MPD2    H5  543   1.807   4.150  11.665  1.9267 -0.6198 -1.6250
   35MPD2    N1  544   1.948   3.893  12.051 -0.0526  0.0890 -0.3688
   35MPD2    H7  545   2.005   3.863  12.129 -0.9802  1.4051  0.8330
   36TCq2    C1  546   1.877   4.333  11.629 -0.3313 -0.5651 -0.2522
   36TCq2    O2  547   1.936   4.440  11.659 -0.1111  0.4324 -0.2869
   36TCq2    C2  548   1.777   4.339  11.521 -0.5423  0.4822 -0.3127
   36TCq2    C3  549   1.770   4.452  11.439 -0.0759  0.3101  0.5969
   36TCq2    C4  550   1.691   4.467  11.331  0.3012 -1.0127  0.5829
   36TCq2    C5  551   1.595   4.369  11.301 -0.0881  0.2002  0.2433
   36TCq2    C6  552   1.608   4.251  11.379 -0.4671  0.4592 -0.6108
   36TCq2    C7  553   1.686   4.238  11.494  0.5436  0.4848 -0.0488
   36TCq2    C8  554   1.523   4.141  11.340 -0.2345 -0.4994 -0.7294
   36TCq2    O4  555   1.560   4.033  11.391  0.4178  0.2627  0.0521
   36TCq2    C9  556   1.696   4.594  11.260  0.1252 -0.5075 -0.1767
   36TCq2    O5  557   1.806   4.654  11.254  0.0863 -0.3119  0.2158
   36TCq2    O6  558   1.588   4.637  11.211  0.0501  0.6797 -0.0961
   36TCq2    H2  559   1.847   4.527  11.450 -0.0692  0.4655 -0.5515
   36TCq2    H3  560   1.549   4.375  11.203  0.9877 -1.2598 -0.3618
   36TCq2    H4  561   1.685   4.147  11.552  0.8207 -0.2685 -1.2351
   37TMC2    C1  562   4.048   4.186  11.304 -0.1159 -0.4305  0.7292
   37TMC2    C2  563   4.077   4.058  11.263  0.4675 -0.2281 -0.4497
   37TMC2    C3  564   4.209   4.031  11.248  0.0360 -0.5584  0.6650
   37TMC2    C4  565   4.145   4.276  11.345  0.4225 -0.0197 -0.3921
   37TMC2    C5  566   4.277   4.250  11.317  0.0386  0.5083  0.0743
   37TMC2    C6  567   4.309   4.128  11.267 -0.3398 -0.1462  0.5490
   37TMC2     C  568   3.909   4.200  11.360 -0.3034  0.1023 -0.0417
   37TMC2     O  569   3.829   4.117  11.323 -0.3538 -0.1214 -1.0334
   37TMC2     H  570   4.007   3.977  11.249 -0.3589  0.3610  0.3365
   37TMC2    H1  571   4.112   4.377  11.367  2.1884  0.2587  1.0017
   37TMC2    H2  572   4.411   4.100  11.240 -0.4550 -2.1764  2.2045
   37TMC2    C7  573   4.372   4.361  11.345 -0.3771  0.6047  0.6991
   37TMC2    C8  574   4.252   3.899  11.212  0.8825 -0.2576 -0.0975
   37TMC2    O1  575   4.323   4.467  11.372  0.8022 -0.3032 -0.4477
   37TMC2    O2  576   4.374   3.882  11.222 -0.0727  0.0983 -0.0520
   37TMC2    O5  577   4.174   3.849  11.111  0.0367 -0.2204  0.1197
   37TMC2    H5  578   4.079   3.870  11.097  0.2588  0.0945 -0.9431
   38MPD2     C  579   3.615   4.396  11.727 -0.6753  0.3705  0.3136
   38MPD2    C1  580   3.746   4.410  11.762  0.2436  0.1487  1.1376
   38MPD2    C2  581   3.842   4.357  11.681 -0.5558 -0.2590 -0.8206
   38MPD2    C3  582   3.808   4.302  11.562  0.1958  1.3192  0.1026
   38MPD2    C4  583   3.674   4.280  11.528  0.3235  0.3329 -0.0422
   38MPD2    C5  584   3.582   4.326  11.619 -0.1616  0.2550  0.6108
   38MPD2     H  585   3.947   4.363  11.706 -0.7171  0.9713 -0.4175
   38MPD2    H1  586   3.648   4.212  11.447 -0.0449  0.0219  0.3390
   38MPD2    H2  587   3.533   4.438  11.784 -0.6435  0.2024  0.4861
   38MPD2    H3  588   3.477   4.319  11.590  0.2467  0.8679 -1.0540
   38MPD2     N  589   3.918   4.263  11.480  0.0538  0.1107 -0.0503
   38MPD2    H5  590   4.012   4.292  11.503  0.3509  1.6838 -3.2611
   38MPD2    N1  591   3.783   4.472  11.876 -0.1514 -0.2883  0.0009
   38MPD2    H7  592   3.883   4.488  11.887 -0.3487 -0.7810  2.5947
   39MPD2     C  593   1.908   1.600   1.366  0.4656  0.5980  0.0952
   39MPD2    C1  594   1.827   1.654   1.463  0.4531 -0.9196  0.0721
   39MPD2    C2  595   1.717   1.719   1.424  0.3216  0.1588  0.0510
   39MPD2    C3  596   1.672   1.711   1.292  0.1130 -0.3390 -0.4290
   39MPD2    C4  597   1.736   1.625   1.205  0.4171  0.1505  0.8990
   39MPD2    C5  598   1.865   1.581   1.236 -0.0906 -0.1186 -0.3415
   39MPD2     H  599   1.656   1.769   1.499 -0.2782 -2.1826  1.1094
   39MPD2    H1  600   1.698   1.608   1.105 -0.7942 -0.8878  1.5398
   39MPD2    H2  601   2.003   1.552   1.388  0.7811  1.4497  0.5872
   39MPD2    H3  602   1.918   1.529   1.157 -0.0997 -1.0800  0.2808
   39MPD2     N  603   1.566   1.780   1.233 -0.2621  0.3159 -0.0384
   39MPD2    H5  604   1.541   1.746   1.141 -3.2248  0.8701  0.5559
   39MPD2    N1  605   1.880   1.641   1.595 -0.0744  0.1136 -0.5181
   39MPD2    H7  606   1.968   1.593   1.612 -0.8164 -1.2861 -0.6409
   40TCq2    C1  607   1.815   1.687   1.715 -0.7365 -0.0466 -0.1100
   40TCq2    O2  608   1.698   1.724   1.716 -0.7573 -0.1895 -0.2063
   40TCq2    C2  609   1.898   1.675   1.833 -0.2117 -0.2783  0.6015
   40TCq2    C3  610   1.833   1.627   1.944 -0.5917 -0.3102  0.1434
   40TCq2    C4  611   1.902   1.566   2.047 -0.5203 -0.3317 -1.5193
   40TCq2    C5  612   2.037   1.571   2.035  0.3013 -0.9313  0.7254
   40TCq2    C6  613   2.097   1.617   1.923 -0.0216 -0.1391  0.0404
   40TCq2    C7  614   2.033   1.668   1.821  0.1050  0.0556  0.2737
   40TCq2    C8  615   2.240   1.591   1.905 -0.0710  0.3108 -0.4311
   40TCq2    O4  616   2.284   1.585   1.792  0.2851  0.2509 -0.2371
   40TCq2    C9  617   1.838   1.517   2.164  1.0731 -0.2116 -0.3742
   40TCq2    O5  618   1.713   1.497   2.159 -0.5963  0.3181  0.4593
   40TCq2    O6  619   1.909   1.490   2.262  0.3039 -0.2760 -0.7819
   40TCq2    H2  620   1.725   1.614   1.949 -0.5848 -1.3266 -2.5359
   40TCq2    H3  621   2.094   1.508   2.103  2.8889 -0.8187 -1.3553
   40TCq2    H4  622   2.088   1.710   1.738  0.0799  0.0815  0.2706
   41TMC2    C1  623   0.460   4.253  13.976  0.0981 -0.5703  0.2722
   41TMC2    C2  624   0.332   4.211  13.971  0.8741  0.7504 -0.2615
   41TMC2    C3  625   0.249   4.280  13.890 -0.5477 -0.5669  0.0060
   41TMC2    C4  626   0.510   4.362  13.910 -0.6783 -0.2755 -1.3125
   41TMC2    C5  627   0.431   4.415  13.818  0.1838  0.1078 -0.4077
   41TMC2    C6  628   0.301   4.381  13.802 -1.2157  0.1719  0.3206
   41TMC2     C  629   0.536   4.159  14.052 -0.1945 -1.0601 -1.0350
   41TMC2     O  630   0.481   4.083  14.133 -0.6132 -0.0912 -0.9741
   41TMC2     H  631   0.283   4.132  14.025  1.2574  1.1458  0.6610
   41TMC2    H1  632   0.613   4.391  13.925 -0.6259 -0.8571 -0.5592
   41TMC2    H2  633   0.237   4.415  13.722 -0.2271  1.4249  0.0704
   41TMC2    C7  634   0.479   4.493  13.704  0.8809 -0.8243  0.3309
   41TMC2    C8  635   0.143   4.197  13.831 -0.0892  0.7154 -0.3299
   41TMC2    O1  636   0.404   4.580  13.660  0.3107 -0.3647 -0.0653
   41TMC2    O2  637   0.174   4.080  13.805  0.1146 -0.0302  0.5870
   41TMC2    O5  638   0.063   4.276  13.763 -0.0137  0.2236 -0.2663
   41TMC2    H5  639   0.065   4.371  13.789 -0.7970 -0.0973  0.9204
   42MPD2     C  640   0.764   4.041  14.230  0.1636 -0.6284  0.1647
   42MPD2    C1  641   0.782   4.111  14.105 -0.2302  0.4898  0.5681
   42MPD2    C2  642   0.916   4.138  14.069 -0.8157  0.7941  0.4792
   42MPD2    C3  643   1.016   4.093  14.155 -0.3979  0.2379 -0.2651
   42MPD2    C4  644   0.996   4.024  14.271  0.1061  0.6044 -0.3148
   42MPD2    C5  645   0.866   4.001  14.308  0.6586 -0.2344 -0.0080
   42MPD2     H  646   0.939   4.198  13.982 -1.3206 -1.9258 -1.4991
   42MPD2    H1  647   1.067   3.982  14.341  0.3587  1.4653 -0.0619
   42MPD2    H2  648   0.667   4.007  14.264 -0.2487 -0.9329 -1.3179
   42MPD2    H3  649   0.842   3.940  14.395 -1.5445  0.5402 -0.0526
   42MPD2     N  650   1.157   4.110  14.124 -0.0224  0.0472 -0.4155
   42MPD2    H5  651   1.212   4.071  14.201 -0.6701  1.5103  0.7837
   42MPD2    N1  652   0.673   4.165  14.029  0.1043  0.2232  0.2423
   42MPD2    H7  653   0.692   4.211  13.941  0.0502  2.4284  1.3721
   43MPD2     C  654   2.085   2.741   1.104  0.0638  0.0119 -0.2128
   43MPD2    C1  655   2.197   2.650   1.114  0.0267 -0.1332  0.0338
   43MPD2    C2  656   2.243   2.627   1.245  0.2104 -0.3355 -1.2086
   43MPD2    C3  657   2.188   2.690   1.356 -0.0592  0.4393 -0.0923
   43MPD2    C4  658   2.086   2.779   1.346  0.6354  0.2916 -0.2904
   43MPD2    C5  659   2.033   2.800   1.220  0.3644  0.3308 -0.7147
   43MPD2     H  660   2.324   2.555   1.250 -0.7070 -1.1939  1.5532
   43MPD2    H1  661   2.047   2.831   1.433 -0.1906 -1.1609  0.2203
   43MPD2    H2  662   2.040   2.778   1.012  0.3661  0.6811 -0.0889
   43MPD2    H3  663   1.949   2.865   1.201  0.7932  0.3287 -2.6315
   43MPD2     N  664   2.235   2.672   1.487 -0.6573  0.1532  0.1883
   43MPD2    H5  665   2.173   2.704   1.561 -0.5490 -1.1215  0.8257
   43MPD2    N1  666   2.258   2.582   0.999  0.0528  0.6263 -0.4502
   43MPD2    H7  667   2.336   2.519   1.012 -0.5337 -0.1682 -0.7570
   44TCq2    C1  668   2.324   2.296   1.912  0.0118  0.4930  1.0260
   44TCq2    O2  669   2.417   2.230   1.873  0.1840 -0.8616  0.1281
   44TCq2    C2  670   2.302   2.423   1.860 -0.4769 -0.0385  0.0138
   44TCq2    C3  671   2.243   2.513   1.941  0.2880 -0.6865 -0.5821
   44TCq2    C4  672   2.238   2.640   1.891  0.2775  0.7110 -0.2221
   44TCq2    C5  673   2.277   2.672   1.761 -0.1031 -0.4252  0.1278
   44TCq2    C6  674   2.328   2.575   1.683  0.0376  0.5508  0.7562
   44TCq2    C7  675   2.342   2.445   1.731 -0.6601  0.2068 -0.1978
   44TCq2    C8  676   2.323   2.585   1.538 -0.1639 -0.5683 -0.0684
   44TCq2    O4  677   2.408   2.524   1.480  0.1708 -0.9904  0.2370
   44TCq2    C9  678   2.177   2.746   1.971 -0.2638  0.3160  0.0424
   44TCq2    O5  679   2.138   2.853   1.914  0.0275 -0.6301 -0.0510
   44TCq2    O6  680   2.153   2.715   2.090  0.0522  0.1814  0.1528
   44TCq2    H2  681   2.212   2.492   2.043 -0.1181 -0.4140 -0.6502
   44TCq2    H3  682   2.265   2.778   1.738 -1.9015 -0.6673 -0.0330
   44TCq2    H4  683   2.376   2.365   1.667  2.1255  1.4771 -0.3027
   45TMC2    C1  684   3.384   3.764   9.247  0.0853 -0.0899 -0.0453
   45TMC2    C2  685   3.492   3.702   9.185 -0.2533 -0.2631 -0.6456
   45TMC2    C3  686   3.620   3.762   9.204 -0.2601  0.1376 -0.3701
   45TMC2    C4  687   3.395   3.866   9.338  0.6380  0.0073  0.7551
   45TMC2    C5  688   3.522   3.921   9.344 -0.2168 -0.0990  0.3187
   45TMC2    C6  689   3.631   3.874   9.276 -0.1399  0.0211 -0.6778
   45TMC2     C  690   3.272   3.679   9.257 -0.3889 -0.5139 -0.4276
   45TMC2     O  691   3.287   3.562   9.235  0.1377  0.1367  0.1248
   45TMC2     H  692   3.475   3.618   9.118 -0.8521 -0.2945 -0.4552
   45TMC2    H1  693   3.306   3.896   9.392  0.7007 -1.2235  1.5498
   45TMC2    H2  694   3.727   3.919   9.298  0.2403 -1.3160  0.4442
   45TMC2    C7  695   3.527   4.051   9.410  0.3635 -0.6259  0.1117
   45TMC2    C8  696   3.736   3.708   9.132 -0.2381 -0.3354 -0.3944
   45TMC2    O1  697   3.435   4.076   9.490  0.0206  0.2666  0.4966
   45TMC2    O2  698   3.851   3.707   9.172 -0.6932 -0.6064 -0.6333
   45TMC2    O5  699   3.694   3.647   9.021 -0.2674  0.2752 -0.1899
   45TMC2    H5  700   3.613   3.683   8.981 -1.2646 -0.0950  1.5161
   46MPD2     C  701   2.994   3.579   9.263  0.1047  0.6024 -0.6318
   46MPD2    C1  702   3.030   3.711   9.241  0.1622 -0.4749 -0.2966
   46MPD2    C2  703   2.932   3.809   9.232  0.4587  0.3521 -0.5468
   46MPD2    C3  704   2.798   3.765   9.249 -0.6761  0.5200 -0.7081
   46MPD2    C4  705   2.767   3.636   9.275 -0.2407 -0.6587 -0.3971
   46MPD2    C5  706   2.865   3.544   9.290 -0.4122  0.0675 -0.3326
   46MPD2     H  707   2.962   3.907   9.198 -2.7397  1.3609 -0.4145
   46MPD2    H1  708   2.665   3.600   9.285 -0.1108 -0.5037  1.5637
   46MPD2    H2  709   3.069   3.504   9.281 -1.0294 -0.8114 -1.8477
   46MPD2    H3  710   2.840   3.440   9.309 -1.5429  0.3764 -0.1155
   46MPD2     N  711   2.696   3.866   9.243  0.0957  0.6188  1.1486
   46MPD2    H5  712   2.724   3.960   9.215 -0.9776  0.1294 -1.5673
   46MPD2    N1  713   3.161   3.757   9.241  0.8771  1.1513 -0.1870
   46MPD2    H7  714   3.169   3.857   9.226 -0.1133  1.1759 -0.4734
   47TMC2    C1  715   0.985   0.056   9.471  0.0613  0.2284  0.7727
   47TMC2    C2  716   0.977   0.150   9.377 -0.6478 -0.2967 -0.4129
   47TMC2    C3  717   0.881   0.125   9.285 -0.4082  0.1300  0.5687
   47TMC2    C4  718   0.914   4.661   9.468 -0.2231 -0.0708 -0.0155
   47TMC2    C5  719   0.826   4.639   9.362 -0.3250  0.3371  0.5842
   47TMC2    C6  720   0.810   0.014   9.272 -0.0199 -0.2437 -0.1752
   47TMC2     C  721   1.065   0.095   9.580  0.0916 -0.2492 -0.9482
   47TMC2     O  722   1.087   0.215   9.596  0.5955 -0.4520  0.4667
   47TMC2     H  723   1.027   0.246   9.372  2.2087 -1.7230  0.5713
   47TMC2    H1  724   0.925   4.576   9.536  1.5582  0.7152  0.6826
   47TMC2    H2  725   0.765   4.706   9.178  0.5696 -0.2995 -0.4381
   47TMC2    C7  726   0.712   4.554   9.391  0.1652 -0.3109 -0.0438
   47TMC2    C8  727   0.897   0.203   9.167  0.0687 -0.6077 -0.1343
   47TMC2    O1  728   0.721   4.481   9.487  0.4289 -0.1414  0.3279
   47TMC2    O2  729   0.983   0.281   9.154  0.0044 -0.6479 -0.4129
   47TMC2    O5  730   0.778   0.250   9.144  0.6579 -0.3230 -0.2170
   47TMC2    H5  731   0.700   0.196   9.169  0.9624 -1.0111 -0.7667
   48MPD2     C  732   1.211   0.112   9.853  0.0192  0.1958 -0.1716
   48MPD2    C1  733   1.157   4.717   9.789 -0.5841  0.6231  0.7414
   48MPD2    C2  734   1.164   4.600   9.855  0.3926  0.7395 -0.0191
   48MPD2    C3  735   1.208   4.592   9.986  0.4752 -0.2359  0.5528
   48MPD2    C4  736   1.256   4.705  10.049  0.3353 -0.2707  0.3383
   48MPD2    C5  737   1.262   0.104   9.981  0.5418  0.0524 -0.5944
   48MPD2     H  738   1.131   4.506   9.811 -1.3018  1.1254  0.4195
   48MPD2    H1  739   1.280   4.711  10.155 -0.6351 -0.1848  0.5602
   48MPD2    H2  740   1.201   0.209   9.806  0.9869 -0.1946 -1.1863
   48MPD2    H3  741   1.296   0.195  10.029  1.3841 -0.4473 -0.2463
   48MPD2     N  742   1.199   4.457  10.043  0.0660  0.2461 -0.9545
   48MPD2    H5  743   1.156   4.389   9.981  1.1315 -0.5529 -0.8248
   48MPD2    N1  744   1.092   4.713   9.667 -0.5238  0.3370 -0.1855
   48MPD2    H7  745   1.073   4.619   9.634  2.1361 -0.8405  1.6111
   49MPD2     C  746   4.583   1.708  10.157 -0.0913 -0.7784  0.1421
   49MPD2    C1  747   4.597   1.823  10.235  0.4388 -0.1052  0.1132
   49MPD2    C2  748   4.607   1.817  10.377  0.7159  0.4357 -0.8895
   49MPD2    C3  749   4.580   1.693  10.433  0.1689 -0.4924 -0.0459
   49MPD2    C4  750   4.581   1.577  10.353  0.9601  0.0442 -0.1433
   49MPD2    C5  751   4.578   1.586  10.215 -0.1056  0.2707  0.4638
   49MPD2     H  752   4.638   1.902  10.436 -1.3149  0.5798  0.0018
   49MPD2    H1  753   4.561   1.479  10.395  1.6115  0.1126  0.3332
   49MPD2    H2  754   4.562   1.724  10.052 -1.7535  0.6523  0.7005
   49MPD2    H3  755   4.569   1.493  10.161  1.5695  0.1426  0.4221
   49MPD2     N  756   4.552   1.680  10.569  0.3619  0.3244 -0.4194
   49MPD2    H5  757   4.534   1.584  10.598  0.3665  0.6360  0.5928
   49MPD2    N1  758   4.590   1.949  10.182 -0.1281 -0.4326 -0.0516
   49MPD2    H7  759   4.585   2.023  10.252 -1.0454  0.7613 -1.3679
   50TCq2    C1  760   4.571   1.984  10.052 -0.5498 -0.1636 -0.1436
   50TCq2    O2  761   4.531   1.924   9.956  0.0871 -0.0594 -0.2357
   50TCq2    C2  762   4.597   2.125  10.029 -0.1472 -0.6356 -0.1523
   50TCq2    C3  763   4.662   2.203  10.122 -0.3166  0.2044  0.3360
   50TCq2    C4  764   4.706   2.327  10.083  0.0674  0.4282  0.1131
   50TCq2    C5  765   4.699   2.369   9.956  0.0166  0.7837 -0.4286
   50TCq2    C6  766   4.645   2.281   9.865  0.2870  0.2976  0.0419
   50TCq2    C7  767   4.593   2.158   9.904 -0.3808 -0.3884  0.0611
   50TCq2    C8  768   4.578   2.336   9.740  0.1388  0.1195  0.1282
   50TCq2    O4  769   4.482   2.288   9.683  0.1536 -0.1208  0.3468
   50TCq2    C9  770   0.049   2.407  10.181 -0.4242 -0.2541 -0.2397
   50TCq2    O5  771   0.107   2.507  10.137 -0.2246  0.2882 -0.1728
   50TCq2    O6  772   0.043   2.381  10.304 -0.4738  0.3240  0.3895
   50TCq2    H2  773   4.685   2.171  10.223 -0.6859  2.2207  1.0765
   50TCq2    H3  774   0.005   2.472   9.937  0.2568  0.6390 -0.8747
   50TCq2    H4  775   4.534   2.100   9.834 -0.3666 -0.2789 -0.0435
   51MPD2     C  776   4.083   1.984   0.435 -0.1839  0.1396 -0.0338
   51MPD2    C1  777   4.099   1.860   0.483  0.4774 -0.6213 -0.3116
   51MPD2    C2  778   4.209   1.825   0.560 -0.1603  0.6721  0.6772
   51MPD2    C3  779   4.297   1.924   0.602  0.1767  0.9631  0.2917
   51MPD2    C4  780   4.273   2.057   0.564 -0.1226  0.2610  0.3265
   51MPD2    C5  781   4.169   2.082   0.479  0.2050  0.4490  0.2251
   51MPD2     H  782   4.224   1.725   0.599 -0.1050  0.2044 -0.5354
   51MPD2    H1  783   4.334   2.138   0.603 -0.8953  0.7774  0.4510
   51MPD2    H2  784   4.015   2.002   0.353  1.5568  2.1215 -1.0661
   51MPD2    H3  785   4.152   2.183   0.444  0.8303  0.6301  0.4311
   51MPD2     N  786   4.401   1.894   0.689 -0.1900  0.0073  0.4942
   51MPD2    H5  787   4.429   1.970   0.751 -2.7347  2.3261 -1.1795
   51MPD2    N1  788   4.011   1.756   0.443 -0.9171 -0.2591  0.0119
   51MPD2    H7  789   4.024   1.662   0.477  2.6730  0.5590  0.8754
   52TCq2    C1  790   4.479   1.781   0.675  0.4304  0.6970 -0.1209
   52TCq2    O2  791   4.484   1.695   0.593  0.2194 -0.1362  0.2488
   52TCq2    C2  792   4.574   1.757   0.791 -0.1316 -0.6220 -0.2635
   52TCq2    C3  793   4.677   1.671   0.766  0.1817  0.4568 -0.1491
   52TCq2    C4  794   0.043   1.652   0.867  0.5156 -0.9969  0.6527
   52TCq2    C5  795   0.044   1.714   0.987 -0.3773  0.2837 -0.6935
   52TCq2    C6  796   4.665   1.805   1.008 -0.1950 -0.2577 -0.0777
   52TCq2    C7  797   4.576   1.827   0.912 -0.6907  0.2135  0.1232
   52TCq2    C8  798   4.664   1.885   1.131  0.5484  0.2254 -0.0681
   52TCq2    O4  799   4.598   1.992   1.139  0.3097  0.2899 -1.0101
   52TCq2    C9  800   0.163   1.571   0.842 -0.1538 -0.1805  0.2742
   52TCq2    O5  801   0.232   1.524   0.934  0.5453  0.0819  0.1919
   52TCq2    O6  802   0.180   1.537   0.725  0.2920 -0.2192  0.4583
   52TCq2    H2  803   4.692   1.623   0.671 -0.5981  1.3032 -0.7062
   52TCq2    H3  804   0.133   1.698   1.045 -2.2817 -0.6322  1.9599
   52TCq2    H4  805   4.496   1.899   0.926  0.8189  1.7658  0.6979
   53TMC2    C1  806   0.043   0.269  11.444  0.8806  0.3861  0.1476
   53TMC2    C2  807   0.072   0.385  11.379  0.9016 -0.6662 -0.1959
   53TMC2    C3  808   0.010   0.497  11.410 -0.5663 -0.2961 -0.1476
   53TMC2    C4  809   4.684   0.268  11.556  0.1997 -0.2486  0.4400
   53TMC2    C5  810   4.634   0.389  11.597  0.3608 -0.2793  0.1510
   53TMC2    C6  811   4.659   0.503  11.528 -0.2762 -0.9956  0.8162
   53TMC2     C  812   0.079   0.140  11.386 -0.9096  0.2035  0.2229
   53TMC2     O  813   0.171   0.137  11.305 -0.5804 -0.1644  0.4655
   53TMC2     H  814   0.128   0.360  11.290  0.4958 -1.5128 -0.2181
   53TMC2    H1  815   4.671   0.177  11.614 -1.3775 -1.6522 -2.1526
   53TMC2    H2  816   4.635   0.601  11.567 -0.3499 -0.1947 -1.2158
   53TMC2    C7  817   4.566   0.400  11.727  0.0823  0.2363  0.2760
   53TMC2    C8  818   0.035   0.622  11.345 -0.0077  0.6068  0.0319
   53TMC2    O1  819   4.486   0.490  11.748  0.3732  0.2940  0.1733
   53TMC2    O2  820   4.708   0.732  11.376 -0.3147  0.0007  0.0508
   53TMC2    O5  821   0.142   0.608  11.267  0.1097  0.5992  0.6438
   53TMC2    H5  822   0.194   0.525  11.276  2.0919  1.5694 -1.8377
   54MPD2     C  823   0.115   4.586  11.375 -0.2882 -0.2441  0.5866
   54MPD2    C1  824   4.711   4.640  11.386 -0.1820  0.1285  0.9873
   54MPD2    C2  825   4.602   4.550  11.376  0.7132  0.0890 -0.8221
   54MPD2    C3  826   4.613   4.415  11.348 -0.4650  0.0657 -0.0432
   54MPD2    C4  827   0.018   4.370  11.337 -0.7342 -0.3787  0.3154
   54MPD2    C5  828   0.129   4.452  11.349 -0.7114 -0.1970 -0.1470
   54MPD2     H  829   4.501   4.589  11.389 -0.8072 -3.6483 -1.3536
   54MPD2    H1  830   0.035   4.264  11.321 -0.6795 -0.4346  0.7669
   54MPD2    H2  831   0.206   4.639  11.401 -1.5744  1.9603  0.5901
   54MPD2    H3  832   0.231   4.416  11.354 -0.8135 -0.5057 -0.3344
   54MPD2     N  833   4.502   4.335  11.344 -0.2929 -0.5657  0.4443
   54MPD2    H5  834   4.535   4.240  11.331 -1.5951 -1.0642  0.8017
   54MPD2    N1  835   4.691   0.057  11.398 -0.3468 -0.2847 -0.5591
   54MPD2    H7  836   4.599   0.098  11.413 -0.9757 -1.2631 -1.8133
   55MPD2     C  837   0.848   2.764  17.289 -0.2853  0.0155 -0.1817
   55MPD2    C1  838   0.745   2.755  17.370 -0.0547  0.0041 -0.0522
   55MPD2    C2  839   0.670   2.869  17.386  0.4622 -0.0909 -0.0493
   55MPD2    C3  840   0.698   2.988  17.318 -0.6065  0.2686 -0.3204
   55MPD2    C4  841   0.812   2.994  17.237 -0.2678  0.1186  0.0037
   55MPD2    C5  842   0.878   2.876  17.219 -0.1111 -0.1783  0.4600
   55MPD2     H  843   0.578   2.852  17.440 -0.9769  2.3470 -1.7378
   55MPD2    H1  844   0.842   3.080  17.180  0.4024 -0.4166 -0.4546
   55MPD2    H2  845   0.915   2.679  17.281 -0.2932  0.3283 -3.3171
   55MPD2    H3  846   0.960   2.874  17.149 -0.8740  0.9647 -0.4712
   55MPD2     N  847   0.609   3.088  17.352  0.1273  0.2239 -0.0697
   55MPD2    H5  848   0.522   3.061  17.397  1.1972 -2.3217  0.4770
   55MPD2    N1  849   0.732   2.639  17.450  0.3946  0.2604  0.3310
   55MPD2    H7  850   0.813   2.580  17.436 -0.6138 -0.8250 -0.9787
   56TCq2    C1  851   0.644   2.612  17.552 -0.1938  0.4388 -0.0673
   56TCq2    O2  852   0.543   2.666  17.585  0.2413  0.3218  0.3884
   56TCq2    C2  853   0.695   2.495  17.625  0.1076  0.0468 -0.2955
   56TCq2    C3  854   0.820   2.440  17.615  0.7247  1.0913  0.8851
   56TCq2    C4  855   0.858   2.348   0.017  0.4561  0.6984  0.3056
   56TCq2    C5  856   0.779   2.302   0.115 -0.0813 -0.7287  0.1082
   56TCq2    C6  857   0.657   2.364   0.127 -0.7488 -0.1079  0.2800
   56TCq2    C7  858   0.613   2.459   0.042  0.2399 -0.4481  0.3858
   56TCq2    C8  859   0.614   2.366   0.263  0.3763  0.5418  0.3957
   56TCq2    O4  860   0.597   2.261   0.320  0.1113 -0.3166  0.1815
   56TCq2    C9  861   0.993   2.301   0.013  0.4380 -0.0098  0.4779
   56TCq2    O5  862   1.057   2.335  17.597  0.0652 -0.4063  0.0569
   56TCq2    O6  863   1.032   2.244   0.117 -0.0854 -1.1849 -0.1969
   56TCq2    H2  864   0.894   2.475  17.544  0.0004  1.3180  0.2374
   56TCq2    H3  865   0.807   2.219   0.179  0.1385 -0.1776  0.7206
   56TCq2    H4  866   0.527   2.519   0.068 -0.3863 -1.7227  1.2442
   57TMC2    C1  867   4.655   3.582  13.627 -0.4072  0.0086  0.1769
   57TMC2    C2  868   0.035   3.566  13.721 -0.1263 -0.1755  0.6758
   57TMC2    C3  869   0.154   3.519  13.678  0.0515 -0.0070 -0.6735
   57TMC2    C4  870   4.675   3.536  13.495  0.7535  0.2436 -0.6379
   57TMC2    C5  871   0.078   3.491  13.463  1.2518  0.4894 -0.0735
   57TMC2    C6  872   0.181   3.495  13.548  0.3494  0.1650  0.2572
   57TMC2     C  873   4.521   3.580  13.676  0.2312  0.1488  0.0516
   57TMC2     O  874   4.500   3.623  13.787 -0.6304  0.0788 -0.2819
   57TMC2     H  875   0.022   3.599  13.823  3.4111  2.1340  0.3925
   57TMC2    H1  876   4.602   3.552  13.416 -0.4318 -1.0026  0.1931
   57TMC2    H2  877   0.284   3.485  13.516 -0.1522  4.3768 -2.6015
   57TMC2    C7  878   0.101   3.477  13.316 -1.1297  0.3643 -0.2312
   57TMC2    C8  879   0.252   3.496  13.783  0.6504 -0.4075  0.0191
   57TMC2    O1  880   0.021   3.532  13.243  0.3629 -0.1584  0.4201
   57TMC2    O2  881   0.237   3.516  13.905 -0.3985 -0.3416 -0.5874
   57TMC2    O5  882   0.345   3.416  13.726 -0.2665  0.1508  0.0582
   57TMC2    H5  883   0.322   3.375  13.640 -1.4034  3.2875 -1.1256
   58MPD2     C  884   4.063   3.347  13.669 -0.2657  0.0152  0.9991
   58MPD2    C1  885   4.107   3.444  13.755 -0.0180  0.0975 -0.2621
   58MPD2    C2  886   4.238   3.493  13.733  0.6392 -0.7126 -1.0124
   58MPD2    C3  887   4.313   3.456  13.619  0.2524  0.1356  0.1130
   58MPD2    C4  888   4.258   3.364  13.527  0.5039 -0.1322 -0.3108
   58MPD2    C5  889   4.141   3.306  13.563  0.6623 -0.7633  0.3351
   58MPD2     H  890   4.283   3.567  13.799 -0.0019  0.0144 -1.3854
   58MPD2    H1  891   4.318   3.324  13.445  1.4517 -1.5215  1.0512
   58MPD2    H2  892   3.961   3.309  13.678 -0.1158 -0.8665 -1.2066
   58MPD2    H3  893   4.098   3.228  13.501 -0.5291 -0.9046  1.3214
   58MPD2     N  894   4.436   3.499  13.591 -0.0916 -0.1227 -0.6392
   58MPD2    H5  895   4.477   3.482  13.500  0.0930 -0.0005 -0.5788
   58MPD2    N1  896   4.032   3.495  13.862 -0.0297  0.2565 -0.0697
   58MPD2    H7  897   4.075   3.568  13.917 -0.9101 -0.1405  1.1502
   59MPD2     C  898   2.244   3.060  13.384  0.1973 -0.3708  0.3148
   59MPD2    C1  899   2.300   3.085  13.261  0.0195  0.2030 -0.0403
   59MPD2    C2  900   2.383   3.191  13.244  0.0514  0.1027  0.0687
   59MPD2    C3  901   2.413   3.281  13.344  0.0202 -0.0356  0.6983
   59MPD2    C4  902   2.355   3.258  13.465  0.1972 -0.5343  0.5176
   59MPD2    C5  903   2.268   3.150  13.487 -0.0630  0.2786 -0.2253
   59MPD2     H  904   2.430   3.210  13.148  0.0976 -2.4341 -0.4164
   59MPD2    H1  905   2.369   3.327  13.547  0.3654 -0.6218  0.5648
   59MPD2    H2  906   2.177   2.978  13.408 -3.2055  2.1094 -0.7918
   59MPD2    H3  907   2.228   3.139  13.587 -0.4015  0.0149 -0.3878
   59MPD2     N  908   2.486   3.405  13.326 -0.8135 -0.0606  0.0373
   59MPD2    H5  909   2.488   3.469  13.405 -1.2918 -0.3324  0.2672
   59MPD2    N1  910   2.260   3.008  13.149 -0.3026 -0.5701  0.3034
   59MPD2    H7  911   2.298   3.044  13.063  1.0769  3.1917  2.5021
   60TCq2    C1  912   2.169   2.902  13.142 -0.4471  0.0044 -0.0903
   60TCq2    O2  913   2.127   2.839  13.235  0.3261 -0.5257  0.3132
   60TCq2    C2  914   2.120   2.877  13.002 -0.0167  0.5045 -0.1501
   60TCq2    C3  915   2.006   2.804  12.986  0.8161 -0.1978  0.1815
   60TCq2    C4  916   1.968   2.789  12.862 -0.1843 -0.1538 -0.2179
   60TCq2    C5  917   2.031   2.834  12.754 -0.7136 -0.8286 -0.1588
   60TCq2    C6  918   2.148   2.908  12.776 -0.6348 -0.1127  0.5693
   60TCq2    C7  919   2.193   2.932  12.900  0.2008 -0.4324  0.2027
   60TCq2    C8  920   2.225   2.955  12.660 -0.8303 -0.0122 -0.3261
   60TCq2    O4  921   2.344   2.934  12.661 -0.5852 -0.0313  0.4833
   60TCq2    C9  922   1.848   2.707  12.839 -0.2651  0.7749 -0.0870
   60TCq2    O5  923   1.787   2.676  12.943 -0.0714  0.1059 -0.3371
   60TCq2    O6  924   1.844   2.643  12.732  0.1016 -0.1493  0.8794
   60TCq2    H2  925   1.957   2.749  13.066  0.1985  0.8206  0.5062
   60TCq2    H3  926   1.999   2.812  12.653  0.5516 -3.1838 -0.0416
   60TCq2    H4  927   2.280   2.996  12.912  0.7098 -1.4943  2.2341
   61MPD2     C  928   1.515   0.057  15.059 -0.3346 -0.6531  0.1762
   61MPD2    C1  929   1.620   0.145  15.091 -0.0919 -0.5488 -0.4422
   61MPD2    C2  930   1.693   0.203  14.990  0.2900  0.1552  0.2350
   61MPD2    C3  931   1.678   0.165  14.860 -0.2331 -0.0527  0.1269
   61MPD2    C4  932   1.583   0.071  14.830  0.0423  0.5152 -0.4713
   61MPD2    C5  933   1.493   0.020  14.926  0.3023 -0.3739  0.1601
   61MPD2     H  934   1.776   0.269  15.011 -0.8234  2.0087 -1.2990
   61MPD2    H1  935   1.568   0.042  14.726 -0.2444  0.6048 -0.4538
   61MPD2    H2  936   1.440   0.019  15.127  0.9755 -1.1557  1.3349
   61MPD2    H3  937   1.408   4.687  14.884  0.9946 -0.5967 -0.9546
   61MPD2     N  938   1.744   0.233  14.752 -0.7247 -0.1432  0.2472
   61MPD2    H5  939   1.719   0.201  14.659 -0.7364 -0.3104  0.3094
   61MPD2    N1  940   1.641   0.190  15.224 -0.1511 -0.2942  0.3278
   61MPD2    H7  941   1.709   0.260  15.249  1.5660 -1.8921  0.0908
   62TCq2    C1  942   1.591   0.123  15.334  0.9913  0.2736 -0.2938
   62TCq2    O2  943   1.551   0.006  15.344  0.1891 -0.7529 -0.6206
   62TCq2    C2  944   1.631   0.192  15.449 -0.3456 -0.0484  0.1896
   62TCq2    C3  945   1.684   0.121  15.550 -0.0800  0.2722 -0.5499
   62TCq2    C4  946   1.753   0.194  15.647 -0.6938  0.5289 -0.3306
   62TCq2    C5  947   1.769   0.326  15.643 -0.1184  0.0682  0.3441
   62TCq2    C6  948   1.705   0.393  15.539  0.0963  0.1651 -1.1462
   62TCq2    C7  949   1.637   0.324  15.440  0.0919  0.1029 -0.5070
   62TCq2    C8  950   1.683   0.535  15.546 -0.5862 -0.8802 -1.0098
   62TCq2    O4  951   1.653   0.600  15.449 -0.1040  0.5522 -0.2141
   62TCq2    C9  952   1.792   0.120  15.766 -0.3416 -0.1312 -0.7033
   62TCq2    O5  953   1.895   0.160  15.827  0.2357 -0.6311  0.0679
   62TCq2    O6  954   1.716   0.022  15.788 -0.3019 -0.1503 -0.0428
   62TCq2    H2  955   1.686   0.013  15.544 -1.5230  0.1665  0.7005
   62TCq2    H3  956   1.831   0.384  15.710  0.7546  0.1973 -0.5660
   62TCq2    H4  957   1.574   0.378  15.370 -0.5861  0.1121  0.1210
   63TMC2    C1  958   0.606   0.138  10.187  0.4885 -0.3916  0.5227
   63TMC2    C2  959   0.718   0.216  10.221  0.5598  0.2492  0.6428
   63TMC2    C3  960   0.763   0.306  10.123  0.2096  0.1637  0.3232
   63TMC2    C4  961   0.528   0.165  10.080 -0.6731 -0.0021  0.2793
   63TMC2    C5  962   0.580   0.254   9.990 -0.3649  0.2481 -1.0089
   63TMC2    C6  963   0.694   0.329  10.009 -0.9571  0.1638  0.8087
   63TMC2     C  964   0.531   0.078  10.302  0.3524 -1.1939 -0.2814
   63TMC2     O  965   0.413   0.105  10.306  0.1253  0.5325  0.3565
   63TMC2     H  966   0.771   0.183  10.310 -0.2773 -0.4836  0.8650
   63TMC2    H1  967   0.440   0.106  10.059  1.2967 -3.0857  0.6787
   63TMC2    H2  968   0.721   0.413   9.946  0.3311  0.0676  1.2485
   63TMC2    C7  969   0.504   0.255   9.863 -0.3593  0.0349  0.5020
   63TMC2    C8  970   0.891   0.372  10.135 -0.4701  0.1810  0.8239
   63TMC2    O1  971   0.382   0.258   9.884  0.0089  0.2972 -0.5080
   63TMC2    O2  972   0.953   0.416  10.043  0.8260  0.5079  0.2028
   63TMC2    O5  973   0.934   0.377  10.266  0.1670  0.0754  0.1836
   63TMC2    H5  974   0.880   0.347  10.342 -0.3718 -0.5711 -0.4461
   64MPD2     C  975   0.500   4.543  10.747  1.0815  0.9198 -0.1962
   64MPD2    C1  976   0.627   4.522  10.695 -1.0199 -0.7663  0.2807
   64MPD2    C2  977   0.668   4.598  10.584  0.4436  0.1803 -0.1615
   64MPD2    C3  978   0.570   4.674  10.513  0.5166  0.3545  0.2483
   64MPD2    C4  979   0.439   4.674  10.558  0.6800  0.4339 -0.3520
   64MPD2    C5  980   0.407   4.616  10.679  0.0617  0.2357  0.1374
   64MPD2     H  981   0.770   4.606  10.549  0.8707  0.6191  1.1991
   64MPD2    H1  982   0.362   0.004  10.501  1.1120  0.3630 -1.0039
   64MPD2    H2  983   0.469   4.500  10.841 -0.3501  1.1930 -0.5462
   64MPD2    H3  984   0.307   4.625  10.719  0.7151 -0.5515  1.9386
   64MPD2     N  985   0.617   0.013  10.394  0.2129  0.0745 -0.2302
   64MPD2    H5  986   0.716   0.005  10.376  0.1452  4.1106 -2.3692
   64MPD2    N1  987   0.725   4.436  10.750 -0.5711  0.2281 -0.4054
   64MPD2    H7  988   0.818   4.433  10.710  0.1173 -0.0318  1.2017
   65MPD2     C  989   2.126   4.441  15.638 -0.0189  0.1144 -0.4607
   65MPD2    C1  990   2.079   4.430  15.509  0.8354  0.4987  0.1636
   65MPD2    C2  991   2.077   4.301  15.450 -0.0456 -0.2534 -0.0995
   65MPD2    C3  992   2.104   4.192  15.535  0.1760  0.1280  0.5819
   65MPD2    C4  993   2.127   4.209  15.672 -0.3732  0.0699 -0.4458
   65MPD2    C5  994   2.143   4.332  15.724 -0.3889 -0.1332  0.0978
   65MPD2     H  995   2.049   4.294  15.346  3.3103 -0.2212 -1.0165
   65MPD2    H1  996   2.137   4.124  15.738 -0.6361  0.8070  0.5528
   65MPD2    H2  997   2.145   4.538  15.682 -2.5011  0.7707 -0.8251
   65MPD2    H3  998   2.166   4.347  15.829  0.0817 -1.3665  0.1692
   65MPD2     N  999   2.103   4.056  15.488  0.2142  0.1929  0.1927
   65MPD2    H5 1000   2.126   3.985  15.556 -0.4613  1.3050  1.5688
   65MPD2    N1 1001   2.049   4.543  15.436 -0.6685 -0.0072  0.2977
   65MPD2    H7 1002   2.035   4.535  15.336  0.6457 -2.6028  0.3403
   66TCq2    C1 1003   2.041   4.672  15.483  0.3447  0.3971 -0.2798
   66TCq2    O2 1004   2.044   4.716  15.598 -0.2998 -0.4669  0.4251
   66TCq2    C2 1005   2.020   0.039  15.370 -0.3660 -0.0359  0.0861
   66TCq2    C3 1006   2.045   4.713  15.245  0.1917  0.4391  0.4505
   66TCq2    C4 1007   2.048   0.075  15.138  0.2066 -0.5979  0.4429
   66TCq2    C5 1008   2.017   0.205  15.149 -0.1494 -0.1772  0.8737
   66TCq2    C6 1009   2.005   0.258  15.276  0.0569 -0.0571  0.2171
   66TCq2    C7 1010   2.002   0.173  15.390  2.1020  0.0101 -0.1032
   66TCq2    C8 1011   2.010   0.404  15.300  0.2190 -0.3011  0.0902
   66TCq2    O4 1012   1.995   0.482  15.207  0.1926  0.4958  0.5701
   66TCq2    C9 1013   2.119   0.046  15.011 -0.0009  0.6480  0.1259
   66TCq2    O5 1014   2.140   4.645  15.001 -0.1994  0.0891  0.5604
   66TCq2    O6 1015   2.181   0.141  14.957  0.0899 -0.0025 -0.4509
   66TCq2    H2 1016   2.084   4.614  15.222 -2.4469 -0.0477 -1.9951
   66TCq2    H3 1017   2.013   0.271  15.063 -1.6306 -0.4005  0.7674
   66TCq2    H4 1018   1.985   0.208  15.491  2.8900 -2.9709  1.0409
   67MPD2     C 1019   2.414   3.574  13.987 -0.2415  0.0370  0.1908
   67MPD2    C1 1020   2.340   3.644  14.072 -0.7461 -0.2902 -0.6761
   67MPD2    C2 1021   2.200   3.637  14.066 -0.2155 -0.7823  0.2582
   67MPD2    C3 1022   2.138   3.558  13.972  0.2177 -0.0992 -0.4713
   67MPD2    C4 1023   2.216   3.490  13.881 -0.3321 -0.1231 -0.2246
   67MPD2    C5 1024   2.351   3.500  13.896  0.5881 -0.0348  0.6427
   67MPD2     H 1025   2.134   3.676  14.142  1.6314  2.2063  0.3244
   67MPD2    H1 1026   2.181   3.426  13.801  1.1030  1.2489 -1.9420
   67MPD2    H2 1027   2.522   3.579  13.985 -0.0802 -4.8727 -3.0043
   67MPD2    H3 1028   2.410   3.443  13.825 -0.7311 -0.5771 -0.0249
   67MPD2     N 1029   1.996   3.560  13.956 -0.3474  0.3237 -0.2523
   67MPD2    H5 1030   1.945   3.613  14.026 -0.1970 -0.2880  0.3244
   67MPD2    N1 1031   2.399   3.723  14.174  0.4563  0.0698  0.0379
   67MPD2    H7 1032   2.338   3.787  14.223  0.3529 -0.4476  0.5871
   68TCq2    C1 1033   2.531   3.725  14.208 -0.0761 -0.3036 -0.4406
   68TCq2    O2 1034   2.634   3.667  14.176 -0.3203  0.1392 -0.5501
   68TCq2    C2 1035   2.549   3.843  14.299  0.5376  0.1426 -0.4627
   68TCq2    C3 1036   2.484   3.962  14.276  0.6011  0.8155 -0.8050
   68TCq2    C4 1037   2.514   4.071  14.353  0.2465  0.5636  0.3845
   68TCq2    C5 1038   2.609   4.055  14.447 -1.2119 -0.0137 -1.2214
   68TCq2    C6 1039   2.671   3.939  14.474  0.1402 -0.0918 -0.0595
   68TCq2    C7 1040   2.649   3.831  14.394  0.3223 -0.3035  0.5142
   68TCq2    C8 1041   2.743   3.910  14.595 -0.4407 -0.1704  1.3537
   68TCq2    O4 1042   2.799   3.802  14.600  0.0932 -0.0224 -0.0376
   68TCq2    C9 1043   2.457   4.205  14.335  0.1682 -0.3303  0.0053
   68TCq2    O5 1044   2.403   4.228  14.228  0.0710 -0.3743 -0.0554
   68TCq2    O6 1045   2.465   4.282  14.429  0.2151  0.0489 -0.3972
   68TCq2    H2 1046   2.413   3.971  14.194 -0.8479  1.5029  0.5168
   68TCq2    H3 1047   2.642   4.150  14.489  0.8358 -1.4951  0.4684
   68TCq2    H4 1048   2.699   3.736  14.412  1.1787 -0.1711 -1.2352
   69TMC2    C1 1049   4.467   0.585  12.312 -0.0135 -0.5020  0.5722
   69TMC2    C2 1050   4.345   0.615  12.263 -0.7990 -0.0554 -0.2939
   69TMC2    C3 1051   4.338   0.651  12.133  0.3142 -0.2980 -0.4295
   69TMC2    C4 1052   4.580   0.585  12.229 -0.2978  0.1489  0.9156
   69TMC2    C5 1053   4.570   0.625  12.099  0.0259 -0.1045  0.1995
   69TMC2    C6 1054   4.446   0.664  12.053  0.4535 -0.4769  0.0457
   69TMC2     C 1055   4.458   0.490  12.421 -0.5681 -0.1808 -0.1470
   69TMC2     O 1056   4.348   0.449  12.460 -0.1157 -0.5335 -0.3004
   69TMC2     H 1057   4.252   0.602  12.317 -1.3641  0.1850 -1.2060
   69TMC2    H1 1058   4.676   0.567  12.274  0.3111  0.1924 -0.3753
   69TMC2    H2 1059   4.447   0.692  11.948 -1.1233  2.7382  0.8820
   69TMC2    C7 1060   4.695   0.642  12.021 -0.5605  0.2006 -0.0064
   69TMC2    C8 1061   4.230   0.745  12.120  0.3915 -0.4504  0.0945
   69TMC2    O1 1062   0.070   0.601  12.084  0.0801 -0.3457  0.0751
   69TMC2    O2 1063   4.205   0.826  12.206 -0.0169  0.7393  0.1449
   69TMC2    O5 1064   4.224   0.769  11.986 -0.1931 -0.3608  0.3095
   69TMC2    H5 1065   4.202   0.685  11.942 -0.4841 -0.5156  0.7485
   70MPD2     C 1066   0.010   0.267  12.530 -0.2612  0.1342 -0.2660
   70MPD2    C1 1067   4.606   0.306  12.515 -0.3240 -0.0139 -0.1904
   70MPD2    C2 1068   4.503   0.212  12.537  0.3399  0.0249  0.6220
   70MPD2    C3 1069   4.526   0.084  12.582 -0.2275 -0.0591 -0.6448
   70MPD2    C4 1070   4.655   0.051  12.603 -0.1091  0.9943 -0.3000
   70MPD2    C5 1071   0.031   0.137  12.569  0.2094 -0.0652 -0.2164
   70MPD2     H 1072   4.401   0.238  12.512 -0.0743  0.7919  3.1863
   70MPD2    H1 1073   4.667   4.674  12.647 -2.9682  1.1720  0.8517
   70MPD2    H2 1074   0.100   0.325  12.513 -1.3992  1.7476 -0.7812
   70MPD2    H3 1075   0.130   0.092  12.573  0.0700 -0.2958  0.5914
   70MPD2     N 1076   4.424   4.710  12.619  0.6028  0.2638  0.0975
   70MPD2    H5 1077   4.448   4.612  12.632  3.3501  0.8367 -0.5647
   70MPD2    N1 1078   4.585   0.433  12.456 -0.1344  0.2224 -0.1564
   70MPD2    H7 1079   4.664   0.496  12.449 -1.6918  2.0401 -1.4348
   71TMC2    C1 1080   0.914   1.414   1.603 -0.3793  0.3247 -0.6340
   71TMC2    C2 1081   0.884   1.325   1.704 -0.6197 -0.3602 -0.0850
   71TMC2    C3 1082   0.785   1.357   1.792 -0.3387  0.0057 -0.2684
   71TMC2    C4 1083   0.852   1.538   1.606 -0.3321 -0.1415 -0.2975
   71TMC2    C5 1084   0.753   1.566   1.701 -0.2897 -0.4739  0.3767
   71TMC2    C6 1085   0.717   1.475   1.793 -0.0231  0.1603  0.4128
   71TMC2     C 1086   1.013   1.381   1.495  0.0592  0.2051  0.5567
   71TMC2     O 1087   1.045   1.477   1.424 -0.0979  0.4402 -0.0493
   71TMC2     H 1088   0.914   1.221   1.704 -0.2936 -0.2647 -4.0091
   71TMC2    H1 1089   0.886   1.616   1.539 -1.9085  0.1960 -0.7022
   71TMC2    H2 1090   0.631   1.486   1.859 -0.7283 -2.4009 -0.0540
   71TMC2    C7 1091   0.649   1.661   1.675 -0.0180  0.8670  0.0331
   71TMC2    C8 1092   0.734   1.253   1.880 -0.8939 -0.1993 -0.2511
   71TMC2    O1 1093   0.558   1.668   1.758 -0.3653 -0.1827  0.5474
   71TMC2    O2 1094   0.619   1.249   1.912  0.6179 -0.2423  0.9064
   71TMC2    O5 1095   0.827   1.169   1.925 -0.4866 -0.3365 -0.2338
   71TMC2    H5 1096   0.921   1.189   1.908 -0.5109  0.2281  0.2814
   72MPD2     C 1097   1.170   1.069   1.112  0.3027  0.2374 -0.3614
   72MPD2    C1 1098   1.166   1.206   1.116 -0.4956  0.4743  0.7997
   72MPD2    C2 1099   1.117   1.270   1.233 -0.3159 -0.1771  0.3749
   72MPD2    C3 1100   1.067   1.198   1.342 -0.1243 -0.2725  0.8458
   72MPD2    C4 1101   1.066   1.062   1.335 -0.2040 -0.5838  0.7800
   72MPD2    C5 1102   1.123   0.998   1.225  0.1200 -0.3015 -0.1382
   72MPD2     H 1103   1.106   1.378   1.226 -0.5190 -0.2829 -0.9853
   72MPD2    H1 1104   1.056   1.008   1.428  0.0514  1.1032  1.7904
   72MPD2    H2 1105   1.202   1.015   1.024  1.4542  1.0324 -0.4236
   72MPD2    H3 1106   1.125   0.890   1.216 -4.0695 -0.5366  1.3908
   72MPD2     N 1107   1.018   1.248   1.469 -0.1525 -0.0526 -0.4483
   72MPD2    H5 1108   0.978   1.178   1.530 -1.1047  1.1066  0.2712
   72MPD2    N1 1109   1.206   1.280   1.002 -0.1873 -0.2057 -0.8106
   72MPD2    H7 1110   1.199   1.381   1.003 -0.2482 -0.2085 -2.0275
   73TMC2    C1 1111   1.570   2.006  14.122  0.7172 -0.1812  0.0818
   73TMC2    C2 1112   1.479   2.087  14.196  0.0588  0.2446  0.1342
   73TMC2    C3 1113   1.528   2.130  14.319  0.1308 -0.0895 -0.9139
   73TMC2    C4 1114   1.701   1.983  14.156 -0.0302  0.0773 -0.1968
   73TMC2    C5 1115   1.742   2.048  14.261  0.2522  0.2737  0.0624
   73TMC2    C6 1116   1.659   2.116  14.350  0.2584  0.6176  0.1680
   73TMC2     C 1117   1.567   2.013  13.972  0.3459  0.5945 -0.0898
   73TMC2     O 1118   1.669   1.990  13.911  0.0508 -0.0295  0.2361
   73TMC2     H 1119   1.379   2.120  14.170  0.6156  0.1667 -2.0951
   73TMC2    H1 1120   1.768   1.927  14.093 -1.1056  0.0050 -1.2734
   73TMC2    H2 1121   1.710   2.157  14.436  1.5773  0.2758 -0.4536
   73TMC2    C7 1122   1.861   2.122  14.223 -0.8416  0.4311 -0.3415
   73TMC2    C8 1123   1.446   2.201  14.403  0.6792 -1.4987  0.0542
   73TMC2    O1 1124   1.942   2.145  14.310  0.4584  0.1956 -0.0440
   73TMC2    O2 1125   1.365   2.286  14.364  0.3141 -0.1569  0.7168
   73TMC2    O5 1126   1.459   2.157  14.531 -0.1929 -0.2883 -0.4641
   73TMC2    H5 1127   1.510   2.074  14.517  0.7368 -0.2039  2.3385
   74MPD2     C 1128   1.383   2.197  13.534 -0.8784  0.0117  0.2571
   74MPD2    C1 1129   1.507   2.153  13.568 -0.1168 -0.3505 -0.5678
   74MPD2    C2 1130   1.526   2.097  13.692  0.5245  0.1356 -0.1097
   74MPD2    C3 1131   1.421   2.083  13.782 -0.8826 -0.3373 -1.0996
   74MPD2    C4 1132   1.296   2.113  13.749  0.0890  0.2905 -0.4121
   74MPD2    C5 1133   1.281   2.160  13.622  0.4974  0.2568 -0.2730
   74MPD2     H 1134   1.628   2.078  13.725  0.9844  0.9330 -1.0818
   74MPD2    H1 1135   1.208   2.090  13.809 -0.0551  0.3503 -0.6020
   74MPD2    H2 1136   1.360   2.243  13.439  1.2333  1.5142  0.4649
   74MPD2    H3 1137   1.181   2.195  13.596  0.1269  0.2854  1.1999
   74MPD2     N 1138   1.443   2.045  13.918 -0.5429  0.3352 -0.9203
   74MPD2    H5 1139   1.372   2.052  13.990 -0.6134  1.3122 -1.0839
   74MPD2    N1 1140   1.624   2.171  13.490 -0.9147 -0.1338 -0.4986
   74MPD2    H7 1141   1.711   2.142  13.533 -0.5704  1.0183 -0.4224
   75TCq2    C1 1142   1.923   3.488  13.869 -0.6092  0.0543  0.8063
   75TCq2    O2 1143   1.949   3.428  13.769 -0.4147 -0.0276 -0.8373
   75TCq2    C2 1144   1.785   3.485  13.908 -0.0106  0.1534  0.2358
   75TCq2    C3 1145   1.741   3.541  14.025  0.1870 -0.3143 -0.1445
   75TCq2    C4 1146   1.612   3.533  14.058  0.1076 -0.8860  0.1490
   75TCq2    C5 1147   1.520   3.476  13.975 -0.1814 -1.0840  0.8886
   75TCq2    C6 1148   1.570   3.425  13.855  0.6077 -0.1670 -0.5465
   75TCq2    C7 1149   1.701   3.423  13.821  0.2181  0.3177  0.3172
   75TCq2    C8 1150   1.483   3.382  13.749 -0.4938 -0.5329 -0.0355
   75TCq2    O4 1151   1.534   3.373  13.641  0.1318 -0.7593 -0.1395
   75TCq2    C9 1152   1.573   3.563  14.194  0.4676 -0.1384  0.6141
   75TCq2    O5 1153   1.447   3.552  14.214 -0.0487  0.4586  0.3266
   75TCq2    O6 1154   1.658   3.629  14.266 -0.0985  0.1564 -0.1418
   75TCq2    H2 1155   1.809   3.588  14.096  1.2956 -2.8579  0.4852
   75TCq2    H3 1156   1.415   3.469  14.002 -0.7517  1.2603 -0.6964
   75TCq2    H4 1157   1.726   3.361  13.736 -0.2664  0.8178 -0.1868
   76MPD2     C 1158   0.703   0.057  12.222 -0.9089 -0.0019  0.5741
   76MPD2    C1 1159   0.752   0.036  12.098  0.0023  0.4438 -0.7612
   76MPD2    C2 1160   0.842   4.654  12.076  0.0147  0.0856 -0.0311
   76MPD2    C3 1161   0.868   4.559  12.174 -0.2428  0.0845  0.2489
   76MPD2    C4 1162   0.809   4.571  12.296  0.0959 -0.4776 -0.1583
   76MPD2    C5 1163   0.730   4.685  12.320  0.2015  0.1790 -0.5875
   76MPD2     H 1164   0.882   4.651  11.975 -0.1999  2.9913 -0.2114
   76MPD2    H1 1165   0.831   4.500  12.375 -0.5869 -0.9974 -0.4424
   76MPD2    H2 1166   0.638   0.139  12.251 -1.7490 -0.4519 -0.0536
   76MPD2    H3 1167   0.691   4.681  12.421 -2.4115 -1.4205 -1.6680
   76MPD2     N 1168   0.938   4.440  12.152 -0.1341  0.0058  0.5218
   76MPD2    H5 1169   0.949   4.379  12.233  3.4891 -0.9555 -0.6821
   76MPD2    N1 1170   0.726   0.127  11.992  0.3398  0.2667 -0.7003
   76MPD2    H7 1171   0.767   0.100  11.904  0.6185  1.5546 -0.9610
   77TCq2    C1 1172   0.985   4.401  12.033  0.2458  1.2348 -0.3790
   77TCq2    O2 1173   0.942   4.435  11.919 -0.0205  0.0826 -0.0043
   77TCq2    C2 1174   1.073   4.283  12.052 -0.2461  0.4079 -0.1202
   77TCq2    C3 1175   1.085   4.210  11.941 -1.0499 -0.2828 -0.0407
   77TCq2    C4 1176   1.159   4.098  11.940  0.5441 -0.0792  0.5767
   77TCq2    C5 1177   1.217   4.056  12.057 -0.5351 -0.1306 -0.3964
   77TCq2    C6 1178   1.203   4.135  12.173  0.4555  0.2404  0.4509
   77TCq2    C7 1179   1.127   4.255  12.174 -0.0717  0.3102 -0.1845
   77TCq2    C8 1180   1.295   4.106  12.281 -0.0729  0.1893  0.3741
   77TCq2    O4 1181   1.392   4.043  12.244  0.3871 -0.0743  0.7207
   77TCq2    C9 1182   1.167   4.016  11.822 -0.6646  0.1597 -0.2742
   77TCq2    O5 1183   1.260   3.931  11.815  0.0589  0.0647 -0.4983
   77TCq2    O6 1184   1.072   4.028  11.741 -0.1572  0.3078 -0.1445
   77TCq2    H2 1185   1.034   4.234  11.849  0.6236  0.7038 -0.7107
   77TCq2    H3 1186   1.281   3.969  12.052  0.1200  0.2671  0.9034
   77TCq2    H4 1187   1.145   4.331  12.249  0.9557 -0.1237  0.0014
   78MPD1     C 1188   2.700   4.185   1.878 -0.0925 -0.2824  0.7329
   78MPD1    C1 1189   2.658   4.143   1.995 -0.0059 -0.0888  0.2179
   78MPD1    C2 1190   2.623   4.243   2.092  0.0876  0.3585  0.1666
   78MPD1    C3 1191   2.587   4.372   2.042  0.0140 -0.7116  0.5622
   78MPD1    C4 1192   2.610   4.404   1.913 -0.0018 -0.4082  0.4682
   78MPD1    C5 1193   2.673   4.311   1.836 -0.3959  0.1667  0.4366
   78MPD1     H 1194   2.600   4.208   2.191 -1.1318 -4.3276 -1.7715
   78MPD1    H1 1195   2.588   4.503   1.875  0.1251 -0.5258  0.0886
   78MPD1    H2 1196   2.722   4.122   1.792  2.0248  1.0349  0.3200
   78MPD1    H3 1197   2.701   4.345   1.737 -1.2409  1.0355  0.5003
   78MPD1     N 1198   2.525   4.475   2.130  0.4581 -0.3118  0.0259
   78MPD1    H5 1199   2.503   4.562   2.083 -0.3422 -0.8235 -0.5579
   78MPD1    N1 1200   2.694   4.012   2.033 -0.5685  0.0461 -0.1128
   78MPD1    H6 1201   2.632   3.989   2.111 -0.3848 -2.1023 -0.6082
   78MPD1    H7 1202   2.686   3.947   1.956  0.4368  0.1493 -0.2959
   79TCq2    C1 1203   2.496   4.463   2.262  0.0853  0.0805 -0.0272
   79TCq2    O2 1204   2.478   4.361   2.333  0.3005  0.2957  0.0144
   79TCq2    C2 1205   2.496   4.596   2.319  0.4127  0.5855 -0.6369
   79TCq2    C3 1206   2.439   4.589   2.439 -0.9316 -0.1156  0.4919
   79TCq2    C4 1207   2.445   4.703   2.511 -0.5706 -0.5391  0.3345
   79TCq2    C5 1208   2.489   0.096   2.461  0.0485  0.0986 -0.4380
   79TCq2    C6 1209   2.547   0.098   2.338  0.2948 -0.5221 -0.0252
   79TCq2    C7 1210   2.565   4.706   2.264 -0.3314  0.8763 -0.0072
   79TCq2    C8 1211   2.617   0.221   2.297  0.2885 -0.0035 -0.3782
   79TCq2    O4 1212   2.708   0.205   2.215  0.7947 -0.3391  0.7223
   79TCq2    C9 1213   2.384   4.705   2.644 -0.1602  0.2017  0.0994
   79TCq2    O5 1214   2.420   0.082   2.719  0.3023 -0.3187 -0.2854
   79TCq2    O6 1215   2.290   4.622   2.657 -0.9628  0.1689  0.5866
   79TCq2    H2 1216   2.402   4.504   2.495  1.6759 -1.4725  0.1380
   79TCq2    H3 1217   2.491   0.181   2.528  0.8038 -0.0137 -0.3227
   79TCq2    H4 1218   2.597   4.709   2.160 -1.6939 -0.5423 -0.4728
   80MPD2     C 1219   4.642   4.530  12.183 -0.2801  0.6060 -0.1041
   80MPD2    C1 1220   4.557   4.479  12.083 -0.4682 -0.8316 -0.2390
   80MPD2    C2 1221   4.421   4.511  12.087  0.0503  0.5782  0.4070
   80MPD2    C3 1222   4.364   4.587  12.191 -0.1380 -0.0473  0.1007
   80MPD2    C4 1223   4.449   4.635  12.290  0.0076 -0.5622 -0.2101
   80MPD2    C5 1224   4.589   4.614  12.278  0.0991 -0.2187 -0.0013
   80MPD2     H 1225   4.365   4.475  12.001 -0.5792  0.1254  1.0052
   80MPD2    H1 1226   4.415   4.700  12.370  2.6564 -0.0896  0.5366
   80MPD2    H2 1227   0.029   4.519  12.184 -0.4308 -0.6694  1.3970
   80MPD2    H3 1228   4.654   4.649  12.357  1.2536  0.3371 -1.1986
   80MPD2     N 1229   4.228   4.623  12.206 -0.3251  0.0156  0.2613
   80MPD2    H5 1230   4.201   4.694  12.273 -0.8595 -0.6781  0.7807
   80MPD2    N1 1231   4.600   4.392  11.976  0.8342 -0.0342 -0.1974
   80MPD2    H7 1232   4.525   4.362  11.915  1.0393 -0.0667 -0.4326
   81TCq2    C1 1233   0.008   4.365  11.940  0.6468 -0.2008  0.0646
   81TCq2    O2 1234   0.109   4.406  11.992  0.3051 -0.1885 -0.2583
   81TCq2    C2 1235   0.015   4.290  11.825  0.2137 -0.1160 -0.3451
   81TCq2    C3 1236   0.127   4.299  11.750  0.1941 -0.1095  0.4930
   81TCq2    C4 1237   0.145   4.229  11.630  1.1653  0.1885 -1.0759
   81TCq2    C5 1238   0.040   4.150  11.586 -0.1784 -0.2515  0.0393
   81TCq2    C6 1239   4.649   4.137  11.664  0.3020  0.6841  0.9700
   81TCq2    C7 1240   4.637   4.200  11.783  0.1750 -0.3246 -0.6758
   81TCq2    C8 1241   4.540   4.052  11.615  0.0935  0.0420  0.2440
   81TCq2    O4 1242   4.524   4.036  11.495 -0.0825  0.4783 -0.2498
   81TCq2    C9 1243   0.268   4.234  11.555  1.1613 -0.0321  0.9007
   81TCq2    O5 1244   0.260   4.180  11.441 -0.1499  0.7490  0.4417
   81TCq2    O6 1245   0.370   4.289  11.601  0.1753 -0.4516 -0.1549
   81TCq2    H2 1246   0.201   4.372  11.778  0.3872  0.9469 -2.7639
   81TCq2    H3 1247   0.044   4.106  11.487 -0.2330  2.2588 -1.0814
   81TCq2    H4 1248   4.556   4.180  11.853  0.5723  0.5831  0.0346
   82MPD2     C 1249   2.508   3.786  10.681 -0.0541 -0.0816 -0.0059
   82MPD2    C1 1250   2.532   3.718  10.568  0.6762  0.1519  0.0755
   82MPD2    C2 1251   2.647   3.647  10.561  0.6722  0.9912 -0.3726
   82MPD2    C3 1252   2.741   3.650  10.667 -0.0217  0.2572  0.9745
   82MPD2    C4 1253   2.720   3.740  10.768 -0.7913 -0.1423  0.3337
   82MPD2    C5 1254   2.607   3.805  10.781  0.6636 -0.2182 -0.1318
   82MPD2     H 1255   2.660   3.582  10.475  0.4702  0.4791 -0.0122
   82MPD2    H1 1256   2.793   3.749  10.847 -0.4363 -0.5421  0.0529
   82MPD2    H2 1257   2.412   3.827  10.714  1.3142  0.5479  3.2100
   82MPD2    H3 1258   2.598   3.865  10.870  2.3919 -1.0109  0.5812
   82MPD2     N 1259   2.848   3.562  10.675  0.0797  0.3919 -0.2407
   82MPD2    H5 1260   2.879   3.545  10.770  1.0306 -3.0378 -1.1931
   82MPD2    N1 1261   2.444   3.719  10.468  0.2150  0.4160 -0.3484
   82MPD2    H7 1262   2.352   3.759  10.485  0.3761  1.6592 -2.3270
   83TCq2    C1 1263   2.900   3.505  10.569 -0.4996  0.6455 -0.5534
   83TCq2    O2 1264   2.897   3.552  10.453  0.2146  0.4139  0.1137
   83TCq2    C2 1265   2.980   3.384  10.604  0.6524 -0.0068  0.2710
   83TCq2    C3 1266   3.089   3.367  10.533  0.5229  0.2613 -0.8345
   83TCq2    C4 1267   3.163   3.254  10.550 -0.0819 -0.2755 -0.6980
   83TCq2    C5 1268   3.131   3.161  10.640 -0.2360 -0.3688 -0.2125
   83TCq2    C6 1269   3.022   3.182  10.719 -0.5892  0.1377 -0.2513
   83TCq2    C7 1270   2.942   3.292  10.691 -0.0668  0.4801 -0.3735
   83TCq2    C8 1271   2.963   3.075  10.799  0.4722  0.0896  0.2051
   83TCq2    O4 1272   2.878   3.107  10.875  0.0956  0.3040 -0.0716
   83TCq2    C9 1273   3.276   3.244  10.460  0.7058 -0.7171  0.4544
   83TCq2    O5 1274   3.291   3.326  10.365  0.4018  0.3775 -0.1760
   83TCq2    O6 1275   3.365   3.166  10.496 -0.6192 -0.6172 -0.3891
   83TCq2    H2 1276   3.111   3.428  10.446  0.3143  1.1380 -0.2698
   83TCq2    H3 1277   3.197   3.078  10.663  0.4806 -0.2156 -1.7255
   83TCq2    H4 1278   2.847   3.305  10.743 -0.4473 -0.5876 -0.7859
   84TCq2    C1 1279   4.510   1.778  10.647 -0.5700  0.0982  0.4438
   84TCq2    O2 1280   4.493   1.895  10.607  0.0562 -0.5614 -0.3529
   84TCq2    C2 1281   4.443   1.741  10.776  0.5594  0.4614 -0.0896
   84TCq2    C3 1282   4.473   1.612  10.831  0.4236  0.1978 -0.1871
   84TCq2    C4 1283   4.405   1.578  10.949 -0.3415 -0.3273 -0.0434
   84TCq2    C5 1284   4.297   1.653  10.993  0.0662 -0.1650  0.0585
   84TCq2    C6 1285   4.276   1.776  10.937  0.0635 -0.2077  0.1712
   84TCq2    C7 1286   4.348   1.824  10.830 -0.1229 -0.1317 -0.6852
   84TCq2    C8 1287   4.177   1.859  10.999  0.1768 -0.0513  0.2130
   84TCq2    O4 1288   4.168   1.972  10.946  0.4196 -0.8810  0.3292
   84TCq2    C9 1289   4.445   1.462  11.023  0.1955 -0.6969  0.3441
   84TCq2    O5 1290   4.380   1.444  11.134 -0.0518 -0.1626 -0.2003
   84TCq2    O6 1291   4.532   1.387  10.970  0.6963  0.2211  0.3738
   84TCq2    H2 1292   4.555   1.556  10.789  0.0163  0.0484 -0.7899
   84TCq2    H3 1293   4.248   1.625  11.086 -1.2118  2.4001  0.1591
   84TCq2    H4 1294   4.311   1.907  10.771 -1.8219 -0.6526 -0.3443
   85MPD2     C 1295   4.425   0.362  16.176  0.1594  0.2446 -0.1255
   85MPD2    C1 1296   4.300   0.410  16.223 -0.0019  0.5082 -0.1609
   85MPD2    C2 1297   4.276   0.540  16.255 -0.2980 -0.4378 -0.1159
   85MPD2    C3 1298   4.372   0.628  16.215 -0.0252 -0.3451  0.3404
   85MPD2    C4 1299   4.486   0.586  16.154 -0.3432  0.2897  0.0357
   85MPD2    C5 1300   4.513   0.457  16.144  0.0297 -0.6226 -0.1805
   85MPD2     H 1301   4.178   0.567  16.293 -0.0850  0.2928 -0.0892
   85MPD2    H1 1302   4.561   0.658  16.123  0.0364 -0.0706  0.1263
   85MPD2    H2 1303   4.448   0.256  16.175  0.6795  0.3505  1.1780
   85MPD2    H3 1304   4.610   0.427  16.105 -0.2565 -1.1532 -0.4753
   85MPD2     N 1305   4.355   0.768  16.226 -0.3004  0.6366 -0.1540
   85MPD2    H5 1306   4.419   0.834  16.185  0.6951  0.3012  0.8630
   85MPD2    N1 1307   4.205   0.320  16.255  0.3536  0.2286  1.0348
   85MPD2    H7 1308   4.141   0.352  16.327  0.0061 -0.8485  1.2143
   86TCq2    C1 1309   4.262   0.828  16.300 -0.3711 -0.6990  0.2582
   86TCq2    O2 1310   4.183   0.775  16.380  0.6643 -0.1948  0.0536
   86TCq2    C2 1311   4.275   0.971  16.289 -0.1041  0.2844  0.6848
   86TCq2    C3 1312   4.231   1.033  16.401  0.9131 -0.1468  0.1897
   86TCq2    C4 1313   4.265   1.159  16.423 -0.0469 -0.4176  0.3368
   86TCq2    C5 1314   4.343   1.228  16.333  0.1565  0.5250  0.3600
   86TCq2    C6 1315   4.384   1.160  16.223 -0.2261 -0.3790 -0.4005
   86TCq2    C7 1316   4.350   1.033  16.195  0.1243 -0.2782 -0.1509
   86TCq2    C8 1317   4.495   1.214  16.146  0.6427 -0.3449 -0.1726
   86TCq2    O4 1318   4.532   1.148  16.052  0.3154  0.1801 -0.6865
   86TCq2    C9 1319   4.216   1.221  16.540  0.1418  0.2217 -0.0110
   86TCq2    O5 1320   4.252   1.342  16.552  0.1554 -0.0489 -0.2126
   86TCq2    O6 1321   4.195   1.142  16.637 -0.3624 -0.1285 -0.2199
   86TCq2    H2 1322   4.169   0.979  16.472  0.7741 -0.5368 -0.2294
   86TCq2    H3 1323   4.365   1.331  16.360  1.5514  0.0847  0.8633
   86TCq2    H4 1324   4.385   0.981  16.106  2.1798  1.9642 -0.6460
   87MPD2     C 1325   2.059   4.206   1.521 -0.0353  0.1688  0.7151
   87MPD2    C1 1326   2.185   4.236   1.478 -0.8908 -0.0320  0.7378
   87MPD2    C2 1327   2.192   4.318   1.363 -0.1602  0.5089  0.2782
   87MPD2    C3 1328   2.086   4.353   1.285 -0.5874 -0.9019 -0.1313
   87MPD2    C4 1329   1.960   4.316   1.329  0.6231 -0.6585  0.0342
   87MPD2    C5 1330   1.947   4.251   1.453  0.3986 -0.9226 -0.1304
   87MPD2     H 1331   2.290   4.329   1.319 -0.3602  0.4228 -0.1791
   87MPD2    H1 1332   1.877   4.342   1.264  0.3155  0.2486  0.7975
   87MPD2    H2 1333   2.052   4.146   1.611  1.2513  2.1193  2.1152
   87MPD2    H3 1334   1.847   4.227   1.486 -0.0204 -0.3302 -0.9860
   87MPD2     N 1335   2.097   4.428   1.170 -0.0830  0.2890 -0.6272
   87MPD2    H5 1336   2.018   4.443   1.108 -0.2204 -0.3937 -0.6259
   87MPD2    N1 1337   2.292   4.199   1.561 -0.1540  0.2925  0.2215
   87MPD2    H7 1338   2.274   4.130   1.634 -2.9497 -0.5964 -1.3462
   88TCq2    C1 1339   2.427   4.211   1.540 -0.3747 -0.1047 -0.0643
   88TCq2    O2 1340   2.480   4.278   1.454 -0.0381  0.8344 -0.1748
   88TCq2    C2 1341   2.505   4.108   1.610  0.2102  0.4960 -0.2036
   88TCq2    C3 1342   2.444   4.020   1.694 -0.4750  0.3370  0.0031
   88TCq2    C4 1343   2.479   3.884   1.700 -0.2001 -0.6325 -0.9341
   88TCq2    C5 1344   2.575   3.833   1.612 -0.1873  0.0918 -0.0665
   88TCq2    C6 1345   2.645   3.926   1.535 -0.4544 -0.1029 -0.4126
   88TCq2    C7 1346   2.614   4.065   1.535  0.4643  0.5400  0.1963
   88TCq2    C8 1347   2.753   3.883   1.449 -0.3864 -0.1987  0.2299
   88TCq2    O4 1348   2.808   3.972   1.386  0.1050  0.7757 -0.3308
   88TCq2    C9 1349   2.420   3.797   1.799 -0.2686  0.7081  0.0392
   88TCq2    O5 1350   2.335   3.846   1.876  0.0648  0.4426  0.0050
   88TCq2    O6 1351   2.472   3.684   1.822 -0.3139  0.4238  0.1956
   88TCq2    H2 1352   2.355   4.047   1.750 -1.8371 -2.4045 -0.8321
   88TCq2    H3 1353   2.595   3.726   1.619  1.3339  0.3168 -0.9144
   88TCq2    H4 1354   2.657   4.121   1.452 -2.6018 -0.4542 -2.0542
   89MPD2     C 1355   2.471   1.608   2.190 -0.1773 -0.3399 -0.2546
   89MPD2    C1 1356   2.435   1.610   2.056  0.3425 -0.0461  0.4901
   89MPD2    C2 1357   2.532   1.651   1.959  0.5976  0.1589  0.4444
   89MPD2    C3 1358   2.658   1.678   1.997  0.4910  0.1677 -0.1141
   89MPD2    C4 1359   2.689   1.661   2.129 -0.2750  0.3906  0.0753
   89MPD2    C5 1360   2.606   1.615   2.225 -0.5865 -0.0115  0.2480
   89MPD2     H 1361   2.503   1.653   1.855 -0.5465 -0.4825  0.7491
   89MPD2    H1 1362   2.787   1.694   2.162 -0.3911  0.5915  0.2232
   89MPD2    H2 1363   2.403   1.576   2.269  0.8374 -0.3603  0.6197
   89MPD2    H3 1364   2.642   1.615   2.327  2.9303 -2.0633 -0.9806
   89MPD2     N 1365   2.757   1.707   1.910  0.1092  0.0123 -0.0043
   89MPD2    H5 1366   2.730   1.741   1.818  0.9822  1.9107  0.4497
   89MPD2    N1 1367   2.305   1.589   2.029  1.1368  0.2266 -0.3200
   89MPD2    H7 1368   2.240   1.586   2.106 -1.2335  1.4826 -2.2636
   90TCq2    C1 1369   2.892   1.731   1.944 -0.3809  0.5031 -0.5644
   90TCq2    O2 1370   2.963   1.678   2.025  0.6949 -0.1245  0.0280
   90TCq2    C2 1371   2.969   1.810   1.837  0.2833 -0.8669  0.0948
   90TCq2    C3 1372   3.099   1.778   1.816  0.3023  0.6404 -0.5610
   90TCq2    C4 1373   3.169   1.858   1.738 -0.1008 -0.6699 -0.1059
   90TCq2    C5 1374   3.121   1.972   1.681 -0.2118 -0.1692 -0.1798
   90TCq2    C6 1375   2.985   1.993   1.696 -0.0816  0.2366  0.1477
   90TCq2    C7 1376   2.907   1.915   1.779 -0.4430  0.4156 -0.2375
   90TCq2    C8 1377   2.900   2.065   1.597  0.3787  0.1877  0.3664
   90TCq2    O4 1378   2.783   2.091   1.630 -0.1691  0.0820 -0.5814
   90TCq2    C9 1379   3.303   1.822   1.712 -0.3338 -0.5115 -0.2265
   90TCq2    O5 1380   3.355   1.729   1.776 -0.1988 -0.3773 -0.6434
   90TCq2    O6 1381   3.347   1.875   1.608  0.3609  0.7762 -0.0273
   90TCq2    H2 1382   3.159   1.702   1.865  1.9147  1.1962 -1.7004
   90TCq2    H3 1383   3.184   2.030   1.613 -0.6847  2.5922  1.7119
   90TCq2    H4 1384   2.817   1.958   1.823 -0.4073 -0.1982  0.4378
   91TMC2    C1 1385   0.426   1.849  16.461 -0.3763 -0.4115  0.1745
   91TMC2    C2 1386   0.325   1.772  16.511  0.0934  0.0173  0.6048
   91TMC2    C3 1387   0.201   1.792  16.464  0.7518 -0.1024 -1.0259
   91TMC2    C4 1388   0.395   1.946  16.367  1.0704 -0.1015  0.2354
   91TMC2    C5 1389   0.268   1.980  16.332 -0.0278  0.4697  0.1065
   91TMC2    C6 1390   0.166   1.895  16.380 -0.5723  0.1458 -0.0824
   91TMC2     C 1391   0.564   1.811  16.491 -0.1097  0.5878  0.3366
   91TMC2     O 1392   0.585   1.693  16.520 -0.0251 -0.4088 -0.3396
   91TMC2     H 1393   0.358   1.685  16.567  1.3313 -0.0003 -0.1495
   91TMC2    H1 1394   0.472   1.977  16.298 -0.9007  2.2121 -0.9356
   91TMC2    H2 1395   0.062   1.918  16.358 -0.3509  0.3093 -0.9622
   91TMC2    C7 1396   0.257   2.009  16.190  0.7529  0.0933  0.0260
   91TMC2    C8 1397   0.094   1.700  16.506  0.3142  0.2859 -0.1766
   91TMC2    O1 1398   0.343   2.073  16.129  0.3871  0.3012  0.6170
   91TMC2    O2 1399   4.706   1.692  16.446 -0.2615  0.4293  0.2194
   91TMC2    O5 1400   0.112   1.695  16.641 -0.3517  0.0371  0.6459
   91TMC2    H5 1401   0.173   1.765  16.674  0.7823 -2.3100  3.4335
   92MPD2     C 1402   0.861   1.784  16.498 -0.1610 -0.2951  0.2993
   92MPD2    C1 1403   0.795   1.899  16.484  0.0022 -0.0208  0.1437
   92MPD2    C2 1404   0.866   2.017  16.485 -0.2717 -0.7269  0.1135
   92MPD2    C3 1405   1.006   2.015  16.493 -0.2283 -0.4964  0.1662
   92MPD2    C4 1406   1.073   1.892  16.490 -0.4771 -0.4724  0.2849
   92MPD2    C5 1407   0.999   1.780  16.499 -0.6625  0.4290  0.3957
   92MPD2     H 1408   0.810   2.109  16.474 -1.9008 -1.7421 -0.0933
   92MPD2    H1 1409   1.177   1.886  16.460 -0.3235 -1.7497  1.0989
   92MPD2    H2 1410   0.814   1.686  16.503  1.3640 -0.9911  1.0201
   92MPD2    H3 1411   1.054   1.688  16.515  1.2666  1.8115  1.7213
   92MPD2     N 1412   1.071   2.143  16.488 -0.1589  0.1920  0.8107
   92MPD2    H5 1413   1.014   2.227  16.499 -0.0628  0.5104 -1.1256
   92MPD2    N1 1414   0.656   1.908  16.468 -0.0826 -0.4165  0.0492
   92MPD2    H7 1415   0.618   2.002  16.463 -1.6374 -1.2092 -3.5886
   93MPD2     C 1416   1.168   1.745  13.850 -0.2851 -0.5900 -0.7423
   93MPD2    C1 1417   1.206   1.780  13.723  0.5477  0.5814  0.3081
   93MPD2    C2 1418   1.125   1.864  13.648  0.2740  0.8063 -0.2983
   93MPD2    C3 1419   1.011   1.914  13.704  0.6431  0.4581 -0.2832
   93MPD2    C4 1420   0.965   1.861  13.823 -0.2386  0.5930  0.4921
   93MPD2    C5 1421   1.049   1.785  13.905  1.0079  0.7183 -0.0557
   93MPD2     H 1422   1.156   1.910  13.555 -2.9782 -0.3396 -1.9533
   93MPD2    H1 1423   0.868   1.899  13.852  0.1672  2.7058 -0.9847
   93MPD2    H2 1424   1.241   1.682  13.899  0.2078  0.5369 -0.0267
   93MPD2    H3 1425   1.023   1.763  14.008  1.9592  2.0931  0.4782
   93MPD2     N 1426   0.926   2.001  13.632 -0.1915  0.1504  0.1634
   93MPD2    H5 1427   0.835   2.024  13.671 -0.8769 -1.0357 -0.7266
   93MPD2    N1 1428   1.328   1.742  13.666  0.1525  0.3753 -0.3241
   93MPD2    H7 1429   1.344   1.778  13.572 -0.5065 -3.1966 -1.8235
   94TCq2    C1 1430   1.436   1.686  13.724 -0.2452 -0.1674 -1.4336
   94TCq2    O2 1431   1.455   1.652  13.843  0.3571  0.5214  0.3831
   94TCq2    C2 1432   1.544   1.665  13.626 -0.2138 -0.6864  0.0360
   94TCq2    C3 1433   1.522   1.575  13.521 -0.2500  0.1506 -0.3441
   94TCq2    C4 1434   1.633   1.526  13.456  0.4153  0.2132  0.0794
   94TCq2    C5 1435   1.758   1.535  13.511  0.1754 -0.3873  0.5237
   94TCq2    C6 1436   1.779   1.605  13.627 -0.1842 -0.6057  0.0316
   94TCq2    C7 1437   1.671   1.677  13.680 -0.7457  0.3733 -1.1282
   94TCq2    C8 1438   1.924   1.627  13.661  0.0895 -1.0873 -0.3758
   94TCq2    O4 1439   2.006   1.585  13.581 -0.1527  0.1007 -0.9027
   94TCq2    C9 1440   1.617   1.428  13.358  0.0593 -0.7441  0.4426
   94TCq2    O5 1441   1.717   1.379  13.302 -0.2983 -0.1137  0.0106
   94TCq2    O6 1442   1.510   1.369  13.371  0.3682 -0.3131 -0.1291
   94TCq2    H2 1443   1.420   1.551  13.494 -0.2238  0.4799 -0.7412
   94TCq2    H3 1444   1.839   1.479  13.466  1.1913  1.1472  0.4088
   94TCq2    H4 1445   1.680   1.740  13.768  1.7415  0.7544 -1.6415
   95TMC2    C1 1446   1.605   3.625  16.204 -0.1405  0.1622  0.0135
   95TMC2    C2 1447   1.625   3.663  16.337  0.9673  0.3360 -0.3058
   95TMC2    C3 1448   1.561   3.777  16.373  0.0079  0.2958  0.1714
   95TMC2    C4 1449   1.527   3.693  16.118  0.2931  0.3617 -0.6496
   95TMC2    C5 1450   1.463   3.798  16.167 -0.8203  0.5200  0.0323
   95TMC2    C6 1451   1.473   3.842  16.295 -0.3068 -0.1087 -0.1647
   95TMC2     C 1452   1.679   3.515  16.152 -0.5501 -0.1242  0.1831
   95TMC2     O 1453   1.725   3.442  16.240 -0.5680 -0.0057  0.3894
   95TMC2     H 1454   1.693   3.610  16.402  0.4071 -2.1201 -1.6987
   95TMC2    H1 1455   1.498   3.646  16.025 -0.4775  1.0264 -0.7481
   95TMC2    H2 1456   1.423   3.930  16.331 -4.2539 -2.2410 -0.4790
   95TMC2    C7 1457   1.372   3.874  16.083 -0.3787 -0.1100  0.4221
   95TMC2    C8 1458   1.581   3.822  16.509  0.0241 -0.1945  0.5549
   95TMC2    O1 1459   1.292   3.946  16.143  0.4353  0.5763 -0.2527
   95TMC2    O2 1460   1.568   3.941  16.542 -0.3141 -0.2683 -0.3713
   95TMC2    O5 1461   1.569   3.715  16.602  0.2915  0.2905 -0.0525
   95TMC2    H5 1462   1.556   3.628  16.560  2.9900 -0.0976 -0.0861
   96MPD2     C 1463   2.020   3.332  15.817  0.7404 -0.2244 -0.3782
   96MPD2    C1 1464   1.947   3.437  15.761 -0.0947  0.5042  0.4617
   96MPD2    C2 1465   1.840   3.483  15.833  0.3477 -0.0683 -0.1454
   96MPD2    C3 1466   1.805   3.436  15.957  1.1815  0.3557 -0.1401
   96MPD2    C4 1467   1.884   3.334  16.011  0.0833  0.1007  0.3066
   96MPD2    C5 1468   1.993   3.290  15.948 -0.3031 -0.2809 -0.4042
   96MPD2     H 1469   1.776   3.556  15.783 -0.4077  0.1098  1.0707
   96MPD2    H1 1470   1.860   3.301  16.111  0.0176  2.3606  1.0314
   96MPD2    H2 1471   2.102   3.276  15.773  0.2021 -2.1822  1.0897
   96MPD2    H3 1472   2.056   3.217  15.999  2.2767  2.0400 -0.2825
   96MPD2     N 1473   1.703   3.512  16.016 -0.0768  0.1166  1.1578
   96MPD2    H5 1474   1.668   3.596  15.970 -2.5697 -0.6371  1.6786
   96MPD2    N1 1475   1.979   3.485  15.630 -0.9495 -0.9083  0.2165
   96MPD2    H7 1476   2.047   3.430  15.579  0.6160  1.7883 -0.5801
   97MPD2     C 1477   4.139   1.730   1.036 -0.6636 -0.3556  0.6428
   97MPD2    C1 1478   4.005   1.676   1.025  0.1202  0.2782 -0.3056
   97MPD2    C2 1479   3.927   1.722   0.920  0.0659 -0.6513 -0.4206
   97MPD2    C3 1480   3.962   1.831   0.846  0.8113 -0.0601 -0.6677
   97MPD2    C4 1481   4.089   1.878   0.855  0.3053  0.0404 -0.4835
   97MPD2    C5 1482   4.177   1.830   0.950  0.2943 -0.1728 -0.1462
   97MPD2     H 1483   3.830   1.675   0.907  0.0292 -0.6573 -0.1159
   97MPD2    H1 1484   4.134   1.960   0.800  3.3475 -3.1648 -2.8323
   97MPD2    H2 1485   4.211   1.699   1.110  0.4431 -0.3276 -0.4275
   97MPD2    H3 1486   4.277   1.870   0.960 -0.8474  2.3965  1.1194
   97MPD2     N 1487   3.883   1.900   0.754 -0.1625 -0.2657  0.2725
   97MPD2    H5 1488   3.934   1.956   0.686 -2.5024  3.1011  1.2775
   97MPD2    N1 1489   3.965   1.574   1.112 -0.2768  0.1922 -0.2387
   97MPD2    H7 1490   4.030   1.534   1.178 -1.3321 -1.8016 -0.3791
   98TCq2    C1 1491   3.748   1.881   0.744 -0.9420  0.3989  0.1298
   98TCq2    O2 1492   3.681   1.815   0.822 -0.2130 -0.0218 -0.7537
   98TCq2    C2 1493   3.689   1.951   0.633  0.3925  0.0370 -0.1109
   98TCq2    C3 1494   3.556   1.923   0.600  0.9603 -0.3646  0.2798
   98TCq2    C4 1495   3.495   2.002   0.512 -0.0214 -0.1295  0.9903
   98TCq2    C5 1496   3.566   2.099   0.441 -0.1868  0.6374  0.5226
   98TCq2    C6 1497   3.693   2.122   0.471  0.1978  0.0234  0.7027
   98TCq2    C7 1498   3.757   2.050   0.569  0.1955  0.5006  0.5526
   98TCq2    C8 1499   3.772   2.192   0.379  0.7100 -0.1397 -0.0649
   98TCq2    O4 1500   3.867   2.241   0.431 -0.2053  0.4989  0.0362
   98TCq2    C9 1501   3.352   2.000   0.479 -0.1196 -1.1640 -0.1924
   98TCq2    O5 1502   3.286   1.902   0.533 -0.5747 -0.5291  0.2288
   98TCq2    O6 1503   3.300   2.101   0.424  0.0899  0.6328  0.0993
   98TCq2    H2 1504   3.499   1.851   0.657  1.6139 -2.7615 -2.0956
   98TCq2    H3 1505   3.508   2.156   0.370  0.9775  0.8741 -0.2445
   98TCq2    H4 1506   3.861   2.074   0.588  0.6612 -2.1215  1.3180
   99MPD2     C 1507   2.172   1.939   2.240 -0.3046  0.3485  0.3326
   99MPD2    C1 1508   2.069   2.027   2.224 -0.2123 -0.4104  0.5842
   99MPD2    C2 1509   2.090   2.135   2.140  0.3221 -0.8635  0.3986
   99MPD2    C3 1510   2.212   2.150   2.075 -0.5048 -0.4387  0.0540
   99MPD2    C4 1511   2.321   2.070   2.106  0.4206 -0.0102 -0.2273
   99MPD2    C5 1512   2.292   1.960   2.182 -0.0590  0.6768 -0.3292
   99MPD2     H 1513   2.010   2.203   2.114  0.6864  0.1138  1.8557
   99MPD2    H1 1514   2.417   2.077   2.057 -0.4108  2.9707 -1.4302
   99MPD2    H2 1515   2.169   1.843   2.290  0.8499 -0.2843 -0.7764
   99MPD2    H3 1516   2.369   1.886   2.201 -0.4127  0.5713  0.6974
   99MPD2     N 1517   2.224   2.266   1.996  0.3067 -0.1400 -0.1989
   99MPD2    H5 1518   2.154   2.340   1.995  0.9149  0.4081 -1.9917
   99MPD2    N1 1519   1.935   2.005   2.270  0.9188 -0.4015 -0.7894
   99MPD2    H7 1520   1.873   2.077   2.234 -0.8173 -2.3060 -1.6857
  100TCq2    C1 1521   1.894   1.894   2.345  0.2200 -0.3627 -0.4235
  100TCq2    O2 1522   1.970   1.806   2.393  0.0134  0.2170 -0.4022
  100TCq2    C2 1523   1.755   1.888   2.384  0.1514  0.3039  0.1706
  100TCq2    C3 1524   1.716   1.783   2.464 -0.1884 -0.1049 -0.5472
  100TCq2    C4 1525   1.591   1.782   2.521 -0.1832 -0.1384 -0.1974
  100TCq2    C5 1526   1.508   1.887   2.493  0.9894  0.1894 -0.1873
  100TCq2    C6 1527   1.548   1.997   2.426 -0.2069 -0.3472  0.2092
  100TCq2    C7 1528   1.678   2.001   2.374 -0.0453 -0.1696 -0.6286
  100TCq2    C8 1529   1.461   2.114   2.431 -0.0454 -0.0400 -0.0194
  100TCq2    O4 1530   1.378   2.128   2.521  0.2644 -0.4264 -0.4287
  100TCq2    C9 1531   1.550   1.673   2.603  0.2144  0.9555  0.1803
  100TCq2    O5 1532   1.627   1.572   2.612  0.3524 -0.3440  0.3538
  100TCq2    O6 1533   1.432   1.682   2.643  0.6627  0.1631 -0.2655
  100TCq2    H2 1534   1.769   1.689   2.465  1.2166  0.6991 -0.0496
  100TCq2    H3 1535   1.408   1.874   2.532  1.4132 -0.0888  0.8286
  100TCq2    H4 1536   1.719   2.094   2.337  2.2336 -1.2549 -0.8538
  101MPD2     C 1537   3.136   4.113  12.849  0.0167 -0.3627 -0.7449
  101MPD2    C1 1538   3.019   4.177  12.831  0.1533 -0.1062 -0.0592
  101MPD2    C2 1539   2.909   4.115  12.891 -0.0822 -0.0212 -0.0030
  101MPD2    C3 1540   2.911   3.987  12.947 -0.2171  0.0162  0.0774
  101MPD2    C4 1541   3.033   3.929  12.943 -0.1695  0.7980  0.0146
  101MPD2    C5 1542   3.147   3.988  12.902 -0.5024 -1.3295  0.0600
  101MPD2     H 1543   2.816   4.168  12.873 -0.0489  0.1262  0.2728
  101MPD2    H1 1544   3.047   3.824  12.968  0.5480  0.6385 -1.0834
  101MPD2    H2 1545   3.223   4.160  12.804  0.5255  0.0151  0.6136
  101MPD2    H3 1546   3.244   3.940  12.898 -0.5215 -1.3422 -0.3303
  101MPD2     N 1547   2.790   3.932  12.981  1.5884  0.4765 -0.0420
  101MPD2    H5 1548   2.707   3.991  12.982 -0.2067 -2.0224  0.6610
  101MPD2    N1 1549   3.015   4.304  12.759 -0.5579 -0.1542  0.0554
  101MPD2    H7 1550   3.101   4.344  12.724 -0.1838 -0.0425  1.1218
  102TCq2    C1 1551   3.206   0.016  12.534 -0.2014  0.3193  0.5719
  102TCq2    O2 1552   3.216   0.088  12.436  0.6677 -0.9829  0.3903
  102TCq2    C2 1553   3.073   4.671  12.558  0.2968 -0.5273  0.0767
  102TCq2    C3 1554   2.966   0.022  12.509 -0.2557  0.1458  0.2473
  102TCq2    C4 1555   2.847   4.684  12.532 -0.4950 -0.3657  0.9422
  102TCq2    C5 1556   2.828   4.567  12.600  0.3605 -0.7845  1.3959
  102TCq2    C6 1557   2.940   4.501  12.651 -0.3040 -0.6951  0.2714
  102TCq2    C7 1558   3.066   4.550  12.630  0.0193 -0.1341  0.7210
  102TCq2    C8 1559   2.904   4.373  12.718 -0.4117 -0.6187  0.0240
  102TCq2    O4 1560   2.784   4.345  12.731 -0.0310  0.3219  0.4421
  102TCq2    C9 1561   2.727   0.033  12.477  0.2534 -0.3740 -0.6465
  102TCq2    O5 1562   2.623   4.685  12.474  0.3713  0.5804 -0.2977
  102TCq2    O6 1563   2.734   0.155  12.449 -0.3853  0.6729 -0.0706
  102TCq2    H2 1564   2.975   0.110  12.446 -0.6432 -0.6729 -0.9452
  102TCq2    H3 1565   2.726   4.532  12.614 -0.1370 -0.1312 -0.6452
  102TCq2    H4 1566   3.156   4.495  12.653 -1.2934 -1.6853  2.1105
  103TMC2    C1 1567   1.080   4.057  13.062  0.0007 -0.2327  0.6792
  103TMC2    C2 1568   1.120   3.947  13.124  0.0538  0.1527 -0.2877
  103TMC2    C3 1569   1.123   3.937  13.253 -0.3034  0.6484  0.5104
  103TMC2    C4 1570   1.034   4.165  13.129 -0.5278 -0.1061 -0.0920
  103TMC2    C5 1571   1.034   4.158  13.266  0.3891  0.6769 -0.4924
  103TMC2    C6 1572   1.084   4.042  13.327 -0.0670  0.5472  0.1477
  103TMC2     C 1573   1.113   4.081  12.923 -0.2842 -0.3155  0.3896
  103TMC2     O 1574   1.023   4.121  12.853 -0.1920 -0.2310  0.2198
  103TMC2     H 1575   1.168   3.867  13.068 -1.2951 -1.5632  1.0227
  103TMC2    H1 1576   1.010   4.258  13.080 -0.0022  0.4541  0.7268
  103TMC2    H2 1577   1.078   4.029  13.434  1.8923  1.1374  0.3195
  103TMC2    C7 1578   0.990   4.266  13.351 -0.2828  0.8313  0.1819
  103TMC2    C8 1579   1.205   3.843  13.323 -0.0478 -0.3107 -0.6156
  103TMC2    O1 1580   0.997   4.251  13.471  0.0062  0.0121  0.3599
  103TMC2    O2 1581   1.237   3.850  13.439  0.0641 -0.1081  0.1007
  103TMC2    O5 1582   1.173   3.720  13.268 -0.6171  0.8716  0.6087
  103TMC2    H5 1583   1.113   3.730  13.191  2.2101 -0.8412 -1.8488
  104MPD2     C 1584   1.438   4.031  12.756  0.0823  0.0449  0.2085
  104MPD2    C1 1585   1.305   4.056  12.760 -0.7436 -1.1319 -0.4062
  104MPD2    C2 1586   1.245   4.107  12.642 -0.8311  0.2250 -0.8297
  104MPD2    C3 1587   1.319   4.113  12.523  0.4747 -0.5390 -0.0230
  104MPD2    C4 1588   1.450   4.085  12.523  0.3716 -0.8492 -0.3971
  104MPD2    C5 1589   1.509   4.050  12.645 -0.0356  0.2460  0.4847
  104MPD2     H 1590   1.140   4.137  12.644 -0.4353  1.5655 -0.1955
  104MPD2    H1 1591   1.513   4.100  12.436  1.7056 -2.9354  0.2190
  104MPD2    H2 1592   1.493   4.007  12.846 -0.6621  0.6911  0.8299
  104MPD2    H3 1593   1.615   4.028  12.644  0.5701  3.0995 -1.1194
  104MPD2     N 1594   1.253   4.148  12.403  0.1532  0.1143  0.1959
  104MPD2    H5 1595   1.158   4.184  12.411  0.0851 -0.0709  0.1973
  104MPD2    N1 1596   1.240   4.040  12.889 -0.1267 -0.2226 -0.2753
  104MPD2    H7 1597   1.297   4.004  12.965  0.4227 -1.8864 -1.4696
  105MPD2     C 1598   3.505   3.745   0.068 -1.3129 -0.9240 -0.8680
  105MPD2    C1 1599   3.393   3.823   0.071 -0.5261 -1.5221 -0.1942
  105MPD2    C2 1600   3.344   3.866   0.190 -0.4968 -0.1796  0.3103
  105MPD2    C3 1601   3.403   3.837   0.309 -1.2171  0.3363 -0.5057
  105MPD2    C4 1602   3.525   3.774   0.307 -0.6060  0.5871  0.3728
  105MPD2    C5 1603   3.578   3.733   0.188  0.2323  0.1662 -0.9738
  105MPD2     H 1604   3.249   3.917   0.206 -0.0047  0.1615  2.0537
  105MPD2    H1 1605   3.580   3.755   0.398  2.6736  2.2726 -1.2440
  105MPD2    H2 1606   3.543   3.711  17.658 -0.9285 -0.4216 -0.8956
  105MPD2    H3 1607   3.656   3.659   0.199  2.4942  2.4604 -1.6634
  105MPD2     N 1608   3.341   3.870   0.431 -0.7095 -0.2149 -0.5872
  105MPD2    H5 1609   3.257   3.926   0.420 -0.5682  0.4212  1.5021
  105MPD2    N1 1610   3.325   3.850  17.635 -0.0479 -0.0919  0.0616
  105MPD2    H7 1611   3.247   3.915  17.644  0.3478 -0.1778  3.8198
  106TCq2    C1 1612   3.375   3.827   0.558 -0.0250  0.8129 -0.4964
  106TCq2    O2 1613   3.480   3.778   0.598 -0.2373 -0.1417 -0.1904
  106TCq2    C2 1614   3.269   3.857   0.657 -0.4505  0.6045  0.2842
  106TCq2    C3 1615   3.195   3.972   0.654  0.1507  0.2936 -1.1195
  106TCq2    C4 1616   3.095   3.996   0.736  0.8299 -0.5147 -0.0321
  106TCq2    C5 1617   3.069   3.904   0.832  0.0862  0.5675  0.1755
  106TCq2    C6 1618   3.149   3.796   0.844  0.0738 -0.3209  0.1808
  106TCq2    C7 1619   3.254   3.771   0.763 -0.4677  0.1323 -0.0416
  106TCq2    C8 1620   3.125   3.694   0.951  0.0933 -1.0398 -0.3442
  106TCq2    O4 1621   3.179   3.584   0.939  0.0097 -0.1352  0.2511
  106TCq2    C9 1622   3.036   4.123   0.733  0.2585 -0.1955 -0.0082
  106TCq2    O5 1623   3.088   4.224   0.675 -0.2403 -0.1301  0.2577
  106TCq2    O6 1624   2.932   4.130   0.805  0.3174 -0.0354 -0.4129
  106TCq2    H2 1625   3.234   4.058   0.600 -0.7002  1.1064 -0.4406
  106TCq2    H3 1626   2.988   3.923   0.901  0.5283  0.3301  0.7539
  106TCq2    H4 1627   3.300   3.674   0.749  2.3919  1.0692  3.0223
  107TMC2    C1 1628   3.846   2.586  11.477  0.5063 -0.3030  0.7070
  107TMC2    C2 1629   3.891   2.636  11.360  0.3445 -0.1630  0.4763
  107TMC2    C3 1630   3.913   2.560  11.254 -0.0924  0.0616  0.8703
  107TMC2    C4 1631   3.822   2.456  11.489  0.0439 -0.8183  0.4905
  107TMC2    C5 1632   3.864   2.376  11.384 -0.3676 -0.1588  0.0475
  107TMC2    C6 1633   3.899   2.422  11.263 -0.2586 -0.0188  0.0601
  107TMC2     C 1634   3.758   2.668  11.568 -0.3543 -0.4956 -0.7072
  107TMC2     O 1635   3.710   2.614  11.664  0.4402  0.7227  0.5286
  107TMC2     H 1636   3.916   2.739  11.339 -1.0589  0.3000  1.1061
  107TMC2    H1 1637   3.762   2.417  11.572 -1.0506 -1.2011 -0.4838
  107TMC2    H2 1638   3.883   2.374  11.167  1.8018  0.0157 -0.3010
  107TMC2    C7 1639   3.819   2.236  11.378 -0.0233  0.2539  0.0557
  107TMC2    C8 1640   3.968   2.627  11.133 -0.5253  0.3970 -0.1164
  107TMC2    O1 1641   3.758   2.192  11.479 -0.1493 -0.3657  0.0033
  107TMC2    O2 1642   3.950   2.744  11.103 -0.0404 -1.5860  0.4340
  107TMC2    O5 1643   4.010   2.532  11.053  0.2253 -0.5722  0.5924
  107TMC2    H5 1644   4.038   2.444  11.087 -1.1925 -1.9856 -1.9363
  108MPD2     C 1645   3.694   3.026  11.547  0.1067 -0.2558 -0.6607
  108MPD2    C1 1646   3.686   2.901  11.596  0.2633  0.0721  0.9642
  108MPD2    C2 1647   3.615   2.883  11.709 -0.3381  0.1572 -0.6486
  108MPD2    C3 1648   3.551   2.991  11.776 -0.1647  0.4185  0.2091
  108MPD2    C4 1649   3.577   3.116  11.734 -0.4047  0.5407  0.1194
  108MPD2    C5 1650   3.651   3.134  11.626  0.4323 -0.1490 -0.3341
  108MPD2     H 1651   3.591   2.782  11.742  0.9842  1.1659  3.4902
  108MPD2    H1 1652   3.538   3.209  11.773 -2.2227 -0.7026  1.2746
  108MPD2    H2 1653   3.762   3.046  11.465  1.8037 -1.6566  0.4003
  108MPD2    H3 1654   3.660   3.236  11.591 -1.8240  0.3479  0.4963
  108MPD2     N 1655   3.451   2.968  11.878 -0.1419 -0.1979  0.5046
  108MPD2    H5 1656   3.401   3.051  11.909 -0.5513 -1.2630  2.6304
  108MPD2    N1 1657   3.758   2.803  11.532 -0.2057 -0.5807  0.6234
  108MPD2    H7 1658   3.798   2.835  11.444 -1.8186  0.7375  0.3561
  109MPD2     C 1659   3.596   0.376   2.220 -0.5462 -0.5324  0.3032
  109MPD2    C1 1660   3.593   0.482   2.141  0.5288 -0.6230  0.2126
  109MPD2    C2 1661   3.711   0.529   2.080  0.4480 -0.6501  0.4411
  109MPD2    C3 1662   3.832   0.463   2.110  1.0414 -0.0525 -0.6691
  109MPD2    C4 1663   3.830   0.345   2.183 -0.5273 -0.4288  0.0558
  109MPD2    C5 1664   3.713   0.304   2.237  0.0043  0.9302 -0.1462
  109MPD2     H 1665   3.705   0.628   2.035 -3.0997 -0.7372  0.7301
  109MPD2    H1 1666   3.911   0.276   2.208  0.0638 -0.1704 -1.1405
  109MPD2    H2 1667   3.502   0.339   2.260 -0.8322  0.4625  0.5350
  109MPD2    H3 1668   3.704   0.219   2.303  2.0383 -1.2742 -2.6703
  109MPD2     N 1669   3.942   0.526   2.050 -0.3974 -0.1318 -0.1197
  109MPD2    H5 1670   3.924   0.603   1.987  1.5216  0.2901 -0.1540
  109MPD2    N1 1671   3.466   0.535   2.122 -0.5903 -0.1000  0.2608
  109MPD2    H7 1672   3.389   0.483   2.162 -0.7526  0.5244  0.7634
  110TCq2    C1 1673   4.072   0.488   2.078 -0.0159  0.6503  0.2673
  110TCq2    O2 1674   4.111   0.396   2.151  0.4908 -0.6806 -0.1337
  110TCq2    C2 1675   4.176   0.572   2.025  0.2252  0.0081 -0.1907
  110TCq2    C3 1676   4.306   0.563   2.079 -0.6177 -0.3401 -0.6192
  110TCq2    C4 1677   4.397   0.660   2.044 -0.8021  0.2566 -0.1187
  110TCq2    C5 1678   4.369   0.754   1.948  0.4471 -0.0472 -0.8307
  110TCq2    C6 1679   4.239   0.770   1.896 -0.8286  0.5536  0.0249
  110TCq2    C7 1680   4.148   0.672   1.934  0.2480  0.1391  0.9169
  110TCq2    C8 1681   4.202   0.878   1.804 -0.3127 -0.6095  0.0354
  110TCq2    O4 1682   4.082   0.899   1.798 -0.0361  0.8501 -0.2748
  110TCq2    C9 1683   4.523   0.652   2.102 -0.0698 -0.5344  0.2166
  110TCq2    O5 1684   4.608   0.745   2.076 -0.4862  0.0577 -0.2955
  110TCq2    O6 1685   4.538   0.576   2.203  0.2371 -0.0690 -0.1765
  110TCq2    H2 1686   4.320   0.478   2.145 -3.0538  0.1293  0.5116
  110TCq2    H3 1687   4.445   0.824   1.914  0.2490  0.0028 -1.1702
  110TCq2    H4 1688   4.052   0.687   1.886 -0.0444 -0.2466  1.3749
  111TMC2    C1 1689   4.131   4.678  11.149  0.5754  0.2325 -0.0002
  111TMC2    C2 1690   4.146   0.018  11.028 -0.9722 -0.1648 -0.2141
  111TMC2    C3 1691   4.147   0.157  11.031  0.1158 -0.3274  0.4793
  111TMC2    C4 1692   4.138   0.019  11.269 -0.0989  0.0824  0.1201
  111TMC2    C5 1693   4.124   0.156  11.266  0.2965  0.7660  1.1455
  111TMC2    C6 1694   4.119   0.228  11.148  0.7011 -0.1648 -0.8817
  111TMC2     C 1695   4.006   4.601  11.130  0.2603  0.1509  0.2852
  111TMC2     O 1696   3.960   4.576  11.018 -0.1532 -0.3119  0.3878
  111TMC2     H 1697   4.165   4.673  10.944 -1.0711  0.4239 -0.6987
  111TMC2    H1 1698   4.167   4.691  11.362 -3.7038 -1.1540  0.5884
  111TMC2    H2 1699   4.124   0.336  11.143  4.2057 -0.2584  0.4703
  111TMC2    C7 1700   4.043   0.200  11.372 -0.3329  0.5154  0.2977
  111TMC2    C8 1701   4.203   0.227  10.917  0.4139 -0.0627  1.0458
  111TMC2    O1 1702   4.059   0.150  11.485 -0.8211  0.4882 -0.3607
  111TMC2    O2 1703   4.156   0.329  10.872 -0.2259 -0.1124  0.2984
  111TMC2    O5 1704   4.332   0.185  10.923 -0.1442 -0.1191  0.0601
  111TMC2    H5 1705   4.339   0.115  10.992 -2.7490 -0.8597 -0.4180
  112MPD2     C 1706   3.507   4.604  11.283 -0.3609  0.8297 -0.0634
  112MPD2    C1 1707   3.553   4.605  11.149  0.0818  0.2179  0.1375
  112MPD2    C2 1708   3.690   4.607  11.138  0.3804 -0.4175 -0.5322
  112MPD2    C3 1709   3.776   4.602  11.253  0.0374  0.3890  0.1547
  112MPD2    C4 1710   3.725   4.579  11.379 -0.7114 -0.5382 -0.4037
  112MPD2    C5 1711   3.585   4.575  11.395 -0.5547  0.0908 -0.4330
  112MPD2     H 1712   3.734   4.621  11.039 -3.0971 -0.4939 -2.0754
  112MPD2    H1 1713   3.795   4.561  11.460  0.2554  2.8753 -0.5243
  112MPD2    H2 1714   3.401   4.620  11.297 -0.7465 -2.3651  0.6477
  112MPD2    H3 1715   3.554   4.578  11.499 -0.8183  1.6378 -0.5514
  112MPD2     N 1716   3.924   4.606  11.245  0.4740 -0.2743  0.2069
  112MPD2    H5 1717   3.970   4.617  11.335  0.5550  0.6428  0.0495
  112MPD2    N1 1718   3.472   4.632  11.035 -0.4073  0.2313  0.3088
  112MPD2    H7 1719   3.507   4.622  10.941 -1.1159 -1.9373  0.2653
  113MPD2     C 1720   1.836   3.066   1.384 -0.5795  0.0755  0.4159
  113MPD2    C1 1721   1.878   3.196   1.351 -0.2828  0.4739  0.5281
  113MPD2    C2 1722   1.799   3.285   1.276 -0.5711 -0.5370  0.3586
  113MPD2    C3 1723   1.679   3.247   1.214 -0.5593 -0.4073  0.1549
  113MPD2    C4 1724   1.641   3.118   1.242  0.8972 -0.0076 -0.2050
  113MPD2    C5 1725   1.712   3.030   1.325 -0.1599 -0.2055  0.2817
  113MPD2     H 1726   1.830   3.388   1.265 -0.4741 -0.4209  1.8011
  113MPD2    H1 1727   1.546   3.086   1.200 -0.4380  0.2123  2.6006
  113MPD2    H2 1728   1.888   2.994   1.447 -1.9799 -1.7594 -0.5410
  113MPD2    H3 1729   1.671   2.931   1.344  0.1216 -0.4076 -0.1663
  113MPD2     N 1730   1.596   3.326   1.131  0.5482 -0.3429 -0.0213
  113MPD2    H5 1731   1.515   3.280   1.090 -0.2605 -1.2428  2.5375
  113MPD2    N1 1732   1.997   3.246   1.402  0.0316 -0.0557  0.6608
  113MPD2    H7 1733   2.022   3.343   1.384  1.7180 -0.3344  1.5267
  114TCq2    C1 1734   1.626   3.456   1.087  0.6997 -0.1252  0.1056
  114TCq2    O2 1735   1.727   3.519   1.096 -0.4518  0.4410  0.1102
  114TCq2    C2 1736   1.508   3.517   1.012 -0.0875 -0.5386  0.2000
  114TCq2    C3 1737   1.536   3.608   0.906  0.1479  0.5632 -0.4668
  114TCq2    C4 1738   1.426   3.640   0.833  0.0685 -0.3443 -0.1109
  114TCq2    C5 1739   1.302   3.576   0.849 -0.0580 -0.1867  0.4209
  114TCq2    C6 1740   1.283   3.486   0.953  0.3030  1.0054 -0.2774
  114TCq2    C7 1741   1.387   3.456   1.037  0.4585 -0.8123 -0.3164
  114TCq2    C8 1742   1.160   3.417   0.964 -0.3292 -0.5745  0.2128
  114TCq2    O4 1743   1.158   3.313   1.029  0.3151  0.4837 -0.2233
  114TCq2    C9 1744   1.440   3.727   0.719 -0.0942 -0.3924 -0.0642
  114TCq2    O5 1745   1.547   3.791   0.706  0.2605  0.1528 -0.0205
  114TCq2    O6 1746   1.324   3.755   0.662  0.0545  0.1399  0.2707
  114TCq2    H2 1747   1.631   3.659   0.898  0.6374 -0.2083  0.4096
  114TCq2    H3 1748   1.229   3.585   0.769  0.5316  2.0035  0.1076
  114TCq2    H4 1749   1.362   3.414   1.133  2.6664  0.1951  0.6921
  115TMC2    C1 1750   2.637   1.417  17.534  0.0152 -0.0704  0.4407
  115TMC2    C2 1751   2.764   1.367  17.533  0.6936 -0.7511  0.3493
  115TMC2    C3 1752   2.861   1.457  17.526 -0.0336 -0.2854  0.8725
  115TMC2    C4 1753   2.610   1.549  17.525  0.7052  0.7086 -1.1469
  115TMC2    C5 1754   2.716   1.639  17.516 -0.1380 -0.7453  0.5757
  115TMC2    C6 1755   2.846   1.588  17.509  0.2617 -0.4674 -0.1083
  115TMC2     C 1756   2.524   1.329  17.533  0.1940  0.0810  0.2840
  115TMC2     O 1757   2.536   1.226  17.468  0.0844  0.1277  0.0402
  115TMC2     H 1758   2.780   1.260  17.541  0.0242 -0.7422  1.8799
  115TMC2    H1 1759   2.508   1.583  17.513  0.9764  1.8080 -0.3191
  115TMC2    H2 1760   2.934   1.652  17.515 -0.8234  0.9191  0.9704
  115TMC2    C7 1761   2.701   1.765  17.448  0.0706  0.2658 -0.1966
  115TMC2    C8 1762   2.988   1.392  17.538 -0.0483 -0.5511  0.5341
  115TMC2    O1 1763   2.592   1.816  17.468 -0.2022 -0.3090  0.1988
  115TMC2    O2 1764   3.055   1.419  17.632 -0.4411  0.6357 -0.1473
  115TMC2    O5 1765   2.997   1.281  17.456  0.0691  0.1020  0.1693
  115TMC2    H5 1766   2.936   1.283  17.380 -0.1732 -2.7487  0.2927
  116MPD2     C 1767   2.034   1.209  17.634  0.1325  0.8098 -0.2361
  116MPD2    C1 1768   2.135   1.136  17.580 -0.5239 -0.7381 -0.6178
  116MPD2    C2 1769   2.267   1.177  17.574 -0.1817 -0.5110 -0.2089
  116MPD2    C3 1770   2.296   1.307  17.619  0.1490 -0.0449  0.8173
  116MPD2    C4 1771   2.195   1.382  17.669 -1.2325  0.4466  0.1793
  116MPD2    C5 1772   2.072   1.331  17.680  0.0506  0.9717  0.4120
  116MPD2     H 1773   2.342   1.113  17.529  0.7806  0.5471 -0.1281
  116MPD2    H1 1774   2.207   1.484   0.019 -0.5579  0.6284 -0.5628
  116MPD2    H2 1775   1.938   1.162  17.649 -0.5422  2.6298  1.1574
  116MPD2    H3 1776   2.001   1.395   0.046 -0.3533 -0.2534  1.3526
  116MPD2     N 1777   2.418   1.377  17.600 -0.0636 -0.4469  0.4461
  116MPD2    H5 1778   2.427   1.473  17.632  2.4099  0.0434 -1.7234
  116MPD2    N1 1779   2.109   1.004  17.549 -0.6921  0.1784  0.1422
  116MPD2    H7 1780   2.011   0.983  17.563 -0.3436 -0.6425  1.3856
  117TMC2    C1 1781   0.468   2.015  14.041 -0.1621 -0.0430  0.0442
  117TMC2    C2 1782   0.492   1.984  14.170 -0.1076  0.0450  0.0222
  117TMC2    C3 1783   0.620   2.018  14.218 -1.1882  0.0348 -0.3929
  117TMC2    C4 1784   0.565   2.073  13.968  0.1371  0.2698  0.5759
  117TMC2    C5 1785   0.682   2.118  14.025  0.8218 -0.0841 -0.1851
  117TMC2    C6 1786   0.716   2.091  14.153  0.4876 -0.4440  0.0850
  117TMC2     C 1787   0.334   2.061  14.013 -0.4446  0.4358 -0.1825
  117TMC2     O 1788   0.240   1.997  14.059  0.6402 -0.2210 -0.2034
  117TMC2     H 1789   0.414   1.950  14.237  2.0156 -0.4370  2.2390
  117TMC2    H1 1790   0.545   2.097  13.864  1.6560 -3.1833 -0.5084
  117TMC2    H2 1791   0.806   2.129  14.199  0.4677 -0.2223 -0.0556
  117TMC2    C7 1792   0.779   2.179  13.929  0.3735  0.2704 -0.1150
  117TMC2    C8 1793   0.652   1.983  14.354 -0.0444  0.0661 -0.3711
  117TMC2    O1 1794   0.745   2.165  13.814 -0.0556 -0.0836 -0.0181
  117TMC2    O2 1795   0.766   1.997  14.403  0.2061 -0.0234  0.0293
  117TMC2    O5 1796   0.543   1.966  14.432  0.2642  0.4264  0.2322
  117TMC2    H5 1797   0.455   1.969  14.388 -1.2262  1.6830  3.2544
  118MPD2     C 1798   1.110   2.327  14.017  0.4903 -0.0222  0.3101
  118MPD2    C1 1799   1.008   2.290  13.929  0.0457  0.2766  0.3905
  118MPD2    C2 1800   1.010   2.325  13.794  0.1037 -0.2363  0.1638
  118MPD2    C3 1801   1.117   2.409  13.752 -0.4397 -0.4696 -0.4968
  118MPD2    C4 1802   1.224   2.443  13.840  0.0273 -0.9018 -0.1958
  118MPD2    C5 1803   1.212   2.408  13.970  0.6668 -0.0912 -0.2162
  118MPD2     H 1804   0.927   2.297  13.731  0.6571  2.3920 -1.7661
  118MPD2    H1 1805   1.312   2.499  13.807 -1.8274  1.7745 -0.6341
  118MPD2    H2 1806   1.114   2.310  14.124 -0.7534 -1.5912  0.0958
  118MPD2    H3 1807   1.276   2.449  14.047  0.8363  0.7962 -0.8224
  118MPD2     N 1808   1.134   2.451  13.619  0.2846  0.0653 -0.2848
  118MPD2    H5 1809   1.217   2.504  13.593 -1.2540  2.6795  0.2266
  118MPD2    N1 1810   0.893   2.223  13.994 -0.4803 -0.0164  0.2833
  118MPD2    H7 1811   0.887   2.226  14.095  0.1272  0.6514  0.2971
  119MPD2     C 1812   4.203   3.870  13.963 -0.2452 -0.1525  0.2063
  119MPD2    C1 1813   4.075   3.857  14.006 -0.7350 -0.4269 -0.2682
  119MPD2    C2 1814   3.974   3.847  13.910 -0.2037  0.2983 -0.2594
  119MPD2    C3 1815   4.003   3.817  13.780 -0.5879 -0.3738  0.1683
  119MPD2    C4 1816   4.133   3.815  13.741  0.0458  0.4275  0.3389
  119MPD2    C5 1817   4.232   3.846  13.834  0.3710  0.4474  0.0423
  119MPD2     H 1818   3.872   3.869  13.940  0.3604  1.8612  0.4787
  119MPD2    H1 1819   4.161   3.786  13.640 -2.0707  0.2552 -0.2176
  119MPD2    H2 1820   4.280   3.898  14.035  0.0930 -0.7450  0.0756
  119MPD2    H3 1821   4.336   3.842  13.803  0.3562 -0.5309  0.1036
  119MPD2     N 1822   3.905   3.795  13.686  0.4708  0.4920 -0.3353
  119MPD2    H5 1823   3.929   3.783  13.589 -0.3525  2.6224 -0.8094
  119MPD2    N1 1824   4.050   3.853  14.151 -1.0787 -0.4219  0.5005
  119MPD2    H7 1825   4.124   3.893  14.207 -1.3364 -0.3854  0.8132
  120TCq2    C1 1826   3.766   3.789  13.707 -0.9135  0.1248 -0.4465
  120TCq2    O2 1827   3.705   3.791  13.812 -0.5804  0.2810  1.1423
  120TCq2    C2 1828   3.692   3.779  13.585  0.4514  0.0822  0.1370
  120TCq2    C3 1829   3.763   3.810  13.472 -0.0146  0.1955 -0.3933
  120TCq2    C4 1830   3.706   3.782  13.352  0.3545 -0.3040 -0.7242
  120TCq2    C5 1831   3.575   3.729  13.351  0.0039 -0.9237 -0.2926
  120TCq2    C6 1832   3.512   3.686  13.464  0.4327 -0.5670 -0.1442
  120TCq2    C7 1833   3.571   3.719  13.583  0.4195  0.2733 -0.3306
  120TCq2    C8 1834   3.387   3.616  13.456  0.3482  0.3076 -0.2962
  120TCq2    O4 1835   3.317   3.652  13.361  0.0538 -0.3310 -0.1457
  120TCq2    C9 1836   3.772   3.827  13.234 -0.1887  0.2004  0.0601
  120TCq2    O5 1837   3.720   3.789  13.124 -0.0091 -0.0424  0.5647
  120TCq2    O6 1838   3.896   3.850  13.242  0.2531  0.5213 -0.9630
  120TCq2    H2 1839   3.858   3.862  13.474 -0.2591  0.6998 -1.7258
  120TCq2    H3 1840   3.527   3.701  13.258 -2.0159  0.0721  0.4419
  120TCq2    H4 1841   3.516   3.702  13.675  1.7287  2.2659  0.7969
  121TMC2    C1 1842   0.842   0.632  13.871  0.0041 -0.0809 -0.2886
  121TMC2    C2 1843   0.810   0.601  14.001  0.5298 -0.0310  0.0766
  121TMC2    C3 1844   0.674   0.607  14.014 -0.0757 -0.5570  0.3987
  121TMC2    C4 1845   0.756   0.674  13.766  0.1400  0.4128 -0.4389
  121TMC2    C5 1846   0.626   0.671  13.791 -0.4830 -0.4221  0.0003
  121TMC2    C6 1847   0.588   0.640  13.919 -0.5360 -0.0686  1.0694
  121TMC2     C 1848   0.979   0.688  13.867 -0.6250  0.1154 -0.0872
  121TMC2     O 1849   1.016   0.744  13.969 -0.3657  0.8607  1.2827
  121TMC2     H 1850   0.881   0.610  14.083 -1.7417 -2.9487  2.3499
  121TMC2    H1 1851   0.789   0.703  13.667 -0.9466 -0.5872 -1.0848
  121TMC2    H2 1852   0.484   0.642  13.948 -1.1249 -0.1311 -1.0752
  121TMC2    C7 1853   0.541   0.767  13.722  0.6325 -0.5226  0.0976
  121TMC2    C8 1854   0.621   0.563  14.137 -0.6897 -0.1272 -0.0058
  121TMC2    O1 1855   0.611   0.852  13.663 -0.0538  0.1851  0.5439
  121TMC2    O2 1856   0.504   0.579  14.169  0.2159 -0.3382  0.4462
  121TMC2    O5 1857   0.701   0.470  14.198  0.0826 -0.2505 -0.5150
  121TMC2    H5 1858   0.795   0.474  14.170  0.0965  2.0807 -0.1332
  122MPD2     C 1859   1.166   0.879  13.757 -0.1357  0.1733 -0.2012
  122MPD2    C1 1860   1.120   0.775  13.682 -0.4397 -0.0329  0.6415
  122MPD2    C2 1861   1.143   0.766  13.546  0.3203  0.0414  0.3226
  122MPD2    C3 1862   1.221   0.867  13.481  0.2765 -0.1921 -0.2657
  122MPD2    C4 1863   1.298   0.938  13.572 -0.4765 -0.2856 -0.2972
  122MPD2    C5 1864   1.252   0.964  13.696  0.2160  0.8803  0.6971
  122MPD2     H 1865   1.106   0.685  13.483 -2.2233  1.7088 -0.2789
  122MPD2    H1 1866   1.362   1.017  13.533 -0.3284 -0.6235 -0.7412
  122MPD2    H2 1867   1.147   0.900  13.862  0.7579  1.6676 -0.3417
  122MPD2    H3 1868   1.304   1.036  13.758  0.2396  0.6268  0.9766
  122MPD2     N 1869   1.229   0.902  13.345 -0.1177  0.2249  0.1961
  122MPD2    H5 1870   1.294   0.976  13.320 -1.7805  1.5113 -0.2536
  122MPD2    N1 1871   1.026   0.689  13.732 -0.6493 -0.5425  0.1244
  122MPD2    H7 1872   0.992   0.612  13.676 -1.0117  1.7088 -2.7596
  123MPD2     C 1873   3.984   2.449   8.893 -0.3811 -0.4277  0.0113
  123MPD2    C1 1874   3.963   2.578   8.934  1.0956  0.3838 -0.6044
  123MPD2    C2 1875   4.051   2.680   8.898  0.1696  0.5565  0.1429
  123MPD2    C3 1876   4.163   2.642   8.815 -0.2325  0.2012 -0.4867
  123MPD2    C4 1877   4.181   2.510   8.767 -0.0455  0.4296 -0.3881
  123MPD2    C5 1878   4.088   2.423   8.820  0.3692  0.0664 -0.2407
  123MPD2     H 1879   4.042   2.784   8.926 -0.2162  0.2634  1.1154
  123MPD2    H1 1880   4.268   2.475   8.713 -0.2247 -1.1253  0.3142
  123MPD2    H2 1881   3.926   2.361   8.918  1.3886 -1.4049  0.6358
  123MPD2    H3 1882   4.092   2.317   8.800  1.5209 -0.7084  4.1526
  123MPD2     N 1883   4.237   2.755   8.778 -0.1128  0.1068 -0.5887
  123MPD2    H5 1884   4.191   2.842   8.803  1.1177  0.2820  1.0361
  123MPD2    N1 1885   3.847   2.600   9.009  0.9735  0.6258 -0.6660
  123MPD2    H7 1886   3.793   2.518   9.035  0.3141  1.1343 -0.3995
  124TCq2    C1 1887   4.348   2.753   8.693  0.1490 -0.2344 -0.3877
  124TCq2    O2 1888   4.395   2.662   8.625 -0.5834  1.0715 -0.4170
  124TCq2    C2 1889   4.386   2.890   8.661  0.2992 -0.3360  0.2079
  124TCq2    C3 1890   4.453   2.908   8.547 -0.0715  0.1512  0.1282
  124TCq2    C4 1891   4.486   3.035   8.516 -0.0672  0.4811  0.4691
  124TCq2    C5 1892   4.473   3.136   8.608  0.2262  0.3250 -0.6742
  124TCq2    C6 1893   4.434   3.106   8.734  0.6301  0.7100  0.1878
  124TCq2    C7 1894   4.381   2.986   8.763  0.0711  0.8966 -0.0917
  124TCq2    C8 1895   4.477   3.182   8.848 -0.1743  0.9730  0.9044
  124TCq2    O4 1896   4.412   3.167   8.949  0.0737  0.0626  0.2429
  124TCq2    C9 1897   4.538   3.069   8.387  0.5696 -0.3994 -0.3443
  124TCq2    O5 1898   4.554   2.976   8.301  0.3856  0.2900  0.6399
  124TCq2    O6 1899   4.564   3.189   8.374 -0.3772  0.2118  0.1713
  124TCq2    H2 1900   4.468   2.831   8.473  2.1124 -0.2818  1.0189
  124TCq2    H3 1901   4.522   3.233   8.597  1.6210 -0.4301 -1.1095
  124TCq2    H4 1902   4.347   2.961   8.862 -0.9266  1.7773 -0.2110
  125TMC2    C1 1903   0.054   4.325   9.975 -0.4991 -0.0530 -0.4169
  125TMC2    C2 1904   0.116   4.212  10.018 -0.2693 -0.0902 -0.1430
  125TMC2    C3 1905   0.190   4.138   9.922 -0.0447 -1.4336 -0.0454
  125TMC2    C4 1906   0.059   4.369   9.844 -0.7297  0.1288 -0.3112
  125TMC2    C5 1907   0.136   4.295   9.759 -0.1727 -0.0233  0.1710
  125TMC2    C6 1908   0.194   4.173   9.793  0.3416 -0.2739  0.1553
  125TMC2     C 1909   4.680   4.389  10.069 -0.1433  1.0457 -0.1795
  125TMC2     O 1910   4.656   4.335  10.175 -0.4870 -0.1326  0.0493
  125TMC2     H 1911   0.108   4.172  10.119 -0.1677 -2.2988 -1.0145
  125TMC2    H1 1912   0.024   4.466   9.809 -0.3182  0.7897  1.0749
  125TMC2    H2 1913   0.248   4.105   9.728  1.4514 -1.6159  2.4588
  125TMC2    C7 1914   0.147   4.346   9.623  0.3946 -0.0987 -0.2892
  125TMC2    C8 1915   0.296   4.057   9.970 -0.1394  0.2461  0.4625
  125TMC2    O1 1916   0.035   4.372   9.574 -0.2901 -0.2574 -0.5520
  125TMC2    O2 1917   0.401   4.052   9.914  0.2847  0.4822  0.1069
  125TMC2    O5 1918   0.241   3.963  10.050 -0.2354 -0.0936 -0.2760
  125TMC2    H5 1919   0.151   3.980  10.088  0.0781 -2.9369  1.8169
  126MPD1     C 1920   4.450   0.089  10.224  0.2469 -0.7812 -0.5945
  126MPD1    C1 1921   4.499   0.113  10.096  0.0585  0.3359 -0.3842
  126MPD1    C2 1922   4.558   0.007  10.031 -0.1959 -0.3110  0.4120
  126MPD1    C3 1923   4.574   4.610  10.098 -0.0200 -0.0455  0.1408
  126MPD1    C4 1924   4.534   4.591  10.232  0.7673 -0.4754  0.5462
  126MPD1    C5 1925   4.470   4.689  10.294  0.0471  0.1843 -0.3368
  126MPD1     H 1926   4.598   0.020   9.932  2.4449  0.3821  1.5683
  126MPD1    H1 1927   4.541   4.495  10.282  0.9177 -1.3116 -1.0530
  126MPD1    H2 1928   4.394   0.160  10.284  1.5993 -0.6419  0.5201
  126MPD1    H3 1929   4.416   4.676  10.387  0.0726 -0.2085 -0.3756
  126MPD1     N 1930   4.641   4.508  10.023  0.1416 -0.2636 -0.0025
  126MPD1    H5 1931   4.672   4.538   9.931 -0.7514 -1.4231 -0.6773
  126MPD1    N1 1932   4.468   0.232  10.028 -0.1769  0.2100 -0.3809
  126MPD1    H6 1933   4.523   0.239   9.943  0.1429 -2.5022 -0.4112
  126MPD1    H7 1934   4.492   0.310  10.088 -1.6704 -0.1079  0.6402
  127MPD2     C 1935   1.070   3.585   9.688  0.1625 -0.2153  0.2373
  127MPD2    C1 1936   0.978   3.587   9.785  0.4713 -0.2030  0.0742
  127MPD2    C2 1937   0.970   3.684   9.888 -0.5535 -0.2691 -0.3817
  127MPD2    C3 1938   1.074   3.780   9.891 -0.0174 -0.0099 -0.3850
  127MPD2    C4 1939   1.167   3.780   9.784 -0.0511  0.3829  0.0506
  127MPD2    C5 1940   1.165   3.681   9.688 -0.2676  0.3181  0.8123
  127MPD2     H 1941   0.899   3.677   9.970 -0.3993  2.0270 -0.0589
  127MPD2    H1 1942   1.249   3.848   9.769  0.1804 -0.3005 -1.8454
  127MPD2    H2 1943   1.069   3.502   9.618  0.6674 -0.9248  1.0699
  127MPD2    H3 1944   1.235   3.671   9.606  0.5772  0.7807  1.4785
  127MPD2     N 1945   1.072   3.875   9.992 -0.6225  0.5000  0.3082
  127MPD2    H5 1946   0.993   3.865  10.055 -0.6716  1.7192  0.4259
  127MPD2    N1 1947   0.883   3.484   9.765 -0.4309 -0.4213  0.1790
  127MPD2    H7 1948   0.901   3.410   9.699 -1.0243 -0.8032  0.4493
  128TCq2    C1 1949   0.782   3.454   9.856 -0.2165  0.2130 -0.2311
  128TCq2    O2 1950   0.763   3.493   9.971  0.3644  0.1136 -0.5459
  128TCq2    C2 1951   0.679   3.378   9.797 -0.7940 -0.0774 -0.3092
  128TCq2    C3 1952   0.604   3.295   9.879 -0.1115  0.2428  0.0092
  128TCq2    C4 1953   0.510   3.221   9.813 -0.0229 -0.3437 -0.4522
  128TCq2    C5 1954   0.494   3.219   9.679 -0.5361  0.4975  0.3776
  128TCq2    C6 1955   0.576   3.295   9.601 -0.4964 -0.3734  1.1443
  128TCq2    C7 1956   0.666   3.380   9.657 -0.4521 -0.0174  0.4715
  128TCq2    C8 1957   0.590   3.259   9.457 -0.1515  1.0894  0.2609
  128TCq2    O4 1958   0.658   3.330   9.384  0.2351  0.1493  0.2456
  128TCq2    C9 1959   0.419   3.137   9.891 -0.3587 -0.1364  0.1825
  128TCq2    O5 1960   0.330   3.074   9.832 -0.0845  0.4097 -0.5549
  128TCq2    O6 1961   0.457   3.115  10.009 -0.3935  0.1675 -0.2978
  128TCq2    H2 1962   0.604   3.308   9.987 -1.4173  0.8591 -0.0542
  128TCq2    H3 1963   0.404   3.172   9.640 -1.5648  2.3232  0.5703
  128TCq2    H4 1964   0.727   3.443   9.594  1.2544 -4.9608 -2.7820
  129MPD2     C 1965   3.653   1.154   1.006 -0.1258  0.6214 -0.4618
  129MPD2    C1 1966   3.786   1.131   0.962 -0.3351  0.6669 -0.4208
  129MPD2    C2 1967   3.824   1.183   0.840  0.2688 -0.1045 -0.5368
  129MPD2    C3 1968   3.737   1.265   0.766  0.0365  0.8810  0.3177
  129MPD2    C4 1969   3.610   1.287   0.813  0.1825  0.3207 -0.1054
  129MPD2    C5 1970   3.573   1.234   0.932  0.1696 -0.1477  0.3789
  129MPD2     H 1971   3.925   1.168   0.802  0.2103  0.8404 -1.0413
  129MPD2    H1 1972   3.530   1.347   0.772  0.6459  1.7647  1.0859
  129MPD2    H2 1973   3.621   1.119   1.103  1.8008 -1.4048 -0.5563
  129MPD2    H3 1974   3.471   1.246   0.967  0.7881  3.4869  0.9077
  129MPD2     N 1975   3.777   1.320   0.639  0.0616 -0.1567  0.3282
  129MPD2    H5 1976   3.875   1.309   0.617  0.4838  0.8184  1.7549
  129MPD2    N1 1977   3.883   1.058   1.038 -0.4072 -0.2527  0.1521
  129MPD2    H7 1978   3.973   1.044   0.993  1.7640  3.4962  3.3363
  130TCq2    C1 1979   3.863   1.009   1.167 -0.9862  0.5285  0.1558
  130TCq2    O2 1980   3.757   0.996   1.231 -0.0124 -0.0727  0.1037
  130TCq2    C2 1981   3.978   0.956   1.227 -0.0294 -0.1827  0.0568
  130TCq2    C3 1982   4.099   0.995   1.185  0.0074 -1.1623  0.3495
  130TCq2    C4 1983   4.212   0.932   1.228 -0.3862 -0.0959  0.1481
  130TCq2    C5 1984   4.209   0.823   1.309  0.4976 -0.5315 -1.1645
  130TCq2    C6 1985   4.087   0.803   1.369 -0.1411  0.1861  0.0611
  130TCq2    C7 1986   3.972   0.864   1.328  0.4650  0.2102  0.1462
  130TCq2    C8 1987   4.063   0.705   1.479  0.8785 -0.1057  0.4866
  130TCq2    O4 1988   3.951   0.703   1.528  0.0816  0.3508  0.1652
  130TCq2    C9 1989   4.336   0.985   1.174 -0.4329  0.3487 -0.2832
  130TCq2    O5 1990   4.434   0.906   1.185 -0.9486  0.2363  0.2173
  130TCq2    O6 1991   4.332   1.091   1.100 -0.3540  0.0871 -0.4174
  130TCq2    H2 1992   4.108   1.083   1.122 -1.6407 -1.2040  0.0567
  130TCq2    H3 1993   4.305   0.806   1.356 -0.1247 -0.7480  0.0052
  130TCq2    H4 1994   3.874   0.854   1.372  1.0769 -0.2786  1.4058
  131MPD2     C 1995   3.240   3.328   9.453  0.3849  0.2763 -0.1844
  131MPD2    C1 1996   3.375   3.337   9.444 -0.4889 -0.7301 -0.9706
  131MPD2    C2 1997   3.438   3.233   9.378  0.7124 -0.4238 -0.3998
  131MPD2    C3 1998   3.366   3.122   9.336  0.2112 -0.7404  0.2681
  131MPD2    C4 1999   3.230   3.116   9.336 -0.1284 -0.5031  0.0026
  131MPD2    C5 2000   3.168   3.221   9.402  0.1627  0.1947  0.1570
  131MPD2     H 2001   3.547   3.226   9.376  0.7126 -0.6531  0.2160
  131MPD2    H1 2002   3.183   3.021   9.315  0.8137 -1.0146  0.2105
  131MPD2    H2 2003   3.182   3.413   9.488  0.5480 -0.2791  1.4115
  131MPD2    H3 2004   3.060   3.224   9.414  0.0010 -0.5250 -1.1361
  131MPD2     N 2005   3.453   3.012   9.307 -0.1243 -0.0309  0.2898
  131MPD2    H5 2006   3.553   3.027   9.300 -0.0059  0.1302  2.5102
  131MPD2    N1 2007   3.445   3.443   9.503  0.2793  0.1103  0.4519
  131MPD2    H7 2008   3.392   3.503   9.566  0.2977 -0.7693  1.3037
  132TCq2    C1 2009   3.886   3.824   9.538  0.7495  0.3505  0.3315
  132TCq2    O2 2010   3.966   3.756   9.473 -0.4106 -0.2340 -0.4865
  132TCq2    C2 2011   3.784   3.746   9.601  0.2861 -0.0689  0.2869
  132TCq2    C3 2012   3.724   3.795   9.714  0.6436  0.6550 -0.0248
  132TCq2    C4 2013   3.623   3.717   9.764 -0.3238  0.6187 -0.4734
  132TCq2    C5 2014   3.564   3.607   9.698  0.2832 -1.0059 -0.1490
  132TCq2    C6 2015   3.623   3.577   9.578 -0.4309 -0.0294 -0.3083
  132TCq2    C7 2016   3.741   3.639   9.527  0.0674  0.0952  0.3733
  132TCq2    C8 2017   3.582   3.456   9.498 -0.2135  0.3204  0.0730
  132TCq2    O4 2018   3.661   3.395   9.439  0.2403  0.1879 -0.4585
  132TCq2    C9 2019   3.582   3.739   9.905  0.1193 -0.0591  0.3775
  132TCq2    O5 2020   3.497   3.661   9.947  0.4133 -0.0491 -0.0428
  132TCq2    O6 2021   3.643   3.825   9.973  0.1871 -0.7026 -0.8199
  132TCq2    H2 2022   3.748   3.881   9.775  0.4850 -0.1156  1.1098
  132TCq2    H3 2023   3.504   3.529   9.744 -2.2416  0.6578 -0.6503
  132TCq2    H4 2024   3.800   3.608   9.443  0.5829 -1.5381  1.3455
  133MPD2     C 2025   2.742   4.707   9.618  0.7435  0.0395 -0.7154
  133MPD2    C1 2026   2.798   4.628   9.519 -0.3055 -0.3133 -0.0271
  133MPD2    C2 2027   2.717   4.528   9.468  0.3441  0.1986 -0.3973
  133MPD2    C3 2028   2.586   4.510   9.511 -0.3954  0.0240 -0.2086
  133MPD2    C4 2029   2.536   4.595   9.610 -0.5431  0.8021 -0.4341
  133MPD2    C5 2030   2.614   4.700   9.655 -0.4811 -0.0693 -0.1701
  133MPD2     H 2031   2.760   4.454   9.401 -1.9540 -1.3198 -0.1746
  133MPD2    H1 2032   2.437   4.588   9.653 -0.7744  2.1757 -0.7460
  133MPD2    H2 2033   2.807   0.056   9.670 -0.7166  1.7965 -1.2768
  133MPD2    H3 2034   2.584   0.045   9.736  1.3783 -0.3499  0.7442
  133MPD2     N 2035   2.512   4.391   9.481 -0.0452 -0.1511 -0.8652
  133MPD2    H5 2036   2.432   4.370   9.540  1.2304 -0.5683  0.7021
  133MPD2    N1 2037   2.934   4.653   9.483 -0.2169  0.1530  0.3453
  133MPD2    H7 2038   2.980   0.008   9.533  1.4299  0.8258 -2.1415
  134TCq2    C1 2039   2.999   4.598   9.373  0.1975 -0.0387 -0.9951
  134TCq2    O2 2040   2.955   4.511   9.301 -0.2438 -0.0767 -0.4273
  134TCq2    C2 2041   3.124   4.668   9.350  0.1847 -0.4675  0.2014
  134TCq2    C3 2042   3.143   0.075   9.386 -0.0154 -0.3715  0.0211
  134TCq2    C4 2043   3.270   0.127   9.362 -0.9119  0.4840  0.1685
  134TCq2    C5 2044   3.368   0.061   9.305  0.4549  0.0239  0.4790
  134TCq2    C6 2045   3.344   4.651   9.266  0.1871 -0.0174  0.0985
  134TCq2    C7 2046   3.221   4.594   9.283  0.1731 -0.2355 -1.0833
  134TCq2    C8 2047   3.435   4.588   9.171  0.0400  0.5535 -0.2125
  134TCq2    O4 2048   3.434   4.464   9.150 -0.0518  0.2385 -0.6633
  134TCq2    C9 2049   3.302   0.261   9.416  0.0890  0.3314 -0.0441
  134TCq2    O5 2050   3.200   0.321   9.461  0.4455 -0.5906  0.6147
  134TCq2    O6 2051   3.405   0.305   9.362 -0.0485  0.6457 -0.8779
  134TCq2    H2 2052   3.066   0.140   9.426 -1.0640 -0.3947 -1.9468
  134TCq2    H3 2053   3.471   0.094   9.306 -0.3857  2.7933 -1.6470
  134TCq2    H4 2054   3.196   4.496   9.245 -0.7907 -0.3814 -0.0698
  135MPD2     C 2055   4.311   1.154   9.042  0.5406  0.3524  0.0546
  135MPD2    C1 2056   4.371   1.098   9.153  0.2091  0.4742 -0.5893
  135MPD2    C2 2057   4.509   1.067   9.162 -0.5277 -0.1442  0.7912
  135MPD2    C3 2058   4.590   1.107   9.058  0.0772 -0.2860  0.3624
  135MPD2    C4 2059   4.531   1.166   8.953 -0.6730  0.4987  0.3762
  135MPD2    C5 2060   4.397   1.191   8.941  0.4260 -0.8319 -0.2354
  135MPD2     H 2061   4.555   1.028   9.252  0.8023  1.1832  0.6838
  135MPD2    H1 2062   4.586   1.195   8.864 -0.5452  0.4897  0.4533
  135MPD2    H2 2063   4.207   1.182   9.048  0.3962 -0.6698  2.2419
  135MPD2    H3 2064   4.363   1.256   8.861 -1.4887 -0.5088  0.8440
  135MPD2     N 2065   0.010   1.095   9.050  0.4199 -0.1051 -0.1241
  135MPD2    H5 2066   0.048   1.151   8.975 -0.3544  0.4858 -0.0781
  135MPD2    N1 2067   4.290   1.076   9.266  0.3395 -0.0296  0.4549
  135MPD2    H7 2068   4.188   1.078   9.261  0.5190 -0.2010 -3.6395
  136TCq2    C1 2069   4.330   1.066   9.396  0.1398  0.1303 -0.7763
  136TCq2    O2 2070   4.428   1.118   9.447  0.9248  0.3931  0.0150
  136TCq2    C2 2071   4.241   1.007   9.493 -0.2029 -0.1412  0.3352
  136TCq2    C3 2072   4.142   0.920   9.451  0.8580 -0.3603  0.4691
  136TCq2    C4 2073   4.072   0.856   9.546  0.0391 -0.2337 -0.4697
  136TCq2    C5 2074   4.094   0.867   9.680  0.5400  0.6931  0.5920
  136TCq2    C6 2075   4.192   0.959   9.717  0.7462  0.2694 -0.0141
  136TCq2    C7 2076   4.261   1.036   9.625 -0.4346 -0.3290 -0.7189
  136TCq2    C8 2077   4.233   0.971   9.857  0.0110  0.0514 -0.6441
  136TCq2    O4 2078   4.336   1.035   9.883 -0.5453  0.4267  0.0252
  136TCq2    C9 2079   3.990   0.738   9.500 -0.7985 -0.0832 -0.8381
  136TCq2    O5 2080   3.982   0.732   9.374  0.1274  0.1158  0.0404
  136TCq2    O6 2081   3.929   0.666   9.580  0.1802 -0.6822 -0.1037
  136TCq2    H2 2082   4.138   0.893   9.346 -2.7898  1.5277  0.1171
  136TCq2    H3 2083   4.029   0.815   9.750  1.2911 -1.8901 -0.6057
  136TCq2    H4 2084   4.336   1.107   9.659 -1.6942  1.1455 -1.0287
  137MPD2     C 2085   0.429   4.590   9.752 -0.6407  0.6595 -0.1641
  137MPD2    C1 2086   0.313   4.665   9.734 -0.4309 -0.5122  0.6519
  137MPD2    C2 2087   0.235   4.685   9.843 -1.1508 -0.7311  0.3223
  137MPD2    C3 2088   0.264   4.639   9.967 -0.1283 -0.0223  0.4494
  137MPD2    C4 2089   0.374   4.559   9.980 -0.1868  0.7626 -0.0513
  137MPD2    C5 2090   0.454   4.524   9.869  0.2786  0.0857  0.1764
  137MPD2     H 2091   0.143   0.021   9.828 -1.3003 -0.8957  0.6075
  137MPD2    H1 2092   0.410   4.519  10.074 -1.3223 -0.4171 -0.1152
  137MPD2    H2 2093   0.513   4.576   9.685 -0.7636 -2.1549  0.2635
  137MPD2    H3 2094   0.544   4.467   9.884 -1.0612 -2.1940 -0.4250
  137MPD2     N 2095   0.182   4.695  10.069  0.1245  0.2664  0.2276
  137MPD2    H5 2096   0.133   0.060  10.045  0.5495  0.8665  1.5039
  137MPD2    N1 2097   0.301   0.013   9.611  0.1044 -0.2127  0.2675
  137MPD2    H7 2098   0.376   4.719   9.544 -1.1129 -0.2853 -1.0911
  138TCq2    C1 2099   0.198   0.088   9.565 -0.3446  0.4127 -0.1680
  138TCq2    O2 2100   0.093   0.118   9.621  0.7588  0.3489 -0.1046
  138TCq2    C2 2101   0.215   0.138   9.433 -0.6230  0.0447 -0.0275
  138TCq2    C3 2102   0.332   0.126   9.360  0.0880 -0.2828 -0.5734
  138TCq2    C4 2103   0.342   0.191   9.240 -0.0807  0.2453  0.5848
  138TCq2    C5 2104   0.240   0.271   9.194  0.1906  0.0392  0.2095
  138TCq2    C6 2105   0.127   0.286   9.269 -1.1577  0.2426 -0.6901
  138TCq2    C7 2106   0.108   0.212   9.386  0.0809 -0.3528 -0.2128
  138TCq2    C8 2107   0.015   0.349   9.211 -0.1484  0.1071  0.0987
  138TCq2    O4 2108   0.027   0.441   9.129  0.1511  0.3953 -0.8018
  138TCq2    C9 2109   0.471   0.199   9.173 -0.0298 -0.1104  0.0431
  138TCq2    O5 2110   0.461   0.266   9.065  0.0473 -0.8236  0.7243
  138TCq2    O6 2111   0.573   0.138   9.221  0.0375 -0.1325 -0.1559
  138TCq2    H2 2112   0.419   0.072   9.393 -0.3184 -0.0200  0.9472
  138TCq2    H3 2113   0.249   0.322   9.098  0.6871  0.8120  0.6736
  138TCq2    H4 2114   0.019   0.213   9.448  1.3358  0.1599  1.5702
  139TMC2    C1 2115   0.580   3.485  12.915 -0.0573  0.3062  0.1517
  139TMC2    C2 2116   0.528   3.520  12.796 -0.3521 -0.4503  0.6915
  139TMC2    C3 2117   0.439   3.624  12.798 -0.0518 -0.2274 -0.4459
  139TMC2    C4 2118   0.548   3.538  13.035  0.0676  0.0298  0.8224
  139TMC2    C5 2119   0.457   3.643  13.032 -0.3577  0.0235 -0.1902
  139TMC2    C6 2120   0.400   3.686  12.911  0.0997  0.1767 -0.8062
  139TMC2     C 2121   0.668   3.365  12.913 -0.4670 -0.6466  0.0817
  139TMC2     O 2122   0.714   3.324  12.807 -0.1760  0.3212 -0.1576
  139TMC2     H 2123   0.577   3.487  12.705  0.6160  2.7777  0.0564
  139TMC2    H1 2124   0.574   3.501  13.134  1.9557 -2.5069 -0.6476
  139TMC2    H2 2125   0.335   3.773  12.908 -1.9893 -1.3499  1.2565
  139TMC2    C7 2126   0.397   3.708  13.146  0.3705 -0.1503  0.4577
  139TMC2    C8 2127   0.374   3.654  12.674 -0.3433 -0.1272 -0.6858
  139TMC2    O1 2128   0.297   3.779  13.129 -0.0072 -0.2950 -0.5987
  139TMC2    O2 2129   0.375   3.574  12.582  0.4339 -0.0791  0.1636
  139TMC2    O5 2130   0.271   3.742  12.693 -0.6587 -0.2422  0.5514
  139TMC2    H5 2131   0.309   3.815  12.746  1.4949 -2.6754  2.3428
  140MPD2     C 2132   0.794   3.153  13.196 -0.0001  0.1812 -0.2170
  140MPD2    C1 2133   0.773   3.195  13.068  0.4582  0.1873 -0.0206
  140MPD2    C2 2134   0.846   3.142  12.968  0.0867 -0.3906  0.0490
  140MPD2    C3 2135   0.951   3.052  12.989 -0.1247  0.1083 -0.7949
  140MPD2    C4 2136   0.968   3.006  13.113  0.4133  0.2767 -0.0121
  140MPD2    C5 2137   0.894   3.060  13.217  0.0801  0.3172 -0.6324
  140MPD2     H 2138   0.844   3.177  12.865  1.0500  3.9605  1.5203
  140MPD2    H1 2139   1.045   2.933  13.137 -0.6177 -0.9591 -0.4627
  140MPD2    H2 2140   0.738   3.175  13.286  1.2944  3.5508 -0.2265
  140MPD2    H3 2141   0.915   3.017  13.314 -0.3254  1.8910  0.1576
  140MPD2     N 2142   1.026   2.998  12.880 -0.0817 -0.2236 -0.7535
  140MPD2    H5 2143   0.986   3.021  12.790  0.8883  1.0424 -0.8565
  140MPD2    N1 2144   0.691   3.307  13.037 -0.4137 -0.2591  0.0186
  140MPD2    H7 2145   0.651   3.345  13.122 -0.4023  0.5095 -0.3240
  141TCq2    C1 2146   1.211   4.160  14.004 -0.8291  0.3264 -0.3906
  141TCq2    O2 2147   1.150   4.207  13.909  0.2399  0.5430  0.1170
  141TCq2    C2 2148   1.355   4.179  14.017 -0.0492  0.2770 -0.6425
  141TCq2    C3 2149   1.423   4.104  14.114 -0.2799  0.3534  0.2027
  141TCq2    C4 2150   1.539   4.157  14.164  0.0568 -0.3610 -0.1423
  141TCq2    C5 2151   1.582   4.278  14.130 -0.1809 -0.7176  0.0551
  141TCq2    C6 2152   1.509   4.354  14.044  0.7192  0.3827 -0.2526
  141TCq2    C7 2153   1.391   4.310  13.992  0.0533 -0.1823  0.5387
  141TCq2    C8 2154   1.541   4.491  14.005 -0.0184  0.4825  0.4035
  141TCq2    O4 2155   1.493   4.531  13.894  0.0251 -0.6414 -0.5699
  141TCq2    C9 2156   1.614   4.101  14.276  0.2435  0.0264  0.8616
  141TCq2    O5 2157   1.561   4.010  14.349 -0.3710 -0.0504  0.4890
  141TCq2    O6 2158   1.719   4.157  14.321  0.2715  0.2519  0.2761
  141TCq2    H2 2159   1.396   4.004  14.146  0.2331  0.1098 -0.1285
  141TCq2    H3 2160   1.686   4.303  14.149 -0.9575  2.3062  0.3788
  141TCq2    H4 2161   1.336   4.374  13.924 -0.0932  1.7986  2.5223
  142MPD2     C 2162   4.131   3.189  10.198  0.0089 -1.2023 -0.5328
  142MPD2    C1 2163   4.119   3.133  10.072  0.3486 -0.3165  0.3532
  142MPD2    C2 2164   4.200   3.182   9.968  0.1385 -0.4488 -0.2679
  142MPD2    C3 2165   4.300   3.279   9.991  0.0630  0.2323  0.6731
  142MPD2    C4 2166   4.325   3.320  10.120 -0.0130 -0.5534 -0.1734
  142MPD2    C5 2167   4.240   3.278  10.217  0.1371 -0.4055 -0.3164
  142MPD2     H 2168   4.170   3.152   9.869  0.5937 -1.1661 -0.1851
  142MPD2    H1 2169   4.397   3.400  10.134 -1.5172  0.7836 -0.1473
  142MPD2    H2 2170   4.067   3.178  10.285  1.4624 -2.4199  0.3793
  142MPD2    H3 2171   4.262   3.318  10.315  0.0507  2.2149 -1.3571
  142MPD2     N 2172   4.382   3.341   9.891 -0.0830  0.0611  0.0116
  142MPD2    H5 2173   4.411   3.436   9.911  1.0147 -0.0822 -0.9004
  142MPD2    N1 2174   4.016   3.037  10.062 -0.1209  0.1448 -0.0442
  142MPD2    H7 2175   3.967   3.011  10.147  2.5393 -2.7013  0.6432
  143TCq2    C1 2176   4.399   3.289   9.766 -0.0398 -0.4670  0.0998
  143TCq2    O2 2177   4.358   3.182   9.733  0.5380  0.0409  0.3114
  143TCq2    C2 2178   4.475   3.370   9.673  0.0990 -0.1924 -0.1811
  143TCq2    C3 2179   4.528   3.499   9.706  0.4997  0.6309  0.1029
  143TCq2    C4 2180   4.557   3.586   9.606  0.3669 -0.2638 -0.7452
  143TCq2    C5 2181   4.544   3.558   9.478  0.3799 -0.0755 -0.4204
  143TCq2    C6 2182   4.508   3.428   9.452  0.1170  0.9368  0.5633
  143TCq2    C7 2183   4.462   3.340   9.542  0.5089  0.1105 -0.0178
  143TCq2    C8 2184   4.549   3.370   9.330  0.1860  0.5416 -0.2854
  143TCq2    O4 2185   4.543   3.248   9.310 -0.3469 -0.6683 -0.2655
  143TCq2    C9 2186   4.602   3.723   9.650  0.5328  0.6341 -0.7989
  143TCq2    O5 2187   4.610   3.803   9.554  0.1082  0.6210  0.0419
  143TCq2    O6 2188   4.590   3.745   9.775  0.2377 -0.0834  0.2648
  143TCq2    H2 2189   4.553   3.527   9.808  0.8831  1.0996 -0.1184
  143TCq2    H3 2190   4.554   3.638   9.405 -0.0334 -1.1982 -1.6985
  143TCq2    H4 2191   4.435   3.237   9.522 -0.9041  0.6038 -0.6880
  144MPD2     C 2192   1.278   2.508   0.783  0.2527  0.4082 -0.6392
  144MPD2    C1 2193   1.338   2.474   0.664 -0.5959 -0.7939 -0.0837
  144MPD2    C2 2194   1.470   2.423   0.669  0.2748  0.1802  0.1842
  144MPD2    C3 2195   1.528   2.391   0.795  0.1731  0.6226  0.1239
  144MPD2    C4 2196   1.459   2.419   0.913 -0.6066  0.3497 -0.4265
  144MPD2    C5 2197   1.334   2.482   0.907  0.6965 -0.2284 -0.2222
  144MPD2     H 2198   1.527   2.394   0.581 -0.5247 -1.1252  0.0944
  144MPD2    H1 2199   1.497   2.387   1.010  0.5189 -0.3545 -1.1013
  144MPD2    H2 2200   1.178   2.549   0.788 -0.0477 -0.0432 -3.0125
  144MPD2    H3 2201   1.284   2.487   1.003  1.1757  2.5021 -0.1166
  144MPD2     N 2202   1.662   2.341   0.803 -0.0809 -0.1666  0.0901
  144MPD2    H5 2203   1.707   2.340   0.893 -0.8310 -0.2142  0.4641
  144MPD2    N1 2204   1.279   2.491   0.536 -0.3830  0.4789 -0.0796
  144MPD2    H7 2205   1.331   2.458   0.455 -0.6609  0.2962 -0.1817
  145TCq2    C1 2206   1.741   2.293   0.705  0.2187 -0.1143  0.1848
  145TCq2    O2 2207   1.714   2.266   0.588 -0.4536  0.2194  0.6821
  145TCq2    C2 2208   1.874   2.255   0.751 -0.3915  0.3331 -0.3346
  145TCq2    C3 2209   1.955   2.179   0.673 -0.1614 -0.3761 -0.1477
  145TCq2    C4 2210   2.071   2.133   0.722 -0.5457  0.4853  0.7784
  145TCq2    C5 2211   2.108   2.168   0.847  0.5930 -0.4642  0.0072
  145TCq2    C6 2212   2.035   2.257   0.919 -0.6213  0.7983 -0.3923
  145TCq2    C7 2213   1.914   2.298   0.874 -0.2786 -1.0582  0.2369
  145TCq2    C8 2214   2.085   2.285   1.060  0.4107  0.0091  0.8059
  145TCq2    O4 2215   2.194   2.234   1.083 -0.1745  0.1028  0.5380
  145TCq2    C9 2216   2.158   2.050   0.641  0.1125 -0.5154 -0.4199
  145TCq2    O5 2217   2.265   2.009   0.689 -0.2168 -0.1955 -0.3185
  145TCq2    O6 2218   2.119   2.041   0.521 -0.4948  0.0244  0.1563
  145TCq2    H2 2219   1.927   2.147   0.574  1.2117 -0.1190 -0.6233
  145TCq2    H3 2220   2.204   2.131   0.882  0.4207 -1.9545 -1.0964
  145TCq2    H4 2221   1.865   2.380   0.926 -0.4768 -1.0052 -0.0351
  146TMC2    C1 2222   3.119   0.710  11.876  0.6219 -0.0027  0.1056
  146TMC2    C2 2223   3.064   0.679  11.755  0.5217 -0.5437  0.0009
  146TMC2    C3 2224   3.146   0.638  11.651  0.3592 -0.6204  0.2419
  146TMC2    C4 2225   3.257   0.700  11.892 -0.7912  0.3476  0.5215
  146TMC2    C5 2226   3.338   0.670  11.784 -0.4704  0.6500  0.6471
  146TMC2    C6 2227   3.281   0.643  11.660  0.3895  0.7139  0.1773
  146TMC2     C 2228   3.037   0.778  11.970 -0.1701  0.1604  0.3780
  146TMC2     O 2229   2.956   0.862  11.938 -0.2989 -0.0232 -0.2051
  146TMC2     H 2230   2.961   0.687  11.723  0.2883  2.6519  1.5893
  146TMC2    H1 2231   3.304   0.733  11.983 -0.8690 -1.5470  1.2459
  146TMC2    H2 2232   3.333   0.623  11.567 -1.9034  1.2299 -1.2171
  146TMC2    C7 2233   3.479   0.701  11.779 -0.0015 -0.4572 -0.2502
  146TMC2    C8 2234   3.094   0.642  11.522 -0.3339 -0.2352  0.3236
  146TMC2    O1 2235   3.532   0.704  11.666 -0.6137 -0.6714 -0.7389
  146TMC2    O2 2236   3.017   0.731  11.487 -0.9277  0.3074 -0.0076
  146TMC2    O5 2237   3.131   0.527  11.462  0.2623  0.5271  0.0641
  146TMC2    H5 2238   3.180   0.468  11.522  0.6227 -2.6526 -3.3133
  147MPD2     C 2239   3.909   0.866  12.006 -0.1916 -0.2702 -0.0765
  147MPD2    C1 2240   3.824   0.816  12.111  0.1498 -0.3725  0.1724
  147MPD2    C2 2241   3.694   0.778  12.075 -0.1479  0.2259  0.4834
  147MPD2    C3 2242   3.655   0.771  11.945  0.0238 -0.3964 -0.0886
  147MPD2    C4 2243   3.738   0.818  11.850  0.3341 -0.1455 -0.5575
  147MPD2    C5 2244   3.859   0.855  11.878 -0.3795 -0.1270  0.2121
  147MPD2     H 2245   3.618   0.739  12.142  0.4468  1.1144  1.6664
  147MPD2    H1 2246   3.715   0.828  11.744 -1.6596  1.3990  0.0457
  147MPD2    H2 2247   4.001   0.920  12.021  0.3372 -0.8850 -1.0471
  147MPD2    H3 2248   3.919   0.894  11.796  0.2664 -1.2025  0.1761
  147MPD2     N 2249   3.536   0.717  11.905  0.4587 -0.5478 -0.4551
  147MPD2    H5 2250   3.466   0.692  11.975  0.0906 -0.9195 -0.9563
  147MPD2    N1 2251   3.882   0.799  12.245 -0.2612 -0.0970 -0.6589
  147MPD2    H7 2252   3.979   0.828  12.257 -0.7299  2.2448 -2.3840
  148MPD2     C 2253   3.667   3.944  10.611 -0.4526  0.4770  0.5241
  148MPD2    C1 2254   3.660   3.895  10.482  0.4520  0.0654 -0.2657
  148MPD2    C2 2255   3.541   3.886  10.412 -0.1207 -0.2684  0.4271
  148MPD2    C3 2256   3.429   3.933  10.476 -0.3398 -0.2071  0.0515
  148MPD2    C4 2257   3.442   3.985  10.605  0.0001  0.2143 -0.5094
  148MPD2    C5 2258   3.559   3.994  10.673 -0.5540 -0.1600 -0.4130
  148MPD2     H 2259   3.542   3.845  10.312 -1.4520  1.1688 -0.1839
  148MPD2    H1 2260   3.354   4.015  10.661 -1.3397 -0.4582 -2.2355
  148MPD2    H2 2261   3.764   3.939  10.659 -1.5575  0.3587  2.7576
  148MPD2    H3 2262   3.572   4.024  10.777 -1.0765 -0.0787 -0.3701
  148MPD2     N 2263   3.299   3.942  10.418 -0.3408 -0.2829 -0.1200
  148MPD2    H5 2264   3.226   3.979  10.478  0.3097  2.8861 -1.2805
  148MPD2    N1 2265   3.777   3.862  10.409  0.7487  0.3122  0.0366
  148MPD2    H7 2266   3.764   3.792  10.337 -1.0886 -1.8405  2.4642
  149TCq2    C1 2267   3.899   3.914  10.443 -0.2146  0.2690 -0.3075
  149TCq2    O2 2268   3.932   4.006  10.518  0.1930  0.0618  0.0827
  149TCq2    C2 2269   4.011   3.840  10.389  0.0391 -0.1241 -0.2781
  149TCq2    C3 2270   4.108   3.915  10.330 -0.4149 -0.5519 -0.1450
  149TCq2    C4 2271   4.187   3.863  10.227 -0.2737 -0.6646 -0.3558
  149TCq2    C5 2272   4.169   3.730  10.194 -0.1713  0.4252  0.2151
  149TCq2    C6 2273   4.060   3.661  10.240  0.4474 -0.5069  0.4007
  149TCq2    C7 2274   3.994   3.709  10.343 -0.4226 -0.6802  0.1270
  149TCq2    C8 2275   3.993   3.546  10.177  1.4589 -0.5114 -0.9198
  149TCq2    O4 2276   3.886   3.504  10.224  0.6066  0.5474 -0.4589
  149TCq2    C9 2277   4.231   3.951  10.121 -1.0236 -0.0557 -0.3088
  149TCq2    O5 2278   4.199   4.071  10.135  0.4736  0.4915  0.4114
  149TCq2    O6 2279   4.274   3.905  10.014  0.2006  0.3840  0.6063
  149TCq2    H2 2280   4.105   4.020  10.356  0.5606 -0.5217 -0.1589
  149TCq2    H3 2281   4.225   3.691  10.111 -0.2928 -0.0003  0.3358
  149TCq2    H4 2282   3.926   3.643  10.396 -1.0794  0.9612  1.3390
  150MPD2     C 2283   4.595   3.846  12.028  0.4120  0.1709 -0.8416
  150MPD2    C1 2284   4.660   3.808  11.914  0.4726  0.4268  0.7659
  150MPD2    C2 2285   0.062   3.863  11.882  0.3085  0.6088  0.2623
  150MPD2    C3 2286   0.121   3.951  11.969 -0.1293  0.1062 -0.6818
  150MPD2    C4 2287   0.056   3.992  12.085  0.9978  0.5193 -0.2844
  150MPD2    C5 2288   4.653   3.944  12.107  0.4977  0.1314  0.2014
  150MPD2     H 2289   0.122   3.842  11.795  1.6163 -0.7711  1.4829
  150MPD2    H1 2290   0.099   4.065  12.153  1.2460  1.8172 -1.8431
  150MPD2    H2 2291   4.496   3.816  12.060 -0.0617  0.1528 -2.3081
  150MPD2    H3 2292   4.594   3.986  12.187  0.4403 -3.2820  1.9672
  150MPD2     N 2293   0.250   4.003  11.924 -0.1290 -0.2583  0.3348
  150MPD2    H5 2294   0.293   3.954  11.846 -0.0707 -0.2344  0.3522
  150MPD2    N1 2295   4.582   3.730  11.830 -0.2843  1.0156 -0.4419
  150MPD2    H7 2296   4.494   3.690  11.858 -0.2433  0.7446 -0.6969
  151TCq2    C1 2297   0.329   4.085  11.998  0.3426 -0.5387  0.6180
  151TCq2    O2 2298   0.312   4.156  12.098 -0.2009 -0.2755  0.5542
  151TCq2    C2 2299   0.469   4.073  11.952  0.5098  0.1297  0.1161
  151TCq2    C3 2300   0.502   4.041  11.817 -0.5408 -0.0471  0.5515
  151TCq2    C4 2301   0.635   4.016  11.796 -0.0935 -1.0418 -0.0392
  151TCq2    C5 2302   0.733   4.031  11.891  0.8858 -0.0266 -0.0266
  151TCq2    C6 2303   0.686   4.066  12.017  0.2056  0.7404 -0.3215
  151TCq2    C7 2304   0.562   4.085  12.049 -0.0819  0.0555  0.4441
  151TCq2    C8 2305   0.773   4.061  12.123  0.3118  0.2314 -0.5056
  151TCq2    O4 2306   0.734   4.105  12.233 -0.0877 -0.1606 -0.2228
  151TCq2    C9 2307   0.673   3.962  11.668 -0.0336  0.1200 -0.4891
  151TCq2    O5 2308   0.781   3.897  11.664  0.2440  0.3428  0.2914
  151TCq2    O6 2309   0.582   3.944  11.587 -0.1853 -0.1975 -0.4384
  151TCq2    H2 2310   0.424   4.030  11.743  1.0114 -0.7655 -0.9832
  151TCq2    H3 2311   0.836   4.005  11.872  1.2802 -1.1880  3.5786
  151TCq2    H4 2312   0.533   4.108  12.151  2.2952  0.2825  1.0555
  152MPD2     C 2313   0.110   3.399  12.479  0.0547 -0.3472 -0.1242
  152MPD2    C1 2314   0.095   3.480  12.368 -0.0609  0.0501  0.2663
  152MPD2    C2 2315   4.688   3.499  12.312 -0.0074 -0.6528  0.0307
  152MPD2    C3 2316   4.579   3.441  12.372  0.5731 -0.1764 -0.1588
  152MPD2    C4 2317   4.598   3.355  12.477  0.0716  0.1863  0.9687
  152MPD2    C5 2318   0.000   3.336  12.526  0.0900 -0.2407  0.1868
  152MPD2     H 2319   4.659   3.570  12.235 -2.0467 -2.2048 -0.6361
  152MPD2    H1 2320   4.514   3.313  12.532 -1.6463  0.7813 -1.1848
  152MPD2    H2 2321   0.210   3.396  12.520  1.7689 -1.3679 -4.3045
  152MPD2    H3 2322   0.007   3.265  12.608  0.5555 -0.4264 -0.0098
  152MPD2     N 2323   4.453   3.483  12.332  0.1021  0.1732 -0.3550
  152MPD2    H5 2324   4.455   3.546  12.252 -0.6826  2.7373  1.6520
  152MPD2    N1 2325   0.208   3.558  12.327  0.3191 -0.0304 -0.2888
  152MPD2    H7 2326   0.289   3.551  12.388 -0.5461  2.0247  1.0869
  153TCq2    C1 2327   0.215   3.621  12.203 -0.7546  0.0966  0.2830
  153TCq2    O2 2328   0.158   3.596  12.101  0.3598  0.2620 -0.2852
  153TCq2    C2 2329   0.332   3.711  12.194  0.9078  0.2268  0.6056
  153TCq2    C3 2330   0.402   3.684  12.082  0.2547  0.7779  0.0132
  153TCq2    C4 2331   0.540   3.697  12.080  0.7439  0.2406  0.5422
  153TCq2    C5 2332   0.603   3.731  12.194  0.0459  0.6587 -0.0793
  153TCq2    C6 2333   0.525   3.754  12.301 -0.2170 -0.2372 -0.4137
  153TCq2    C7 2334   0.392   3.745  12.313  0.2458 -0.3490  0.2419
  153TCq2    C8 2335   0.580   3.805  12.422 -0.3553  0.2480 -0.0174
  153TCq2    O4 2336   0.516   3.885  12.483 -0.4491  0.0869 -0.2211
  153TCq2    C9 2337   0.615   3.699  11.960 -0.3909  0.5404  0.5597
  153TCq2    O5 2338   0.564   3.672  11.850  0.4489 -0.2616 -0.0232
  153TCq2    O6 2339   0.738   3.711  11.971 -0.4936  0.1378  0.6786
  153TCq2    H2 2340   0.359   3.654  11.987  0.1911  0.0176  0.2858
  153TCq2    H3 2341   0.706   3.762  12.199  0.0138  0.5622  1.1235
  153TCq2    H4 2342   0.339   3.755  12.408 -0.3494 -0.0487 -0.1232
  154MPD2     C 2343   3.234   3.069   0.693  0.2578 -0.0950 -0.5039
  154MPD2    C1 2344   3.125   3.062   0.779 -0.5879  0.3422  0.1820
  154MPD2    C2 2345   3.042   3.174   0.793  0.5780 -0.6583 -0.0744
  154MPD2    C3 2346   3.060   3.292   0.719  0.0579  0.4032 -0.4176
  154MPD2    C4 2347   3.166   3.297   0.627 -0.5394 -0.3651 -0.0221
  154MPD2    C5 2348   3.249   3.186   0.611 -0.1918 -0.1446 -0.3622
  154MPD2     H 2349   2.955   3.171   0.859 -0.1597 -1.6024 -1.0832
  154MPD2    H1 2350   3.186   3.383   0.563  0.6756 -2.3756 -2.3650
  154MPD2    H2 2351   3.299   2.985   0.674  2.3742  1.5194 -0.4192
  154MPD2    H3 2352   3.336   3.199   0.549 -0.4745  1.9675 -0.3308
  154MPD2     N 2353   2.967   3.390   0.742  0.2215 -0.4260 -0.1584
  154MPD2    H5 2354   2.893   3.373   0.810 -0.2182  2.1445 -0.0066
  154MPD2    N1 2355   3.109   2.942   0.857 -0.2056 -0.1872 -0.2418
  154MPD2    H7 2356   3.181   2.877   0.827 -2.5103 -2.2071 -1.3724
  155TCq2    C1 2357   3.004   2.905   0.942  0.4749 -0.0246 -0.5985
  155TCq2    O2 2358   2.900   2.963   0.955  0.4125  0.0975  0.3780
  155TCq2    C2 2359   3.005   2.780   1.019 -0.2046 -0.4077 -0.9727
  155TCq2    C3 2360   2.906   2.777   1.114  0.3525  0.4471  0.1552
  155TCq2    C4 2361   2.918   2.682   1.215  0.2379 -0.5298 -0.3454
  155TCq2    C5 2362   3.021   2.603   1.239  0.3443 -0.5800  0.0453
  155TCq2    C6 2363   3.121   2.619   1.147 -0.2532 -0.5681 -0.4789
  155TCq2    C7 2364   3.122   2.705   1.034 -0.0050  0.5293 -0.2961
  155TCq2    C8 2365   3.223   2.526   1.147 -0.8390  0.4274 -0.4039
  155TCq2    O4 2366   3.296   2.503   1.046 -0.0945  0.1052 -0.0163
  155TCq2    C9 2367   2.811   2.671   1.310 -0.1985 -0.1083 -0.2219
  155TCq2    O5 2368   2.699   2.718   1.277 -0.2397 -0.1743  0.4648
  155TCq2    O6 2369   2.833   2.638   1.429 -0.3950  0.2524  0.3314
  155TCq2    H2 2370   2.809   2.823   1.103 -1.1897 -2.4596  1.4964
  155TCq2    H3 2371   3.026   2.554   1.335 -0.2148 -1.1452 -0.2178
  155TCq2    H4 2372   3.208   2.719   0.970  0.4106 -0.4403  0.0427
  156MPD2     C 2373   0.834   1.671  12.483  0.2575  0.5182 -0.8035
  156MPD2    C1 2374   0.743   1.577  12.445  0.3993  0.1357  0.1925
  156MPD2    C2 2375   0.603   1.608  12.438  0.0312  0.2290  0.6752
  156MPD2    C3 2376   0.558   1.730  12.472 -0.4182 -0.3037 -0.1032
  156MPD2    C4 2377   0.643   1.814  12.538  0.1943  0.0507 -0.2491
  156MPD2    C5 2378   0.780   1.784  12.541 -0.0647  0.5659 -0.2852
  156MPD2     H 2379   0.544   1.530  12.391  0.6444 -1.2174  2.3037
  156MPD2    H1 2380   0.605   1.909  12.574 -2.6295 -0.5680 -1.5839
  156MPD2    H2 2381   0.940   1.649  12.494 -0.0341 -0.8928 -0.8149
  156MPD2    H3 2382   0.843   1.847  12.602 -0.1990  0.6412 -0.2226
  156MPD2     N 2383   0.419   1.755  12.470 -0.4854 -0.1768 -0.6267
  156MPD2    H5 2384   0.360   1.690  12.420 -1.2425 -0.2816  0.4140
  156MPD2    N1 2385   0.805   1.458  12.399 -0.4052  0.4502 -0.3865
  156MPD2    H7 2386   0.906   1.464  12.410 -0.6409  1.9771  0.9924
  157TCq2    C1 2387   0.737   1.344  12.367 -0.4460 -0.4931 -0.5003
  157TCq2    O2 2388   0.621   1.312  12.387 -0.1179  0.3835 -0.0880
  157TCq2    C2 2389   0.826   1.243  12.312 -0.4518  0.1989  0.0342
  157TCq2    C3 2390   0.788   1.113  12.310 -0.4869  0.0139 -0.1851
  157TCq2    C4 2391   0.850   1.021  12.226  0.0138  0.2544 -0.5150
  157TCq2    C5 2392   0.954   1.062  12.152  0.3856  0.0109  0.3790
  157TCq2    C6 2393   0.997   1.193  12.158 -0.5062 -0.3795  0.4925
  157TCq2    C7 2394   0.930   1.286  12.232 -0.4199 -0.2512 -0.1639
  157TCq2    C8 2395   1.030   1.256  12.028 -0.7020 -0.5043 -0.6755
  157TCq2    O4 2396   0.977   1.361  11.996  0.0424 -0.0439 -0.6888
  157TCq2    C9 2397   0.804   0.888  12.224 -0.6814 -0.3154  0.3879
  157TCq2    O5 2398   0.702   0.861  12.287  0.1485  0.6592 -0.2705
  157TCq2    O6 2399   0.853   0.816  12.128  0.1153  0.5524 -0.7485
  157TCq2    H2 2400   0.696   1.083  12.358 -0.8782 -0.5934 -1.3387
  157TCq2    H3 2401   0.988   0.997  12.072  0.3070 -0.0139  0.3660
  157TCq2    H4 2402   0.965   1.389  12.235  1.5989 -0.9947  1.8396
  158TMC2    C1 2403   0.426   0.238  13.441  0.2283  0.0502  0.9879
  158TMC2    C2 2404   0.482   0.311  13.340 -0.0281 -1.3978  0.1889
  158TMC2    C3 2405   0.415   0.341  13.227  0.5592 -0.2596 -0.6721
  158TMC2    C4 2406   0.306   0.171  13.423  0.4393 -0.3943  0.2493
  158TMC2    C5 2407   0.247   0.189  13.302 -0.6981 -0.4790  0.3881
  158TMC2    C6 2408   0.300   0.275  13.202 -0.1310 -0.4144 -0.2179
  158TMC2     C 2409   0.492   0.250  13.570  0.0017  0.6077  1.0128
  158TMC2     O 2410   0.599   0.309  13.577  0.2379 -0.7951 -0.7046
  158TMC2     H 2411   0.578   0.360  13.356 -1.5146  2.3786 -2.4369
  158TMC2    H1 2412   0.261   0.127  13.511  0.8486  0.2886  0.8007
  158TMC2    H2 2413   0.243   0.292  13.111  0.1672 -0.3567 -0.3946
  158TMC2    C7 2414   0.106   0.152  13.282  0.2543 -0.7592 -0.2282
  158TMC2    C8 2415   0.477   0.418  13.118 -0.0015 -0.0993  0.1848
  158TMC2    O1 2416   0.041   0.220  13.205 -0.2798 -0.5605  0.0696
  158TMC2    O2 2417   0.417   0.463  13.024 -0.2579 -0.8589 -0.5208
  158TMC2    O5 2418   0.611   0.398  13.124  0.1761  0.0018  0.5968
  158TMC2    H5 2419   0.649   0.336  13.191 -1.2557 -1.7577 -0.2089
  159MPD2     C 2420   0.593   0.110  14.058  0.4617  0.2845  0.2917
  159MPD2    C1 2421   0.483   0.037  14.015 -0.1788  0.4615 -0.5845
  159MPD2    C2 2422   0.426   0.062  13.889  0.4369 -0.1751 -0.1601
  159MPD2    C3 2423   0.486   0.159  13.804  1.0303  0.2191  0.1728
  159MPD2    C4 2424   0.595   0.229  13.853  0.4680  0.0345 -0.3078
  159MPD2    C5 2425   0.648   0.203  13.975  0.3674  0.3249 -1.0409
  159MPD2     H 2426   0.335   0.010  13.860  0.1558  0.6655 -0.7671
  159MPD2    H1 2427   0.648   0.307  13.801  1.9394 -0.4373  0.4788
  159MPD2    H2 2428   0.642   0.087  14.152 -1.2850 -1.4504  0.7776
  159MPD2    H3 2429   0.736   0.258  14.007 -0.6045  1.8743 -1.0139
  159MPD2     N 2430   0.433   0.176  13.676  0.7629  0.0772  0.8986
  159MPD2    H5 2431   0.345   0.130  13.655 -0.3209  2.2629  0.6721
  159MPD2    N1 2432   0.426   4.674  14.112 -0.2213  0.3030 -0.0476
  159MPD2    H7 2433   0.480   4.653  14.196 -0.9982  0.4409  0.4809
  160TMC2    C1 2434   0.566   3.218   1.515 -0.1972 -0.4510  0.2710
  160TMC2    C2 2435   0.650   3.108   1.536 -0.2884 -0.1128 -0.0265
  160TMC2    C3 2436   0.786   3.129   1.516 -0.4231  0.6539  0.5802
  160TMC2    C4 2437   0.621   3.329   1.462  0.1820  0.0729  0.1496
  160TMC2    C5 2438   0.755   3.349   1.437  0.1476  0.3128  0.0081
  160TMC2    C6 2439   0.841   3.250   1.476 -0.4133  0.6062  0.8294
  160TMC2     C 2440   0.425   3.195   1.526 -0.0285  0.0960  0.3456
  160TMC2     O 2441   0.390   3.077   1.519 -0.2797  0.1056 -0.3659
  160TMC2     H 2442   0.609   3.010   1.556 -1.3224 -0.2555 -2.8897
  160TMC2    H1 2443   0.554   3.407   1.427  1.8146  0.3126 -2.4930
  160TMC2    H2 2444   0.948   3.260   1.458 -0.7432  1.2009 -0.7939
  160TMC2    C7 2445   0.800   3.485   1.392  0.3256  0.5624  0.2260
  160TMC2    C8 2446   0.876   3.023   1.553 -0.3141  0.0571  0.3199
  160TMC2    O1 2447   0.717   3.566   1.359  0.4973  0.1832 -0.5413
  160TMC2    O2 2448   0.988   3.008   1.504  0.1287 -0.4707  0.2206
  160TMC2    O5 2449   0.836   2.967   1.673 -0.4104  0.0732 -0.3732
  160TMC2    H5 2450   0.754   3.002   1.714 -1.1424 -1.8451 -0.2293
  161MPD2     C 2451   0.142   3.205   1.430  0.3656 -0.8330 -0.2679
  161MPD2    C1 2452   0.213   3.313   1.468  0.4483  0.1594 -0.4313
  161MPD2    C2 2453   0.143   3.430   1.469 -1.1177  0.4195  0.1198
  161MPD2    C3 2454   0.008   3.445   1.428  0.5993  0.1744 -0.0190
  161MPD2    C4 2455   4.673   3.333   1.377 -0.5295  0.0505 -1.1613
  161MPD2    C5 2456   0.015   3.211   1.379  0.1499 -0.5019 -0.3566
  161MPD2     H 2457   0.200   3.516   1.501  1.7317 -1.3523 -0.1918
  161MPD2    H1 2458   4.572   3.335   1.337 -0.8323 -0.0628 -0.4069
  161MPD2    H2 2459   0.197   3.112   1.418  2.5552  0.8180 -2.8158
  161MPD2    H3 2460   4.686   3.129   1.330 -1.4563  0.5056 -0.4020
  161MPD2     N 2461   4.647   3.566   1.415 -0.3828 -0.1711  0.1599
  161MPD2    H5 2462   4.552   3.558   1.379  0.0738  0.8169 -1.2903
  161MPD2    N1 2463   0.345   3.311   1.512 -0.0679 -0.3466  0.1479
  161MPD2    H7 2464   0.396   3.396   1.531  0.5733 -1.1504  1.9704
  162TMC2    C1 2465   3.028   0.735   1.196  0.4395 -0.2909 -0.3229
  162TMC2    C2 2466   2.926   0.824   1.161  0.3266  0.8892  0.0492
  162TMC2    C3 2467   2.827   0.852   1.248 -0.3799 -0.6914 -0.0934
  162TMC2    C4 2468   3.031   0.669   1.317 -0.0867  0.8552 -0.3050
  162TMC2    C5 2469   2.930   0.704   1.406  0.1314  0.0368  0.1786
  162TMC2    C6 2470   2.830   0.799   1.369  0.7329 -0.5615  0.2930
  162TMC2     C 2471   3.091   0.669   1.086 -0.3847  0.3281 -0.0700
  162TMC2     O 2472   3.196   0.605   1.119 -0.7035 -0.2519 -0.6131
  162TMC2     H 2473   2.934   0.889   1.075 -2.7177 -1.4019 -1.9420
  162TMC2    H1 2474   3.103   0.590   1.334 -0.4725  0.7427  0.8264
  162TMC2    H2 2475   2.747   0.813   1.436 -0.5867 -2.3167 -0.9579
  162TMC2    C7 2476   2.932   0.634   1.535  0.0761  0.1588 -0.0704
  162TMC2    C8 2477   2.717   0.937   1.207 -0.7580  0.0250 -0.5577
  162TMC2    O1 2478   2.835   0.663   1.598  0.1554 -0.5589  0.5358
  162TMC2    O2 2479   2.738   1.029   1.130  0.7804  0.3256  0.4687
  162TMC2    O5 2480   2.614   0.854   1.189  0.0079  0.3594  0.1602
  162TMC2    H5 2481   2.595   0.786   1.257 -0.1619  0.1322 -0.1146
  163MPD2     C 2482   3.070   0.471   0.608 -0.0497  0.3067  0.6700
  163MPD2    C1 2483   3.152   0.438   0.711 -0.5577  0.1593 -0.3201
  163MPD2    C2 2484   3.143   0.512   0.831 -0.2851 -0.0458 -0.4442
  163MPD2    C3 2485   3.057   0.616   0.845 -0.6923  0.4917 -0.1970
  163MPD2    C4 2486   2.979   0.651   0.737  0.1994  0.3929  0.6083
  163MPD2    C5 2487   2.996   0.582   0.620 -0.7830  0.1187  0.5883
  163MPD2     H 2488   3.188   0.469   0.919 -0.2769  2.0158  0.5688
  163MPD2    H1 2489   2.908   0.733   0.736  0.4787  0.6326  0.2539
  163MPD2    H2 2490   3.072   0.426   0.510 -1.7767  1.4079  0.1240
  163MPD2    H3 2491   2.924   0.607   0.543 -0.2372 -2.2817 -0.7068
  163MPD2     N 2492   3.031   0.684   0.964 -0.2471  0.7830 -0.2193
  163MPD2    H5 2493   2.967   0.763   0.964  1.3524  2.0788  0.8470
  163MPD2    N1 2494   3.223   0.325   0.687  0.6011  0.2548 -0.6455
  163MPD2    H7 2495   3.209   0.270   0.602 -1.4001  1.1000 -0.8631
  164TCq2    C1 2496   3.945   3.976  10.891 -0.3105  0.1845  0.6965
  164TCq2    O2 2497   3.935   3.921  10.999  0.0590  0.0912  0.4464
  164TCq2    C2 2498   3.879   4.103  10.886  0.0693  0.3749  0.2836
  164TCq2    C3 2499   3.909   4.199  10.788 -0.2170  0.6735 -0.2998
  164TCq2    C4 2500   3.852   4.323  10.799  0.2685 -0.2228  0.4910
  164TCq2    C5 2501   3.762   4.356  10.892 -1.6229  0.2924  0.3115
  164TCq2    C6 2502   3.733   4.256  10.986 -0.5593 -0.1873 -0.3871
  164TCq2    C7 2503   3.793   4.134  10.989 -0.4053  0.5622 -0.3005
  164TCq2    C8 2504   3.595   4.268  11.033  0.2767  1.1925  0.1957
  164TCq2    O4 2505   3.517   4.339  10.969  0.2247  0.5325 -0.3160
  164TCq2    C9 2506   3.898   4.421  10.703 -0.0773  0.1576 -0.6707
  164TCq2    O5 2507   3.853   4.536  10.719 -0.1134  0.3445  0.2482
  164TCq2    O6 2508   3.959   4.384  10.598  0.6585  0.0530  0.1865
  164TCq2    H2 2509   3.980   4.175  10.710  1.3200  0.9091  1.0152
  164TCq2    H3 2510   3.736   4.460  10.907  1.8808  1.7255 -3.8465
  164TCq2    H4 2511   3.764   4.059  11.062  1.1657  1.0924  0.8584
  165MPD2     C 2512   0.137   1.786   1.434 -0.5578  0.1680  0.2391
  165MPD2    C1 2513   0.047   1.855   1.357  0.2118  0.6263 -0.2859
  165MPD2    C2 2514   4.686   1.948   1.422  0.4168 -0.2812  0.0226
  165MPD2    C3 2515   4.689   1.964   1.562  0.2112  0.0430  0.0454
  165MPD2    C4 2516   0.063   1.897   1.641 -0.0149 -0.6473  0.0529
  165MPD2    C5 2517   0.146   1.807   1.570 -0.3741  0.2012  0.0068
  165MPD2     H 2518   4.616   2.011   1.368 -1.8179 -1.0287  2.0803
  165MPD2    H1 2519   0.064   1.895   1.749 -0.3547  1.2570  0.0912
  165MPD2    H2 2520   0.205   1.708   1.402  1.5832  1.5430  1.3831
  165MPD2    H3 2521   0.211   1.743   1.628 -1.1369  1.1002  1.8395
  165MPD2     N 2522   4.602   2.050   1.636  0.3117  0.0389  0.5417
  165MPD2    H5 2523   4.616   2.048   1.737  0.2784 -0.4497  0.5367
  165MPD2    N1 2524   0.034   1.827   1.218 -0.9467 -0.2572 -0.0818
  165MPD2    H7 2525   0.090   1.748   1.187 -0.5493 -0.9812  2.5396
  166TCq2    C1 2526   4.515   2.147   1.582 -0.8497 -0.2078 -0.3557
  166TCq2    O2 2527   4.474   2.153   1.466 -0.3065  0.3526  0.3997
  166TCq2    C2 2528   4.500   2.262   1.665  0.3214 -0.3770 -0.3224
  166TCq2    C3 2529   4.520   2.248   1.801 -0.3476 -0.2382 -0.1967
  166TCq2    C4 2530   4.544   2.362   1.867 -0.0171 -0.3525  0.4263
  166TCq2    C5 2531   4.547   2.481   1.802 -0.2794 -0.0171  0.5412
  166TCq2    C6 2532   4.522   2.496   1.667  0.4483 -0.0457 -0.6619
  166TCq2    C7 2533   4.497   2.379   1.593  0.4315  0.0908 -0.1625
  166TCq2    C8 2534   4.619   2.585   1.600  0.1164  0.2240 -0.6228
  166TCq2    O4 2535   4.711   2.643   1.659 -0.0962 -0.2804  0.2357
  166TCq2    C9 2536   4.581   2.353   2.003 -0.0903  0.1136 -0.0319
  166TCq2    O5 2537   4.643   2.252   2.039  0.4786  0.1053  0.3481
  166TCq2    O6 2538   4.569   2.461   2.071  0.0240  0.1079  0.3805
  166TCq2    H2 2539   4.507   2.153   1.851 -0.6077 -0.2750 -0.3386
  166TCq2    H3 2540   4.576   2.571   1.855  1.3903  0.1796 -0.6873
  166TCq2    H4 2541   4.495   2.370   1.485 -0.3034 -0.9988 -0.0569
  167TMC2    C1 2542   2.663   4.032  12.559 -0.5489  0.5830  0.2179
  167TMC2    C2 2543   2.593   4.116  12.643  0.5690  0.0710  0.1949
  167TMC2    C3 2544   2.516   4.048  12.739  0.0152  0.5858 -0.4180
  167TMC2    C4 2545   2.659   3.896  12.564  0.0805 -0.3679  0.7352
  167TMC2    C5 2546   2.594   3.839  12.674 -0.4084  0.3106  0.6289
  167TMC2    C6 2547   2.521   3.911  12.761  0.0887  0.4018 -0.9856
  167TMC2     C 2548   2.741   4.092  12.451 -0.3827  0.8296  0.4359
  167TMC2     O 2549   2.817   4.012  12.400 -0.1711  0.0512 -0.0626
  167TMC2     H 2550   2.602   4.224  12.639 -1.7780  0.2090 -1.2725
  167TMC2    H1 2551   2.693   3.829  12.485 -0.3348 -1.2147  1.2715
  167TMC2    H2 2552   2.457   3.857  12.829  0.4837 -0.6528 -1.4377
  167TMC2    C7 2553   2.619   3.699  12.709 -0.1158 -0.2939  0.0403
  167TMC2    C8 2554   2.490   4.113  12.866  0.2865  0.2550 -0.5111
  167TMC2    O1 2555   2.536   3.645  12.778  0.4007  0.0947 -0.0313
  167TMC2    O2 2556   2.531   4.060  12.970 -0.2404 -0.4305 -0.2777
  167TMC2    O5 2557   2.422   4.229  12.853  0.8170  0.3761  0.0942
  167TMC2    H5 2558   2.403   4.248  12.759 -1.7809 -2.0889  0.1153
  168MPD2     C 2559   2.739   4.418  12.282  0.2179  0.3407 -0.4078
  168MPD2    C1 2560   2.768   4.286  12.294 -0.1141  0.4271 -0.3651
  168MPD2    C2 2561   2.816   4.217  12.183 -0.1829 -0.3156 -0.6738
  168MPD2    C3 2562   2.845   4.281  12.071 -0.5061 -0.0535 -0.3307
  168MPD2    C4 2563   2.820   4.414  12.062 -0.5112 -0.1477  0.4585
  168MPD2    C5 2564   2.756   4.483  12.164 -0.4287  0.2839 -0.1650
  168MPD2     H 2565   2.819   4.109  12.189  0.3184 -0.3585 -1.6810
  168MPD2    H1 2566   2.836   4.472  11.972 -1.7848  0.2915  0.5216
  168MPD2    H2 2567   2.692   4.477  12.359 -3.2238 -2.3794 -0.4347
  168MPD2    H3 2568   2.735   4.589  12.154 -0.9132  0.3027  1.0106
  168MPD2     N 2569   2.882   4.221  11.946 -0.1855  0.0102 -0.5226
  168MPD2    H5 2570   2.882   4.282  11.865 -0.3928 -1.1122 -1.3714
  168MPD2    N1 2571   2.717   4.221  12.408 -0.3884 -0.5213  0.7491
  168MPD2    H7 2572   2.653   4.278  12.463  0.2207 -0.5606  1.4892
  169MPD1     C 2573   0.040   3.221   9.756  0.3037  0.6114  0.1708
  169MPD1    C1 2574   0.026   3.122   9.657 -0.2403  0.1776  0.0671
  169MPD1    C2 2575   0.078   3.159   9.530 -0.0924  0.1195 -0.5718
  169MPD1    C3 2576   0.142   3.280   9.503  0.2331 -0.6713 -0.0280
  169MPD1    C4 2577   0.157   3.369   9.606  0.7905 -0.4684  0.1535
  169MPD1    C5 2578   0.102   3.342   9.731  0.3781 -0.0645  0.3811
  169MPD1     H 2579   0.075   3.078   9.458 -1.2423 -0.3480 -0.0005
  169MPD1    H1 2580   0.210   3.463   9.607  1.3418 -0.7826  0.8125
  169MPD1    H2 2581   0.001   3.201   9.855 -0.2478  0.3561 -0.0951
  169MPD1    H3 2582   0.105   3.416   9.811 -1.3991  2.0001 -1.4687
  169MPD1     N 2583   0.192   3.313   9.372 -0.7208  0.0093  0.3940
  169MPD1    H5 2584   0.186   3.244   9.298 -0.8473  0.4773 -0.0308
  169MPD1    N1 2585   4.720   2.985   9.690  0.3437  0.6740 -0.3027
  169MPD1    H6 2586   4.690   2.938   9.605  0.2429  2.0248 -1.0150
  169MPD1    H7 2587   4.654   2.980   9.767  1.5519  0.6938  0.7523
  170MPD1     C 2588   3.301   1.433  13.460 -0.0383  0.0677 -0.3741
  170MPD1    C1 2589   3.423   1.387  13.486 -0.6398  0.6354  0.3742
  170MPD1    C2 2590   3.525   1.471  13.508 -0.4944  0.1266  0.2212
  170MPD1    C3 2591   3.500   1.606  13.522 -0.1855 -0.0948  0.1136
  170MPD1    C4 2592   3.368   1.651  13.522 -0.0139  0.4698  0.1980
  170MPD1    C5 2593   3.273   1.561  13.490  0.3688  0.9350 -0.2153
  170MPD1     H 2594   3.619   1.421  13.527  0.2854  0.1997 -3.3643
  170MPD1    H1 2595   3.347   1.754  13.550  1.7025  0.5973  1.0149
  170MPD1    H2 2596   3.220   1.364  13.438  0.2964 -1.3447  2.8015
  170MPD1    H3 2597   3.168   1.583  13.505  0.1947  0.5559 -0.8811
  170MPD1     N 2598   3.611   1.696  13.549  0.8903  0.2184  0.0513
  170MPD1    H5 2599   3.701   1.651  13.541 -0.4143 -1.9740 -2.2411
  170MPD1    N1 2600   3.445   1.249  13.462  0.4587  0.4945 -0.1910
  170MPD1    H6 2601   3.516   1.222  13.530  0.7653 -1.1464 -1.1811
  170MPD1    H7 2602   3.365   1.187  13.469 -0.0751  1.1858 -0.1580
  171MPD1     C 2603   2.508   2.703  15.016 -0.1216  0.8623  0.1651
  171MPD1    C1 2604   2.587   2.593  14.982 -0.0803 -0.1149  0.0403
  171MPD1    C2 2605   2.686   2.563  15.068 -0.0346  0.2167  0.7433
  171MPD1    C3 2606   2.684   2.633  15.187  0.3790 -0.4539 -0.3734
  171MPD1    C4 2607   2.588   2.724  15.228 -0.0797 -0.6104 -0.7943
  171MPD1    C5 2608   2.498   2.765  15.133  0.3086 -0.4678 -0.3434
  171MPD1     H 2609   2.758   2.482  15.059 -1.7490 -1.3158  0.7242
  171MPD1    H1 2610   2.594   2.786  15.316 -0.3578 -0.5920 -0.7889
  171MPD1    H2 2611   2.449   2.747  14.936  0.9509 -0.9647 -1.6375
  171MPD1    H3 2612   2.431   2.850  15.131  1.3387  0.3165 -1.5930
  171MPD1     N 2613   2.784   2.606  15.285 -0.1773  0.3981  0.3374
  171MPD1    H5 2614   2.780   2.647  15.377  1.0666  0.0832  0.5241
  171MPD1    N1 2615   2.588   2.536  14.854 -0.0367  0.4274  0.2449
  171MPD1    H6 2616   2.620   2.440  14.869 -1.2546  0.2497  1.6802
  171MPD1    H7 2617   2.497   2.526  14.810 -0.2580  0.6622  0.6587
  172MPD1     C 2618   1.185   2.793   1.231  0.0314 -0.3487  0.1474
  172MPD1    C1 2619   1.196   2.929   1.200  0.4953 -0.0651 -0.0938
  172MPD1    C2 2620   1.291   2.971   1.111  0.1506 -0.2886  0.1716
  172MPD1    C3 2621   1.377   2.887   1.042 -0.1301 -0.0116  0.2202
  172MPD1    C4 2622   1.368   2.756   1.079 -0.5518 -0.3603 -0.7898
  172MPD1    C5 2623   1.279   2.715   1.176  0.5046 -0.0122  0.3072
  172MPD1     H 2624   1.281   3.076   1.086 -1.3770 -0.6798 -0.8543
  172MPD1    H1 2625   1.426   2.679   1.032 -1.3575 -0.4957 -1.5696
  172MPD1    H2 2626   1.113   2.759   1.304 -0.3323  1.6501  0.7138
  172MPD1    H3 2627   1.272   2.612   1.210  2.3205  0.1770  1.2701
  172MPD1     N 2628   1.473   2.927   0.953 -0.1673 -0.2197  0.1821
  172MPD1    H5 2629   1.538   2.861   0.912 -0.8600 -0.8452  0.1026
  172MPD1    N1 2630   1.107   3.020   1.252 -0.1719 -0.4775  0.0824
  172MPD1    H6 2631   1.044   3.047   1.177 -1.8337  0.3209  1.7660
  172MPD1    H7 2632   1.055   2.988   1.333 -1.6427 -2.4798 -1.6783
  173MPD1     C 2633   3.284   2.024  13.923 -0.4773 -0.2205 -0.5927
  173MPD1    C1 2634   3.250   2.040  14.054  0.0751 -0.1212  0.5731
  173MPD1    C2 2635   3.278   1.946  14.152 -0.4827 -0.3457  0.3077
  173MPD1    C3 2636   3.343   1.832  14.117  0.3041 -0.3112 -0.8788
  173MPD1    C4 2637   3.370   1.812  13.981  0.4681  0.7236 -0.7112
  173MPD1    C5 2638   3.348   1.912  13.885  0.1321  0.1732  0.2490
  173MPD1     H 2639   3.242   1.972  14.251  1.6096  0.3202  0.8854
  173MPD1    H1 2640   3.423   1.727  13.940 -2.1439 -1.3142  0.1228
  173MPD1    H2 2641   3.273   2.103  13.849 -3.7343 -1.5216 -1.4699
  173MPD1    H3 2642   3.365   1.906  13.778 -2.0651  0.9481 -0.1369
  173MPD1     N 2643   3.359   1.727  14.209  0.3343 -0.8315  0.0783
  173MPD1    H5 2644   3.317   1.741  14.301  1.2301 -0.7047  0.4698
  173MPD1    N1 2645   3.203   2.162  14.091  0.0774 -0.2037  0.2850
  173MPD1    H6 2646   3.136   2.150  14.166 -1.2675  1.0856 -0.7261
  173MPD1    H7 2647   3.135   2.189  14.021 -0.3350  0.9052  1.0983
  174MPD1     C 2648   4.239   1.447  14.270  0.1996  0.6443 -0.0085
  174MPD1    C1 2649   4.199   1.402  14.391 -0.0527  0.4846 -0.3382
  174MPD1    C2 2650   4.061   1.406  14.411 -0.0780  0.4398  0.0938
  174MPD1    C3 2651   3.974   1.470  14.323 -0.2848  0.1457 -0.9161
  174MPD1    C4 2652   4.021   1.526  14.207 -1.2453  0.2211  0.3233
  174MPD1    C5 2653   4.157   1.511  14.183 -0.0430 -0.0526 -0.0373
  174MPD1     H 2654   4.029   1.363  14.505 -3.3604 -0.7451 -1.5662
  174MPD1    H1 2655   3.961   1.583  14.137 -0.9947 -1.9522 -1.6554
  174MPD1    H2 2656   4.343   1.441  14.241  0.9435 -0.3163  2.8873
  174MPD1    H3 2657   4.198   1.560  14.096 -1.2881 -1.8609 -1.6522
  174MPD1     N 2658   3.837   1.480  14.351  0.0834  0.3305  0.3639
  174MPD1    H5 2659   3.803   1.539  14.276 -3.5234 -1.3033  0.7476
  174MPD1    N1 2660   4.270   1.302  14.461 -0.1695  0.5464 -0.7099
  174MPD1    H6 2661   4.243   1.296  14.559 -2.3201 -0.2251 -1.3480
  174MPD1    H7 2662   4.370   1.320  14.451  0.2618 -1.5478 -0.1839
  175MPD1     C 2663   1.804   2.988  15.348 -0.5713 -0.0355 -1.0102
  175MPD1    C1 2664   1.727   3.098  15.385 -0.4583 -0.8056  0.5139
  175MPD1    C2 2665   1.682   3.112  15.518 -0.2486 -0.0334  0.5962
  175MPD1    C3 2666   1.719   3.025  15.612  0.3989  0.4701  0.1397
  175MPD1    C4 2667   1.801   2.922  15.573  0.0528 -0.1418  0.1790
  175MPD1    C5 2668   1.842   2.903  15.447 -0.1025 -0.4646 -1.1049
  175MPD1     H 2669   1.622   3.197  15.549  1.6883  2.1220 -1.5677
  175MPD1    H1 2670   1.826   2.837  15.636 -0.7008 -0.9222 -0.5743
  175MPD1    H2 2671   1.850   2.972  15.251  1.1320  1.6938 -0.4843
  175MPD1    H3 2672   1.915   2.825  15.430 -1.8670 -2.0321 -1.5047
  175MPD1     N 2673   1.689   3.033  15.753  1.2081  0.0092  0.5905
  175MPD1    H5 2674   1.721   2.956  15.810 -0.8436 -0.6747  0.8034
  175MPD1    N1 2675   1.700   3.203  15.290 -0.3800 -0.4403 -0.2978
  175MPD1    H6 2676   1.694   3.166  15.196 -0.2342 -0.1164 -0.4332
  175MPD1    H7 2677   1.613   3.246  15.323 -0.7463 -0.9744 -0.5622
  176MPD1     C 2678   2.506   0.692  17.084 -0.2194 -1.1081 -0.1827
  176MPD1    C1 2679   2.581   0.706  17.196  0.1265 -0.5932  0.4910
  176MPD1    C2 2680   2.706   0.649  17.195 -0.5184 -0.0087 -0.1635
  176MPD1    C3 2681   2.752   0.568  17.095 -0.3467 -0.1997  0.8066
  176MPD1    C4 2682   2.677   0.554  16.979  0.6445  0.1116  0.5088
  176MPD1    C5 2683   2.556   0.627  16.974 -0.7743 -0.8359 -0.3686
  176MPD1     H 2684   2.775   0.660  17.278 -0.3440 -2.0307 -0.0493
  176MPD1    H1 2685   2.711   0.492  16.896 -1.2356 -1.0623  0.6347
  176MPD1    H2 2686   2.408   0.740  17.079  0.6794  0.7879  0.3120
  176MPD1    H3 2687   2.486   0.618  16.892 -1.3265 -0.2574  0.0383
  176MPD1     N 2688   2.876   0.506  17.109  0.6801  0.0253  0.2124
  176MPD1    H5 2689   2.915   0.517  17.202  1.9247 -0.9946 -0.1941
  176MPD1    N1 2690   2.543   0.784  17.304  0.0600 -0.4030 -0.1283
  176MPD1    H6 2691   2.581   0.729  17.381  0.0320 -0.0787  0.1193
  176MPD1    H7 2692   2.441   0.790  17.314 -0.3954 -1.5157 -4.4037
  177MPD1     C 2693   0.550   3.899  10.643 -0.0924  0.2709 -0.4836
  177MPD1    C1 2694   0.644   3.800  10.609  0.1479 -0.2476 -0.0259
  177MPD1    C2 2695   0.755   3.840  10.535 -0.0693 -0.1102  0.2236
  177MPD1    C3 2696   0.784   3.976  10.509 -0.1776 -0.4126  0.2551
  177MPD1    C4 2697   0.692   4.067  10.547 -0.0174 -0.3763  0.1972
  177MPD1    C5 2698   0.582   4.031  10.617 -0.1066  0.2566 -0.3978
  177MPD1     H 2699   0.824   3.764  10.500  1.3538  0.5444  1.5841
  177MPD1    H1 2700   0.706   4.173  10.534  0.2605 -0.1725  2.1937
  177MPD1    H2 2701   0.459   3.881  10.698  0.6654 -1.1708  0.2970
  177MPD1    H3 2702   0.529   4.113  10.664 -2.0341  0.7008 -3.3464
  177MPD1     N 2703   0.905   4.009  10.450 -0.7265 -0.3386 -0.4528
  177MPD1    H5 2704   0.970   3.933  10.429 -0.0471 -0.3588  1.7149
  177MPD1    N1 2705   0.610   3.669  10.625 -0.4002 -0.1128 -0.2134
  177MPD1    H6 2706   0.562   3.626  10.704  1.8831  0.2092  1.3223
  177MPD1    H7 2707   0.687   3.604  10.610 -1.7359 -1.7382 -0.1108
  178MPD1     C 2708   3.712   1.599   0.051  0.6550  0.1473  0.0425
  178MPD1    C1 2709   3.668   1.465   0.074 -0.1231  0.1069  0.2272
  178MPD1    C2 2710   3.742   1.367   0.012  0.1279  0.9014 -0.3330
  178MPD1    C3 2711   3.852   1.398  17.624  0.1116  0.5732 -1.1695
  178MPD1    C4 2712   3.891   1.530  17.604  0.0064 -0.2542 -0.7145
  178MPD1    C5 2713   3.817   1.626  17.657 -1.3741  0.1119  0.1470
  178MPD1     H 2714   3.699   1.268   0.017  3.5609 -0.5869 -0.4482
  178MPD1    H1 2715   3.979   1.552  17.544  1.2130  0.1684  1.1916
  178MPD1    H2 2716   3.651   1.679   0.092 -1.5057 -0.6771 -1.5479
  178MPD1    H3 2717   3.849   1.729  17.644 -1.1694  0.1363  0.8479
  178MPD1     N 2718   3.936   1.304  17.565 -0.5562 -0.1744  0.4265
  178MPD1    H5 2719   4.026   1.333  17.528 -1.6032 -0.1277 -2.0436
  178MPD1    N1 2720   3.528   1.447   0.111  0.6530 -0.3657  0.7401
  178MPD1    H6 2721   3.513   1.518   0.182 -4.7075 -1.1363  0.3824
  178MPD1    H7 2722   3.534   1.353   0.150 -4.1203 -1.3570 -0.9624
  179MPD1     C 2723   3.990   3.467  15.569  0.3097  0.1144  0.4094
  179MPD1    C1 2724   3.922   3.362  15.520 -0.2522 -0.5540 -0.2689
  179MPD1    C2 2725   3.786   3.358  15.522 -0.3751  0.1932  0.2875
  179MPD1    C3 2726   3.719   3.442  15.599 -0.6246 -0.1985 -0.0637
  179MPD1    C4 2727   3.781   3.547  15.657 -0.0456 -0.6670  0.1143
  179MPD1    C5 2728   3.915   3.560  15.636 -0.0837  0.2273  0.8858
  179MPD1     H 2729   3.731   3.276  15.477  0.7050 -0.5602  0.3330
  179MPD1    H1 2730   3.737   3.631  15.708  1.0264 -0.3934  0.5940
  179MPD1    H2 2731   4.091   3.498  15.546 -0.4754  0.5066 -2.4908
  179MPD1    H3 2732   3.959   3.648  15.682 -2.0163  2.1444 -0.9173
  179MPD1     N 2733   3.576   3.434  15.615  0.5921 -0.2484 -0.7111
  179MPD1    H5 2734   3.531   3.485  15.691 -1.1094 -1.1118 -1.1401
  179MPD1    N1 2735   3.996   3.270  15.441 -0.3610 -0.2050 -0.1349
  179MPD1    H6 2736   3.955   3.178  15.426 -0.4820 -0.2264  0.3543
  179MPD1    H7 2737   4.091   3.265  15.477 -0.2443 -0.7598 -0.5197
  180MPD1     C 2738   2.718   0.691  14.219  0.4549 -0.0282 -0.1914
  180MPD1    C1 2739   2.856   0.677  14.232  0.0425  0.3067  0.1095
  180MPD1    C2 2740   2.905   0.551  14.227  0.7840  0.0039 -0.1005
  180MPD1    C3 2741   2.821   0.437  14.208  0.5886 -0.1763  0.1244
  180MPD1    C4 2742   2.686   0.453  14.189 -0.3996 -0.1119 -0.1605
  180MPD1    C5 2743   2.634   0.585  14.193  0.1510  0.5058 -0.9996
  180MPD1     H 2744   3.007   0.545  14.262  1.6277 -1.9953 -2.9993
  180MPD1    H1 2745   2.622   0.366  14.188  1.6266 -1.5805 -2.7174
  180MPD1    H2 2746   2.679   0.792  14.205  1.1494  0.1068 -1.1169
  180MPD1    H3 2747   2.527   0.602  14.185  0.0144  0.5380  0.8689
  180MPD1     N 2748   2.877   0.313  14.208  0.3287 -0.0887  0.6030
  180MPD1    H5 2749   2.972   0.313  14.244  0.1147 -0.9056  1.1677
  180MPD1    N1 2750   2.933   0.789  14.253 -0.0057 -0.1628  0.2251
  180MPD1    H6 2751   3.031   0.769  14.233  0.4887  2.9099 -0.2892
  180MPD1    H7 2752   2.907   0.870  14.198  1.2097  0.3231  0.3716
  181MPD1     C 2753   0.948   3.073   9.973  0.1507  0.2186 -0.3210
  181MPD1    C1 2754   0.820   3.044   9.936  0.3369  0.1589  0.1762
  181MPD1    C2 2755   0.799   2.997   9.808  0.7635  0.4465 -0.3518
  181MPD1    C3 2756   0.903   2.989   9.714 -0.2751  0.3348 -0.4998
  181MPD1    C4 2757   1.027   3.029   9.751 -0.1914  0.1009 -0.5327
  181MPD1    C5 2758   1.041   3.085   9.874 -0.1047  0.0718  0.9877
  181MPD1     H 2759   0.696   2.975   9.784  1.6018 -1.2159 -2.5468
  181MPD1    H1 2760   1.110   3.033   9.682  0.3990 -3.8660 -0.0511
  181MPD1    H2 2761   0.979   3.104  10.072  0.8349 -2.9400  0.4519
  181MPD1    H3 2762   1.145   3.107   9.894  0.4992 -1.3820 -0.6244
  181MPD1     N 2763   0.886   2.932   9.584 -0.0757 -0.2306  0.8007
  181MPD1    H5 2764   0.973   2.911   9.536 -1.6357  0.6163 -2.4232
  181MPD1    N1 2765   0.719   3.037  10.031  0.2445  0.0628  0.5100
  181MPD1    H6 2766   0.746   3.105  10.102 -1.6145 -1.0663  2.3152
  181MPD1    H7 2767   0.623   3.060  10.009 -0.4565 -1.9407  1.4603
  182MPD1     C 2768   0.923   1.944   1.951 -0.6149  0.5730  0.7642
  182MPD1    C1 2769   0.953   1.860   1.845  0.8036 -0.2486  0.2783
  182MPD1    C2 2770   0.918   1.908   1.717 -0.4658 -0.0179 -0.3316
  182MPD1    C3 2771   0.858   2.037   1.705  0.0013 -0.0017 -0.2807
  182MPD1    C4 2772   0.862   2.122   1.812 -0.0499 -0.6489 -0.4563
  182MPD1    C5 2773   0.891   2.073   1.931  0.5802 -0.4358  0.1697
  182MPD1     H 2774   0.917   1.840   1.632  2.0061 -3.1028  2.1111
  182MPD1    H1 2775   0.828   2.225   1.804  1.5665 -0.0671  0.2055
  182MPD1    H2 2776   0.944   1.906   2.050 -1.8880 -0.5230  0.6042
  182MPD1    H3 2777   0.858   2.127   2.019 -0.8920  0.7885 -1.1350
  182MPD1     N 2778   0.813   2.089   1.580  0.8780 -0.5337  0.1560
  182MPD1    H5 2779   0.772   2.182   1.590  0.7274 -0.5847  0.0111
  182MPD1    N1 2780   0.989   1.728   1.867 -0.2533 -0.2795  0.0432
  182MPD1    H6 2781   1.059   1.717   1.940 -0.3714  0.3991  0.2623
  182MPD1    H7 2782   1.010   1.681   1.780  0.0066  1.1779 -0.6745
  183MPD1     C 2783   1.077   2.009   9.559 -0.1497  0.5185  0.0230
  183MPD1    C1 2784   1.016   1.897   9.609 -0.7957 -0.1697  0.7122
  183MPD1    C2 2785   1.095   1.807   9.688 -0.0437  0.0217  0.0293
  183MPD1    C3 2786   1.228   1.833   9.719  0.0454  0.7004  0.1519
  183MPD1    C4 2787   1.285   1.953   9.664  0.3112  0.2971  0.2340
  183MPD1    C5 2788   1.208   2.043   9.586  0.4093 -0.2342  0.9141
  183MPD1     H 2789   1.047   1.719   9.729  0.0100 -0.2221 -0.4332
  183MPD1    H1 2790   1.384   1.992   9.685  0.1356 -0.1763  1.9011
  183MPD1    H2 2791   1.018   2.078   9.499 -0.5641  0.3411  0.2293
  183MPD1    H3 2792   1.250   2.134   9.545  0.0857 -1.0980 -1.3537
  183MPD1     N 2793   1.279   1.746   9.810  0.5289 -0.2019  0.0889
  183MPD1    H5 2794   1.231   1.657   9.810  1.6721 -0.8186 -0.9723
  183MPD1    N1 2795   0.885   1.872   9.581  0.3753  0.0722 -0.5076
  183MPD1    H6 2796   0.853   1.807   9.652  0.6421  1.4826  0.8981
  183MPD1    H7 2797   0.828   1.955   9.568 -0.4476 -0.0773  2.3156
  184MPD1     C 2798   0.048   4.105  10.481  0.1235  1.1655  0.0967
  184MPD1    C1 2799   0.133   3.990  10.486 -0.1718 -0.8051  0.3858
  184MPD1    C2 2800   0.264   3.998  10.438  0.4429 -0.4185  0.1597
  184MPD1    C3 2801   0.312   4.117  10.375 -0.3377  0.1344  0.0707
  184MPD1    C4 2802   0.223   4.217  10.370  0.0978  0.1823 -0.6537
  184MPD1    C5 2803   0.095   4.217  10.417  0.0492  0.4719  0.5818
  184MPD1     H 2804   0.340   3.921  10.442  1.9830  1.1670  1.5118
  184MPD1    H1 2805   0.251   4.318  10.342  0.7704 -0.5168 -2.5158
  184MPD1    H2 2806   4.673   4.104  10.531  0.8631  0.6864  1.5005
  184MPD1    H3 2807   0.048   4.314  10.432  1.7050  1.3322  0.2966
  184MPD1     N 2808   0.432   4.144  10.312 -0.9354  0.1227  0.5567
  184MPD1    H5 2809   0.452   4.239  10.283  0.4956 -0.2828  0.2005
  184MPD1    N1 2810   0.100   3.871  10.555  0.1778  0.2736 -0.0851
  184MPD1    H6 2811   0.000   3.849  10.554 -0.1296  1.5864  2.5236
  184MPD1    H7 2812   0.159   3.801  10.511 -2.2949 -2.8079  1.4876
  185MPD1     C 2813   0.711   3.683   9.472  0.2775 -0.5558 -0.4996
  185MPD1    C1 2814   0.812   3.781   9.497  0.0695  0.5606  0.0126
  185MPD1    C2 2815   0.793   3.870   9.601 -0.0136  0.2870 -0.6008
  185MPD1    C3 2816   0.700   3.846   9.695  0.2124 -0.2130  0.4776
  185MPD1    C4 2817   0.605   3.751   9.676  0.1462  0.2300 -0.0566
  185MPD1    C5 2818   0.606   3.678   9.559  0.3340 -0.5003 -0.3363
  185MPD1     H 2819   0.864   3.952   9.609  0.2310 -0.0353  0.4938
  185MPD1    H1 2820   0.518   3.741   9.740  1.2343  0.0774  1.3927
  185MPD1    H2 2821   0.725   3.611   9.393  0.8354 -1.2515  0.2321
  185MPD1    H3 2822   0.527   3.604   9.547 -0.4006  0.3389 -0.6855
  185MPD1     N 2823   0.686   3.930   9.804  0.2899  0.1855 -0.0300
  185MPD1    H5 2824   0.622   3.901   9.877 -1.6406 -0.1735 -1.8805
  185MPD1    N1 2825   0.922   3.796   9.413 -0.6742  0.2292 -0.0930
  185MPD1    H6 2826   1.008   3.839   9.447 -0.5641 -0.0263 -0.0450
  185MPD1    H7 2827   0.954   3.722   9.350 -0.6673  0.7837 -0.7472
  186MPD1     C 2828   0.006   3.645  16.217 -0.3741  0.3491  0.2758
  186MPD1    C1 2829   4.699   3.594  16.342  0.5306 -0.2611 -0.3285
  186MPD1    C2 2830   4.621   3.668  16.428 -0.6334 -0.7507 -0.0093
  186MPD1    C3 2831   4.576   3.796  16.398 -0.1672 -0.6113 -0.2158
  186MPD1    C4 2832   4.595   3.848  16.271  0.4490 -0.4102 -0.3671
  186MPD1    C5 2833   4.668   3.768  16.186  0.3448  0.1529  0.2717
  186MPD1     H 2834   4.601   3.617  16.521  1.0273 -1.2419  0.0717
  186MPD1    H1 2835   4.536   3.934  16.240  0.8050  1.2995  3.5914
  186MPD1    H2 2836   0.076   3.600  16.148  0.0164 -0.6597  1.3363
  186MPD1    H3 2837   4.678   3.802  16.083 -1.8629 -0.7957 -0.2625
  186MPD1     N 2838   4.486   3.870  16.475  0.0361 -0.5233 -0.3854
  186MPD1    H5 2839   4.442   3.944  16.421  1.1815  1.0173  0.7973
  186MPD1    N1 2840   0.028   3.471  16.380  0.0391  0.6258 -0.1390
  186MPD1    H6 2841   0.101   3.433  16.319 -0.2167  1.3285 -0.8777
  186MPD1    H7 2842   0.062   3.475  16.475 -1.1435 -3.0296  0.4437
  187MPD1     C 2843   3.575   0.684   0.053 -0.0283 -0.3257 -0.6932
  187MPD1    C1 2844   3.523   0.786   0.123  0.0797 -0.2692 -0.0664
  187MPD1    C2 2845   3.504   0.903   0.055  0.0618 -0.6243 -0.0217
  187MPD1    C3 2846   3.505   0.902  17.604 -0.1937 -0.3192 -1.0913
  187MPD1    C4 2847   3.543   0.795  17.523 -0.0006  0.5266  0.5300
  187MPD1    C5 2848   3.588   0.685  17.600  0.0407 -0.2974 -1.0237
  187MPD1     H 2849   3.472   0.993   0.105 -0.7912 -0.4312 -0.9072
  187MPD1    H1 2850   3.547   0.799  17.415  0.9132  1.7196  0.6161
  187MPD1    H2 2851   3.605   0.595   0.107 -0.5279 -0.4595 -0.6361
  187MPD1    H3 2852   3.632   0.595  17.559  1.7324 -0.2535  0.6895
  187MPD1     N 2853   3.466   1.009  17.529 -0.4323 -0.6413  0.0604
  187MPD1    H5 2854   3.491   0.993  17.432 -0.6384  1.2747 -0.3046
  187MPD1    N1 2855   3.530   0.780   0.260 -0.0383  0.1686 -0.1664
  187MPD1    H6 2856   3.485   0.861   0.303  1.7834  0.1892  1.6506
  187MPD1    H7 2857   3.496   0.687   0.285  0.7412  0.2112  1.0220
  188MPD1     C 2858   3.421   0.193  10.686  0.3408  0.5534 -0.7170
  188MPD1    C1 2859   3.299   0.246  10.687 -0.0348 -0.1604  0.2646
  188MPD1    C2 2860   3.236   0.262  10.569 -0.5672  0.2962  0.3547
  188MPD1    C3 2861   3.274   0.199  10.453  0.2526 -0.0990  0.0367
  188MPD1    C4 2862   3.400   0.137  10.452  0.6388  0.4097 -0.2550
  188MPD1    C5 2863   3.471   0.136  10.572 -0.6265 -0.2924  0.7485
  188MPD1     H 2864   3.145   0.321  10.565 -0.0507  1.2133  2.3816
  188MPD1    H1 2865   3.442   0.097  10.360  0.3416  2.7341 -1.3981
  188MPD1    H2 2866   3.483   0.183  10.774  0.6034  0.1635 -0.9501
  188MPD1    H3 2867   3.572   0.095  10.578 -0.9036 -0.7602  2.1611
  188MPD1     N 2868   3.189   0.188  10.334 -0.1790 -0.4011 -0.4302
  188MPD1    H5 2869   3.230   0.135  10.258  0.4416 -1.2691  0.5164
  188MPD1    N1 2870   3.255   0.305  10.805 -0.0223 -0.3949  0.3958
  188MPD1    H6 2871   3.266   0.240  10.882  1.0783 -0.6846  0.0026
  188MPD1    H7 2872   3.159   0.336  10.799  0.0822 -0.4089 -1.4248
  189MPD1     C 2873   0.283   2.123   0.249  0.0721  0.4977 -1.0072
  189MPD1    C1 2874   0.184   2.102   0.159 -0.7437  0.2174  0.3457
  189MPD1    C2 2875   0.073   2.181   0.162  0.2700  0.0869 -0.1895
  189MPD1    C3 2876   0.065   2.289   0.247 -0.5556 -0.6643  0.8185
  189MPD1    C4 2877   0.173   2.323   0.329  0.2883 -0.2434  0.1470
  189MPD1    C5 2878   0.269   2.234   0.328  0.3818  0.1529  0.2692
  189MPD1     H 2879   0.001   2.170   0.082 -0.3021  1.8605  0.0744
  189MPD1    H1 2880   0.178   2.412   0.390 -1.5150 -0.0067 -0.0320
  189MPD1    H2 2881   0.365   2.053   0.256 -1.8719 -1.6823 -0.0539
  189MPD1    H3 2882   0.357   2.251   0.389  0.3389 -1.9040  0.9025
  189MPD1     N 2883   4.679   2.379   0.220  0.2176 -0.3180  0.1875
  189MPD1    H5 2884   4.589   2.338   0.195  0.5059 -1.7690  1.5122
  189MPD1    N1 2885   0.197   1.990   0.078 -0.1375  0.4369 -0.1963
  189MPD1    H6 2886   0.148   1.990  17.674  0.1570 -2.5360 -0.3821
  189MPD1    H7 2887   0.296   1.968   0.073 -0.1446  0.7717 -1.6314
  190MPD1     C 2888   3.095   0.150  15.026  0.3656 -0.0568  0.5494
  190MPD1    C1 2889   3.225   0.188  14.991 -0.0078 -0.5440  0.3174
  190MPD1    C2 2890   3.320   0.186  15.093  0.1326 -0.5546 -0.4333
  190MPD1    C3 2891   3.286   0.188  15.226  0.1181 -0.7660 -0.1680
  190MPD1    C4 2892   3.152   0.166  15.258 -0.2639 -0.1612  0.1135
  190MPD1    C5 2893   3.057   0.136  15.158 -0.4454  0.1413  0.2048
  190MPD1     H 2894   3.422   0.180  15.057  1.4535 -2.1082  3.5773
  190MPD1    H1 2895   3.107   0.174  15.356  0.8656 -1.1952  0.7129
  190MPD1    H2 2896   3.020   0.134  14.950  0.4233 -4.1094  1.3638
  190MPD1    H3 2897   2.954   0.104  15.173 -0.4305  0.7237  1.4969
  190MPD1     N 2898   3.383   0.206  15.328  0.2359 -0.2790 -0.3773
  190MPD1    H5 2899   3.479   0.197  15.296  1.0088  3.4420  0.8932
  190MPD1    N1 2900   3.257   0.188  14.857  0.1058  0.4575  0.5811
  190MPD1    H6 2901   3.349   0.231  14.845  0.3633 -0.4733 -0.8541
  190MPD1    H7 2902   3.189   0.257  14.824  0.7926  1.2206  0.7394
  191MPD1     C 2903   2.678   2.180  13.071  0.2338 -0.5146 -0.3539
  191MPD1    C1 2904   2.588   2.236  12.989 -0.0162 -0.2298  0.1931
  191MPD1    C2 2905   2.624   2.275  12.859 -0.1051 -0.1862 -0.0010
  191MPD1    C3 2906   2.746   2.243  12.809  0.5881  0.7211 -1.0918
  191MPD1    C4 2907   2.845   2.191  12.902 -0.2523 -0.0353 -0.2287
  191MPD1    C5 2908   2.805   2.163  13.025 -0.1705 -0.5530 -0.4504
  191MPD1     H 2909   2.544   2.319  12.800 -1.0273  0.5691  1.8228
  191MPD1    H1 2910   2.945   2.164  12.870  0.7030  1.2686  1.6809
  191MPD1    H2 2911   2.655   2.137  13.168  1.5866 -1.1208 -0.3110
  191MPD1    H3 2912   2.871   2.102  13.086 -2.3548 -1.4616  1.0346
  191MPD1     N 2913   2.772   2.281  12.674  0.5924 -0.3263 -0.0171
  191MPD1    H5 2914   2.699   2.333  12.627  1.7714  0.5193 -0.9147
  191MPD1    N1 2915   2.444   2.239  13.024 -0.0176 -1.0301 -0.2087
  191MPD1    H6 2916   2.432   2.261  13.122 -0.7456  0.0185 -0.5326
  191MPD1    H7 2917   2.395   2.306  12.964 -1.8415 -2.5339 -0.3956
  192MPD1     C 2918   2.429   2.523  11.779  0.3885 -0.4618 -0.3887
  192MPD1    C1 2919   2.405   2.408  11.846 -0.0804 -0.0955 -0.0317
  192MPD1    C2 2920   2.487   2.378  11.953  1.0294  1.1228  0.5454
  192MPD1    C3 2921   2.598   2.458  11.982  0.1613  0.5414 -0.0063
  192MPD1    C4 2922   2.611   2.572  11.917 -0.6995 -0.4708 -0.2460
  192MPD1    C5 2923   2.526   2.611  11.816  0.1929  0.1845  0.0264
  192MPD1     H 2924   2.474   2.288  12.013  2.3106  0.2383 -0.5051
  192MPD1    H1 2925   2.688   2.643  11.945 -1.7344  0.6525 -0.2655
  192MPD1    H2 2926   2.362   2.565  11.705  0.2730  0.1044  0.0394
  192MPD1    H3 2927   2.531   2.712  11.777 -0.1181  0.8427  1.6938
  192MPD1     N 2928   2.686   2.430  12.085  0.2608  0.2967  0.3456
  192MPD1    H5 2929   2.780   2.468  12.076  0.4652 -0.7499 -1.9915
  192MPD1    N1 2930   2.302   2.323  11.795  0.7421  0.2292  0.2886
  192MPD1    H6 2931   2.270   2.267  11.873 -1.1175 -0.9657 -1.3216
  192MPD1    H7 2932   2.226   2.379  11.757 -0.1626 -0.2197  1.4571
  193MPD1     C 2933   2.328   2.960  17.292  0.5994 -0.6934 -0.5923
  193MPD1    C1 2934   2.414   2.890  17.204  0.1161 -0.2371 -0.5370
  193MPD1    C2 2935   2.538   2.941  17.184 -0.4905  0.5590 -1.1812
  193MPD1    C3 2936   2.579   3.059  17.240  0.5222 -1.1293  0.5090
  193MPD1    C4 2937   2.491   3.126  17.327  0.9065  0.7909 -0.0899
  193MPD1    C5 2938   2.366   3.076  17.349 -1.0259 -0.2491  0.1271
  193MPD1     H 2939   2.607   2.888  17.120 -1.4763 -1.1172 -0.8558
  193MPD1    H1 2940   2.520   3.227  17.354  1.1079  0.4579  0.9273
  193MPD1    H2 2941   2.226   2.922  17.299  0.6270 -0.1817  2.6389
  193MPD1    H3 2942   2.305   3.134  17.418  0.4829  0.9823  0.4482
  193MPD1     N 2943   2.705   3.113  17.217  0.2530  0.1075  0.1104
  193MPD1    H5 2944   2.736   3.201  17.256  1.9138 -0.0591 -0.8654
  193MPD1    N1 2945   2.364   2.776  17.133 -0.4660  0.5716 -0.1516
  193MPD1    H6 2946   2.299   2.730  17.197  3.0950 -1.8112  1.7461
  193MPD1    H7 2947   2.437   2.711  17.103 -0.8815 -1.2134  2.7505
  194MPD1     C 2948   0.524   0.447  17.444  0.3019  0.4565 -0.0455
  194MPD1    C1 2949   0.638   0.521  17.432  0.4675  0.2479 -0.5395
  194MPD1    C2 2950   0.760   0.451  17.408  0.5839 -0.1068  0.2600
  194MPD1    C3 2951   0.764   0.313  17.396 -0.5836 -0.2642  0.1073
  194MPD1    C4 2952   0.645   0.242  17.412  0.3211  0.1900 -0.1069
  194MPD1    C5 2953   0.528   0.311  17.421 -0.1998  0.6081 -0.6383
  194MPD1     H 2954   0.854   0.504  17.400  0.9957 -0.9251 -0.4150
  194MPD1    H1 2955   0.648   0.135  17.391  0.6897 -0.1103  1.5017
  194MPD1    H2 2956   0.429   0.494  17.464 -0.6143 -1.4122  0.0507
  194MPD1    H3 2957   0.433   0.260  17.416  0.6431 -1.1843  1.5377
  194MPD1     N 2958   0.884   0.245  17.374 -0.2146 -0.2452  0.5547
  194MPD1    H5 2959   0.883   0.149  17.342 -1.0933  0.2656 -0.9329
  194MPD1    N1 2960   0.641   0.650  17.479  0.4047 -0.9703  0.0442
  194MPD1    H6 2961   0.552   0.698  17.472  0.7756 -0.4282 -1.0309
  194MPD1    H7 2962   0.707   0.712  17.430  0.9807 -1.4174  0.2546
  195MPD1     C 2963   2.775   1.596   0.312  0.2974  0.4815  0.4258
  195MPD1    C1 2964   2.850   1.532   0.215 -0.5538  0.3489 -0.4690
  195MPD1    C2 2965   2.813   1.406   0.180 -0.3222  0.3591 -0.3486
  195MPD1    C3 2966   2.697   1.353   0.227 -0.4229  0.4416  0.2059
  195MPD1    C4 2967   2.624   1.412   0.328  0.2096 -0.9434  0.1973
  195MPD1    C5 2968   2.673   1.533   0.379 -1.1821 -0.0913 -0.1404
  195MPD1     H 2969   2.868   1.349   0.105  0.4009 -1.1074  1.2932
  195MPD1    H1 2970   2.530   1.368   0.360 -0.2992  1.4697  2.0192
  195MPD1    H2 2971   2.806   1.695   0.343  1.1456  0.6262 -0.8632
  195MPD1    H3 2972   2.613   1.598   0.441 -0.3514  0.6931 -0.1563
  195MPD1     N 2973   2.646   1.231   0.179  0.2014  0.4942  0.1127
  195MPD1    H5 2974   2.558   1.203   0.222  1.1006 -0.7873  1.1437
  195MPD1    N1 2975   2.972   1.595   0.168 -0.0798 -0.1555 -0.2371
  195MPD1    H6 2976   2.973   1.696   0.157 -1.6026 -0.0176  0.8298
  195MPD1    H7 2977   3.000   1.557   0.078  0.2431 -0.7625  0.1191
  196MPD1     C 2978   1.622   1.205   0.017 -0.3070  0.1112 -0.0045
  196MPD1    C1 2979   1.488   1.207   0.050  0.1942  0.1275  0.0501
  196MPD1    C2 2980   1.452   1.244   0.176  0.4162 -0.4874  0.3156
  196MPD1    C3 2981   1.539   1.328   0.250 -0.8890  0.4149 -0.1527
  196MPD1    C4 2982   1.668   1.345   0.199  0.0627 -0.2441 -0.5372
  196MPD1    C5 2983   1.702   1.293   0.079 -0.4643  0.7149  0.2559
  196MPD1     H 2984   1.356   1.221   0.221 -0.3841  2.2959  0.0361
  196MPD1    H1 2985   1.737   1.400   0.262 -1.5029 -3.5345  3.9531
  196MPD1    H2 2986   1.656   1.153  17.614  1.3832  0.4585  0.4348
  196MPD1    H3 2987   1.805   1.313   0.054 -0.5175 -1.2448 -1.5766
  196MPD1     N 2988   1.512   1.376   0.382  0.1572 -0.1757  0.5660
  196MPD1    H5 2989   1.586   1.422   0.434 -0.3743  1.7168 -0.3638
  196MPD1    N1 2990   1.394   1.150  17.655 -0.2265 -0.0905 -0.0423
  196MPD1    H6 2991   1.305   1.200  17.663  0.8624  2.0210 -1.3018
  196MPD1    H7 2992   1.426   1.152  17.558  0.0679  0.9055  0.0734
  197MPD1     C 2993   1.614   3.251   0.136 -0.5263  0.0962  0.1359
  197MPD1    C1 2994   1.546   3.230   0.016  0.0314 -0.0217 -0.5162
  197MPD1    C2 2995   1.600   3.270  17.577  0.3125 -0.2218  0.2853
  197MPD1    C3 2996   1.707   3.348  17.587  0.5274  0.1996  0.8675
  197MPD1    C4 2997   1.779   3.375   0.013 -0.0790  0.6036  0.1105
  197MPD1    C5 2998   1.734   3.317   0.126  0.2217 -0.9714  0.2081
  197MPD1     H 2999   1.551   3.251  17.482  1.8659  1.6386 -0.8758
  197MPD1    H1 3000   1.872   3.431   0.005  1.9080 -2.7179  0.1059
  197MPD1    H2 3001   1.588   3.211   0.234 -1.1609 -1.7017 -0.7755
  197MPD1    H3 3002   1.792   3.339   0.215 -0.0025 -0.5425  0.2491
  197MPD1     N 3003   1.771   3.395  17.472  0.0616 -0.2426 -0.7117
  197MPD1    H5 3004   1.855   3.450  17.490  0.1121 -1.0644  1.6253
  197MPD1    N1 3005   1.422   3.162   0.029 -0.4527  0.2163  0.6686
  197MPD1    H6 3006   1.373   3.144  17.627 -0.0878  0.6657  0.3723
  197MPD1    H7 3007   1.354   3.205   0.092  2.0882  1.8006  2.3312
  198MPD1     C 3008   3.890   1.102  16.232  0.7268  0.4011  0.5238
  198MPD1    C1 3009   3.949   1.036  16.132  0.1968  0.4559 -0.6451
  198MPD1    C2 3010   4.036   1.104  16.051 -0.1856 -0.1516  0.0453
  198MPD1    C3 3011   4.070   1.237  16.075  0.3264  0.2519 -0.1844
  198MPD1    C4 3012   4.002   1.309  16.172  0.2465  0.4468  0.0241
  198MPD1    C5 3013   3.912   1.237  16.250  0.4753 -0.1146 -0.3696
  198MPD1     H 3014   4.076   1.050  15.966  1.2641 -1.3348  1.4720
  198MPD1    H1 3015   4.015   1.415  16.190  1.0275  0.5811 -1.3463
  198MPD1    H2 3016   3.815   1.054  16.294 -0.8149  0.0137 -1.6771
  198MPD1    H3 3017   3.866   1.291  16.332  3.1134  0.9654  0.3931
  198MPD1     N 3018   4.168   1.290  15.988 -0.2932 -0.1804  0.8755
  198MPD1    H5 3019   4.200   1.223  15.919 -1.4909 -0.9566  1.0755
  198MPD1    N1 3020   3.932   0.898  16.115 -0.6757  0.4951 -0.0317
  198MPD1    H6 3021   3.853   0.861  16.167  0.3121 -1.6531 -0.0388
  198MPD1    H7 3022   3.915   0.877  16.017  1.0370 -0.5688 -0.1069
  199MPD1     C 3023   4.478   1.936   8.691 -0.1346  0.0598 -0.4706
  199MPD1    C1 3024   4.371   1.942   8.774 -0.1889 -0.4634 -0.4010
  199MPD1    C2 3025   4.347   2.052   8.852 -0.2044  0.2082 -0.3143
  199MPD1    C3 3026   4.439   2.157   8.850 -0.0161 -0.0172 -0.4078
  199MPD1    C4 3027   4.543   2.157   8.763  0.6419  0.1743  0.8096
  199MPD1    C5 3028   4.561   2.050   8.682 -0.0417  0.0017 -0.6496
  199MPD1     H 3029   4.260   2.059   8.916 -0.1172  3.0152 -0.5017
  199MPD1    H1 3030   4.619   2.234   8.756  0.4121  0.4326  1.1519
  199MPD1    H2 3031   4.507   1.855   8.625 -0.5587 -1.2052  0.8986
  199MPD1    H3 3032   4.639   2.057   8.607 -0.7079 -0.2117 -1.3618
  199MPD1     N 3033   4.433   2.267   8.932  0.2226 -0.0769  0.3948
  199MPD1    H5 3034   4.496   2.339   8.897  2.3682 -1.5667  1.1904
  199MPD1    N1 3035   4.275   1.835   8.776 -0.2001 -0.6895  0.7674
  199MPD1    H6 3036   4.213   1.857   8.854 -0.0184  3.2511 -0.2373
  199MPD1    H7 3037   4.316   1.742   8.784  0.2983 -0.4239  1.3977
  200MPD1     C 3038   4.199   2.367  14.778 -0.2263 -0.1310  0.4203
  200MPD1    C1 3039   4.173   2.390  14.640  0.0033  0.4591  0.5975
  200MPD1    C2 3040   4.274   2.429  14.562 -0.2823 -0.2280  0.0673
  200MPD1    C3 3041   4.405   2.434  14.603 -0.3734  0.2033 -0.3379
  200MPD1    C4 3042   4.427   2.411  14.739  0.5218  0.8931  0.2017
  200MPD1    C5 3043   4.325   2.375  14.823 -0.5265  1.1360 -0.8028
  200MPD1     H 3044   4.251   2.451  14.458  1.5804  0.8035 -0.1317
  200MPD1    H1 3045   4.527   2.423  14.778  0.1341 -0.7596  1.7084
  200MPD1    H2 3046   4.118   2.333  14.842  1.2685 -0.0305  2.3678
  200MPD1    H3 3047   4.347   2.365  14.929 -1.2283  1.9894 -0.5736
  200MPD1     N 3048   4.499   2.472  14.503 -0.0979 -0.2095 -0.7257
  200MPD1    H5 3049   4.459   2.493  14.412 -0.5751  1.7797 -0.0410
  200MPD1    N1 3050   4.041   2.407  14.591 -0.3449  0.2329 -1.0218
  200MPD1    H6 3051   4.034   2.342  14.513 -0.6212 -0.3324 -0.5225
  200MPD1    H7 3052   3.970   2.369  14.654  1.7607 -0.9621  0.6408
  201MPD1     C 3053   2.126   1.695  12.439  0.0913 -0.0249  0.4408
  201MPD1    C1 3054   2.095   1.571  12.385 -0.0369 -0.0244 -0.9346
  201MPD1    C2 3055   2.134   1.461  12.463  0.0141 -0.1194  0.1184
  201MPD1    C3 3056   2.181   1.473  12.593 -0.0895 -0.3042 -0.0812
  201MPD1    C4 3057   2.223   1.603  12.639  0.1321  0.0576  0.3990
  201MPD1    C5 3058   2.196   1.712  12.557 -0.5364 -0.2447  0.5989
  201MPD1     H 3059   2.104   1.360  12.437 -1.3566  0.3567 -0.1531
  201MPD1    H1 3060   2.282   1.621  12.727  1.1405 -3.0099  0.3489
  201MPD1    H2 3061   2.120   1.783  12.376  0.3153  0.6908  1.4210
  201MPD1    H3 3062   2.206   1.812  12.596 -0.8605  0.7375 -1.8447
  201MPD1     N 3063   2.181   1.357  12.680 -0.3561  0.3407 -0.5740
  201MPD1    H5 3064   2.149   1.266  12.649  3.4773 -0.9735 -0.7627
  201MPD1    N1 3065   2.055   1.556  12.249  0.0449 -0.5196 -0.3221
  201MPD1    H6 3066   1.995   1.628  12.208  0.7760 -0.2238 -0.8672
  201MPD1    H7 3067   2.016   1.465  12.225 -1.3833 -0.0276  0.1573
  202MPD1     C 3068   1.285   4.578   9.243 -0.3981  0.7229  0.7066
  202MPD1    C1 3069   1.354   4.540   9.355  0.5949 -0.7486 -0.1572
  202MPD1    C2 3070   1.376   4.644   9.448 -0.3920  0.7416  0.3988
  202MPD1    C3 3071   1.365   0.056   9.420  1.2507  0.1918  0.2259
  202MPD1    C4 3072   1.312   0.088   9.295  0.2785  0.2064  0.2038
  202MPD1    C5 3073   1.269   4.709   9.214  1.1523 -0.3508  0.4134
  202MPD1     H 3074   1.396   4.620   9.552 -0.4993 -1.4485 -0.0853
  202MPD1    H1 3075   1.308   0.188   9.253 -3.2822  0.7617  1.8686
  202MPD1    H2 3076   1.255   4.501   9.173  1.0213  2.3098 -1.6457
  202MPD1    H3 3077   1.236   0.012   9.114  2.6286 -0.6314 -0.1330
  202MPD1     N 3078   1.399   0.162   9.507  0.1743 -0.5049 -0.4233
  202MPD1    H5 3079   1.379   0.255   9.473 -2.8131 -0.9928  0.0400
  202MPD1    N1 3080   1.351   4.406   9.400  0.5097 -0.4076 -0.8574
  202MPD1    H6 3081   1.364   4.343   9.321  0.5695  0.9340 -1.9134
  202MPD1    H7 3082   1.426   4.383   9.466 -0.5568 -1.3916  0.0209
  203MPD1     C 3083   0.941   2.352  12.152 -0.1507 -0.3811  0.5300
  203MPD1    C1 3084   0.921   2.236  12.090 -0.3383 -0.5200  0.0641
  203MPD1    C2 3085   0.985   2.119  12.123  0.5868 -0.0806  0.5291
  203MPD1    C3 3086   1.056   2.105  12.237 -0.8337  0.2054 -0.5246
  203MPD1    C4 3087   1.086   2.229  12.295  0.5389 -0.8382 -0.8666
  203MPD1    C5 3088   1.020   2.344  12.258 -0.0451 -0.4906  0.2459
  203MPD1     H 3089   0.963   2.030  12.065  0.0748  0.5198 -0.2028
  203MPD1    H1 3090   1.141   2.240  12.388 -1.0602  1.0528 -0.1474
  203MPD1    H2 3091   0.888   2.439  12.116  1.7386  0.3850 -0.3823
  203MPD1    H3 3092   1.054   2.436  12.302  0.3915  0.0519 -1.2327
  203MPD1     N 3093   1.098   1.984  12.286  0.1977 -0.8272 -0.3717
  203MPD1    H5 3094   1.090   1.900  12.229  0.0658 -0.3517 -1.0551
  203MPD1    N1 3095   0.836   2.234  11.982 -0.7278 -0.2555  0.3563
  203MPD1    H6 3096   0.756   2.297  11.973  1.5651  2.4711 -0.9050
  203MPD1    H7 3097   0.807   2.141  11.954 -0.2201 -0.5094  0.6757
  204MPD1     C 3098   1.318   3.994  17.490 -0.0689  0.9178 -0.0138
  204MPD1    C1 3099   1.339   4.015  17.353  0.4110 -0.0227 -0.1728
  204MPD1    C2 3100   1.252   3.958  17.263 -0.2406  0.0835 -0.3015
  204MPD1    C3 3101   1.143   3.881  17.302 -0.4873 -0.7361 -1.0648
  204MPD1    C4 3102   1.131   3.850  17.440  0.2809 -0.1107  0.1818
  204MPD1    C5 3103   1.217   3.906  17.527  0.2918  0.1472  0.6376
  204MPD1     H 3104   1.270   3.973  17.157  1.1697 -1.0802 -0.2215
  204MPD1    H1 3105   1.053   3.787  17.482 -0.2777  0.1474 -0.4582
  204MPD1    H2 3106   1.385   4.038  17.564  0.9115  0.5316 -0.6699
  204MPD1    H3 3107   1.209   3.885  17.633 -0.8210  0.8849  0.6983
  204MPD1     N 3108   1.059   3.812  17.207  0.0338 -0.4151 -0.0792
  204MPD1    H5 3109   1.069   3.821  17.106  2.3721 -0.1351  0.1704
  204MPD1    N1 3110   1.429   4.113  17.318  0.7326  0.1271 -0.0443
  204MPD1    H6 3111   1.452   4.106  17.219  3.7267 -1.2725  0.7584
  204MPD1    H7 3112   1.518   4.109  17.368  0.7977  0.9424 -0.0924
  205MPD1     C 3113   1.297   2.216  16.866  0.1039  0.0700 -0.2031
  205MPD1    C1 3114   1.315   2.353  16.890 -0.4215 -0.8492  0.3211
  205MPD1    C2 3115   1.200   2.433  16.906 -0.5872  1.0714  0.0836
  205MPD1    C3 3116   1.075   2.378  16.888  0.5353  0.8094 -0.1796
  205MPD1    C4 3117   1.062   2.250  16.841 -0.0298 -0.3745 -0.3670
  205MPD1    C5 3118   1.174   2.166  16.835 -0.5277 -0.3215 -0.4537
  205MPD1     H 3119   1.209   2.540  16.923  0.5940  0.3288  4.0566
  205MPD1    H1 3120   0.969   2.203  16.811 -1.1432  0.3140  2.0077
  205MPD1    H2 3121   1.375   2.141  16.877  0.2732  0.3431  0.4873
  205MPD1    H3 3122   1.157   2.063  16.804 -2.6891 -0.0000 -0.2768
  205MPD1     N 3123   0.949   2.442  16.911 -0.1788 -0.0585  0.5037
  205MPD1    H5 3124   0.867   2.382  16.912 -0.5365  0.4467  1.6413
  205MPD1    N1 3125   1.434   2.402  16.942  0.3152  0.0715 -0.1584
  205MPD1    H6 3126   1.450   2.502  16.933  3.2846 -0.2882  1.0260
  205MPD1    H7 3127   1.515   2.363  16.894 -0.8907  0.1964 -2.3037
  206MPD1     C 3128   0.623   0.112  16.736  0.2667  0.5744 -0.0064
  206MPD1    C1 3129   0.736   0.112  16.655 -0.6241 -0.2335  0.1115
  206MPD1    C2 3130   0.721   0.071  16.525  0.0196  0.7701 -0.5344
  206MPD1    C3 3131   0.600   0.022  16.474  0.4312 -0.4228 -0.4611
  206MPD1    C4 3132   0.497   0.011  16.568 -0.6189  0.1545 -0.7809
  206MPD1    C5 3133   0.509   0.056  16.695  0.0979 -0.3617 -0.1295
  206MPD1     H 3134   0.807   0.073  16.459 -1.2848  1.0425 -2.2367
  206MPD1    H1 3135   0.396   4.698  16.546  0.4765 -2.1794 -2.3109
  206MPD1    H2 3136   0.630   0.145  16.839  0.6589 -0.1435  0.1947
  206MPD1    H3 3137   0.431   0.034  16.767  0.7089 -0.4702  0.4986
  206MPD1     N 3138   0.570   0.000  16.335 -0.4506 -0.0078 -0.1521
  206MPD1    H5 3139   0.479   4.684  16.310  0.3931 -0.1079 -3.1065
  206MPD1    N1 3140   0.838   0.190  16.701 -0.1595 -0.2004  0.7258
  206MPD1    H6 3141   0.833   0.193  16.803  0.2530 -1.0630  0.7714
  206MPD1    H7 3142   0.932   0.158  16.677  0.0394  2.5867 -2.1595
  207MPD1     C 3143   3.042   2.757   9.720 -0.3721  0.2076 -0.3612
  207MPD1    C1 3144   3.137   2.840   9.665 -0.1820 -0.0288 -0.2122
  207MPD1    C2 3145   3.265   2.829   9.712 -0.7673 -0.0051  0.4084
  207MPD1    C3 3146   3.307   2.736   9.804 -0.3266  0.7512  0.0611
  207MPD1    C4 3147   3.209   2.649   9.856  0.3270 -0.1891  0.2944
  207MPD1    C5 3148   3.082   2.665   9.816 -0.9104  0.4724 -0.0865
  207MPD1     H 3149   3.334   2.890   9.655 -1.5205 -1.1883 -1.8070
  207MPD1    H1 3150   3.229   2.575   9.932 -1.3626 -0.7081  0.2465
  207MPD1    H2 3151   2.936   2.767   9.700 -0.1993  1.9576 -0.4753
  207MPD1    H3 3152   3.011   2.595   9.859 -1.3244  2.5336  2.5005
  207MPD1     N 3153   3.440   2.729   9.853 -0.1338  0.2936  0.2413
  207MPD1    H5 3154   3.450   2.666   9.932  0.4760  0.8196  0.5909
  207MPD1    N1 3155   3.094   2.961   9.605 -0.4642  0.2457 -0.3316
  207MPD1    H6 3156   3.010   2.969   9.549 -1.6963 -2.0688  1.2221
  207MPD1    H7 3157   3.165   3.013   9.553 -1.5760  3.0188  0.8808
  208MPD1     C 3158   1.463   1.877  17.416  0.0760  0.0820  0.5707
  208MPD1    C1 3159   1.343   1.891  17.351  0.1344  0.8086  0.0675
  208MPD1    C2 3160   1.228   1.907  17.426  0.3214 -0.1748 -0.5794
  208MPD1    C3 3161   1.224   1.896  17.564 -0.5077  0.0351 -0.2914
  208MPD1    C4 3162   1.349   1.881  17.619 -0.3342  0.0357 -0.0221
  208MPD1    C5 3163   1.468   1.895  17.551 -0.1862  0.7351 -0.4382
  208MPD1     H 3164   1.134   1.918  17.374  0.8059  2.3610 -0.9304
  208MPD1    H1 3165   1.350   1.896   0.041 -0.1228  2.4477 -0.3619
  208MPD1    H2 3166   1.559   1.858  17.368 -0.1035 -1.2637  0.7417
  208MPD1    H3 3167   1.563   1.897  17.603 -1.6032 -1.5139  2.2394
  208MPD1     N 3168   1.103   1.905  17.629  0.0993 -0.8867 -0.7276
  208MPD1    H5 3169   1.018   1.901  17.574 -0.7208 -1.1899  0.5585
  208MPD1    N1 3170   1.337   1.907  17.210 -0.2436 -0.7049 -0.3100
  208MPD1    H6 3171   1.243   1.909  17.170  0.3274 -2.9606 -1.8166
  208MPD1    H7 3172   1.403   1.852  17.154  0.6578 -1.1427  1.1791
  209MPD1     C 3173   4.145   1.431  10.716 -0.0124 -0.2033 -1.0978
  209MPD1    C1 3174   4.170   1.531  10.627  0.6687  0.0106  0.3463
  209MPD1    C2 3175   4.080   1.638  10.639 -0.3973  0.1553 -0.3742
  209MPD1    C3 3176   3.985   1.661  10.737 -0.0581  0.2857 -0.3853
  209MPD1    C4 3177   3.970   1.553  10.826 -0.5922 -0.3434 -0.3182
  209MPD1    C5 3178   4.048   1.445  10.814  0.7909 -1.0573 -0.5316
  209MPD1     H 3179   4.092   1.723  10.573  0.1592  0.2103 -0.1994
  209MPD1    H1 3180   3.898   1.560  10.907  1.4209  1.6908  1.3060
  209MPD1    H2 3181   4.212   1.346  10.709  1.0909  0.5187  0.8490
  209MPD1    H3 3182   4.035   1.356  10.874  0.9545 -1.0736 -0.5211
  209MPD1     N 3183   3.909   1.783  10.741 -0.4000 -0.1635  0.0014
  209MPD1    H5 3184   3.941   1.859  10.682 -0.0286 -0.4453 -0.1610
  209MPD1    N1 3185   4.259   1.512  10.522 -0.1212 -0.4199 -0.7831
  209MPD1    H6 3186   4.345   1.467  10.552 -1.1395 -1.2237  0.9633
  209MPD1    H7 3187   4.278   1.597  10.469  1.2576  0.4034  1.0374
  210MPD1     C 3188   3.361   2.264  11.476  0.2586  0.0544 -0.9216
  210MPD1    C1 3189   3.441   2.355  11.403 -0.1743  0.4534  0.0971
  210MPD1    C2 3190   3.498   2.323  11.286 -0.1751  0.4445  0.2209
  210MPD1    C3 3191   3.495   2.192  11.246  0.6978  0.0862 -0.0823
  210MPD1    C4 3192   3.417   2.103  11.315 -0.2535 -0.1636 -0.2588
  210MPD1    C5 3193   3.361   2.135  11.434  0.7112  0.0351 -0.3151
  210MPD1     H 3194   3.547   2.400  11.228 -0.1885  0.8299  0.7179
  210MPD1    H1 3195   3.404   2.004  11.272  1.2487  0.6725 -2.5897
  210MPD1    H2 3196   3.305   2.299  11.562 -0.0574  1.2241 -1.6053
  210MPD1    H3 3197   3.290   2.073  11.486 -0.5205 -0.8692 -3.1264
  210MPD1     N 3198   3.548   2.152  11.122 -0.0345  0.1605  0.2283
  210MPD1    H5 3199   3.530   2.058  11.090 -0.3093  0.0107  0.8386
  210MPD1    N1 3200   3.435   2.489  11.442 -0.0549  0.2574 -0.3593
  210MPD1    H6 3201   3.498   2.552  11.394  1.0512 -0.1452  0.5768
  210MPD1    H7 3202   3.423   2.503  11.542 -1.8168 -2.4555 -0.1824
  211MPD1     C 3203   2.053   2.450  16.628 -0.6086  0.8332  0.3523
  211MPD1    C1 3204   1.997   2.331  16.595 -0.0942  0.0126  0.3029
  211MPD1    C2 3205   1.862   2.324  16.571 -0.3610  0.4383  1.2314
  211MPD1    C3 3206   1.785   2.435  16.593  0.2489 -0.3476 -0.4587
  211MPD1    C4 3207   1.841   2.555  16.638  0.0335 -0.0547  0.2068
  211MPD1    C5 3208   1.977   2.567  16.651 -1.1165  0.1193  0.9808
  211MPD1     H 3209   1.818   2.231  16.536 -1.3820  0.6931  1.8553
  211MPD1    H1 3210   1.788   2.650  16.643 -1.5760 -0.9512 -0.1174
  211MPD1    H2 3211   2.160   2.450  16.644 -0.4879 -1.5145 -0.3595
  211MPD1    H3 3212   2.024   2.662  16.673  2.2888 -0.8906 -2.1390
  211MPD1     N 3213   1.646   2.430  16.566 -0.0785 -0.1608 -0.9272
  211MPD1    H5 3214   1.608   2.352  16.513 -0.5536  1.3180 -2.7306
  211MPD1    N1 3215   2.072   2.207  16.615  0.4826  0.2456 -0.2429
  211MPD1    H6 3216   2.022   2.129  16.573  3.0821  0.7692 -4.3803
  211MPD1    H7 3217   2.163   2.213  16.570  0.4882 -1.3836 -0.4549
  212MPD1     C 3218   0.209   0.551  16.795  0.0200  0.1483  0.7414
  212MPD1    C1 3219   0.260   0.424  16.758  0.7731  0.5113  0.4075
  212MPD1    C2 3220   0.206   0.319  16.831  0.3710  0.4776  0.7005
  212MPD1    C3 3221   0.096   0.330  16.915 -0.7094  0.7229  0.0226
  212MPD1    C4 3222   0.045   0.457  16.943 -1.0409  0.2065 -0.3046
  212MPD1    C5 3223   0.100   0.566  16.877  0.6485 -0.4361  0.1917
  212MPD1     H 3224   0.256   0.224  16.818  1.5807  1.1073  0.7162
  212MPD1    H1 3225   4.671   0.473  16.993  0.0007  2.7517  0.8736
  212MPD1    H2 3226   0.263   0.639  16.760  1.1217 -1.5462 -1.8036
  212MPD1    H3 3227   0.055   0.664  16.882  1.4641  0.0676 -2.0166
  212MPD1     N 3228   0.022   0.224  16.964  0.5785 -0.6241 -0.5098
  212MPD1    H5 3229   4.657   0.238  17.016  0.0347  0.9935 -1.8466
  212MPD1    N1 3230   0.377   0.406  16.681  1.1005 -0.3948 -0.4319
  212MPD1    H6 3231   0.357   0.328  16.619 -0.1755 -2.0297  2.0527
  212MPD1    H7 3232   0.392   0.481  16.614 -0.9661 -0.3992 -0.8897
  213MPD1     C 3233   2.566   0.496  15.795  0.2752 -0.8061  0.2040
  213MPD1    C1 3234   2.450   0.562  15.757 -1.0204  0.6747 -0.1165
  213MPD1    C2 3235   2.474   0.623  15.635 -0.4589  0.1305 -0.0584
  213MPD1    C3 3236   2.594   0.635  15.571  0.4101 -1.1191 -0.1637
  213MPD1    C4 3237   2.707   0.586  15.631  0.1165  0.2840 -0.2874
  213MPD1    C5 3238   2.692   0.511  15.739  0.1262 -0.3716  0.5671
  213MPD1     H 3239   2.385   0.655  15.581 -0.1236  1.3067  0.0884
  213MPD1    H1 3240   2.806   0.591  15.585  0.1321  0.2358 -0.2590
  213MPD1    H2 3241   2.565   0.417  15.869  0.0808 -0.3754  0.6686
  213MPD1    H3 3242   2.770   0.446  15.776  0.2451 -0.7344 -0.3244
  213MPD1     N 3243   2.597   0.715  15.450  0.4210 -0.1354  0.3187
  213MPD1    H5 3244   2.506   0.750  15.424 -0.4578 -1.3307  1.7593
  213MPD1    N1 3245   2.327   0.501  15.782  0.2028 -0.5144  0.3660
  213MPD1    H6 3246   2.254   0.571  15.777 -0.6707 -1.4602 -0.1322
  213MPD1    H7 3247   2.327   0.469  15.878  2.4246  3.4666  1.6715
  214MPD1     C 3248   1.970   1.128  15.094 -0.3916 -0.9058  0.1121
  214MPD1    C1 3249   2.064   1.222  15.062  0.3520 -0.0404  0.9030
  214MPD1    C2 3250   2.196   1.183  15.087  0.0820  0.4191  0.5168
  214MPD1    C3 3251   2.236   1.056  15.139  0.2598  0.3989  0.0482
  214MPD1    C4 3252   2.135   0.965  15.160  1.0070 -0.0612  0.4994
  214MPD1    C5 3253   2.004   1.000  15.134  0.4875 -0.1807 -0.0054
  214MPD1     H 3254   2.276   1.255  15.080  0.2061  0.2658  0.3547
  214MPD1    H1 3255   2.159   0.867  15.201  0.0936 -0.2189  0.6601
  214MPD1    H2 3256   1.866   1.141  15.067  0.7345  1.1652 -3.2151
  214MPD1    H3 3257   1.923   0.927  15.142  1.1638 -0.6508  2.7289
  214MPD1     N 3258   2.366   1.024  15.173  0.4833 -0.3501  0.1818
  214MPD1    H5 3259   2.370   0.931  15.214  0.6208  0.3893  1.8437
  214MPD1    N1 3260   2.032   1.358  15.050  0.3705 -0.4648 -0.0732
  214MPD1    H6 3261   1.937   1.387  15.028  0.7630  0.2047 -0.8951
  214MPD1    H7 3262   2.088   1.414  14.987 -0.0767  1.9017  1.6189
  215MPD1     C 3263   2.604   0.784  10.149 -0.4846  0.6332 -0.1432
  215MPD1    C1 3264   2.634   0.912  10.116 -0.7957 -0.0572  0.3183
  215MPD1    C2 3265   2.739   0.966  10.190  0.0361 -0.2914  0.4983
  215MPD1    C3 3266   2.825   0.897  10.271 -0.4823 -0.7921  0.0323
  215MPD1    C4 3267   2.791   0.763  10.292 -0.7614 -0.0406  0.6340
  215MPD1    C5 3268   2.682   0.710  10.230  0.1596 -0.5593 -1.0469
  215MPD1     H 3269   2.770   1.066  10.160  0.0559 -0.4549 -0.0366
  215MPD1    H1 3270   2.862   0.701  10.346 -1.0829 -0.6984  0.3085
  215MPD1    H2 3271   2.529   0.727  10.096  0.5328  0.5145 -1.4559
  215MPD1    H3 3272   2.650   0.607  10.238 -1.6351  0.0836 -0.1733
  215MPD1     N 3273   2.941   0.957  10.329  0.1103  0.6202 -0.2662
  215MPD1    H5 3274   2.948   1.056  10.308 -1.7484  0.7496 -0.2843
  215MPD1    N1 3275   2.547   0.990  10.044  1.2006  0.0194  0.4975
  215MPD1    H6 3276   2.505   0.929   9.974  1.6513  0.1356  0.1296
  215MPD1    H7 3277   2.594   1.068  10.000 -1.1250  0.6278 -0.9091
  216MPD1     C 3278   4.663   4.316  17.588  0.3782 -0.6244  0.0099
  216MPD1    C1 3279   4.627   4.340   0.031 -0.1674 -0.0403  0.3037
  216MPD1    C2 3280   0.001   4.300   0.128 -0.6402 -0.3486  0.2650
  216MPD1    C3 3281   0.132   4.263   0.099 -0.3276  0.6123  0.1043
  216MPD1    C4 3282   0.168   4.258  17.655  0.0995 -0.4173  0.1489
  216MPD1    C5 3283   0.072   4.286  17.564  0.3840 -0.0193  0.0164
  216MPD1     H 3284   4.682   4.298   0.229 -0.1042  2.8354  0.5437
  216MPD1    H1 3285   0.263   4.228  17.612 -0.0452 -1.2557  0.4018
  216MPD1    H2 3286   4.596   4.333  17.504  0.6761  2.0110  0.2804
  216MPD1    H3 3287   0.102   4.265  17.462 -0.5140  0.4920 -0.3522
  216MPD1     N 3288   0.211   4.213   0.205  0.5752 -0.1937 -0.5604
  216MPD1    H5 3289   0.177   4.225   0.300 -0.8457 -1.0838 -0.9626
  216MPD1    N1 3290   4.495   4.370   0.059 -1.0868  0.2003 -0.1912
  216MPD1    H6 3291   4.448   4.417  17.668 -0.9041 -0.2535 -0.5873
  216MPD1    H7 3292   4.478   4.406   0.152  0.9832 -2.5853  1.2714
  217MPD1     C 3293   0.656   1.792   9.256 -0.4791 -0.0836  0.0432
  217MPD1    C1 3294   0.619   1.746   9.132  0.3295  0.5389  0.0979
  217MPD1    C2 3295   0.573   1.619   9.125  0.1285  0.9380  0.1901
  217MPD1    C3 3296   0.547   1.535   9.231  0.6668 -0.2352  0.2000
  217MPD1    C4 3297   0.591   1.577   9.356  0.3753 -0.4347 -0.2276
  217MPD1    C5 3298   0.647   1.706   9.365  0.2013 -0.5355 -0.4980
  217MPD1     H 3299   0.568   1.580   9.024  3.9227 -0.5405  0.5584
  217MPD1    H1 3300   0.573   1.516   9.444 -0.2832 -0.9184 -0.6981
  217MPD1    H2 3301   0.719   1.878   9.271  1.0280 -0.9219 -1.5932
  217MPD1    H3 3302   0.662   1.746   9.464 -1.7098  1.1210 -0.8736
  217MPD1     N 3303   0.497   1.401   9.224  0.0181  0.2195 -0.1908
  217MPD1    H5 3304   0.499   1.344   9.308 -1.6227  0.1096 -0.2128
  217MPD1    N1 3305   0.650   1.824   9.017  0.1345  0.0418 -0.1185
  217MPD1    H6 3306   0.647   1.924   9.036  1.4413 -0.2382  1.5765
  217MPD1    H7 3307   0.593   1.801   8.936  0.9935 -0.5058 -0.5771
  218MPD1     C 3308   2.253   2.093  12.578 -0.0198 -0.3661  0.5720
  218MPD1    C1 3309   2.315   2.107  12.698 -0.6979 -0.1355  0.4846
  218MPD1    C2 3310   2.445   2.055  12.713 -0.4588  0.3699  0.1681
  218MPD1    C3 3311   2.511   2.007  12.603  0.0569  0.9937 -0.0443
  218MPD1    C4 3312   2.442   2.007  12.481 -0.3336  0.2644  0.2174
  218MPD1    C5 3313   2.317   2.051  12.471 -0.1817  0.9419  0.1280
  218MPD1     H 3314   2.490   2.048  12.811  0.5650  1.2680 -0.2341
  218MPD1    H1 3315   2.493   1.972  12.393 -0.8805 -1.5637  0.6190
  218MPD1    H2 3316   2.155   2.136  12.558 -0.8028 -1.8226  1.2905
  218MPD1    H3 3317   2.278   2.057  12.370 -0.9496  0.2760  0.3902
  218MPD1     N 3318   2.644   1.952  12.622 -0.6881  0.6484 -0.4386
  218MPD1    H5 3319   2.681   1.932  12.715 -0.8002  0.3447 -0.4603
  218MPD1    N1 3320   2.237   2.135  12.805  0.2534  0.6449  0.1049
  218MPD1    H6 3321   2.286   2.172  12.886 -1.6398 -2.3181  2.6264
  218MPD1    H7 3322   2.154   2.186  12.775 -0.7412 -0.4480  0.9965
  219MPD1     C 3323   3.565   2.012  12.152 -0.2183 -0.7338  0.3046
  219MPD1    C1 3324   3.561   2.084  12.267 -0.6314  0.5105 -0.3159
  219MPD1    C2 3325   3.453   2.074  12.360  0.0810  0.3942 -0.0382
  219MPD1    C3 3326   3.339   2.002  12.322  0.2055  1.0347  0.0692
  219MPD1    C4 3327   3.350   1.936  12.201 -0.2011 -0.5477 -0.1743
  219MPD1    C5 3328   3.456   1.938  12.115  0.0267  0.1300 -0.7352
  219MPD1     H 3329   3.446   2.138  12.447 -0.2391 -1.4386  1.2828
  219MPD1    H1 3330   3.266   1.877  12.166 -2.8060  1.5600  2.5150
  219MPD1    H2 3331   3.653   2.007  12.089 -1.8025  0.5273 -2.0319
  219MPD1    H3 3332   3.457   1.881  12.023 -1.2732 -2.0835  0.6419
  219MPD1     N 3333   3.226   1.972  12.398  0.3678 -0.1966 -0.3995
  219MPD1    H5 3334   3.166   1.897  12.365 -1.1269  0.6714  0.3542
  219MPD1    N1 3335   3.683   2.151  12.305  0.4055 -0.0982  0.1660
  219MPD1    H6 3336   3.676   2.224  12.376 -2.3715 -1.4519  1.2698
  219MPD1    H7 3337   3.740   2.172  12.223 -2.2418  0.5553 -1.5173
  220MPD1     C 3338   2.951   2.406   9.384  0.5852 -0.5825 -0.2903
  220MPD1    C1 3339   3.034   2.416   9.493  0.3099 -0.3285  0.3306
  220MPD1    C2 3340   3.008   2.329   9.606  0.0057 -0.3930  0.1315
  220MPD1    C3 3341   2.902   2.241   9.603 -0.0022  0.0983 -0.3593
  220MPD1    C4 3342   2.818   2.246   9.488  0.0165 -0.6185 -0.2926
  220MPD1    C5 3343   2.836   2.332   9.386  0.4496  0.0087 -0.1625
  220MPD1     H 3344   3.079   2.338   9.687  0.7872  1.5527 -0.7721
  220MPD1    H1 3345   2.731   2.181   9.481 -0.5926  0.2229 -0.5822
  220MPD1    H2 3346   2.963   2.462   9.292 -0.8325 -1.6246 -1.1207
  220MPD1    H3 3347   2.773   2.336   9.298 -1.7111 -2.0953  1.3111
  220MPD1     N 3348   2.888   2.145   9.704 -0.5256  0.3117 -0.3302
  220MPD1    H5 3349   2.955   2.152   9.780  0.9105 -0.8059 -1.4808
  220MPD1    N1 3350   3.147   2.498   9.492  1.0783 -0.0231  0.2761
  220MPD1    H6 3351   3.136   2.591   9.451 -0.4776 -0.0177  0.7127
  220MPD1    H7 3352   3.179   2.516   9.587  0.5062 -1.7766  0.7872
  221MPD1     C 3353   0.051   1.388  16.788  0.1278 -0.5832  0.8665
  221MPD1    C1 3354   0.129   1.478  16.853  0.1543 -0.1128  0.5063
  221MPD1    C2 3355   0.264   1.481  16.831  0.2698 -0.0713  0.1499
  221MPD1    C3 3356   0.321   1.398  16.736 -0.7959  0.1852  0.0554
  221MPD1    C4 3357   0.245   1.305  16.679  0.5282 -0.2928 -0.0449
  221MPD1    C5 3358   0.109   1.303  16.703  0.6258 -0.4720  0.1631
  221MPD1     H 3359   0.313   1.559  16.888  1.7245  1.2786 -2.8884
  221MPD1    H1 3360   0.296   1.243  16.606  2.8098  1.4309  0.0884
  221MPD1    H2 3361   4.665   1.384  16.807 -0.5436  3.8101 -2.0408
  221MPD1    H3 3362   0.053   1.224  16.654 -2.1807  0.9190  1.1595
  221MPD1     N 3363   0.458   1.393  16.714 -0.2758 -0.1025  0.3783
  221MPD1    H5 3364   0.484   1.316  16.653 -0.2447  0.3193 -0.1392
  221MPD1    N1 3365   0.081   1.567  16.951  0.0653 -0.2805 -0.1476
  221MPD1    H6 3366   0.139   1.647  16.973  0.6139 -1.2357  1.8453
  221MPD1    H7 3367   4.704   1.595  16.946 -0.3896 -1.3694  2.8127
  222MPD1     C 3368   1.355   0.321  16.972 -0.1351 -0.4248  0.1227
  222MPD1    C1 3369   1.257   0.242  16.911 -0.1446 -0.0607  0.0390
  222MPD1    C2 3370   1.128   0.272  16.929  0.2567 -0.6487  0.3962
  222MPD1    C3 3371   1.093   0.376  17.007  0.1576  0.1496 -0.6992
  222MPD1    C4 3372   1.188   0.451  17.065  0.6559  0.2010 -0.2665
  222MPD1    C5 3373   1.319   0.426  17.048 -0.5446  0.0207  0.1952
  222MPD1     H 3374   1.055   0.222  16.866  0.3887 -0.3288 -0.0137
  222MPD1    H1 3375   1.165   0.533  17.132  3.6926 -0.2946  1.3935
  222MPD1    H2 3376   1.461   0.300  16.964  0.2019  1.2777  0.0815
  222MPD1    H3 3377   1.395   0.487  17.095  0.5016 -1.0728 -0.0569
  222MPD1     N 3378   0.956   0.401  17.046 -0.5221 -0.5700 -0.3937
  222MPD1    H5 3379   0.930   0.481  17.103  1.0451  0.2665 -0.8587
  222MPD1    N1 3380   1.283   0.140  16.822  0.5752 -0.0517  0.0648
  222MPD1    H6 3381   1.203   0.079  16.808 -0.1184  1.0480 -0.7250
  222MPD1    H7 3382   1.361   0.078  16.847 -0.0527 -1.4329 -1.4238
  223MPD1     C 3383   0.206   4.468  17.207  0.5512 -0.1194 -0.3276
  223MPD1    C1 3384   0.330   4.460  17.146 -0.0948 -0.3796 -0.0916
  223MPD1    C2 3385   0.394   4.578  17.102  0.1943  1.0237 -0.2609
  223MPD1    C3 3386   0.352   4.700  17.147 -0.1859  0.4857  0.0139
  223MPD1    C4 3387   0.230   4.707  17.214 -0.1430 -1.0976 -0.1336
  223MPD1    C5 3388   0.158   4.587  17.240  0.0361  0.0901 -0.3135
  223MPD1     H 3389   0.485   4.578  17.042 -0.8825 -1.5211 -1.9094
  223MPD1    H1 3390   0.190   0.078  17.254  1.0529  0.1904 -1.9316
  223MPD1    H2 3391   0.140   4.386  17.234  1.6071 -0.4264  1.3129
  223MPD1    H3 3392   0.065   4.596  17.296  0.3664 -1.5756  0.5119
  223MPD1     N 3393   0.439   0.093  17.117 -0.8123 -0.1949 -0.1723
  223MPD1    H5 3394   0.533   0.060  17.098 -0.8984 -0.2923 -0.4268
  223MPD1    N1 3395   0.373   4.335  17.100  0.4202  0.1505 -0.2894
  223MPD1    H6 3396   0.357   4.256  17.163 -2.3357  0.1380 -1.0200
  223MPD1    H7 3397   0.475   4.331  17.099  0.3880 -0.4267 -1.8071
  224MPD1     C 3398   4.683   1.377   9.302  0.4167  0.0597 -0.3315
  224MPD1    C1 3399   4.662   1.429   9.432  0.3204  0.1975  0.3594
  224MPD1    C2 3400   0.027   1.509   9.492 -0.4278 -0.1967  0.5448
  224MPD1    C3 3401   0.137   1.549   9.426 -0.3827 -0.7166 -0.2136
  224MPD1    C4 3402   0.150   1.511   9.290 -1.5162  0.6286 -0.0824
  224MPD1    C5 3403   0.063   1.429   9.229  0.2736 -0.2350 -0.3240
  224MPD1     H 3404   4.718   1.554   9.586 -0.7140  0.8571 -0.0553
  224MPD1    H1 3405   0.231   1.559   9.236 -0.8752  0.1309  0.4434
  224MPD1    H2 3406   4.605   1.315   9.258 -0.1157  0.3798  0.1511
  224MPD1    H3 3407   0.071   1.398   9.126 -2.6432  1.1424 -0.9646
  224MPD1     N 3408   0.220   1.647   9.483 -0.2483 -0.3455 -0.3818
  224MPD1    H5 3409   0.293   1.694   9.430  1.4595 -0.6168  1.7178
  224MPD1    N1 3410   4.546   1.387   9.505  0.2918  0.3699  0.2992
  224MPD1    H6 3411   4.564   1.368   9.604 -0.9322  0.2073  0.4869
  224MPD1    H7 3412   4.508   1.298   9.473  2.7492 -0.1967 -1.0501
  225MPD1     C 3413   2.772   2.932  12.561 -0.8827 -0.1729  0.3730
  225MPD1    C1 3414   2.646   2.876  12.569 -0.1301  0.8797  0.2910
  225MPD1    C2 3415   2.580   2.839  12.449  0.6108  0.2107  0.2525
  225MPD1    C3 3416   2.628   2.885  12.324 -0.1543  0.3629  0.2030
  225MPD1    C4 3417   2.745   2.957  12.326 -0.2246  0.1303  0.6508
  225MPD1    C5 3418   2.817   2.978  12.441  1.1707 -0.3727  0.2316
  225MPD1     H 3419   2.479   2.800  12.454  1.2063 -1.5605 -1.7153
  225MPD1    H1 3420   2.786   2.991  12.231 -1.8848 -1.0818 -0.4781
  225MPD1    H2 3421   2.827   2.962  12.649  2.1994  1.3384 -2.0402
  225MPD1    H3 3422   2.908   3.036  12.435  0.9287 -0.0246 -0.0867
  225MPD1     N 3423   2.552   2.867  12.208  0.3622 -1.0775 -0.4878
  225MPD1    H5 3424   2.566   2.930  12.129  0.9958 -1.5386 -0.7479
  225MPD1    N1 3425   2.598   2.836  12.696  0.4378  0.2453  0.2321
  225MPD1    H6 3426   2.619   2.899  12.774 -1.8784 -0.9428  1.8522
  225MPD1    H7 3427   2.497   2.820  12.699  0.5521 -0.5092 -0.1843
  226MPD1     C 3428   3.194   1.849   9.364 -0.0677  0.4223  0.6124
  226MPD1    C1 3429   3.094   1.945   9.377  0.2679 -0.2043  0.2806
  226MPD1    C2 3430   2.971   1.894   9.416 -0.7454  0.4558  0.0782
  226MPD1    C3 3431   2.951   1.763   9.470  0.9094 -0.2399 -0.3389
  226MPD1    C4 3432   3.058   1.677   9.480  0.1518 -0.5399  0.2809
  226MPD1    C5 3433   3.171   1.724   9.417 -0.1468 -0.1356  0.1438
  226MPD1     H 3434   2.885   1.959   9.407 -0.7288  0.4607 -0.0480
  226MPD1    H1 3435   3.055   1.572   9.504  1.2601 -0.5292  0.4788
  226MPD1    H2 3436   3.291   1.878   9.325 -0.2859 -0.1682 -0.3563
  226MPD1    H3 3437   3.249   1.649   9.407  0.0604  0.0188  0.5738
  226MPD1     N 3438   2.823   1.734   9.501 -0.4111  0.1129  0.0736
  226MPD1    H5 3439   2.758   1.809   9.479  0.1457  0.0895 -1.6877
  226MPD1    N1 3440   3.105   2.072   9.311 -0.0699  0.3666  0.4717
  226MPD1    H6 3441   3.041   2.136   9.358 -0.5010 -2.0416  3.1471
  226MPD1    H7 3442   3.192   2.124   9.303  0.3451 -0.4379 -0.2084
  227MPD1     C 3443   2.301   2.355   9.413  0.2873 -0.1058  0.2752
  227MPD1    C1 3444   2.413   2.333   9.487  0.3881  0.3589 -0.2405
  227MPD1    C2 3445   2.446   2.210   9.537 -0.1591 -0.2909  0.4654
  227MPD1    C3 3446   2.365   2.101   9.515  0.0957 -0.0639  0.1020
  227MPD1    C4 3447   2.241   2.121   9.450 -0.3239  0.6060 -0.5415
  227MPD1    C5 3448   2.210   2.248   9.409 -0.1234 -0.2957  0.2913
  227MPD1     H 3449   2.538   2.196   9.594  0.7032  0.7636 -0.6752
  227MPD1    H1 3450   2.187   2.032   9.420  1.8273 -0.4712 -1.2458
  227MPD1    H2 3451   2.285   2.451   9.366 -1.4755 -0.1445  0.7893
  227MPD1    H3 3452   2.121   2.265   9.349 -0.1477  1.6632  0.8713
  227MPD1     N 3453   2.419   1.977   9.554 -0.1532  0.0342  0.0041
  227MPD1    H5 3454   2.517   1.973   9.578 -0.5219 -1.5795  1.2090
  227MPD1    N1 3455   2.518   2.427   9.475 -0.0500  0.2301  0.1450
  227MPD1    H6 3456   2.595   2.410   9.539  0.0768 -1.2149 -0.3829
  227MPD1    H7 3457   2.477   2.519   9.489  0.4066  0.3700  0.5768
  228MPD1     C 3458   4.699   0.970  12.449 -0.1731 -0.2540 -0.2149
  228MPD1    C1 3459   4.610   0.986  12.346 -0.5407 -0.0931  0.0921
  228MPD1    C2 3460   4.477   0.952  12.368 -0.0325  0.1235 -0.5017
  228MPD1    C3 3461   4.434   0.891  12.480  0.5791 -0.5731  0.1224
  228MPD1    C4 3462   4.534   0.871  12.582 -0.3298  0.2501 -0.3596
  228MPD1    C5 3463   4.668   0.914  12.570 -0.3941  0.5024  0.3234
  228MPD1     H 3464   4.399   0.964  12.293 -0.4541  2.7064  0.3383
  228MPD1    H1 3465   4.508   0.834  12.680  0.2923 -0.2358 -0.3776
  228MPD1    H2 3466   0.076   1.016  12.437 -0.4442  0.7898  1.6385
  228MPD1    H3 3467   0.019   0.902  12.650 -0.7614 -0.0486  0.5785
  228MPD1     N 3468   4.298   0.862  12.495  0.0400  0.0655 -0.5628
  228MPD1    H5 3469   4.249   0.875  12.407 -2.3261  1.7506  1.0012
  228MPD1    N1 3470   4.638   1.069  12.239  0.3368  0.0544  0.1202
  228MPD1    H6 3471   4.590   1.051  12.151  2.5167 -2.0346 -0.6344
  228MPD1    H7 3472   0.017   1.086  12.227  0.0629  1.0841 -0.7447
  229MPD1     C 3473   3.246   3.724  15.485  0.2923  0.2352  0.5045
  229MPD1    C1 3474   3.363   3.766  15.554 -0.0874 -0.5345  0.3832
  229MPD1    C2 3475   3.491   3.746  15.498 -0.1065  0.0931 -0.3741
  229MPD1    C3 3476   3.502   3.673  15.378 -0.7341 -0.4470  0.5059
  229MPD1    C4 3477   3.386   3.626  15.321 -0.0325 -0.3297  0.5357
  229MPD1    C5 3478   3.261   3.640  15.380 -0.0778  0.1747 -0.4842
  229MPD1     H 3479   3.575   3.772  15.562 -0.9461 -0.4469  0.9539
  229MPD1    H1 3480   3.390   3.570  15.228 -1.5445  0.5585 -0.0674
  229MPD1    H2 3481   3.148   3.756  15.518 -0.1676 -1.1473  0.4369
  229MPD1    H3 3482   3.175   3.609  15.320 -0.9612 -0.4075  1.0946
  229MPD1     N 3483   3.621   3.652  15.313 -0.7131  0.1955  0.2099
  229MPD1    H5 3484   3.617   3.574  15.247 -1.8385  0.5731 -0.1767
  229MPD1    N1 3485   3.360   3.845  15.664 -0.4032  0.2663  0.2618
  229MPD1    H6 3486   3.293   3.815  15.735 -0.6253 -0.8260 -0.4203
  229MPD1    H7 3487   3.454   3.846  15.701 -1.3979 -0.7596  2.7843
  230MPD1     C 3488   4.700   3.549  15.265  0.4510  0.0524 -0.1770
  230MPD1    C1 3489   4.638   3.439  15.215  0.2297 -1.0284  0.0299
  230MPD1    C2 3490   4.496   3.447  15.211 -0.3143  0.9410  0.0789
  230MPD1    C3 3491   4.424   3.559  15.239  0.1297 -0.0237 -0.0789
  230MPD1    C4 3492   4.488   3.664  15.292 -0.6713  0.2238 -0.0396
  230MPD1    C5 3493   4.627   3.653  15.310  0.7656 -0.2502 -0.1206
  230MPD1     H 3494   4.449   3.355  15.177 -0.6227  0.3286  2.1826
  230MPD1    H1 3495   4.440   3.761  15.288 -1.8761 -0.3457  0.6005
  230MPD1    H2 3496   0.086   3.537  15.279  0.4267 -0.3106 -0.3139
  230MPD1    H3 3497   4.678   3.741  15.347 -1.3567  0.2729  1.5700
  230MPD1     N 3498   4.282   3.557  15.222  0.3377 -0.1698 -0.5436
  230MPD1    H5 3499   4.252   3.461  15.203  0.2178 -0.0842 -0.7940
  230MPD1    N1 3500   4.713   3.324  15.207  0.8170  0.2105 -0.1673
  230MPD1    H6 3501   4.673   3.249  15.152  0.7411 -0.5565  0.9207
  230MPD1    H7 3502   0.091   3.342  15.193  0.5238 -0.1908 -2.5794
  231MPD1     C 3503   1.815   1.460  14.559 -0.1834  0.2154 -0.4443
  231MPD1    C1 3504   1.896   1.383  14.476  0.0322  0.3758 -0.1006
  231MPD1    C2 3505   2.024   1.349  14.524 -0.3872 -0.1082 -0.3990
  231MPD1    C3 3506   2.073   1.409  14.645 -0.5793  0.3269  0.2278
  231MPD1    C4 3507   1.988   1.488  14.715 -0.1751 -0.7490 -0.3596
  231MPD1    C5 3508   1.853   1.497  14.683  0.9825  0.0637  0.3455
  231MPD1     H 3509   2.088   1.282  14.467  0.9481  0.6121  0.2594
  231MPD1    H1 3510   2.015   1.535  14.808 -0.1018 -1.1768 -0.1636
  231MPD1    H2 3511   1.713   1.478  14.529 -1.0681 -1.3674  1.6175
  231MPD1    H3 3512   1.784   1.556  14.743  0.5898  1.2279 -1.2551
  231MPD1     N 3513   2.199   1.372  14.691 -0.2654 -0.0443 -0.0600
  231MPD1    H5 3514   2.241   1.297  14.637  1.2609  2.2985 -2.1885
  231MPD1    N1 3515   1.839   1.338  14.348  0.3749 -0.0524  0.1555
  231MPD1    H6 3516   1.761   1.398  14.318  0.7154 -0.7809 -2.2392
  231MPD1    H7 3517   1.909   1.342  14.274  0.2235 -0.2590 -0.0013
  232MPD1     C 3518   3.897   2.646   1.025  0.2234  0.0028 -0.1794
  232MPD1    C1 3519   3.803   2.591   0.940 -0.1319 -0.2404  0.3244
  232MPD1    C2 3520   3.794   2.653   0.816  0.3963  0.7482 -0.6854
  232MPD1    C3 3521   3.873   2.750   0.764 -0.2292  0.2015  0.2537
  232MPD1    C4 3522   3.973   2.797   0.841 -0.5456  0.1846  0.4619
  232MPD1    C5 3523   3.975   2.749   0.971 -0.4759  0.3066 -0.4984
  232MPD1     H 3524   3.706   2.631   0.756  0.3288 -0.3144 -0.1948
  232MPD1    H1 3525   4.047   2.873   0.815  1.4727 -0.9658  2.8320
  232MPD1    H2 3526   3.901   2.608   1.127  1.1681  1.6960  0.4124
  232MPD1    H3 3527   4.051   2.797   1.031 -0.4504  1.8275 -1.7350
  232MPD1     N 3528   3.848   2.799   0.635  0.2409  0.5184 -0.1338
  232MPD1    H5 3529   3.768   2.761   0.584  1.1942 -2.4547  0.5392
  232MPD1    N1 3530   3.711   2.497   0.979  0.5315 -0.7187  0.4571
  232MPD1    H6 3531   3.690   2.437   0.899 -0.1372 -0.2048  0.2500
  232MPD1    H7 3532   3.760   2.442   1.049 -0.8208 -2.5581 -0.0365
  233MPD1     C 3533   0.270   3.070   0.109 -0.1778 -0.6285  0.6429
  233MPD1    C1 3534   0.258   3.131   0.231 -0.7215 -1.0886 -0.8442
  233MPD1    C2 3535   0.214   3.051   0.334 -0.3337  0.3127 -0.2997
  233MPD1    C3 3536   0.204   2.911   0.325 -0.0458  0.3231  0.1213
  233MPD1    C4 3537   0.232   2.850   0.205 -0.2019 -0.4208  0.1133
  233MPD1    C5 3538   0.259   2.929   0.101  0.4528  0.6691 -0.4002
  233MPD1     H 3539   0.203   3.101   0.429 -2.1054  1.9634 -1.3622
  233MPD1    H1 3540   0.228   2.743   0.187  1.2929 -0.3101 -0.9157
  233MPD1    H2 3541   0.273   3.118   0.012  0.2624  2.2231  2.0880
  233MPD1    H3 3542   0.276   2.882   0.005 -1.5641  0.4807 -0.6640
  233MPD1     N 3543   0.161   2.826   0.435 -0.1163 -0.5904  0.8554
  233MPD1    H5 3544   0.150   2.727   0.414 -0.6104  0.0345 -1.7667
  233MPD1    N1 3545   0.265   3.270   0.246 -0.3180  0.4112 -0.3899
  233MPD1    H6 3546   0.315   3.319   0.172 -1.0325 -1.0971 -1.8580
  233MPD1    H7 3547   0.297   3.301   0.338  0.5463 -0.8033 -0.2762
  234MPD1     C 3548   1.424   0.469  10.270 -1.2128  0.5810  0.0128
  234MPD1    C1 3549   1.294   0.447  10.225 -0.5648  0.1370  0.2878
  234MPD1    C2 3550   1.215   0.552  10.183 -0.1008  0.0686 -0.8644
  234MPD1    C3 3551   1.265   0.682  10.200 -1.0290 -0.5483 -0.0796
  234MPD1    C4 3552   1.392   0.699  10.250 -0.2455  0.5246  0.5630
  234MPD1    C5 3553   1.473   0.594  10.281  0.5127  0.5094  0.1590
  234MPD1     H 3554   1.110   0.543  10.156 -0.0282 -1.8672 -0.4707
  234MPD1    H1 3555   1.430   0.801  10.251 -0.7022  0.6951  0.3505
  234MPD1    H2 3556   1.472   0.375  10.296  1.1707  1.5144 -1.0556
  234MPD1    H3 3557   1.572   0.605  10.325  1.5143 -2.4916 -1.3971
  234MPD1     N 3558   1.176   0.794  10.179 -0.1800  0.4188 -0.4376
  234MPD1    H5 3559   1.082   0.772  10.147 -0.7373 -0.4495  1.7630
  234MPD1    N1 3560   1.238   0.318  10.244  0.1630 -0.3598 -0.3629
  234MPD1    H6 3561   1.310   0.246  10.239 -0.3211 -0.9919  1.9747
  234MPD1    H7 3562   1.147   0.299  10.203  0.2542  0.0934 -0.7723
  235MPD1     C 3563   3.316   2.111   9.686 -0.4928 -0.3196 -1.2077
  235MPD1    C1 3564   3.327   2.236   9.743 -0.2762  0.4294 -0.7820
  235MPD1    C2 3565   3.386   2.341   9.670  1.5707  0.4739  0.2798
  235MPD1    C3 3566   3.446   2.311   9.550  0.3878  0.1066 -0.0692
  235MPD1    C4 3567   3.450   2.181   9.495  0.0202  0.5207 -0.3938
  235MPD1    C5 3568   3.381   2.083   9.560  0.8390  0.3917 -0.5200
  235MPD1     H 3569   3.378   2.439   9.714 -1.2963 -0.2133  1.3189
  235MPD1    H1 3570   3.507   2.156   9.406  0.8484 -0.0642  0.3020
  235MPD1    H2 3571   3.276   2.027   9.743 -2.1849  0.6140 -1.0337
  235MPD1    H3 3572   3.378   1.980   9.527  0.8964  0.2373 -0.0496
  235MPD1     N 3573   3.501   2.418   9.479 -0.0055 -0.0316  0.1195
  235MPD1    H5 3574   3.488   2.509   9.521 -2.3939  0.3926 -1.5455
  235MPD1    N1 3575   3.266   2.265   9.866 -0.3981  0.9184 -0.5927
  235MPD1    H6 3576   3.258   2.189   9.933 -0.3008  1.6972  0.2971
  235MPD1    H7 3577   3.303   2.343   9.920 -0.4669 -0.7374  1.8627
  236MPD1     C 3578   2.351   4.180  10.553 -0.0936  0.1591  0.2236
  236MPD1    C1 3579   2.476   4.211  10.607 -0.4156  0.0420 -0.6467
  236MPD1    C2 3580   2.581   4.130  10.575  0.0645  0.3177 -0.1070
  236MPD1    C3 3581   2.577   4.057  10.459  0.5542 -0.4190 -0.1123
  236MPD1    C4 3582   2.454   4.043  10.388 -0.2228 -0.4600  0.2824
  236MPD1    C5 3583   2.346   4.097  10.439  0.6731  0.4503  0.1665
  236MPD1     H 3584   2.668   4.135  10.638 -1.1202  0.0952  1.5400
  236MPD1    H1 3585   2.447   3.981  10.300  0.1221  2.8574 -2.1037
  236MPD1    H2 3586   2.255   4.218  10.587 -0.8797 -0.4128 -1.3110
  236MPD1    H3 3587   2.251   4.081  10.389  2.6582 -1.9518 -2.9040
  236MPD1     N 3588   2.691   3.995  10.407 -0.0913  0.1779  0.0987
  236MPD1    H5 3589   2.675   3.945  10.320 -1.6739  0.8385  0.0169
  236MPD1    N1 3590   2.482   4.299  10.717 -0.3223 -0.0742  0.3043
  236MPD1    H6 3591   2.419   4.378  10.712  0.3412  0.6752  3.5620
  236MPD1    H7 3592   2.575   4.340  10.713 -0.3215 -0.2489 -1.2944
  237MPD1     C 3593   2.781   2.139  14.910 -0.1002  0.3276 -0.2006
  237MPD1    C1 3594   2.693   2.091  14.818 -0.3641 -0.2925 -0.5434
  237MPD1    C2 3595   2.553   2.123  14.825  0.2365  0.6695 -0.4801
  237MPD1    C3 3596   2.505   2.203  14.928 -0.4502  0.4923  0.5762
  237MPD1    C4 3597   2.596   2.251  15.021 -0.5279  0.5229 -0.3796
  237MPD1    C5 3598   2.729   2.219  15.011 -0.2392  0.5056  0.7141
  237MPD1     H 3599   2.487   2.081  14.750 -0.4403 -0.4356  0.7570
  237MPD1    H1 3600   2.562   2.308  15.107 -1.8716 -1.0852  0.1614
  237MPD1    H2 3601   2.887   2.121  14.909 -0.2777 -0.9707  2.4119
  237MPD1    H3 3602   2.797   2.272  15.077  0.5937 -0.1015  0.3419
  237MPD1     N 3603   2.369   2.233  14.958  0.8906  0.0700  0.2377
  237MPD1    H5 3604   2.353   2.283  15.045 -1.2454  0.7159 -0.5271
  237MPD1    N1 3605   2.745   2.001  14.723  0.2891  0.5292 -0.5312
  237MPD1    H6 3606   2.690   2.002  14.637 -2.2946  1.4503  1.1368
  237MPD1    H7 3607   2.846   2.004  14.713  0.3296 -2.0576 -1.0150
  238MPD1     C 3608   3.766   0.530  15.695 -0.1886 -0.2220 -0.4816
  238MPD1    C1 3609   3.834   0.484  15.585 -0.1420  0.8521 -0.5801
  238MPD1    C2 3610   3.769   0.472  15.464  0.1422 -0.3875  0.1053
  238MPD1    C3 3611   3.637   0.521  15.455  0.4112 -0.6951  0.2578
  238MPD1    C4 3612   3.571   0.569  15.569  0.0602  0.1636  0.9200
  238MPD1    C5 3613   3.636   0.571  15.688  0.2838  0.0152  0.3285
  238MPD1     H 3614   3.827   0.430  15.383 -0.3634 -1.1808  0.1591
  238MPD1    H1 3615   3.466   0.599  15.571  0.3365  1.1221  1.3641
  238MPD1    H2 3616   3.811   0.529  15.794  0.3039 -0.4063 -0.7066
  238MPD1    H3 3617   3.586   0.606  15.777 -1.5360 -1.4368 -0.1324
  238MPD1     N 3618   3.561   0.500  15.336 -0.2821  0.8602 -0.4003
  238MPD1    H5 3619   3.459   0.505  15.336 -0.3057  0.3230  0.6163
  238MPD1    N1 3620   3.968   0.444  15.591 -0.2086  0.3853  0.2033
  238MPD1    H6 3621   4.025   0.503  15.651  0.8419  0.3489 -0.7672
  238MPD1    H7 3622   4.009   0.445  15.498  0.7492 -0.3024  0.6131
  239MPD1     C 3623   4.664   1.492  14.866  0.0147  0.2042  0.0512
  239MPD1    C1 3624   0.025   1.540  14.760 -0.4914  0.8952 -0.0331
  239MPD1    C2 3625   4.683   1.601  14.657  0.1072  0.5447 -0.3158
  239MPD1    C3 3626   4.550   1.623  14.650  0.0125  0.3629  0.0213
  239MPD1    C4 3627   4.476   1.575  14.751  0.2048 -0.1492 -0.1677
  239MPD1    C5 3628   4.529   1.513  14.863  0.4935  0.2152 -0.3729
  239MPD1     H 3629   0.026   1.642  14.580  0.4189  1.3567  0.3813
  239MPD1    H1 3630   4.369   1.593  14.742 -0.0118 -1.4863 -0.3500
  239MPD1    H2 3631   4.705   1.446  14.956  1.2169  0.4001 -0.3935
  239MPD1    H3 3632   4.462   1.499  14.947  1.0983 -0.5349 -0.0256
  239MPD1     N 3633   4.477   1.684  14.540  0.9692  0.3270 -0.2102
  239MPD1    H5 3634   4.377   1.688  14.556  1.2838 -0.2702  1.8551
  239MPD1    N1 3635   0.160   1.545  14.773  0.0238  0.1990  0.2036
  239MPD1    H6 3636   0.208   1.479  14.834 -1.9413 -0.4315  1.0743
  239MPD1    H7 3637   0.208   1.539  14.683  0.2153  2.3014  0.1749
  240MPD1     C 3638   4.563   0.828  14.496  0.1116  1.1002  0.5385
  240MPD1    C1 3639   4.498   0.911  14.412 -0.5503  0.2239  0.2507
  240MPD1    C2 3640   4.375   0.961  14.457 -0.4446 -1.0381 -0.4562
  240MPD1    C3 3641   4.320   0.920  14.575 -0.3738 -0.2230  0.1629
  240MPD1    C4 3642   4.388   0.829  14.656 -0.2516 -0.4212 -0.5883
  240MPD1    C5 3643   4.514   0.793  14.620  1.2997  0.6445 -0.2163
  240MPD1     H 3644   4.319   1.018  14.384 -0.8221  0.7884  1.2488
  240MPD1    H1 3645   4.348   0.796  14.751 -0.1777  0.7349 -0.1547
  240MPD1    H2 3646   4.660   0.790  14.465 -1.2784 -1.1774 -1.0095
  240MPD1    H3 3647   4.554   0.710  14.676 -2.2418 -1.0893 -0.3174
  240MPD1     N 3648   4.186   0.974  14.594  0.3239  0.2760  0.1933
  240MPD1    H5 3649   4.149   1.029  14.518  0.9018  0.3183 -0.0560
  240MPD1    N1 3650   4.538   0.934  14.279  0.7105  0.0178 -0.6044
  240MPD1    H6 3651   4.513   1.021  14.232  2.7220  0.3055 -1.1424
  240MPD1    H7 3652   4.633   0.901  14.259  0.5797 -1.3071  0.9966
  241MPD1     C 3653   3.308   0.818  15.231 -0.3859  0.5485 -0.0946
  241MPD1    C1 3654   3.435   0.840  15.265  0.2041  0.0650  0.1546
  241MPD1    C2 3655   3.524   0.886  15.167  0.2662 -1.4900  0.3352
  241MPD1    C3 3656   3.479   0.912  15.038  0.3825 -0.0845 -0.2453
  241MPD1    C4 3657   3.346   0.896  15.008 -0.1689 -0.0919 -0.1757
  241MPD1    C5 3658   3.264   0.846  15.100 -0.0347  0.2874 -0.4882
  241MPD1     H 3659   3.624   0.904  15.204 -0.7630 -3.0560  3.9132
  241MPD1    H1 3660   3.300   0.904  14.909 -0.7346  2.2706  0.2776
  241MPD1    H2 3661   3.229   0.778  15.293  1.3945 -3.1594 -0.1880
  241MPD1    H3 3662   3.164   0.813  15.073 -0.1781  0.8488 -0.6508
  241MPD1     N 3663   3.567   0.965  14.938 -0.3430 -0.4638  0.6758
  241MPD1    H5 3664   3.524   0.975  14.847  0.4542 -0.6449  0.2842
  241MPD1    N1 3665   3.471   0.848  15.395  0.4656 -0.0994  0.2073
  241MPD1    H6 3666   3.567   0.823  15.420  0.8545  0.5084 -0.6848
  241MPD1    H7 3667   3.407   0.803  15.460 -0.4690 -0.5565 -1.0292
  242MPD1     C 3668   3.255   4.587  15.704 -0.0059 -0.3604 -0.2470
  242MPD1    C1 3669   3.168   4.615  15.601 -0.5375  1.0130  0.6049
  242MPD1    C2 3670   3.222   4.618  15.474  0.3004  0.5677  0.2513
  242MPD1    C3 3671   3.346   4.572  15.445  0.1473 -0.0481 -0.0440
  242MPD1    C4 3672   3.436   4.559  15.552  0.0925  0.3394  0.0674
  242MPD1    C5 3673   3.385   4.573  15.680 -0.2395 -0.0901 -0.2161
  242MPD1     H 3674   3.151   4.642  15.396  1.2460  2.2360 -0.1012
  242MPD1    H1 3675   3.544   4.549  15.549  0.3545  3.7082 -2.4184
  242MPD1    H2 3676   3.233   4.604  15.809 -3.0040 -1.1949 -0.7466
  242MPD1    H3 3677   3.450   4.568  15.766 -0.6762 -2.0757 -0.0163
  242MPD1     N 3678   3.395   4.550  15.311  0.4670 -1.2529 -0.0631
  242MPD1    H5 3679   3.492   4.521  15.304  0.9510  0.9902 -3.0078
  242MPD1    N1 3680   3.039   4.661  15.634 -0.4254 -0.0058  0.1594
  242MPD1    H6 3681   2.995   4.625  15.718  0.4973  0.6119  0.9090
  242MPD1    H7 3682   2.975   4.660  15.555 -0.2496 -1.3061  0.0287
  243MPD1     C 3683   0.962   3.895   1.793 -0.1778  0.0884 -0.0524
  243MPD1    C1 3684   0.975   3.800   1.698  0.0609  0.0586 -0.3930
  243MPD1    C2 3685   0.873   3.785   1.605 -0.3379  0.2680  0.5012
  243MPD1    C3 3686   0.766   3.863   1.600 -0.3438  0.4570 -0.5494
  243MPD1    C4 3687   0.757   3.965   1.688 -0.0350 -0.3351  0.1606
  243MPD1    C5 3688   0.857   3.982   1.779  0.1378 -1.2812  0.3179
  243MPD1     H 3689   0.872   3.695   1.544 -1.7404  1.1015 -0.6869
  243MPD1    H1 3690   0.684   4.045   1.689  0.1357 -0.2420  3.5723
  243MPD1    H2 3691   1.031   3.912   1.875 -1.1789  0.2088  0.7604
  243MPD1    H3 3692   0.847   4.067   1.844  0.3150 -3.1940  2.8360
  243MPD1     N 3693   0.683   3.837   1.481 -0.0132 -0.2779 -0.8506
  243MPD1    H5 3694   0.707   3.762   1.418  1.6879 -0.8495  0.4888
  243MPD1    N1 3695   1.064   3.696   1.717  0.7550 -0.0259 -0.1781
  243MPD1    H6 3696   1.140   3.716   1.781  0.1436  1.4246  0.0978
  243MPD1    H7 3697   1.101   3.667   1.627  0.8756  1.0073 -0.4571
  244MPD1     C 3698   4.400   3.836   1.094 -0.2682  0.1659 -0.0956
  244MPD1    C1 3699   4.468   3.725   1.054  0.2715 -0.2063  0.9585
  244MPD1    C2 3700   4.605   3.728   1.085  0.4921  0.3498  1.0904
  244MPD1    C3 3701   4.669   3.841   1.131 -0.4163  0.0244  0.0055
  244MPD1    C4 3702   4.594   3.954   1.156 -0.0768  0.4318  0.8337
  244MPD1    C5 3703   4.461   3.949   1.138 -0.1291  0.8450  0.8265
  244MPD1     H 3704   4.658   3.634   1.073  1.7680  1.0955  0.8665
  244MPD1    H1 3705   4.633   4.049   1.191  0.9411  1.0195 -1.8880
  244MPD1    H2 3706   4.293   3.847   1.082 -0.1691  2.8209  1.4576
  244MPD1    H3 3707   4.406   4.040   1.158  0.4853  1.0815  1.4232
  244MPD1     N 3708   0.084   3.839   1.162 -0.0659 -0.0398  0.0637
  244MPD1    H5 3709   0.144   3.764   1.129  1.3231  0.7533  0.7555
  244MPD1    N1 3710   4.400   3.617   0.999  0.4123 -0.9209  0.4601
  244MPD1    H6 3711   4.467   3.556   0.952 -0.6196 -1.8357  0.1554
  244MPD1    H7 3712   4.319   3.641   0.941  0.8915  1.6667  0.8605
  245MPD1     C 3713   1.869   2.993  13.435 -0.1023 -0.1993 -0.2042
  245MPD1    C1 3714   1.932   3.048  13.546 -0.1020 -0.0705 -0.5089
  245MPD1    C2 3715   1.916   3.184  13.566  0.1153 -0.1292 -0.1602
  245MPD1    C3 3716   1.844   3.267  13.478 -0.6144 -0.8702 -0.1061
  245MPD1    C4 3717   1.783   3.206  13.370  0.1722  0.9550 -0.3690
  245MPD1    C5 3718   1.804   3.075  13.346  0.6957  0.1603  0.8062
  245MPD1     H 3719   1.969   3.232  13.647 -0.3804  1.6591 -0.8727
  245MPD1    H1 3720   1.727   3.263  13.296 -1.1561  0.7270  0.4526
  245MPD1    H2 3721   1.876   2.886  13.418  0.9819 -0.1036 -0.3109
  245MPD1    H3 3722   1.773   3.026  13.254  2.4154  0.3847  0.1034
  245MPD1     N 3723   1.838   3.405  13.508  0.5354 -0.1360  0.8171
  245MPD1    H5 3724   1.892   3.444  13.585  1.6392 -1.3716  0.6588
  245MPD1    N1 3725   1.964   2.970  13.656  0.2792 -0.3740  0.1873
  245MPD1    H6 3726   2.043   3.013  13.703 -0.2916 -1.5014  2.1782
  245MPD1    H7 3727   1.987   2.881  13.613  2.9725  0.2989  0.2225
  246MPD1     C 3728   3.715   4.660   8.742 -0.0824 -0.5352  0.6228
  246MPD1    C1 3729   3.726   0.059   8.813  0.0759  0.7934  0.1397
  246MPD1    C2 3730   3.643   0.060   8.927  0.3652  0.5239  0.5501
  246MPD1    C3 3731   3.582   4.667   8.988 -0.1825 -0.4044 -0.3447
  246MPD1    C4 3732   3.599   4.545   8.928 -0.1825 -0.2583  0.0366
  246MPD1    C5 3733   3.648   4.549   8.797  0.6795 -0.8911  0.0032
  246MPD1     H 3734   3.615   0.144   8.990  0.4034  1.0094 -0.0895
  246MPD1    H1 3735   3.547   4.459   8.969 -1.2114  0.2157 -0.2806
  246MPD1    H2 3736   3.749   4.645   8.641  0.9029 -0.1392  0.8927
  246MPD1    H3 3737   3.648   4.458   8.738 -1.8818 -1.1825  0.4554
  246MPD1     N 3738   3.492   4.684   9.100  0.0270 -0.6379  1.2225
  246MPD1    H5 3739   3.477   0.060   9.127  1.0347  0.2463 -1.3696
  246MPD1    N1 3740   3.784   0.173   8.755 -0.4499 -0.0524  0.0385
  246MPD1    H6 3741   3.858   0.144   8.693 -0.0126 -1.6137  1.3024
  246MPD1    H7 3742   3.822   0.239   8.823 -0.2754  0.2244 -0.3291
  247MPD1     C 3743   1.164   3.989  15.634  0.5593  0.1637  0.4769
  247MPD1    C1 3744   1.125   4.019  15.758 -0.3912 -0.2572 -1.0185
  247MPD1    C2 3745   1.196   3.963  15.860  0.3744  0.4316  0.5599
  247MPD1    C3 3746   1.317   3.899  15.837 -0.5671  0.7666  0.5680
  247MPD1    C4 3747   1.359   3.884  15.710 -0.0661 -0.6502 -0.1902
  247MPD1    C5 3748   1.286   3.934  15.612  0.1893  0.5821  0.4002
  247MPD1     H 3749   1.158   3.960  15.961  1.0292  3.0414  0.8751
  247MPD1    H1 3750   1.455   3.843  15.682  0.6117  0.2590  0.8394
  247MPD1    H2 3751   1.108   4.027  15.550 -1.2046 -2.5568  0.4015
  247MPD1    H3 3752   1.319   3.916  15.510 -1.0424 -2.3328  0.5113
  247MPD1     N 3753   1.393   3.850  15.943 -0.6548  0.4983 -0.2057
  247MPD1    H5 3754   1.476   3.798  15.914  0.0800  1.5466 -0.0021
  247MPD1    N1 3755   0.996   4.079  15.770 -0.6918 -0.6448  0.0136
  247MPD1    H6 3756   0.996   4.156  15.703  0.8571 -0.1819  0.5311
  247MPD1    H7 3757   0.960   4.113  15.859 -1.8091 -0.9335 -0.3259
  248MPD1     C 3758   3.509   2.161   1.371 -0.5163 -0.0962  0.3018
  248MPD1    C1 3759   3.413   2.201   1.461 -0.9032  0.4927 -0.7736
  248MPD1    C2 3760   3.328   2.300   1.419  0.3530 -0.1088  0.6852
  248MPD1    C3 3761   3.325   2.347   1.292 -0.5216 -0.2424  0.0601
  248MPD1    C4 3762   3.416   2.296   1.203  0.5554 -0.1064 -0.7364
  248MPD1    C5 3763   3.522   2.215   1.250 -0.3291  0.6054  0.1134
  248MPD1     H 3764   3.245   2.332   1.481 -0.6160 -0.6157 -0.3534
  248MPD1    H1 3765   3.424   2.322   1.098  1.9980 -2.0779 -1.1121
  248MPD1    H2 3766   3.585   2.091   1.403  0.6394  1.9060  1.9104
  248MPD1    H3 3767   3.601   2.193   1.180  1.0299 -0.4267  1.9824
  248MPD1     N 3768   3.230   2.450   1.256  0.4446  0.0228 -0.4511
  248MPD1    H5 3769   3.156   2.468   1.324 -1.4491 -1.7272 -2.0456
  248MPD1    N1 3770   3.433   2.167   1.593 -0.4021 -0.4484  0.0348
  248MPD1    H6 3771   3.449   2.067   1.604 -1.3699 -0.6545 -0.4373
  248MPD1    H7 3772   3.355   2.193   1.653 -2.0428 -3.0217 -0.9624
  249MPD1     C 3773   4.474   2.758   9.466 -0.0762 -0.3779  0.0075
  249MPD1    C1 3774   4.614   2.740   9.467 -0.8751 -0.1192 -0.4995
  249MPD1    C2 3775   4.673   2.641   9.545  0.5846  1.4953  0.2751
  249MPD1    C3 3776   4.593   2.553   9.617 -0.1002  0.0451 -0.1313
  249MPD1    C4 3777   4.456   2.566   9.602  0.0968 -0.5526 -0.1881
  249MPD1    C5 3778   4.395   2.664   9.531 -0.1587  0.0726 -0.7106
  249MPD1     H 3779   0.059   2.646   9.564  0.4220 -0.0101  1.6404
  249MPD1    H1 3780   4.386   2.511   9.666  1.4837 -1.9401  0.1309
  249MPD1    H2 3781   4.429   2.847   9.425  0.0929 -0.5994 -0.6642
  249MPD1    H3 3782   4.290   2.683   9.552 -0.1123 -0.7895  0.3200
  249MPD1     N 3783   4.651   2.445   9.696 -0.1462  0.7303  0.0580
  249MPD1    H5 3784   0.028   2.462   9.717  0.7634 -4.8017  0.4243
  249MPD1    N1 3785   4.680   2.851   9.409 -0.2364 -0.0946 -0.5256
  249MPD1    H6 3786   0.054   2.826   9.385  0.2348  0.5034  0.6922
  249MPD1    H7 3787   4.622   2.861   9.326  0.6967 -1.8722 -1.3725
  250MPD2     C 3788   0.498   2.178  12.883 -0.5845 -0.1635  0.4615
  250MPD2    C1 3789   0.426   2.276  12.951  0.8360 -0.7288  0.1171
  250MPD2    C2 3790   0.287   2.255  12.979  0.3632 -0.0622  0.3029
  250MPD2    C3 3791   0.221   2.135  12.956 -0.1034 -0.5647  0.2316
  250MPD2    C4 3792   0.290   2.036  12.899 -0.5879  0.1265 -0.4813
  250MPD2    C5 3793   0.426   2.056  12.866  0.3782  0.5186 -0.6428
  250MPD2     H 3794   0.241   2.333  13.040 -1.9996 -0.0924 -1.4726
  250MPD2    H1 3795   0.240   1.940  12.889  3.2655 -1.9165  0.1112
  250MPD2    H2 3796   0.604   2.189  12.862 -1.2221  3.1628 -0.9763
  250MPD2    H3 3797   0.484   1.977  12.821  0.4989  0.4547 -0.3739
  250MPD2     N 3798   0.091   2.111  12.985 -0.8750 -0.3890 -0.4545
  250MPD2    H5 3799   0.055   2.018  12.965  0.6712 -0.4900 -2.7625
  250MPD2    N1 3800   0.501   2.397  12.982  0.1644  0.2087  0.4750
  250MPD2    H7 3801   0.598   2.402  12.952 -0.0795  0.3390 -0.2845
  251TMC3    C1 3802   0.543   2.624  13.033  0.3231 -0.4121 -0.2025
  251TMC3    C2 3803   0.512   2.731  13.113 -0.2792  0.4195  0.3751
  251TMC3    C3 3804   0.541   2.858  13.073  0.7441  0.5296  0.1161
  251TMC3    C4 3805   0.630   2.637  12.924  0.8735  0.1203  0.2517
  251TMC3    C5 3806   0.664   2.767  12.893  0.4524 -0.2249  0.7441
  251TMC3    C6 3807   0.622   2.878  12.965 -0.1554 -0.1197  0.0970
  251TMC3     C 3808   0.452   2.508  13.042  0.2240 -0.5231 -0.1833
  251TMC3     O 3809   0.341   2.526  13.093 -0.2757 -0.2798  0.1256
  251TMC3     H 3810   0.454   2.714  13.202 -0.2952 -2.5744 -0.1959
  251TMC3    H1 3811   0.675   2.550  12.878  0.4546 -0.4554  0.9164
  251TMC3    H2 3812   0.659   2.978  12.949  2.3978 -1.2969 -1.4247
  251TMC3    C7 3813   0.727   2.790  12.765 -0.9536  0.4806  0.1680
  251TMC3    C8 3814   0.470   2.966  13.130  0.0463  0.2243 -0.1210
  251TMC3    O1 3815   0.789   2.896  12.748 -0.2582 -0.0139  0.1093
  251TMC3    O2 3816   0.438   2.966  13.248  0.2008  0.3418 -0.5489
  252TMC3    C1 3817   0.334   3.402   9.211 -0.4313 -0.1121 -0.3498
  252TMC3    C2 3818   0.459   3.453   9.195  0.4641 -0.3433 -0.6640
  252TMC3    C3 3819   0.521   3.415   9.081  0.0255  0.1958 -0.3378
  252TMC3    C4 3820   0.268   3.323   9.119  0.8043 -0.4653 -0.2327
  252TMC3    C5 3821   0.337   3.286   9.008 -0.1461 -0.4101  0.7904
  252TMC3    C6 3822   0.460   3.346   8.978  0.2662 -0.0512 -0.7201
  252TMC3     C 3823   0.280   3.418   9.345  0.2118 -0.4904  0.1870
  252TMC3     O 3824   0.315   3.516   9.409  0.6682 -0.3754  0.4846
  252TMC3     H 3825   0.517   3.505   9.271 -0.5824 -0.1014 -0.0266
  252TMC3    H1 3826   0.163   3.304   9.136  0.9272 -1.1807 -0.2636
  252TMC3    H2 3827   0.511   3.333   8.883 -1.6078  1.4998 -1.9421
  252TMC3    C7 3828   0.274   3.203   8.910 -0.2770  0.1273  0.1068
  252TMC3    C8 3829   0.651   3.476   9.052 -0.0131  0.0216  0.0427
  252TMC3    O1 3830   0.341   3.186   8.813 -0.5473  0.3704 -0.1191
  252TMC3    O2 3831   0.694   3.477   8.938  0.2878 -0.6579  0.2784
  253MPD2     C 3832   2.074   2.533  15.385  0.0879 -0.2476  0.4166
  253MPD2    C1 3833   1.948   2.535  15.443 -0.0476  0.2424  0.0077
  253MPD2    C2 3834   1.927   2.490  15.569 -0.3020  0.0095  0.3132
  253MPD2    C3 3835   2.031   2.449  15.646 -0.4091 -0.2189 -0.1583
  253MPD2    C4 3836   2.157   2.460  15.596  0.6180 -0.7811  0.1094
  253MPD2    C5 3837   2.177   2.494  15.468 -0.0929  0.1160  0.5735
  253MPD2     H 3838   1.826   2.492  15.606 -0.1888 -0.2545  0.6341
  253MPD2    H1 3839   2.239   2.433  15.661  2.8873 -0.6605 -2.7093
  253MPD2    H2 3840   2.098   2.569  15.286 -0.9402  0.3427  0.3791
  253MPD2    H3 3841   2.279   2.510  15.433  0.1182 -0.8440  0.7461
  253MPD2     N 3842   2.016   2.406  15.783  0.3776  0.0947  0.5255
  253MPD2    H5 3843   2.098   2.364  15.826 -0.4652 -0.1492  1.9086
  253MPD2    N1 3844   1.830   2.578  15.376  0.4527 -1.0840  0.4301
  253MPD2    H7 3845   1.745   2.566  15.432 -0.0106  1.0908  0.1797
  254TMC3    C1 3846   1.905   2.365  15.983  0.5393  0.3458  0.2532
  254TMC3    C2 3847   1.785   2.322  16.033  0.6492  0.2808 -0.3964
  254TMC3    C3 3848   1.771   2.247  16.143  1.0127  0.1119 -0.3018
  254TMC3    C4 3849   2.011   2.325  16.048 -0.6003  0.0854 -0.0203
  254TMC3    C5 3850   1.998   2.259  16.167 -0.0258  0.4984 -0.0605
  254TMC3    C6 3851   1.883   2.201  16.210  0.6819 -0.0351 -0.8552
  254TMC3     C 3852   1.906   2.424  15.856 -0.0084  0.1306 -0.8941
  254TMC3     O 3853   1.808   2.490  15.824 -0.1639  0.2595  0.2753
  254TMC3     H 3854   1.696   2.369  15.992 -0.8498 -0.4916  2.0131
  254TMC3    H1 3855   2.107   2.349  16.004 -0.7000  0.8946  0.2015
  254TMC3    H2 3856   1.868   2.154  16.306 -0.9425  0.3768 -0.8987
  254TMC3    C7 3857   2.116   2.266  16.252 -0.0724  0.4512 -0.2198
  254TMC3    C8 3858   1.645   2.273  16.216 -0.8804  0.1326  0.0634
  254TMC3    O1 3859   2.136   2.178  16.336  0.2535  0.4924  0.6020
  254TMC3    O2 3860   1.639   2.291  16.338 -0.2578 -0.6482 -0.0713
  255MPD2     C 3861   4.179   4.698  10.671 -0.2920 -0.6436 -0.1145
  255MPD2    C1 3862   4.213   0.096  10.616 -0.7816  0.6357  0.3649
  255MPD2    C2 3863   4.347   0.128  10.608 -0.4678 -0.4095  0.2630
  255MPD2    C3 3864   4.447   0.041  10.638  0.3064 -0.5990 -0.9538
  255MPD2    C4 3865   4.408   4.640  10.693  0.1585  0.1827 -0.2852
  255MPD2    C5 3866   4.280   4.602  10.703 -0.4808  0.9414  0.5074
  255MPD2     H 3867   4.371   0.222  10.559  1.5015 -1.5453 -1.0045
  255MPD2    H1 3868   4.486   4.570  10.720 -0.0205  0.5802  1.3059
  255MPD2    H2 3869   4.074   4.672  10.677  0.4784 -3.4774  1.5400
  255MPD2    H3 3870   4.260   4.501  10.736 -1.2418  1.8701  2.8500
  255MPD2     N 3871   4.584   0.085  10.622  0.0034  0.0081 -0.0944
  255MPD2    H5 3872   4.592   0.181  10.591 -0.4477 -0.1551 -0.7172
  255MPD2    N1 3873   4.122   0.193  10.579 -0.0189  0.0871  0.1323
  255MPD2    H7 3874   4.161   0.284  10.555 -0.8006  0.1895 -0.7260
  256TMC3    C1 3875   3.921   0.303  10.538 -0.1284 -0.1676 -0.1006
  256TMC3    C2 3876   3.977   0.426  10.560  0.5136 -0.2260 -0.3090
  256TMC3    C3 3877   3.925   0.542  10.506 -0.8102 -0.0713  0.6350
  256TMC3    C4 3878   3.811   0.301  10.451 -0.7847  0.1345 -0.0514
  256TMC3    C5 3879   3.759   0.420  10.395  0.1840 -0.0991  1.4085
  256TMC3    C6 3880   3.822   0.535  10.413  0.9122 -0.2611 -1.1188
  256TMC3     C 3881   3.987   0.177  10.572 -0.3607  0.1869  0.5028
  256TMC3     O 3882   3.923   0.081  10.539  0.5918 -0.4370  0.4897
  256TMC3     H 3883   4.058   0.427  10.632  1.4523 -4.0539 -1.2955
  256TMC3    H1 3884   3.769   0.204  10.429 -0.8817 -0.1970  1.6182
  256TMC3    H2 3885   3.788   0.631  10.376 -1.4161 -0.0211  1.6067
  256TMC3    C7 3886   3.685   0.389  10.274 -0.2158 -0.4200  0.1067
  256TMC3    C8 3887   4.025   0.643  10.469  1.1312  0.2915 -0.2624
  256TMC3    O1 3888   3.659   0.274  10.246 -0.3237  0.1926  0.9432
  256TMC3    O2 3889   4.091   0.679  10.565 -0.4578  0.1196 -0.5361
  257MPD2     C 3890   3.857   2.682  13.322  0.7118 -0.4925  0.0092
  257MPD2    C1 3891   3.860   2.575  13.232 -0.2453 -0.2421 -0.2447
  257MPD2    C2 3892   3.863   2.439  13.285  0.3446  0.0872  0.0435
  257MPD2    C3 3893   3.862   2.414  13.418  0.1643  0.4687 -0.9272
  257MPD2    C4 3894   3.880   2.524  13.502  0.0002  0.4433  0.9572
  257MPD2    C5 3895   3.877   2.658  13.454  0.5015 -0.1854  0.1311
  257MPD2     H 3896   3.876   2.355  13.218 -0.3988  0.3297 -0.4039
  257MPD2    H1 3897   3.888   2.510  13.609 -0.6212  2.0258  1.2199
  257MPD2    H2 3898   3.843   2.780  13.279 -0.1229 -0.2283  0.8887
  257MPD2    H3 3899   3.901   2.734  13.527 -1.0870 -0.3143  0.7757
  257MPD2     N 3900   3.862   2.279  13.456 -0.4472  0.0157  0.2940
  257MPD2    H5 3901   3.853   2.209  13.383 -1.7856  0.8346 -0.3282
  257MPD2    N1 3902   3.863   2.604  13.091  0.1807 -0.4792 -0.5098
  257MPD2    H7 3903   3.841   2.699  13.060 -0.4404 -0.2608  0.5688
  258TMC3    C1 3904   3.869   2.092  13.611  0.0439  1.0461 -0.0947
  258TMC3    C2 3905   3.760   2.030  13.566 -0.1993  0.1223  0.8569
  258TMC3    C3 3906   3.737   1.901  13.599  0.2784  0.8521  0.8547
  258TMC3    C4 3907   3.964   2.032  13.691  0.0540 -0.2327  0.2311
  258TMC3    C5 3908   3.951   1.898  13.706  0.5342  0.7164  0.2668
  258TMC3    C6 3909   3.837   1.829  13.657  0.2664  0.0168  0.6156
  258TMC3     C 3910   3.893   2.228  13.581 -0.3028  0.1079 -0.1097
  258TMC3     O 3911   3.942   2.288  13.673 -0.2473  0.0730 -0.2803
  258TMC3     H 3912   3.683   2.093  13.523  1.1601  1.9206  1.0539
  258TMC3    H1 3913   4.053   2.083  13.726 -1.7471  1.5631  2.1382
  258TMC3    H2 3914   3.816   1.728  13.692  0.0274 -0.2490 -0.3022
  258TMC3    C7 3915   4.054   1.835  13.776  0.7300 -0.1639  1.0107
  258TMC3    C8 3916   3.607   1.835  13.572 -0.0146  0.1741 -0.7017
  258TMC3    O1 3917   4.123   1.896  13.850  0.5017  0.1794 -0.1408
  258TMC3    O2 3918   3.515   1.914  13.556  0.1021 -0.0525  0.5196
  259MPD2     C 3919   3.112   4.253   1.170  0.2042 -0.2623 -0.2269
  259MPD2    C1 3920   3.177   4.158   1.240  0.6266  1.0912  0.0710
  259MPD2    C2 3921   3.280   4.089   1.177 -0.5614 -0.3986  0.2672
  259MPD2    C3 3922   3.327   4.116   1.051  0.2259  0.7341  0.2811
  259MPD2    C4 3923   3.270   4.224   0.985 -0.2376  0.2841  0.0705
  259MPD2    C5 3924   3.160   4.284   1.044  0.4533 -0.4769 -0.2536
  259MPD2     H 3925   3.334   4.012   1.230 -0.3518 -0.3144  0.1776
  259MPD2    H1 3926   3.303   4.252   0.886 -2.9043  2.0920 -0.3024
  259MPD2    H2 3927   3.024   4.307   1.202  1.5267  0.8942  1.4454
  259MPD2    H3 3928   3.113   4.364   0.988 -0.6313 -0.7758  0.2155
  259MPD2     N 3929   3.433   4.032   1.001  1.1560 -0.2761 -0.6420
  259MPD2    H5 3930   3.467   3.955   1.058 -1.7225 -1.8952 -1.1025
  259MPD2    N1 3931   3.127   4.118   1.368 -0.1813  0.2120 -0.5413
  259MPD2    H7 3932   3.044   4.171   1.393  0.5439  1.9849 -1.8673
  260TMC3    C1 3933   3.588   3.950   0.843 -0.0604 -0.3550 -0.0339
  260TMC3    C2 3934   3.694   3.978   0.751 -0.2841 -0.4723  0.6446
  260TMC3    C3 3935   3.792   3.883   0.743  0.3580  0.4911 -1.2126
  260TMC3    C4 3936   3.587   3.833   0.914 -0.7847  1.2627 -0.2124
  260TMC3    C5 3937   3.691   3.741   0.909  0.3995  0.5677 -0.1551
  260TMC3    C6 3938   3.791   3.770   0.818  0.0500  0.5590 -0.0968
  260TMC3     C 3939   3.497   4.055   0.881 -0.3868  0.7641 -0.0766
  260TMC3     O 3940   3.476   4.148   0.801  0.0155 -0.3077 -0.4914
  260TMC3     H 3941   3.719   4.075   0.711 -2.7696  0.0466  0.3597
  260TMC3    H1 3942   3.506   3.803   0.979 -0.3334  0.0556 -0.2079
  260TMC3    H2 3943   3.873   3.699   0.811 -0.9432 -0.4935 -1.0329
  260TMC3    C7 3944   3.641   3.606   0.889  0.5432  0.3983  0.0731
  260TMC3    C8 3945   3.828   3.868   0.599  0.0830  0.5795  0.0676
  260TMC3    O1 3946   3.663   3.526   0.977 -0.1729 -0.1771  0.1065
  260TMC3    O2 3947   3.810   3.967   0.528 -0.0575  0.8772 -0.0295
  261MPD2     C 3948   4.366   1.961  12.450  0.4644  0.1066  0.4217
  261MPD2    C1 3949   4.436   2.075  12.493 -0.3119  0.0997 -0.2869
  261MPD2    C2 3950   4.492   2.159  12.398  0.5549 -0.1610  0.6562
  261MPD2    C3 3951   4.488   2.128  12.260  0.5399  0.7026  0.0465
  261MPD2    C4 3952   4.433   2.008  12.224  0.7292 -0.3366 -0.1180
  261MPD2    C5 3953   4.375   1.926  12.318 -0.4651  0.3823 -0.2243
  261MPD2     H 3954   4.532   2.255  12.429 -0.7354  0.2812  0.9598
  261MPD2    H1 3955   4.449   1.965  12.125  0.0884 -0.8440 -0.0026
  261MPD2    H2 3956   4.328   1.887  12.519  4.4683 -0.3040  2.1764
  261MPD2    H3 3957   4.341   1.826  12.294  1.5844 -0.4172  0.1541
  261MPD2     N 3958   4.549   2.221  12.170  0.2317  0.1764  0.3949
  261MPD2    H5 3959   4.591   2.305  12.208  1.3973 -0.0490 -0.4333
  261MPD2    N1 3960   4.440   2.104  12.638  0.5245 -0.2330  0.5100
  261MPD2    H7 3961   4.495   2.184  12.665  1.6081 -1.4161  1.8109
  262TMC3    C1 3962   4.624   2.315  11.968 -0.4321 -0.1269 -0.2604
  262TMC3    C2 3963   4.563   2.435  11.971  0.2751  0.2995  1.1915
  262TMC3    C3 3964   4.602   2.526  11.875  0.5434 -0.0515 -0.2557
  262TMC3    C4 3965   4.711   2.282  11.866 -0.5280 -0.5067 -0.7128
  262TMC3    C5 3966   0.020   2.371  11.766  0.1683 -0.3619 -0.6043
  262TMC3    C6 3967   4.681   2.497  11.767 -0.9659 -0.4612  0.7175
  262TMC3     C 3968   4.549   2.207  12.034 -0.6469 -0.0350 -0.7967
  262TMC3     O 3969   4.511   2.111  11.968  0.0581  0.1441  0.0822
  262TMC3     H 3970   4.472   2.447  12.027 -0.4116 -0.5061  0.2399
  262TMC3    H1 3971   0.032   2.182  11.878  0.2766  0.0264  0.8837
  262TMC3    H2 3972   4.698   2.570  11.689 -2.4460 -2.2793 -1.3052
  262TMC3    C7 3973   0.118   2.334  11.657 -0.2195  0.3564 -0.4886
  262TMC3    C8 3974   4.540   2.660  11.860  0.0289  0.0409 -0.0096
  262TMC3    O1 3975   0.194   2.239  11.676  0.0152  0.3970  0.5828
  262TMC3    O2 3976   4.556   2.713  11.750 -0.1816 -0.1146 -0.4730
  263MPD2     C 3977   0.801   1.692  11.242 -0.4711  0.5149  0.5462
  263MPD2    C1 3978   0.885   1.631  11.156  0.8352  0.2272  0.1479
  263MPD2    C2 3979   0.870   1.642  11.021  0.4486 -0.6141  0.2135
  263MPD2    C3 3980   0.774   1.719  10.970  0.6402  0.2426 -0.3257
  263MPD2    C4 3981   0.686   1.783  11.051  0.1214  0.2123 -0.5948
  263MPD2    C5 3982   0.707   1.772  11.186 -0.9497 -0.3927  0.0371
  263MPD2     H 3983   0.939   1.598  10.951  0.3117  1.1964 -1.0810
  263MPD2    H1 3984   0.624   1.868  11.026  0.7181  0.9181  0.3482
  263MPD2    H2 3985   0.823   1.707  11.347  0.6739 -2.5784  0.7603
  263MPD2    H3 3986   0.652   1.840  11.250  0.4028  0.2617  0.5039
  263MPD2     N 3987   0.775   1.734  10.831  0.3783  0.4084  0.1001
  263MPD2    H5 3988   0.832   1.673  10.775 -1.9201 -1.0569 -0.6219
  263MPD2    N1 3989   0.999   1.563  11.211  0.4307  0.3927 -0.2261
  263MPD2    H7 3990   0.997   1.557  11.312  1.7712  0.1260 -0.2149
  264TMC3    C1 3991   0.771   1.859  10.641 -0.0593 -0.4078 -0.1734
  264TMC3    C2 3992   0.731   1.979  10.577 -0.2384 -0.1059 -0.1334
  264TMC3    C3 3993   0.800   2.015  10.469 -0.0779 -0.5364  0.0422
  264TMC3    C4 3994   0.880   1.779  10.594  0.1010 -0.4114  0.9662
  264TMC3    C5 3995   0.929   1.816  10.473  0.2118  0.0657 -0.2238
  264TMC3    C6 3996   0.890   1.932  10.417 -0.7271 -0.5345 -0.3763
  264TMC3     C 3997   0.715   1.836  10.768 -0.4869 -0.4467  0.2625
  264TMC3     O 3998   0.647   1.925  10.810 -0.7032 -0.3801  0.3848
  264TMC3     H 3999   0.665   2.051  10.625  1.2344  0.6493  0.7561
  264TMC3    H1 4000   0.917   1.687  10.637 -0.9520 -1.8521 -1.1973
  264TMC3    H2 4001   0.916   1.951  10.314 -2.3531 -0.5250 -0.7890
  264TMC3    C7 4002   1.059   1.766  10.436  0.2649  0.1610  1.1972
  264TMC3    C8 4003   0.878   2.136  10.485  0.0127 -0.5135 -0.2932
  264TMC3    O1 4004   1.094   1.649  10.457  0.6062 -0.4741  0.4062
  264TMC3    O2 4005   0.991   2.124  10.444  0.2255 -0.3094 -0.5118
  265MPD2     C 4006   3.201   1.938  15.595  0.3150 -0.8366 -0.1139
  265MPD2    C1 4007   3.216   2.023  15.487  0.3498 -0.1061  0.0221
  265MPD2    C2 4008   3.270   1.963  15.371 -0.4791  0.2199 -0.0270
  265MPD2    C3 4009   3.304   1.827  15.360  0.1403 -0.4252 -0.5559
  265MPD2    C4 4010   3.286   1.744  15.469 -0.1327 -0.0223 -0.1194
  265MPD2    C5 4011   3.239   1.809  15.588  0.0122 -0.9156 -0.9393
  265MPD2     H 4012   3.288   2.019  15.281 -1.3944  0.9926  0.2763
  265MPD2    H1 4013   3.315   1.639  15.472 -1.0096 -0.1999  2.2849
  265MPD2    H2 4014   3.153   1.962  15.689  1.8332  1.5486  0.0654
  265MPD2    H3 4015   3.215   1.748  15.674 -1.7248 -0.3053 -0.9999
  265MPD2     N 4016   3.351   1.764  15.238  0.0499  0.1853  1.2008
  265MPD2    H5 4017   3.358   1.663  15.241  0.9234  0.1959 -0.3898
  265MPD2    N1 4018   3.173   2.162  15.486 -0.7828 -0.4591  0.3035
  265MPD2    H7 4019   3.182   2.206  15.395 -0.5544 -1.2203 -0.0422
  266TMC3    C1 4020   3.088   2.367  15.553  0.3682 -0.1097 -0.9022
  266TMC3    C2 4021   3.042   2.433  15.659 -0.6235 -0.4650 -0.1532
  266TMC3    C3 4022   2.952   2.537  15.636  0.4282  0.0705 -0.2570
  266TMC3    C4 4023   3.057   2.407  15.422 -0.0231 -0.2853  0.4084
  266TMC3    C5 4024   2.964   2.510  15.409 -0.5800 -0.4574  0.3118
  266TMC3    C6 4025   2.896   2.566  15.516 -0.2206 -0.3722 -0.4299
  266TMC3     C 4026   3.107   2.228  15.581  0.3496 -0.1566  0.0488
  266TMC3     O 4027   3.076   2.185  15.693 -0.8442 -0.3269 -0.2301
  266TMC3     H 4028   3.080   2.414  15.759 -0.0087 -0.1449 -0.3241
  266TMC3    H1 4029   3.098   2.356  15.335 -2.5386  0.3875 -1.1683
  266TMC3    H2 4030   2.837   2.655  15.498  2.3380  1.1500 -1.3099
  266TMC3    C7 4031   2.896   2.521  15.274 -0.4034  0.3523 -0.4126
  266TMC3    C8 4032   2.864   2.594  15.746  0.7025 -0.2627 -0.2914
  266TMC3    O1 4033   2.932   2.439  15.186  0.4421 -0.2482  0.3742
  266TMC3    O2 4034   2.753   2.624  15.709  0.5111 -0.0997 -0.1556
  267MPD2     C 4035   1.206   4.282   0.128  0.4514  0.4836 -0.3687
  267MPD2    C1 4036   1.176   4.290   0.262  0.3725  0.0642 -0.1762
  267MPD2    C2 4037   1.051   4.257   0.307 -0.2801 -0.6377 -0.1362
  267MPD2    C3 4038   0.959   4.208   0.219  0.2877 -0.1903 -0.4538
  267MPD2    C4 4039   0.993   4.196   0.080 -0.1436  0.7213  0.2647
  267MPD2    C5 4040   1.113   4.247   0.034  0.6961 -0.9569 -0.0335
  267MPD2     H 4041   1.028   4.265   0.412 -0.9872  0.0967 -0.3583
  267MPD2    H1 4042   0.930   4.158  17.685 -0.1923 -0.1326  0.7037
  267MPD2    H2 4043   1.306   4.309   0.096  1.5554 -1.1643  1.7001
  267MPD2    H3 4044   1.146   4.241  17.617 -2.1890 -0.9949 -0.9415
  267MPD2     N 4045   0.828   4.170   0.261  0.0539  0.4114  0.5195
  267MPD2    H5 4046   0.770   4.135   0.185  0.0959 -2.7899  1.9899
  267MPD2    N1 4047   1.273   4.349   0.339  0.0233 -0.1005 -0.1157
  267MPD2    H7 4048   1.347   4.403   0.295  0.6947 -0.8854  0.0382
  268TMC3    C1 4049   1.374   4.459   0.519 -0.1183 -0.0991  0.4619
  268TMC3    C2 4050   1.431   4.546   0.427  0.9029  0.2652 -0.3790
  268TMC3    C3 4051   1.559   4.583   0.454  0.0755 -0.0678  0.2575
  268TMC3    C4 4052   1.443   4.421   0.633  0.5996  0.3777  0.9459
  268TMC3    C5 4053   1.570   4.474   0.653 -0.1802  0.2364  0.2701
  268TMC3    C6 4054   1.630   4.552   0.563 -0.1492 -0.4421 -0.0793
  268TMC3     C 4055   1.264   4.371   0.473  0.1944  0.3443  0.2762
  268TMC3     O 4056   1.190   4.330   0.558 -0.5144 -0.4682 -0.3005
  268TMC3     H 4057   1.378   4.574   0.337 -1.3105  0.1058  0.8794
  268TMC3    H1 4058   1.399   4.347   0.699 -0.3195 -0.9182 -1.1297
  268TMC3    H2 4059   1.723   4.596   0.597 -1.3040  1.8159  0.1608
  268TMC3    C7 4060   1.634   4.430   0.776  0.8864  0.8481  0.2911
  268TMC3    C8 4061   1.639   4.636   0.348 -0.3233  0.1645  0.1598
  268TMC3    O1 4062   1.559   4.392   0.864 -0.5903  0.4134 -0.0780
  268TMC3    O2 4063   1.756   4.608   0.353  0.2029 -0.1892  0.4842
  269MPD2     C 4064   1.067   2.890  15.540  0.3283  0.2477  1.1071
  269MPD2    C1 4065   0.931   2.914  15.540 -0.2374  0.3204  0.0300
  269MPD2    C2 4066   0.885   3.045  15.504 -0.2267  0.2721  0.0189
  269MPD2    C3 4067   0.977   3.142  15.454 -0.7606  0.1943  0.4366
  269MPD2    C4 4068   1.110   3.108  15.447  0.4677 -0.0507 -0.0048
  269MPD2    C5 4069   1.146   2.991  15.496 -0.3382  0.8223 -0.0039
  269MPD2     H 4070   0.785   3.083  15.522  0.4753  1.6229  1.1015
  269MPD2    H1 4071   1.178   3.165  15.384 -2.9923  1.1684 -2.6280
  269MPD2    H2 4072   1.107   2.798  15.579 -2.1060 -0.2551  2.4010
  269MPD2    H3 4073   1.249   2.962  15.480 -0.7432  0.7141 -2.3590
  269MPD2     N 4074   0.926   3.264  15.403  0.2281 -0.0060  0.4585
  269MPD2    H5 4075   0.825   3.265  15.391  0.1677  1.0133  1.0353
  269MPD2    N1 4076   0.855   2.809  15.592  0.0770  0.1498  0.0055
  269MPD2    H7 4077   0.896   2.722  15.626  2.5256 -0.0450 -3.4901
  270TMC3    C1 4078   0.669   2.690  15.668 -0.0259  0.1004  0.8322
  270TMC3    C2 4079   0.540   2.655  15.654  0.5892 -0.0582 -0.1884
  270TMC3    C3 4080   0.493   2.562  15.738  0.2182  0.7291  0.7838
  270TMC3    C4 4081   0.753   2.632  15.756  0.2670  0.0172  0.2454
  270TMC3    C5 4082   0.699   2.531  15.835  0.0571  0.4014 -0.1371
  270TMC3    C6 4083   0.563   2.494  15.828 -0.4477 -0.1574 -0.5744
  270TMC3     C 4084   0.719   2.798  15.580  0.1419  0.1103  0.9679
  270TMC3     O 4085   0.637   2.869  15.521 -0.4552  0.1368 -0.6101
  270TMC3     H 4086   0.477   2.706  15.583  0.0113  1.1078  1.1536
  270TMC3    H1 4087   0.849   2.673  15.784  1.7349 -1.5585 -2.4511
  270TMC3    H2 4088   0.517   2.404  15.866 -0.5380 -0.9459 -2.5769
  270TMC3    C7 4089   0.788   2.438  15.896 -0.7767 -0.2938 -0.6000
  270TMC3    C8 4090   0.355   2.503  15.720  0.1135 -0.4610 -0.0755
  270TMC3    O1 4091   0.907   2.455  15.866  0.2264  0.1652  0.0876
  270TMC3    O2 4092   0.302   2.433  15.806  0.3936 -0.1230 -0.0744
  271MPD2     C 4093   4.416   2.298  14.150  0.0379 -0.2631 -0.5443
  271MPD2    C1 4094   4.374   2.246  14.270 -0.1289  0.5788  0.2450
  271MPD2    C2 4095   4.240   2.232  14.292  0.2923  0.0734  0.1769
  271MPD2    C3 4096   4.151   2.266  14.191  0.2265  0.1301 -0.4809
  271MPD2    C4 4097   4.195   2.326  14.073 -0.4823  0.6161  0.3321
  271MPD2    C5 4098   4.324   2.339  14.052 -0.2417  0.6000 -0.3312
  271MPD2     H 4099   4.209   2.190  14.387  0.0603  0.4030  0.2466
  271MPD2    H1 4100   4.126   2.346  13.992  0.4766 -1.0006 -0.8547
  271MPD2    H2 4101   4.515   2.329  14.122  0.0952  0.5995  0.5907
  271MPD2    H3 4102   4.364   2.389  13.965 -0.2000 -0.9559 -1.1883
  271MPD2     N 4103   4.011   2.255  14.204 -0.6365  0.5147  0.5285
  271MPD2    H5 4104   3.952   2.279  14.125 -2.4498 -0.1002  1.6861
  271MPD2    N1 4105   4.474   2.195  14.360 -1.1777  0.3567 -0.1925
  271MPD2    H7 4106   4.425   2.151  14.438  0.7803  0.7256  1.2332
  272TMC3    C1 4107   4.660   2.098  14.447  0.3478  0.7755 -0.2311
  272TMC3    C2 4108   0.043   2.011  14.424  0.6961 -0.3141  0.0452
  272TMC3    C3 4109   0.086   1.939  14.531  0.5188  0.2997  0.2359
  272TMC3    C4 4110   4.626   2.130  14.575 -0.7960 -1.1323  0.7451
  272TMC3    C5 4111   4.674   2.054  14.675 -0.6558  0.2937 -0.0155
  272TMC3    C6 4112   0.039   1.950  14.656  0.2603 -0.0472 -0.1942
  272TMC3     C 4113   4.606   2.180  14.341  0.0126  0.1327  0.2557
  272TMC3     O 4114   4.683   2.205  14.249  0.0395 -0.5755  0.0712
  272TMC3     H 4115   0.078   1.992  14.323 -2.7566 -3.6452 -0.5230
  272TMC3    H1 4116   4.548   2.204  14.588 -0.1281 -0.3443  0.2877
  272TMC3    H2 4117   0.066   1.889  14.742  0.1884 -0.1327 -0.2315
  272TMC3    C7 4118   4.640   2.096  14.806 -0.2596 -0.9046  0.1950
  272TMC3    C8 4119   0.213   1.869  14.511  0.0560  0.2403 -0.0224
  272TMC3    O1 4120   4.610   2.010  14.886 -0.5284 -0.4358 -0.3553
  272TMC3    O2 4121   0.262   1.882  14.402  0.1137 -0.1230  0.3897
  273MPD2     C 4122   1.288   0.070  11.921 -0.2290  0.4760  0.3929
  273MPD2    C1 4123   1.333   0.199  11.915 -0.1124 -0.6614  0.8316
  273MPD2    C2 4124   1.327   0.270  11.793  0.1884 -0.0780  0.5780
  273MPD2    C3 4125   1.302   0.204  11.682  0.1801  0.1999 -0.2548
  273MPD2    C4 4126   1.285   0.066  11.689  0.1415  0.5235 -0.8676
  273MPD2    C5 4127   1.265   4.720  11.804 -0.0434  0.4189 -0.4308
  273MPD2     H 4128   1.357   0.374  11.780  2.6930 -0.8685 -0.0158
  273MPD2    H1 4129   1.263   0.015  11.596 -1.2182  0.6086 -0.5996
  273MPD2    H2 4130   1.282   0.009  12.011 -0.1374  0.9534  0.7257
  273MPD2    H3 4131   1.241   4.614  11.800 -1.1937  0.6008  2.1916
  273MPD2     N 4132   1.307   0.266  11.556 -1.2105  0.0882  0.4847
  273MPD2    H5 4133   1.312   0.203  11.477  2.4643  1.2128 -0.1927
  273MPD2    N1 4134   1.368   0.265  12.040  0.0043 -0.4644 -0.8296
  273MPD2    H7 4135   1.364   0.214  12.128 -0.3878  0.5510 -0.2542
  274TMC3    C1 4136   1.368   0.422  11.393  0.0577 -0.0843 -0.3087
  274TMC3    C2 4137   1.315   0.350  11.295 -0.2472 -0.0298  0.0536
  274TMC3    C3 4138   1.358   0.373  11.169 -0.6553  0.3646 -0.0784
  274TMC3    C4 4139   1.447   0.531  11.372  0.6777  0.7040 -0.0537
  274TMC3    C5 4140   1.469   0.560  11.243 -0.0804 -0.0201  0.2721
  274TMC3    C6 4141   1.447   0.474  11.136  0.4919 -0.8736  0.2617
  274TMC3     C 4142   1.325   0.398  11.527  0.2613 -0.4904  0.2071
  274TMC3     O 4143   1.310   0.502  11.595  0.6816 -0.5626 -0.2321
  274TMC3     H 4144   1.234   0.283  11.319 -1.0832  0.0372 -2.5383
  274TMC3    H1 4145   1.468   0.601  11.452 -0.3388  1.1707 -0.1988
  274TMC3    H2 4146   1.441   0.518  11.037 -0.5709 -1.5035  0.0498
  274TMC3    C7 4147   1.507   0.698  11.217 -0.1930  0.5619 -0.0853
  274TMC3    C8 4148   1.260   0.331  11.068  0.4667  0.0522  0.2253
  274TMC3    O1 4149   1.474   0.775  11.308 -0.2091  0.7521  0.7775
  274TMC3    O2 4150   1.147   0.306  11.107  0.1749 -0.1215 -0.1117
  275MPD2     C 4151   1.599   2.973  14.203 -0.1529  0.2847  0.4640
  275MPD2    C1 4152   1.500   3.053  14.251  0.3366  0.4068 -1.1510
  275MPD2    C2 4153   1.368   3.019  14.252  0.6290  0.2945  0.5429
  275MPD2    C3 4154   1.330   2.901  14.196  0.0567 -0.1332  0.5458
  275MPD2    C4 4155   1.430   2.819  14.144 -0.3928 -0.1269 -0.1433
  275MPD2    C5 4156   1.561   2.854  14.153  0.3663 -0.0616 -0.2468
  275MPD2     H 4157   1.303   3.083  14.310  1.5412  0.9932  0.7854
  275MPD2    H1 4158   1.414   2.721  14.100 -0.7022 -0.0857 -0.1219
  275MPD2    H2 4159   1.704   2.998  14.203  0.3424 -1.7367 -1.9945
  275MPD2    H3 4160   1.637   2.782  14.127 -0.8267 -1.2108 -0.5388
  275MPD2     N 4161   1.195   2.863  14.207 -0.3503 -0.0976 -0.5082
  275MPD2    H5 4162   1.136   2.936  14.245 -0.2473  0.8639 -2.1830
  275MPD2    N1 4163   1.523   3.173  14.320  0.1350 -0.2061 -0.7761
  275MPD2    H7 4164   1.442   3.233  14.334  0.2755 -1.0760  3.7649
  276TMC3    C1 4165   1.626   3.342  14.446 -0.1049  0.0918 -0.4183
  276TMC3    C2 4166   1.509   3.370  14.507  0.4377  0.0002 -0.1100
  276TMC3    C3 4167   1.502   3.462  14.606 -0.1220 -0.2838  0.2028
  276TMC3    C4 4168   1.743   3.404  14.495  0.1566 -0.2222  0.2135
  276TMC3    C5 4169   1.730   3.474  14.615 -0.2366 -0.0909  0.1858
  276TMC3    C6 4170   1.610   3.517  14.660 -0.6008 -0.1283  0.5322
  276TMC3     C 4171   1.645   3.221  14.368 -0.8503 -0.3905  0.3590
  276TMC3     O 4172   1.759   3.174  14.347 -0.2550 -0.0090  0.4114
  276TMC3     H 4173   1.422   3.309  14.488  0.6459  0.4269 -2.4337
  276TMC3    H1 4174   1.839   3.378  14.454  0.4444  1.0950  0.0587
  276TMC3    H2 4175   1.591   3.575  14.750  0.8852 -0.6065  1.1541
  276TMC3    C7 4176   1.847   3.513  14.693  0.0678 -0.4054 -0.2433
  276TMC3    C8 4177   1.398   3.433  14.700 -0.6440  0.2249 -0.3857
  276TMC3    O1 4178   1.814   3.575  14.794  0.0533  0.7611 -0.6003
  276TMC3    O2 4179   1.289   3.480  14.679 -0.6710 -0.1821  0.5074
  277MPD2     C 4180   3.206   2.278  13.406 -0.7930  0.0066 -0.4061
  277MPD2    C1 4181   3.075   2.272  13.362 -0.1856 -0.0489 -0.3545
  277MPD2    C2 4182   3.003   2.164  13.406 -0.4981  0.0670 -0.4507
  277MPD2    C3 4183   3.052   2.074  13.502 -0.2106  0.9686 -0.6629
  277MPD2    C4 4184   3.181   2.077  13.535  0.8950  0.3104 -0.0792
  277MPD2    C5 4185   3.260   2.178  13.486 -0.2244 -0.8392  0.6145
  277MPD2     H 4186   2.903   2.147  13.369 -1.0540  0.3183  0.9334
  277MPD2    H1 4187   3.227   2.007  13.604  2.7780  1.9841  0.3672
  277MPD2    H2 4188   3.257   2.372  13.391 -0.8299 -0.3906 -3.0054
  277MPD2    H3 4189   3.362   2.198  13.518  0.8879 -0.9402 -2.8497
  277MPD2     N 4190   2.961   1.980  13.555 -0.0931 -0.6691 -0.2844
  277MPD2    H5 4191   2.863   1.991  13.532 -0.2498 -0.7046  0.3595
  277MPD2    N1 4192   3.032   2.371  13.273  0.0365 -0.3988  0.3713
  277MPD2    H7 4193   3.100   2.442  13.249 -1.4868  0.2451 -2.1102
  278TMC3    C1 4194   2.875   1.807  13.684 -0.4281  0.1338  0.4503
  278TMC3    C2 4195   2.885   1.672  13.691  0.1169  0.9176  0.0432
  278TMC3    C3 4196   2.770   1.602  13.689 -0.0728 -0.1530 -0.0972
  278TMC3    C4 4197   2.757   1.875  13.708 -0.2502  0.0214  0.6919
  278TMC3    C5 4198   2.643   1.796  13.722 -0.5499  0.1921  0.3662
  278TMC3    C6 4199   2.649   1.658  13.703  0.0288 -0.4240  0.0050
  278TMC3     C 4200   2.993   1.879  13.641  0.0899 -0.0803  0.9805
  278TMC3     O 4201   3.101   1.844  13.689 -0.3325 -0.0491  0.0204
  278TMC3     H 4202   2.982   1.626  13.679 -0.1422  0.4381 -0.1684
  278TMC3    H1 4203   2.747   1.982  13.715 -2.6319 -0.5202  5.1197
  278TMC3    H2 4204   2.557   1.602  13.690 -0.4947  0.2004  1.0457
  278TMC3    C7 4205   2.530   1.868  13.768  0.1913 -0.6573  0.3947
  278TMC3    C8 4206   2.778   1.460  13.647  0.4763 -0.0746  0.1314
  278TMC3    O1 4207   2.535   1.975  13.822 -0.1995  0.0142 -0.5651
  278TMC3    O2 4208   2.867   1.393  13.692  0.2139 -0.1658  0.1424
  279MPD2     C 4209   1.861   2.608   0.583 -0.2983  0.1503 -0.2434
  279MPD2    C1 4210   1.926   2.730   0.592  0.1432  0.8110 -0.1059
  279MPD2    C2 4211   2.036   2.757   0.506 -0.1762 -0.0884 -0.7069
  279MPD2    C3 4212   2.064   2.671   0.401  0.3142 -0.0635 -0.6085
  279MPD2    C4 4213   1.987   2.559   0.386 -0.1187  0.1429  0.1714
  279MPD2    C5 4214   1.882   2.525   0.472 -0.5235 -0.5483 -0.1275
  279MPD2     H 4215   2.089   2.850   0.524  0.8814 -0.6128 -1.1434
  279MPD2    H1 4216   1.996   2.504   0.294 -0.8836 -0.4094  0.4236
  279MPD2    H2 4217   1.776   2.594   0.649  0.2342  0.3882  0.4895
  279MPD2    H3 4218   1.826   2.436   0.450 -0.2005 -1.1628  1.6129
  279MPD2     N 4219   2.163   2.707   0.305 -0.6271 -0.2659  0.1314
  279MPD2    H5 4220   2.150   2.655   0.219 -0.7479  1.2295 -0.7569
  279MPD2    N1 4221   1.869   2.815   0.682  0.1901 -0.4078 -0.5280
  279MPD2    H7 4222   1.774   2.792   0.706  0.2374 -1.0273 -0.9374
  280TMC3    C1 4223   1.844   3.026   0.797  0.2355  0.3006 -0.7080
  280TMC3    C2 4224   1.718   2.984   0.820 -0.8472  0.5024 -0.0779
  280TMC3    C3 4225   1.622   3.083   0.839  1.3329  0.2671 -0.1430
  280TMC3    C4 4226   1.884   3.155   0.775  0.0471 -0.1880 -0.0744
  280TMC3    C5 4227   1.785   3.244   0.779 -0.4023  0.0091 -0.3109
  280TMC3    C6 4228   1.658   3.215   0.809 -0.7040 -0.4054 -0.4493
  280TMC3     C 4229   1.932   2.927   0.727 -0.4148  0.1005 -0.1895
  280TMC3     O 4230   2.050   2.961   0.709 -0.2239  0.0971  0.3649
  280TMC3     H 4231   1.692   2.880   0.836 -1.5083  0.6429 -0.2454
  280TMC3    H1 4232   1.985   3.178   0.742  0.5114 -0.3371  1.2536
  280TMC3    H2 4233   1.587   3.296   0.820 -0.3997 -0.2331  0.2503
  280TMC3    C7 4234   1.805   3.374   0.716  0.0069  0.0256  0.1604
  280TMC3    C8 4235   1.500   3.058   0.910  0.0191 -0.1108  0.3686
  280TMC3    O1 4236   1.905   3.441   0.745  0.1127 -0.5982 -0.2224
  280TMC3    O2 4237   1.444   3.163   0.941 -0.5743  0.6099 -0.4740
  281TMC3    C1 4238   1.175   2.859  12.760  0.2657 -0.3592  0.1801
  281TMC3    C2 4239   1.144   2.933  12.650  0.5258 -0.2209 -0.0302
  281TMC3    C3 4240   1.139   2.867  12.536 -0.6744  0.1011  0.2516
  281TMC3    C4 4241   1.192   2.721  12.765 -0.2106 -0.3305 -0.1158
  281TMC3    C5 4242   1.188   2.657  12.643 -0.1043 -0.0815  0.6309
  281TMC3    C6 4243   1.164   2.731  12.530 -0.3538  0.6899  0.0653
  281TMC3     C 4244   1.140   2.918  12.887  0.1871  0.4139  0.1093
  281TMC3     O 4245   1.211   2.882  12.978 -0.3540 -0.0175 -0.3203
  281TMC3     H 4246   1.123   3.039  12.648 -0.2510 -0.3369  2.0730
  281TMC3    H1 4247   1.227   2.668  12.853  2.6617  1.1407 -0.3492
  281TMC3    H2 4248   1.131   2.674  12.444  0.1156 -1.0313  1.0109
  281TMC3    C7 4249   1.158   2.516  12.641 -0.3353  0.1054  0.5315
  281TMC3    C8 4250   1.093   2.938  12.422 -0.2489 -0.2767  0.3151
  281TMC3    O1 4251   1.207   2.452  12.545 -0.7954 -0.1908 -0.2870
  281TMC3    O2 4252   1.151   3.041  12.403 -0.2675 -0.4189 -0.0487
  282MPD2     C 4253   2.893   3.979  15.078 -0.4722 -0.3670  0.4831
  282MPD2    C1 4254   2.791   4.072  15.061 -0.7481 -0.5870  0.3294
  282MPD2    C2 4255   2.728   4.078  14.936  0.3405 -0.1982 -0.3282
  282MPD2    C3 4256   2.776   4.004  14.829 -0.0507  0.1836 -0.0293
  282MPD2    C4 4257   2.883   3.917  14.851 -0.1241  0.2271  1.4007
  282MPD2    C5 4258   2.929   3.905  14.975 -0.3161  0.0440 -0.1404
  282MPD2     H 4259   2.645   4.148  14.929  1.2422  1.0142  1.2050
  282MPD2    H1 4260   2.912   3.844  14.777  0.9860  0.7817  1.2891
  282MPD2    H2 4261   2.940   3.953  15.172 -0.5112 -1.9405  0.0662
  282MPD2    H3 4262   3.011   3.834  14.982  0.9238  1.4507 -0.6131
  282MPD2     N 4263   2.718   4.001  14.700  0.3837 -0.2371 -0.0048
  282MPD2    H5 4264   2.643   4.066  14.680  0.7101  1.1776  3.3715
  282MPD2    N1 4265   2.745   4.137  15.176 -0.5262 -0.1169  0.7353
  282MPD2    H7 4266   2.782   4.106  15.265  1.4604  1.4820  0.4610
  283TMC3    C1 4267   2.598   4.276  15.303 -0.0069  0.1512 -0.4722
  283TMC3    C2 4268   2.532   4.395  15.309 -0.7401 -0.2512  0.5564
  283TMC3    C3 4269   2.465   4.414  15.430 -0.8557 -0.3748  0.3697
  283TMC3    C4 4270   2.586   4.176  15.395 -0.1619 -0.1046 -0.3806
  283TMC3    C5 4271   2.505   4.194  15.503  0.0719  0.2383  0.3040
  283TMC3    C6 4272   2.444   4.311  15.524  0.2746  1.1583  0.0003
  283TMC3     C 4273   2.663   4.247  15.174  0.0280 -0.6106  0.3213
  283TMC3     O 4274   2.652   4.329  15.086 -0.1122 -0.7713  0.1912
  283TMC3     H 4275   2.546   4.468  15.230  0.6511 -0.4183  0.6593
  283TMC3    H1 4276   2.641   4.082  15.394 -0.8110 -0.4834 -1.2494
  283TMC3    H2 4277   2.388   4.330  15.615 -0.6657  1.5131 -0.6531
  283TMC3    C7 4278   2.458   4.082  15.581 -0.1796 -0.4550  0.6565
  283TMC3    C8 4279   2.437   4.549  15.471 -0.1619 -0.2028 -0.2323
  283TMC3    O1 4280   2.408   4.110  15.689 -0.2153  0.0376 -0.2107
  283TMC3    O2 4281   2.431   4.580  15.592 -0.2789  0.2611 -0.3377
  284MPD2     C 4282   0.837   3.109  11.435  0.2299  0.4412  0.2711
  284MPD2    C1 4283   0.894   3.098  11.308 -0.0011  0.1476  0.2740
  284MPD2    C2 4284   0.860   2.981  11.239 -0.0122  0.2971 -0.0652
  284MPD2    C3 4285   0.782   2.882  11.282 -0.4122  0.4949  0.2995
  284MPD2    C4 4286   0.729   2.896  11.407 -0.4772 -0.4048 -0.0605
  284MPD2    C5 4287   0.760   3.005  11.481  0.0719  0.1339 -0.0126
  284MPD2     H 4288   0.907   2.963  11.143 -0.1837  2.8754 -0.6349
  284MPD2    H1 4289   0.664   2.821  11.451  0.6751  0.1681  2.6154
  284MPD2    H2 4290   0.862   3.192  11.500  1.6542 -0.2256  0.5705
  284MPD2    H3 4291   0.727   2.999  11.584  1.2886  0.7221  0.4158
  284MPD2     N 4292   0.778   2.759  11.211 -0.4289  0.6563  0.1313
  284MPD2    H5 4293   0.843   2.765  11.133 -1.0384  3.6130 -0.1396
  284MPD2    N1 4294   0.995   3.179  11.253 -0.0269  0.2350 -0.7500
  284MPD2    H7 4295   1.032   3.150  11.163  0.7572 -0.3439 -0.2404
  285TMC3    C1 4296   1.170   3.339  11.242 -0.3161 -0.2124  0.9502
  285TMC3    C2 4297   1.255   3.234  11.197 -0.5561 -0.3894  0.0937
  285TMC3    C3 4298   1.382   3.268  11.149 -0.2254 -0.3068  0.1800
  285TMC3    C4 4299   1.216   3.462  11.254  0.5361 -0.2805  0.1137
  285TMC3    C5 4300   1.343   3.491  11.219 -0.1003 -0.2927  0.1127
  285TMC3    C6 4301   1.425   3.399  11.161 -0.9386 -0.3954 -0.1373
  285TMC3     C 4302   1.050   3.295  11.312 -0.1166  0.0742 -0.0605
  285TMC3     O 4303   1.011   3.359  11.405 -0.4164  0.7907  0.9078
  285TMC3     H 4304   1.230   3.129  11.201  0.2685 -0.5875 -0.0404
  285TMC3    H1 4305   1.154   3.532  11.309  0.9727 -0.5179  0.9005
  285TMC3    H2 4306   1.527   3.426  11.135 -1.8235  3.1077  0.0232
  285TMC3    C7 4307   1.370   3.633  11.212 -0.8117 -0.2578  0.7019
  285TMC3    C8 4308   1.452   3.160  11.084  0.0676  0.5310 -0.8674
  285TMC3    O1 4309   1.481   3.669  11.251  0.0666 -0.1197 -0.0142
  285TMC3    O2 4310   1.382   3.072  11.036  0.1342  0.0021 -0.1538
  286MPD2     C 4311   0.905   2.533   1.558  0.2809  0.9635  0.3033
  286MPD2    C1 4312   0.910   2.549   1.417 -0.1771 -0.0631  0.3999
  286MPD2    C2 4313   0.982   2.450   1.343  0.8709 -0.7539  0.3555
  286MPD2    C3 4314   1.053   2.351   1.411  0.4855 -0.3487 -1.2958
  286MPD2    C4 4315   1.031   2.342   1.542 -0.3081 -0.5110 -1.5444
  286MPD2    C5 4316   0.954   2.427   1.622  0.2578 -0.4432  0.4507
  286MPD2     H 4317   0.984   2.458   1.235  1.2642 -1.8282  0.2900
  286MPD2    H1 4318   1.083   2.269   1.603  0.7718  0.7905 -0.9123
  286MPD2    H2 4319   0.852   2.608   1.615 -1.9686 -0.5044  0.1115
  286MPD2    H3 4320   0.944   2.394   1.724  1.7243  0.8559  1.0183
  286MPD2     N 4321   1.146   2.254   1.346 -0.2421 -0.1347  0.4528
  286MPD2    H5 4322   1.184   2.179   1.402 -0.8330 -1.8367 -1.4340
  286MPD2    N1 4323   0.839   2.645   1.346  0.0599  0.5036  0.5331
  286MPD2    H7 4324   0.861   2.639   1.247 -2.1394 -4.3239  0.3068
  287TMC3    C1 4325   1.265   2.158   1.158  0.4747 -0.3623  0.0746
  287TMC3    C2 4326   1.271   2.141   1.024  1.0741 -0.4334 -0.0123
  287TMC3    C3 4327   1.353   2.035   0.979 -0.0456  0.5531  0.3066
  287TMC3    C4 4328   1.323   2.063   1.246 -0.3659  0.7589 -0.1407
  287TMC3    C5 4329   1.388   1.955   1.197 -0.5668 -0.6782  0.1353
  287TMC3    C6 4330   1.414   1.947   1.063 -0.3070 -0.1108  1.3621
  287TMC3     C 4331   1.169   2.260   1.209  0.1550 -0.1322  0.1390
  287TMC3     O 4332   1.134   2.337   1.118 -0.2851  0.0769  0.7951
  287TMC3     H 4333   1.210   2.199   0.956  0.9427 -0.8319 -0.2322
  287TMC3    H1 4334   1.310   2.065   1.354 -0.7663  2.6041 -0.2230
  287TMC3    H2 4335   1.473   1.867   1.019 -0.3960  0.3296  0.4337
  287TMC3    C7 4336   1.495   1.889   1.284 -1.3856 -0.5495  0.2039
  287TMC3    C8 4337   1.363   2.008   0.837 -0.3000  0.5059 -0.4991
  287TMC3    O1 4338   1.523   1.940   1.395 -0.3879  0.1613 -0.7243
  287TMC3    O2 4339   1.271   2.040   0.763  0.0554 -0.3696  0.0465
  288TMC3    C1 4340   3.629   1.459  14.439  0.3742  0.2593 -0.2625
  288TMC3    C2 4341   3.553   1.483  14.552 -0.0609 -0.9336 -0.4858
  288TMC3    C3 4342   3.425   1.519  14.548  0.0162 -0.6236 -0.6017
  288TMC3    C4 4343   3.577   1.492  14.320 -0.4603  0.2549 -0.0057
  288TMC3    C5 4344   3.450   1.538  14.316 -0.1474  0.1945  1.1496
  288TMC3    C6 4345   3.368   1.556  14.424  0.2637 -0.4623 -0.4675
  288TMC3     C 4346   3.768   1.457  14.467 -0.1951 -0.7135  0.2173
  288TMC3     O 4347   3.805   1.429  14.581  0.0322  0.2485  0.0175
  288TMC3     H 4348   3.602   1.480  14.648  2.0217 -1.1527 -1.5507
  288TMC3    H1 4349   3.625   1.457  14.229 -1.2188  2.3029 -1.1906
  288TMC3    H2 4350   3.262   1.573  14.409  0.4390  0.8339 -0.2931
  288TMC3    C7 4351   3.426   1.610  14.190 -0.5307 -0.0534 -0.0939
  288TMC3    C8 4352   3.364   1.589  14.660  0.2434  0.1272 -0.6345
  288TMC3    O1 4353   3.493   1.584  14.090 -0.5972 -0.1571  0.1238
  288TMC3    O2 4354   3.430   1.672  14.727  0.2553 -0.5287 -0.1354
  289MPD2     C 4355   3.761   1.198  14.150 -0.8938  0.6082 -0.3369
  289MPD2    C1 4356   3.686   1.116  14.229 -0.7214 -0.1051 -0.4203
  289MPD2    C2 4357   3.569   1.058  14.181  0.0445  0.0117  0.4899
  289MPD2    C3 4358   3.522   1.077  14.057 -0.1392  0.4821  0.5492
  289MPD2    C4 4359   3.590   1.170  13.979 -0.3028 -0.0834  0.2602
  289MPD2    C5 4360   3.711   1.223  14.025 -0.2367  0.2977  0.5312
  289MPD2     H 4361   3.517   0.978  14.232 -0.3661  0.1329  0.2578
  289MPD2    H1 4362   3.563   1.210  13.882 -0.1928  0.0266  0.2751
  289MPD2    H2 4363   3.846   1.251  14.191  0.6154 -4.5006  3.1719
  289MPD2    H3 4364   3.765   1.294  13.963 -0.9431  1.6476  1.4582
  289MPD2     N 4365   3.399   1.020  14.011 -0.7108 -0.1792 -0.2050
  289MPD2    H5 4366   3.351   1.063  13.933 -0.2815  0.9476  0.1494
  289MPD2    N1 4367   3.745   1.086  14.358 -0.0341 -0.2643  0.3462
  289MPD2    H7 4368   3.843   1.110  14.366 -0.5860  0.4598  4.8295
  290TMC3    C1 4369   3.234   0.860  13.979  0.0175 -0.0491 -0.2362
  290TMC3    C2 4370   3.139   0.949  13.946  0.1475  0.8105  0.1530
  290TMC3    C3 4371   3.023   0.898  13.888 -0.8246 -0.3051  0.6679
  290TMC3    C4 4372   3.216   0.721  13.949 -0.0514  0.3387  0.3263
  290TMC3    C5 4373   3.102   0.690  13.888  0.2440  1.1894 -0.4040
  290TMC3    C6 4374   3.003   0.776  13.855 -0.1985 -0.0096 -0.6105
  290TMC3     C 4375   3.352   0.895  14.054 -0.2581 -0.4865 -0.2474
  290TMC3     O 4376   3.413   0.812  14.118 -0.1791 -0.0687  0.6291
  290TMC3     H 4377   3.147   1.054  13.973 -3.6313  0.3938  2.8448
  290TMC3    H1 4378   3.283   0.642  13.979  0.4252  0.4906 -0.3411
  290TMC3    H2 4379   2.918   0.743  13.797  0.7403 -1.7384 -1.0042
  290TMC3    C7 4380   3.087   0.542  13.863 -0.1577 -0.0026  0.3258
  290TMC3    C8 4381   2.912   0.989  13.866  0.6298 -0.0077  0.4221
  290TMC3    O1 4382   3.183   0.467  13.868 -0.2482 -0.1659 -0.2121
  290TMC3    O2 4383   2.829   0.951  13.785  0.0732 -0.6549  0.1026
  291MPD2     C 4384   1.808   1.010   0.304 -0.2675  0.2766 -0.4597
  291MPD2    C1 4385   1.870   0.889   0.265 -0.1257  0.0503  0.5837
  291MPD2    C2 4386   2.003   0.887   0.229 -0.0318  0.0451 -0.3984
  291MPD2    C3 4387   2.081   0.997   0.231 -0.2846  0.3789  0.9640
  291MPD2    C4 4388   2.026   1.114   0.270 -0.5209 -0.5394 -0.3970
  291MPD2    C5 4389   1.893   1.122   0.305 -0.3070  0.4634  0.2359
  291MPD2     H 4390   2.048   0.790   0.212 -1.3784 -1.0105  2.0573
  291MPD2    H1 4391   2.088   1.202   0.275 -3.2469  1.2660  1.7046
  291MPD2    H2 4392   1.704   1.029   0.324 -0.6486 -1.1035 -1.1282
  291MPD2    H3 4393   1.856   1.216   0.344 -0.1451  1.5119 -2.1693
  291MPD2     N 4394   2.224   0.994   0.216 -0.2768  0.7041 -0.0306
  291MPD2    H5 4395   2.277   1.080   0.211 -0.7477  0.9880 -0.1778
  291MPD2    N1 4396   1.807   0.767   0.261 -0.7686  0.4069 -0.4723
  291MPD2    H7 4397   1.861   0.683   0.243 -1.7425 -0.2760 -0.2275
  292TMC3    C1 4398   1.629   0.624   0.243  0.1696  0.8099 -0.0098
  292TMC3    C2 4399   1.553   0.561   0.338  0.5736  0.1459  0.0827
  292TMC3    C3 4400   1.566   0.427   0.350  0.3760 -0.4986 -0.2399
  292TMC3    C4 4401   1.726   0.561   0.163 -0.2551  0.5024  0.1046
  292TMC3    C5 4402   1.736   0.425   0.178 -0.1393 -0.8465 -0.4572
  292TMC3    C6 4403   1.663   0.362   0.275  0.0586  0.8694 -0.0943
  292TMC3     C 4404   1.673   0.753   0.275 -0.2262 -0.6145  1.0271
  292TMC3     O 4405   1.592   0.838   0.310  0.0491  0.0329 -0.4713
  292TMC3     H 4406   1.482   0.622   0.394  2.4326  2.2436  0.1425
  292TMC3    H1 4407   1.775   0.613   0.082  1.1555  1.9247  1.8484
  292TMC3    H2 4408   1.667   0.254   0.283 -1.3742  0.9382  1.5173
  292TMC3    C7 4409   1.815   0.349   0.092  0.0799 -0.0427 -0.3325
  292TMC3    C8 4410   1.520   0.376   0.474  0.7258 -0.2082  0.1013
  292TMC3    O1 4411   1.916   0.296   0.136 -0.0101  0.0349 -0.4905
  292TMC3    O2 4412   1.440   0.438   0.544 -0.1978 -0.6475  0.8004
  293MPD2     C 4413   4.191   2.361  12.573 -0.0879  0.4778 -0.7511
  293MPD2    C1 4414   4.107   2.305  12.663 -0.2622 -0.2833 -0.3333
  293MPD2    C2 4415   4.107   2.343  12.797 -0.5319 -0.1630  0.2773
  293MPD2    C3 4416   4.176   2.451  12.838  0.1705  0.2672  0.6817
  293MPD2    C4 4417   4.237   2.524  12.742 -0.4994  0.1010 -0.0668
  293MPD2    C5 4418   4.258   2.472  12.619  0.5833  0.1186  0.6263
  293MPD2     H 4419   4.062   2.280  12.873 -1.2610 -0.5926 -0.5075
  293MPD2    H1 4420   4.315   2.596  12.764 -1.1024  1.1965 -1.6040
  293MPD2    H2 4421   4.201   2.331  12.469 -0.2566  0.2064 -0.6910
  293MPD2    H3 4422   4.324   2.514  12.545 -0.2784 -0.4744 -0.4869
  293MPD2     N 4423   4.182   2.483  12.974 -0.3606  0.1208 -0.2314
  293MPD2    H5 4424   4.158   2.405  13.035 -0.7727  0.7267  0.3841
  293MPD2    N1 4425   4.028   2.192  12.615 -0.6425 -0.0740  0.3249
  293MPD2    H7 4426   4.051   2.170  12.519 -1.8253 -5.4531  1.2717
  294TMC3    C1 4427   3.865   2.014  12.613 -0.9699  0.5710 -0.6360
  294TMC3    C2 4428   3.746   1.961  12.658  0.1893 -0.5852 -0.9958
  294TMC3    C3 4429   3.682   1.870  12.575 -0.6426  0.2760 -0.2772
  294TMC3    C4 4430   3.911   1.989  12.489  0.5249  0.3215 -0.2840
  294TMC3    C5 4431   3.850   1.890  12.410  0.0181  0.5713 -0.3213
  294TMC3    C6 4432   3.733   1.830  12.449  0.3527  0.2042 -0.1322
  294TMC3     C 4433   3.931   2.124  12.688  0.1503  0.4824  0.7189
  294TMC3     O 4434   3.911   2.123  12.808  0.3953  0.6646  0.0140
  294TMC3     H 4435   3.709   1.979  12.759  0.2812 -0.0683 -1.0553
  294TMC3    H1 4436   4.007   2.018  12.448  0.3471 -0.6852 -1.4325
  294TMC3    H2 4437   3.684   1.758  12.385  0.9606 -0.4905  0.1800
  294TMC3    C7 4438   3.898   1.873  12.275 -0.7554  0.7887 -0.7933
  294TMC3    C8 4439   3.558   1.803  12.615 -0.1225 -0.0031 -0.3271
  294TMC3    O1 4440   4.010   1.920  12.250 -0.4984  0.5376  0.0748
  294TMC3    O2 4441   3.527   1.815  12.734  0.4623  0.5396  0.5378
  295MPD2     C 4442   4.300   0.939   0.068 -0.3971 -0.4280  0.5015
  295MPD2    C1 4443   4.346   1.070   0.080 -0.1297 -0.4122  0.1684
  295MPD2    C2 4444   4.256   1.164   0.130 -0.2250  0.6040 -0.0099
  295MPD2    C3 4445   4.122   1.134   0.163  0.1532 -0.0531 -0.3783
  295MPD2    C4 4446   4.076   1.005   0.138 -1.1629 -0.1527 -0.1827
  295MPD2    C5 4447   4.169   0.911   0.101 -0.6658  1.0131 -0.5386
  295MPD2     H 4448   4.297   1.264   0.140  5.5352 -1.8752  1.4435
  295MPD2    H1 4449   3.977   0.969   0.162 -1.0126 -1.7669 -2.0352
  295MPD2    H2 4450   4.358   0.851   0.044 -0.8051 -0.8877  1.2001
  295MPD2    H3 4451   4.142   0.806   0.102 -2.1348  1.3919  0.2056
  295MPD2     N 4452   4.027   1.227   0.211  0.4337  0.5171 -0.2909
  295MPD2    H5 4453   3.936   1.188   0.235 -0.1453  1.3754 -1.1163
  295MPD2    N1 4454   4.479   1.114   0.045  0.1618  0.0910 -0.0097
  295MPD2    H7 4455   4.510   1.208   0.069 -0.3690  0.6162 -1.3602
  296TMC3    C1 4456   3.937   1.427   0.291  0.3963 -0.1146 -0.1796
  296TMC3    C2 4457   3.955   1.561   0.272 -0.2721  0.1357  0.0859
  296TMC3    C3 4458   3.853   1.637   0.329 -0.6857  0.3118  0.1242
  296TMC3    C4 4459   3.855   1.363   0.379 -0.1185  0.3079  0.7806
  296TMC3    C5 4460   3.777   1.453   0.443 -1.0519  0.1427  0.1420
  296TMC3    C6 4461   3.761   1.586   0.416 -0.2159  0.5166  0.7197
  296TMC3     C 4462   4.054   1.357   0.236  0.3662  0.4269 -0.1710
  296TMC3     O 4463   4.136   1.429   0.182 -0.3095 -0.0892  0.8283
  296TMC3     H 4464   4.030   1.608   0.209 -0.8997 -0.8584 -1.3896
  296TMC3    H1 4465   3.856   1.257   0.400 -0.3831  0.2154  0.3314
  296TMC3    H2 4466   3.689   1.643   0.473 -0.4823  2.3670 -1.4457
  296TMC3    C7 4467   3.697   1.389   0.548  0.0190  0.9115 -0.0395
  296TMC3    C8 4468   3.905   1.768   0.360 -0.3185  0.2346  0.7137
  296TMC3    O1 4469   3.580   1.428   0.563 -0.2528 -0.1999  0.2904
  296TMC3    O2 4470   3.842   1.858   0.309  0.4835 -0.1658 -0.3056
  297MPD2     C 4471   2.026   2.871  16.370 -0.6341 -0.1861 -0.1747
  297MPD2    C1 4472   2.026   2.937  16.249  0.2114  0.5604  0.2008
  297MPD2    C2 4473   2.149   2.979  16.202  0.6409 -0.1337 -0.7588
  297MPD2    C3 4474   2.259   2.975  16.283 -0.1197  0.0715 -0.2344
  297MPD2    C4 4475   2.256   2.897  16.394  0.4902  0.1394 -0.1659
  297MPD2    C5 4476   2.139   2.843  16.440  0.3020  0.2333  0.4093
  297MPD2     H 4477   2.163   3.026  16.106 -0.1112 -0.5157 -1.0506
  297MPD2    H1 4478   2.348   2.873  16.445 -0.0814  0.0573  0.8233
  297MPD2    H2 4479   1.934   2.824  16.402  0.2009 -2.3640 -0.9388
  297MPD2    H3 4480   2.143   2.777  16.526 -0.7718 -1.1522 -0.5999
  297MPD2     N 4481   2.387   3.030  16.245  0.7462  0.3467 -0.2207
  297MPD2    H5 4482   2.459   3.020  16.315  1.4163  1.6756 -0.7286
  297MPD2    N1 4483   1.901   2.967  16.178 -0.2399 -0.7233  0.5233
  297MPD2    H7 4484   1.911   3.009  16.086  0.3034 -0.0166  0.9096
  298TMC3    C1 4485   1.668   3.028  16.158 -0.0752 -0.2127 -0.5316
  298TMC3    C2 4486   1.688   3.035  16.024 -0.2663  0.0243 -0.6718
  298TMC3    C3 4487   1.610   3.119  15.960  0.0368 -0.2780  0.4547
  298TMC3    C4 4488   1.566   3.100  16.218  0.0662  0.3721 -0.3209
  298TMC3    C5 4489   1.484   3.181  16.148 -0.7601 -0.5759  0.5564
  298TMC3    C6 4490   1.512   3.192  16.019 -0.0110  0.1586  0.6064
  298TMC3     C 4491   1.774   2.972  16.240  0.0461 -0.1620 -0.8228
  298TMC3     O 4492   1.740   2.955  16.357 -0.4273  0.1389  0.2113
  298TMC3     H 4493   1.764   2.979  15.970 -0.3003  2.2216 -2.9722
  298TMC3    H1 4494   1.562   3.083  16.325  1.2117  0.1967 -0.3000
  298TMC3    H2 4495   1.433   3.232  15.956 -1.0352  0.6850  2.2066
  298TMC3    C7 4496   1.434   3.296  16.214  0.1300  0.1276  0.3211
  298TMC3    C8 4497   1.616   3.135  15.813  0.4223  0.5424  0.6883
  298TMC3    O1 4498   1.453   3.306  16.335  0.0836 -0.5742 -0.4532
  298TMC3    O2 4499   1.546   3.219  15.763  0.5763 -0.0194 -0.0555
  299MPD2     C 4500   2.987   1.906  10.793  0.7366  0.6542  0.1675
  299MPD2    C1 4501   2.998   1.856  10.672 -0.1191 -0.6228  0.2775
  299MPD2    C2 4502   2.886   1.808  10.603 -0.3571  0.2099 -0.1967
  299MPD2    C3 4503   2.769   1.804  10.679  0.0374  0.5849  0.0966
  299MPD2    C4 4504   2.761   1.852  10.810  1.1788  0.2472  0.1828
  299MPD2    C5 4505   2.872   1.905  10.868  0.3991 -0.1409 -0.2765
  299MPD2     H 4506   2.898   1.776  10.500 -1.6705 -1.6431  0.2370
  299MPD2    H1 4507   2.670   1.863  10.868  1.7312 -2.3331  1.5243
  299MPD2    H2 4508   3.072   1.951  10.842  0.9918  0.5105 -0.1523
  299MPD2    H3 4509   2.872   1.938  10.971 -1.5925  1.3857 -0.7675
  299MPD2     N 4510   2.648   1.765  10.613  0.1521 -0.6346  0.1544
  299MPD2    H5 4511   2.562   1.797  10.657 -0.8528 -0.6987 -1.7357
  299MPD2    N1 4512   3.117   1.900  10.605  0.0178  0.3004  0.0450
  299MPD2    H7 4513   3.185   1.930  10.675 -0.1212  0.0533  0.2858
  300TMC3    C1 4514   2.548   1.748  10.408  0.5835  0.2479  0.2147
  300TMC3    C2 4515   2.579   1.869  10.354 -0.0485  0.1793  0.2547
  300TMC3    C3 4516   2.491   1.976  10.358 -0.3611 -0.4062 -0.3330
  300TMC3    C4 4517   2.419   1.741  10.460  0.2468  0.9321 -0.2583
  300TMC3    C5 4518   2.324   1.845  10.457 -0.0501  0.0403  0.0648
  300TMC3    C6 4519   2.356   1.960  10.394  0.0979  0.3166 -0.0552
  300TMC3     C 4520   2.650   1.693  10.489 -0.0851 -0.6299 -0.1106
  300TMC3     O 4521   2.731   1.614  10.438  0.2710 -0.4588 -0.1693
  300TMC3     H 4522   2.675   1.883  10.307  1.0453  1.9099  2.9953
  300TMC3    H1 4523   2.388   1.643  10.495 -0.1207  1.8347  1.9341
  300TMC3    H2 4524   2.288   2.042  10.374  3.5081  3.5774  1.6630
  300TMC3    C7 4525   2.184   1.815  10.486 -0.3557  0.2695  0.2761
  300TMC3    C8 4526   2.536   2.100  10.388 -0.2467 -0.2604 -0.3017
  300TMC3    O1 4527   2.155   1.697  10.485 -0.3493 -0.5036  0.6430
  300TMC3    O2 4528   2.458   2.193  10.370 -0.0227 -0.4581 -0.2945
  301MPD2     C 4529   4.608   4.551   1.286  0.0839  0.1910  0.3825
  301MPD2    C1 4530   4.489   4.514   1.325 -1.0587 -0.2894 -0.1178
  301MPD2    C2 4531   4.471   4.381   1.366 -1.0996 -0.1965  0.0381
  301MPD2    C3 4532   4.574   4.298   1.388 -1.2278  0.4391 -0.5349
  301MPD2    C4 4533   4.698   4.337   1.345 -0.4489 -0.5350  0.1928
  301MPD2    C5 4534   4.712   4.463   1.287 -0.0579 -0.6676 -0.3650
  301MPD2     H 4535   4.374   4.358   1.408 -1.3579  2.3549  0.8632
  301MPD2    H1 4536   0.060   4.268   1.338 -0.7810 -1.0375  1.3394
  301MPD2    H2 4537   4.629   4.654   1.259  0.2627  0.0415 -0.0381
  301MPD2    H3 4538   0.091   4.481   1.250 -0.1922  1.5742  0.3417
  301MPD2     N 4539   4.561   4.168   1.449  0.2704 -0.2524  0.5775
  301MPD2    H5 4540   4.647   4.114   1.442  0.0353 -0.9039  2.9422
  301MPD2    N1 4541   4.377   4.608   1.333 -0.1428  0.2606 -0.1100
  301MPD2    H7 4542   4.289   4.574   1.371 -0.9106  0.4156 -1.7687
  302TMC3    C1 4543   4.455   3.968   1.498 -1.1389 -0.3945  0.1174
  302TMC3    C2 4544   4.569   3.899   1.465  0.0550  0.9513 -0.2850
  302TMC3    C3 4545   4.573   3.770   1.505  0.1461 -0.3685  0.3825
  302TMC3    C4 4546   4.356   3.913   1.573  0.2857 -0.8425  0.6393
  302TMC3    C5 4547   4.369   3.781   1.611  0.5393 -0.3935  0.0980
  302TMC3    C6 4548   4.475   3.706   1.571  0.9060  0.7988  0.5784
  302TMC3     C 4549   4.444   4.107   1.478 -0.1151 -0.0371 -0.5415
  302TMC3     O 4550   4.330   4.155   1.481 -0.2374 -0.1939  0.1907
  302TMC3     H 4551   4.650   3.951   1.415  0.4556  0.5844 -0.0218
  302TMC3    H1 4552   4.270   3.968   1.608  0.4585  0.7773 -1.4882
  302TMC3    H2 4553   4.484   3.601   1.595  3.2499  0.6257 -1.0855
  302TMC3    C7 4554   4.264   3.709   1.687  0.1751  0.7372  0.5073
  302TMC3    C8 4555   4.683   3.689   1.465  0.2860 -0.2534 -0.8427
  302TMC3    O1 4556   4.301   3.618   1.761  0.4004  0.3833  0.1494
  302TMC3    O2 4557   0.076   3.720   1.494  0.1587 -0.1828 -0.1483
  303MPD2     C 4558   3.318   1.511   9.621  0.0904  0.2148  0.5614
  303MPD2    C1 4559   3.444   1.529   9.564  0.6851  0.2642 -0.4342
  303MPD2    C2 4560   3.513   1.647   9.596 -0.2102 -0.0120 -0.2484
  303MPD2    C3 4561   3.464   1.723   9.701 -0.1298 -0.0180  0.3587
  303MPD2    C4 4562   3.347   1.694   9.761  1.2670  0.1645 -0.3286
  303MPD2    C5 4563   3.267   1.596   9.720  0.1703 -0.3113  0.5885
  303MPD2     H 4564   3.609   1.663   9.549 -0.8516  0.4663 -1.3800
  303MPD2    H1 4565   3.307   1.753   9.843  2.1029  1.0039 -0.5204
  303MPD2    H2 4566   3.261   1.420   9.607 -0.8237  0.9433 -0.4674
  303MPD2    H3 4567   3.171   1.582   9.769  0.9678 -1.2546  1.8924
  303MPD2     N 4568   3.537   1.830   9.764 -0.6812  0.3538 -0.5835
  303MPD2    H5 4569   3.504   1.866   9.853 -0.5688  2.9979 -1.6317
  303MPD2    N1 4570   3.514   1.428   9.507 -0.2805  0.0773  0.1529
  303MPD2    H7 4571   3.606   1.460   9.478 -1.0144  2.7178  0.6699
  304TMC3    C1 4572   3.585   1.207   9.471 -0.3562  0.2665  0.8131
  304TMC3    C2 4573   3.714   1.252   9.466  0.4541  0.0014  0.8494
  304TMC3    C3 4574   3.816   1.169   9.494 -0.1012 -0.1075 -0.2547
  304TMC3    C4 4575   3.559   1.081   9.504  0.8760  0.4165 -0.2471
  304TMC3    C5 4576   3.661   1.001   9.554  0.4302 -0.1941 -0.7806
  304TMC3    C6 4577   3.790   1.045   9.542 -0.3355  0.1090  0.2273
  304TMC3     C 4578   3.475   1.295   9.500 -0.6330  0.3307 -0.3427
  304TMC3     O 4579   3.365   1.243   9.503 -0.8920  0.0275 -0.1150
  304TMC3     H 4580   3.731   1.356   9.443  0.8762  0.1649  1.9259
  304TMC3    H1 4581   3.455   1.052   9.517  0.2610  1.4970 -2.8207
  304TMC3    H2 4582   3.869   0.987   9.587  1.0729  0.6190 -1.5955
  304TMC3    C7 4583   3.649   0.966   9.692  0.0415  0.1529 -0.3761
  304TMC3    C8 4584   3.931   1.231   9.554 -0.2604 -0.0867  0.1306
  304TMC3    O1 4585   3.749   0.995   9.755  0.7322 -0.6621  0.2077
  304TMC3    O2 4586   3.981   1.326   9.502  0.8936 -0.2963 -0.1443
  305MPD2     C 4587   2.702   4.330  13.687 -0.4117 -1.1526 -0.3092
  305MPD2    C1 4588   2.712   4.202  13.737  0.5716 -0.3155 -0.6557
  305MPD2    C2 4589   2.683   4.089  13.657 -0.1498  0.3475 -0.6172
  305MPD2    C3 4590   2.631   4.109  13.528 -0.9380  0.5394  0.8785
  305MPD2    C4 4591   2.613   4.239  13.484  0.1654 -0.6140  0.5095
  305MPD2    C5 4592   2.646   4.346  13.565  0.0742 -1.0830 -0.4770
  305MPD2     H 4593   2.695   3.992  13.704 -3.2321 -1.3294 -3.2928
  305MPD2    H1 4594   2.583   4.257  13.381  3.4576 -2.6221 -0.7878
  305MPD2    H2 4595   2.740   4.418  13.736  0.9145 -1.2720 -1.1228
  305MPD2    H3 4596   2.638   4.446  13.523 -0.0924 -0.7927  0.2555
  305MPD2     N 4597   2.608   4.003  13.430  0.1745 -0.0385  0.2820
  305MPD2    H5 4598   2.561   4.031  13.344  0.8492  2.3651  0.6904
  305MPD2    N1 4599   2.767   4.188  13.874  0.2290 -0.6057  0.1457
  305MPD2    H7 4600   2.795   4.278  13.912  1.0326 -0.4425 -0.8170
  306TMC3    C1 4601   2.830   4.099  14.081 -0.1357 -0.5907  0.6687
  306TMC3    C2 4602   2.897   4.001  14.150  0.3535  0.0315  0.7331
  306TMC3    C3 4603   2.969   4.039  14.264  0.1527  0.1453  0.0096
  306TMC3    C4 4604   2.821   4.224  14.124 -0.0749 -0.1241 -0.8817
  306TMC3    C5 4605   2.878   4.255  14.250  0.3756 -0.3738 -0.0120
  306TMC3    C6 4606   2.957   4.161  14.320 -0.8189  0.4258 -0.0171
  306TMC3     C 4607   2.778   4.074  13.943 -1.0516 -0.6431  0.3333
  306TMC3     O 4608   2.754   3.960  13.912 -0.1887  0.1784 -0.2375
  306TMC3     H 4609   2.891   3.896  14.123  0.0104 -0.1166  1.3908
  306TMC3    H1 4610   2.760   4.304  14.084  0.6375  2.0668  2.4272
  306TMC3    H2 4611   3.005   4.184  14.414  0.0474 -1.1550 -0.0737
  306TMC3    C7 4612   2.851   4.382  14.307  0.3670  0.4262  0.1277
  306TMC3    C8 4613   3.068   3.950  14.314  0.4631  0.0267  0.6734
  306TMC3    O1 4614   2.770   4.459  14.260 -0.1859  0.3615  0.3769
  306TMC3    O2 4615   3.117   3.869  14.236  0.2115 -0.2946  0.3100
  307MPD2     C 4616   0.528   2.454   0.528 -0.0263  0.6980  0.2248
  307MPD2    C1 4617   0.583   2.536   0.437  0.3687 -0.7665  0.2328
  307MPD2    C2 4618   0.576   2.675   0.459  0.4754 -0.2581 -0.1752
  307MPD2    C3 4619   0.527   2.727   0.581  0.3144 -0.3765  0.3840
  307MPD2    C4 4620   0.477   2.638   0.675  0.3845 -0.6793 -0.0124
  307MPD2    C5 4621   0.480   2.501   0.650  0.1704 -0.4448 -0.4337
  307MPD2     H 4622   0.610   2.739   0.378  1.1339  1.3236  1.3363
  307MPD2    H1 4623   0.426   2.668   0.767  0.1708 -2.4296  0.4386
  307MPD2    H2 4624   0.521   2.347   0.511 -2.6163  1.0701 -0.9818
  307MPD2    H3 4625   0.432   2.434   0.720 -0.5543  1.8552  1.2575
  307MPD2     N 4626   0.526   2.866   0.599 -0.2729  0.4235  0.2722
  307MPD2    H5 4627   0.535   2.923   0.516  0.3120 -1.1208 -0.7254
  307MPD2    N1 4628   0.617   2.492   0.310 -0.1467  0.4241 -0.0247
  307MPD2    H7 4629   0.661   2.554   0.243 -0.3441 -0.4893 -0.9907
  308TMC3    C1 4630   0.332   3.232   0.818  0.1270 -0.2821 -0.2334
  308TMC3    C2 4631   0.373   3.325   0.721 -0.4203  0.2345 -0.3928
  308TMC3    C3 4632   0.475   3.288   0.636  0.2937  0.5486  0.1224
  308TMC3    C4 4633   0.387   3.100   0.813  0.4416 -0.6681  0.3232
  308TMC3    C5 4634   0.479   3.065   0.719  0.6582 -0.1185  0.0380
  308TMC3    C6 4635   0.528   3.157   0.631 -0.4925  0.0545 -0.2930
  308TMC3     C 4636   0.200   3.252   0.869 -1.0068  0.4896 -0.1622
  308TMC3     O 4637   0.179   3.345   0.948  0.5157  0.1973 -0.0489
  308TMC3     H 4638   0.320   3.419   0.715 -0.5179  0.1084 -1.3909
  308TMC3    H1 4639   0.343   3.020   0.871 -1.0717 -0.3667 -0.4041
  308TMC3    H2 4640   0.582   3.126   0.543 -0.4567 -1.2201  0.1776
  308TMC3    C7 4641   0.515   2.921   0.722  0.4633  1.0614 -0.0567
  308TMC3    C8 4642   0.492   3.345   0.508 -0.6017  0.2201  0.9785
  308TMC3    O1 4643   0.515   2.863   0.832 -0.5578 -0.6608  0.6631
  308TMC3    O2 4644   0.391   3.392   0.450  0.4576 -0.1040  0.1904
  309MPD2     C 4645   4.692   2.464  17.209 -0.0571 -0.5013 -0.3472
  309MPD2    C1 4646   4.638   2.543  17.105 -0.8133  0.8266 -0.2825
  309MPD2    C2 4647   4.532   2.628  17.123  0.9457  0.0189 -0.0349
  309MPD2    C3 4648   4.493   2.654  17.251 -0.2594  0.2348  0.0988
  309MPD2    C4 4649   4.534   2.571  17.347 -0.1346  0.1330 -0.2450
  309MPD2    C5 4650   4.630   2.475  17.332  0.2466  0.3311  0.5970
  309MPD2     H 4651   4.508   2.692  17.039 -2.2803 -2.4022 -0.9664
  309MPD2    H1 4652   4.483   2.574  17.443  1.3282  0.4462  0.5128
  309MPD2    H2 4653   0.044   2.384  17.203  1.1340  0.4439  1.4270
  309MPD2    H3 4654   4.658   2.408  17.412 -1.2864  1.2221  1.8569
  309MPD2     N 4655   4.407   2.759  17.278 -0.3838 -0.5379 -0.1978
  309MPD2    H5 4656   4.366   2.765  17.371 -2.0665 -0.7184 -0.9247
  309MPD2    N1 4657   4.690   2.540  16.975 -0.1762  0.2360 -0.3644
  309MPD2    H7 4658   4.637   2.600  16.913 -0.6728  0.1422 -0.0313
  310TMC3    C1 4659   0.114   2.500  16.804  0.7100 -0.8316  0.7370
  310TMC3    C2 4660   0.027   2.580  16.734 -0.1059  0.3582 -0.2418
  310TMC3    C3 4661   0.083   2.661  16.639 -0.3265  0.9109 -0.5531
  310TMC3    C4 4662   0.249   2.510  16.790  0.3404 -0.1257  0.7023
  310TMC3    C5 4663   0.293   2.591  16.686  0.2229  0.2585 -0.1040
  310TMC3    C6 4664   0.217   2.675  16.617  0.4476 -0.0236  0.4104
  310TMC3     C 4665   0.073   2.460  16.935  0.7878 -0.3774  0.1751
  310TMC3     O 4666   0.126   2.361  16.984 -0.0735  0.2523 -0.0630
  310TMC3     H 4667   4.640   2.571  16.740 -0.1888  2.4416  1.4571
  310TMC3    H1 4668   0.314   2.443  16.846  0.2762 -2.3407 -1.8901
  310TMC3    H2 4669   0.262   2.731  16.535 -0.8999  1.6766  0.8119
  310TMC3    C7 4670   0.442   2.587  16.676 -0.7325  0.5260 -0.0633
  310TMC3    C8 4671   4.710   2.724  16.539  0.6018  0.7869 -0.4660
  310TMC3    O1 4672   0.507   2.499  16.731  0.2701  0.1275  0.7592
  310TMC3    O2 4673   0.026   2.735  16.423  0.7056  0.3065  0.1234
  311MPD2     C 4674   1.924   3.227  12.912 -0.7957 -0.3521 -0.0295
  311MPD2    C1 4675   1.862   3.337  12.863 -0.2655  0.3933 -0.2758
  311MPD2    C2 4676   1.727   3.355  12.888 -0.6635 -0.3927  0.8251
  311MPD2    C3 4677   1.658   3.261  12.965 -0.4753  0.0862 -0.7284
  311MPD2    C4 4678   1.726   3.150  13.019 -0.2729  0.6182 -0.3009
  311MPD2    C5 4679   1.860   3.143  12.998  0.7499  0.1823 -0.2808
  311MPD2     H 4680   1.684   3.448  12.852 -2.0035 -1.4781 -0.3529
  311MPD2    H1 4681   1.684   3.066  13.073 -0.5534  0.7789 -0.2711
  311MPD2    H2 4682   2.032   3.214  12.907 -0.3256  2.7881  2.0510
  311MPD2    H3 4683   1.925   3.064  13.034  1.7909  0.4316 -1.6306
  311MPD2     N 4684   1.520   3.265  12.991 -0.0051 -0.1832 -0.3998
  311MPD2    H5 4685   1.480   3.203  13.060 -0.1832 -0.1117 -0.4389
  311MPD2    N1 4686   1.930   3.435  12.783  0.0698 -0.5502 -0.5325
  311MPD2    H7 4687   1.873   3.516  12.761  2.8685  1.2310 -1.1916
  312TMC3    C1 4688   1.289   3.318  12.951  0.7559 -0.6270  0.1262
  312TMC3    C2 4689   1.209   3.355  12.855 -0.5303  0.4527 -0.0024
  312TMC3    C3 4690   1.088   3.401  12.876  0.0002 -0.1931  0.3086
  312TMC3    C4 4691   1.247   3.316  13.077 -0.4135  0.6602 -0.1489
  312TMC3    C5 4692   1.125   3.372  13.104 -0.6230  0.2292  0.0099
  312TMC3    C6 4693   1.038   3.407  13.002 -0.3175  0.8462  0.3088
  312TMC3     C 4694   1.429   3.338  12.920 -0.2931 -0.4137 -0.0914
  312TMC3     O 4695   1.441   3.394  12.813 -0.1979  0.2206 -0.1818
  312TMC3     H 4696   1.245   3.376  12.755 -1.2840 -0.0746 -0.3873
  312TMC3    H1 4697   1.306   3.256  13.146 -1.2557  0.7569  0.6458
  312TMC3    H2 4698   0.940   3.448  13.020 -0.9508 -1.3448  1.9321
  312TMC3    C7 4699   1.075   3.385  13.242  0.6888  0.2808  0.1830
  312TMC3    C8 4700   1.017   3.470  12.766  0.2544  0.1339  0.0818
  312TMC3    O1 4701   0.961   3.422  13.255  0.2978 -0.1565  0.1041
  312TMC3    O2 4702   1.031   3.429  12.652 -0.3289 -0.4484 -0.0254
  313MPD2     C 4703   1.822   2.630  10.494  0.0310  0.0523  0.0670
  313MPD2    C1 4704   1.689   2.676  10.480  0.1236 -0.1657 -0.2366
  313MPD2    C2 4705   1.607   2.616  10.383 -0.1633 -0.9140  0.4249
  313MPD2    C3 4706   1.661   2.509  10.303  0.0913  0.5118  0.3853
  313MPD2    C4 4707   1.794   2.463  10.334 -0.4022 -0.1738 -0.5228
  313MPD2    C5 4708   1.873   2.525  10.425 -0.0957 -0.1172 -0.1244
  313MPD2     H 4709   1.506   2.655  10.374 -0.2411 -1.0818  0.5577
  313MPD2    H1 4710   1.849   2.385  10.282  0.8577  1.0379 -1.0021
  313MPD2    H2 4711   1.890   2.671  10.568  0.6604 -0.0256 -0.4739
  313MPD2    H3 4712   1.976   2.492  10.440 -1.4121 -3.0121  2.5675
  313MPD2     N 4713   1.591   2.458  10.196  0.6964  0.6853  0.5112
  313MPD2    H5 4714   1.492   2.476  10.189  0.8178  0.4327 -1.8413
  313MPD2    N1 4715   1.630   2.788  10.546 -0.7166 -0.0297 -0.5150
  313MPD2    H7 4716   1.532   2.804  10.526 -0.7987  0.9305  0.6847
  314TMC3    C1 4717   1.623   2.993  10.662  0.1130 -0.2145  0.3604
  314TMC3    C2 4718   1.692   3.092  10.724 -0.3488  0.0433 -0.4322
  314TMC3    C3 4719   1.631   3.213  10.735 -0.6012 -0.6176 -0.6321
  314TMC3    C4 4720   1.503   3.016  10.603 -0.1049  0.5231  0.2340
  314TMC3    C5 4721   1.444   3.135  10.626 -0.4537 -0.0555  0.2347
  314TMC3    C6 4722   1.500   3.230  10.701  0.1175 -0.2260 -0.0389
  314TMC3     C 4723   1.705   2.877  10.622  0.3581  0.0143 -0.1589
  314TMC3     O 4724   1.819   2.874  10.662 -0.1358 -0.6130  0.5288
  314TMC3     H 4725   1.790   3.074  10.765 -0.7059  0.8823  0.8136
  314TMC3    H1 4726   1.458   2.951  10.528  3.3666 -1.6077  0.0049
  314TMC3    H2 4727   1.457   3.330  10.705  0.2401 -0.1496 -0.5637
  314TMC3    C7 4728   1.342   3.188  10.538 -0.0962 -0.1205 -0.2837
  314TMC3    C8 4729   1.693   3.325  10.808  0.5063  0.1004  0.2041
  314TMC3    O1 4730   1.262   3.270  10.581  0.2938  0.2925  0.2507
  314TMC3    O2 4731   1.619   3.419  10.834 -0.4832 -0.0804  0.3195
  315MPD2     C 4732   0.748   3.005   0.091 -0.2798  0.4971 -0.1135
  315MPD2    C1 4733   0.879   2.986   0.135  0.3158  0.3485  0.0334
  315MPD2    C2 4734   0.967   3.086   0.121 -0.0424  0.7650  0.1985
  315MPD2    C3 4735   0.930   3.203   0.066 -0.3299 -0.4559  0.3279
  315MPD2    C4 4736   0.804   3.216   0.014  0.4555 -0.1333  0.1314
  315MPD2    C5 4737   0.712   3.119   0.026 -0.0474 -0.0942  0.5675
  315MPD2     H 4738   1.071   3.073   0.150 -0.2060  0.0079  0.4433
  315MPD2    H1 4739   0.768   3.313  17.665 -1.0213 -1.0014 -0.7533
  315MPD2    H2 4740   0.675   2.927   0.112 -0.0316  0.3191  0.0875
  315MPD2    H3 4741   0.611   3.141  17.677  1.5259  1.9056 -2.7430
  315MPD2     N 4742   1.023   3.308   0.057  0.6218 -0.0232  0.3717
  315MPD2    H5 4743   1.111   3.303   0.107  0.4947  0.0317  0.6017
  315MPD2    N1 4744   0.932   2.863   0.183  0.5276 -0.3775  0.1176
  315MPD2    H7 4745   1.033   2.860   0.198  0.3003 -2.0933  1.3333
  316TMC3    C1 4746   1.125   3.508  17.675 -0.7470 -0.1783 -0.3531
  316TMC3    C2 4747   1.199   3.503   0.111  0.6809  0.5773 -0.0976
  316TMC3    C3 4748   1.333   3.532   0.098  0.2033 -0.0073  0.6396
  316TMC3    C4 4749   1.182   3.529  17.555  0.3707  0.4536  0.1716
  316TMC3    C5 4750   1.315   3.553  17.550 -0.0953  0.1070 -0.1686
  316TMC3    C6 4751   1.398   3.554  17.664  0.2439  0.3043 -0.5620
  316TMC3     C 4752   1.010   3.420  17.666  0.0745  0.1796 -1.1839
  316TMC3     O 4753   0.919   3.449  17.587  0.1385 -0.2451  0.3115
  316TMC3     H 4754   1.153   3.482   0.207  1.3981  2.0567  0.5682
  316TMC3    H1 4755   1.120   3.523  17.466  1.9365 -0.7497 -0.8511
  316TMC3    H2 4756   1.505   3.566  17.652 -0.1386  2.2475 -1.9992
  316TMC3    C7 4757   1.366   3.596  17.419  1.1583  0.6060 -0.8224
  316TMC3    C8 4758   1.403   3.562   0.225 -0.2460 -0.3009  0.0602
  316TMC3    O1 4759   1.293   3.565  17.327  0.0998  0.0529 -0.1058
  316TMC3    O2 4760   1.345   3.528   0.328  0.1628  0.3512  0.5119
  317MPD2     C 4761   2.935   0.897  12.228 -1.0133 -0.1013  0.0997
  317MPD2    C1 4762   3.009   0.779  12.219 -0.9866 -0.4684 -0.1996
  317MPD2    C2 4763   3.050   0.717  12.334  0.0992  0.2002 -0.0002
  317MPD2    C3 4764   3.008   0.770  12.459 -0.7039  0.4841  0.4086
  317MPD2    C4 4765   2.939   0.892  12.457  0.0383 -0.3396 -0.0843
  317MPD2    C5 4766   2.896   0.949  12.340  0.5062  0.9602  0.1973
  317MPD2     H 4767   3.121   0.636  12.322 -0.0275  0.1569 -0.4590
  317MPD2    H1 4768   2.914   0.941  12.550 -0.5853  0.0857 -0.4823
  317MPD2    H2 4769   2.921   0.967  12.147 -1.5879 -0.2852  0.0387
  317MPD2    H3 4770   2.837   1.040  12.344  0.1441  0.7034  0.6023
  317MPD2     N 4771   3.057   0.713  12.577 -0.1504  0.3624  0.3874
  317MPD2    H5 4772   3.109   0.628  12.558  0.3363  1.1084 -1.6223
  317MPD2    N1 4773   3.062   0.734  12.096  0.5290  0.4100  0.2722
  317MPD2    H7 4774   3.118   0.649  12.098  0.2482  0.2415  0.8630
  318TMC3    C1 4775   3.118   0.687  12.796  0.3304 -0.7903  0.0277
  318TMC3    C2 4776   3.092   0.553  12.794 -0.4449 -0.1869  0.1344
  318TMC3    C3 4777   3.149   0.470  12.890  0.3142 -0.9670  0.2944
  318TMC3    C4 4778   3.173   0.743  12.904 -0.5212 -0.1270  0.2284
  318TMC3    C5 4779   3.233   0.659  12.993 -0.8834 -0.4579 -0.1024
  318TMC3    C6 4780   3.228   0.517  12.986 -0.9838 -0.9982  0.0862
  318TMC3     C 4781   3.066   0.775  12.698 -0.5351  0.5997 -0.4462
  318TMC3     O 4782   3.027   0.883  12.738  0.5883  0.9769  0.1812
  318TMC3     H 4783   3.050   0.509  12.704  1.3537  1.1100 -1.3372
  318TMC3    H1 4784   3.179   0.852  12.907 -3.3744  0.0166  1.2622
  318TMC3    H2 4785   3.258   0.458  13.072 -1.4067  0.3614  1.1694
  318TMC3    C7 4786   3.337   0.723  13.074 -0.2977 -0.1149 -1.3865
  318TMC3    C8 4787   3.129   0.333  12.893  0.0060  0.3114 -0.0585
  318TMC3    O1 4788   3.322   0.838  13.106 -0.6349  0.9134  0.2266
  318TMC3    O2 4789   3.233   0.270  12.917  0.3030  0.1420  0.3195
  319MPD2     C 4790   4.590   2.308  16.236  0.1044 -0.7145 -0.1189
  319MPD2    C1 4791   4.455   2.275  16.247 -0.5047 -0.9413  0.3209
  319MPD2    C2 4792   4.389   2.208  16.146 -0.5006  0.4396 -1.2481
  319MPD2    C3 4793   4.457   2.165  16.028 -0.2711  0.9115  0.4054
  319MPD2    C4 4794   4.591   2.179  16.020  0.0078  0.0394 -0.2518
  319MPD2    C5 4795   4.656   2.255  16.123  0.1098 -0.5445  0.3673
  319MPD2     H 4796   4.281   2.208  16.145 -0.5255  1.0380  0.7676
  319MPD2    H1 4797   4.652   2.145  15.937  0.7646  0.8740 -0.0451
  319MPD2    H2 4798   4.654   2.367  16.301  0.0867 -0.0047 -0.7396
  319MPD2    H3 4799   0.040   2.281  16.126  0.2455 -1.1985  1.0889
  319MPD2     N 4800   4.383   2.100  15.918 -0.2991 -0.3721 -0.0918
  319MPD2    H5 4801   4.419   2.097  15.824 -3.5745  0.1671 -1.3772
  319MPD2    N1 4802   4.377   2.330  16.348  0.2388 -0.2633 -0.0351
  319MPD2    H7 4803   4.275   2.326  16.342  0.1913 -1.3020  1.5797
  320TMC3    C1 4804   4.229   1.945  15.824  0.4985 -0.4269  0.2049
  320TMC3    C2 4805   4.203   2.011  15.708 -0.2882 -0.2328  1.2770
  320TMC3    C3 4806   4.125   1.953  15.616 -0.6248  0.6849 -0.3277
  320TMC3    C4 4807   4.159   1.836  15.865 -0.5914  0.4563  0.0516
  320TMC3    C5 4808   4.084   1.772  15.765  1.2773  0.4190  0.1304
  320TMC3    C6 4809   4.071   1.829  15.640  0.2708 -0.0888 -0.3128
  320TMC3     C 4810   4.274   2.019  15.937 -0.1081  0.5517  0.3162
  320TMC3     O 4811   4.223   1.996  16.043 -0.6555  0.4572 -0.3299
  320TMC3     H 4812   4.247   2.106  15.679  0.7798  0.1306  4.1311
  320TMC3    H1 4813   4.171   1.783  15.959 -0.6897  0.9673  0.3552
  320TMC3    H2 4814   4.005   1.771  15.576 -2.6966  2.9423 -0.0342
  320TMC3    C7 4815   3.981   1.680  15.804 -0.4096 -0.1052  0.0180
  320TMC3    C8 4816   4.039   2.055  15.547 -0.4536  0.3076 -0.2677
  320TMC3    O1 4817   3.932   1.600  15.723 -0.0525  0.2076 -0.0021
  320TMC3    O2 4818   4.057   2.170  15.586  0.0204  0.0660  0.5283
  321TMC3    C1 4819   4.322   2.440  16.544  0.2187  0.0991 -0.0625
  321TMC3    C2 4820   4.216   2.353  16.549 -0.0066 -0.2952 -0.0260
  321TMC3    C3 4821   4.106   2.390  16.622 -0.3104 -0.5891  0.3898
  321TMC3    C4 4822   4.323   2.558  16.614  0.0658  0.1820 -0.7806
  321TMC3    C5 4823   4.209   2.596  16.679  0.1435  0.3552  0.2476
  321TMC3    C6 4824   4.095   2.516  16.675  0.0197 -0.0115 -0.1532
  321TMC3     C 4825   4.431   2.408  16.453 -0.1873 -0.2217 -0.3291
  321TMC3     O 4826   4.542   2.453  16.475  0.0126 -0.4965 -0.5446
  321TMC3     H 4827   4.228   2.257  16.498  1.7042 -0.3263  0.4432
  321TMC3    H1 4828   4.407   2.627  16.602  1.8780 -1.7623  0.7754
  321TMC3    H2 4829   4.007   2.538  16.734  0.2051 -1.4943  0.6858
  321TMC3    C7 4830   4.241   2.644  16.810 -0.0996  0.1723 -0.7602
  321TMC3    C8 4831   4.078   2.292  16.724 -0.1034  1.4031  0.3736
  321TMC3    O1 4832   4.357   2.625  16.846 -0.1048  0.0177 -0.0288
  321TMC3    O2 4833   4.038   2.326  16.833 -0.1278  0.3756 -0.0962
  322MPD2     C 4834   2.677   3.277  13.547 -0.4173 -0.1569  0.0711
  322MPD2    C1 4835   2.655   3.215  13.666 -0.6274  0.5117 -0.2929
  322MPD2    C2 4836   2.667   3.077  13.678 -0.7575  0.9598  0.8077
  322MPD2    C3 4837   2.711   3.006  13.566 -0.0513  0.7445  0.1994
  322MPD2    C4 4838   2.731   3.072  13.441 -0.1655  0.0476 -0.5552
  322MPD2    C5 4839   2.715   3.205  13.436 -0.1936 -0.7128 -0.0282
  322MPD2     H 4840   2.673   3.031  13.776  0.0293  1.2665  0.8975
  322MPD2    H1 4841   2.777   3.024  13.355  0.1804 -1.4545  0.4579
  322MPD2    H2 4842   2.682   3.385  13.542 -3.6876 -0.0399 -0.9458
  322MPD2    H3 4843   2.747   3.250  13.343 -0.7868  0.4892  0.3538
  322MPD2     N 4844   2.735   2.866  13.575  0.5012 -0.0472  0.4296
  322MPD2    H5 4845   2.721   2.811  13.659  4.9268 -1.4589  0.2401
  322MPD2    N1 4846   2.646   3.293  13.780 -0.2677  0.2216  0.5779
  322MPD2    H7 4847   2.649   3.393  13.766  0.4002  0.1800  0.4279
  323TMC3    C1 4848   2.654   3.340  14.021  0.0666 -0.4689 -0.1979
  323TMC3    C2 4849   2.769   3.410  14.002 -0.8075  0.2064 -0.1646
  323TMC3    C3 4850   2.853   3.414  14.105 -0.3587  0.3774 -0.1738
  323TMC3    C4 4851   2.621   3.282  14.137  0.0798 -0.6463  0.1970
  323TMC3    C5 4852   2.715   3.268  14.229  0.1257  0.7107 -0.0483
  323TMC3    C6 4853   2.837   3.333  14.219 -0.1849  0.0735  0.1883
  323TMC3     C 4854   2.621   3.242  13.911 -0.8282 -1.0972  0.2296
  323TMC3     O 4855   2.573   3.132  13.943  0.2829  0.0846 -0.6994
  323TMC3     H 4856   2.796   3.452  13.905 -2.2623  4.1924  1.1204
  323TMC3    H1 4857   2.528   3.228  14.138 -1.1928  1.5156 -2.0549
  323TMC3    H2 4858   2.916   3.326  14.293 -0.8318 -2.0008  0.6827
  323TMC3    C7 4859   2.709   3.131  14.281  0.3907 -0.0695 -0.4662
  323TMC3    C8 4860   2.988   3.480  14.088  0.4547  1.1253  0.0732
  323TMC3    O1 4861   2.626   3.056  14.232 -0.1851  0.0709  0.0503
  323TMC3    O2 4862   3.079   3.439  14.157  0.2399  0.0334  0.6247
  324MPD2     C 4863   4.701   4.248  14.716  0.1038  0.4367  0.1152
  324MPD2    C1 4864   4.654   4.363  14.653  0.5389  0.2447 -1.3075
  324MPD2    C2 4865   4.522   4.387  14.639  0.2387 -0.5111 -0.3925
  324MPD2    C3 4866   4.429   4.290  14.679 -0.0219  0.5898  0.4777
  324MPD2    C4 4867   4.476   4.175  14.730  0.7547 -1.2840 -0.6592
  324MPD2    C5 4868   4.609   4.156  14.761  0.3541  0.1237  0.4626
  324MPD2     H 4869   4.491   4.477  14.586  0.1640 -1.1164 -1.3893
  324MPD2    H1 4870   4.409   4.090  14.737  1.6285 -1.8374  0.9002
  324MPD2    H2 4871   0.081   4.223  14.746  0.1754  2.2756  1.3861
  324MPD2    H3 4872   4.638   4.061  14.805  1.7888  0.8665  1.0997
  324MPD2     N 4873   4.292   4.311  14.660 -0.3638  0.3982 -0.2873
  324MPD2    H5 4874   4.238   4.232  14.691 -0.1768 -0.2022 -1.4818
  324MPD2    N1 4875   0.022   4.456  14.597 -0.6461  0.2449  0.4900
  324MPD2    H7 4876   4.697   4.540  14.563  0.9542  1.5838  1.6271
  325TMC3    C1 4877   4.093   4.414  14.597 -0.6824 -0.4181 -0.3702
  325TMC3    C2 4878   4.056   4.294  14.539 -1.0717  0.4754  0.0743
  325TMC3    C3 4879   3.916   4.276  14.518 -0.2353 -0.1986 -0.2196
  325TMC3    C4 4880   4.014   4.508  14.647  0.5876  0.2207 -0.7967
  325TMC3    C5 4881   3.879   4.489  14.620  0.1802  0.2239 -0.5319
  325TMC3    C6 4882   3.823   4.374  14.558  0.2689  0.9380  0.3884
  325TMC3     C 4883   4.233   4.437  14.625 -0.3744 -0.0755  0.0859
  325TMC3     O 4884   4.269   4.552  14.605  0.5363 -0.2160  0.0733
  325TMC3     H 4885   4.129   4.217  14.517 -2.4598 -1.4066  2.0079
  325TMC3    H1 4886   4.055   4.596  14.696  0.9329 -0.0475 -0.6111
  325TMC3    H2 4887   3.717   4.366  14.535  1.1699  1.2246 -3.8223
  325TMC3    C7 4888   3.798   4.606  14.645 -0.3361  0.0734 -0.1846
  325TMC3    C8 4889   3.886   4.217  14.398  0.2249  0.3342  0.1368
  325TMC3    O1 4890   3.845   4.686  14.723  0.3776  0.4054  0.2699
  325TMC3    O2 4891   3.976   4.224  14.311 -0.4284 -1.0862 -0.8397
  326MPD2     C 4892   0.721   0.459  11.162  0.0391 -0.4566 -0.0137
  326MPD2    C1 4893   0.746   0.465  11.024  0.2146  0.0137 -0.0669
  326MPD2    C2 4894   0.857   0.538  10.974 -0.1594 -0.5762  0.3572
  326MPD2    C3 4895   0.947   0.607  11.058  1.3000 -0.0757 -0.1889
  326MPD2    C4 4896   0.916   0.598  11.194  0.7656 -0.8245 -0.2120
  326MPD2    C5 4897   0.809   0.531  11.249  0.0456  0.2892 -0.0624
  326MPD2     H 4898   0.880   0.530  10.869 -0.6967 -0.6708  0.2462
  326MPD2    H1 4899   0.991   0.649  11.254 -0.3307  1.7561 -1.0380
  326MPD2    H2 4900   0.637   0.400  11.199 -0.0522  0.8458  1.8620
  326MPD2    H3 4901   0.795   0.516  11.355 -1.4604 -1.4798 -0.5214
  326MPD2     N 4902   1.058   0.680  11.011  0.1626 -0.7295 -0.2304
  326MPD2    H5 4903   1.121   0.715  11.083  0.3368  2.1660 -1.8105
  326MPD2    N1 4904   0.663   0.401  10.935  0.3057  0.4758 -0.0925
  326MPD2    H7 4905   0.705   0.407  10.843  1.1487  1.0966  0.3312
  327TMC3    C1 4906   0.533   0.254  10.844  0.5822 -0.3756  0.6290
  327TMC3    C2 4907   0.437   0.308  10.762  0.4063  0.0377 -0.4457
  327TMC3    C3 4908   0.463   0.313  10.628  0.2144  0.1264 -0.6165
  327TMC3    C4 4909   0.650   0.213  10.789 -0.3766  0.5792 -0.1158
  327TMC3    C5 4910   0.675   0.236  10.659  0.1018  0.0255  0.3319
  327TMC3    C6 4911   0.583   0.285  10.570 -0.4556  0.4526  0.1791
  327TMC3     C 4912   0.554   0.319  10.961  0.7548  0.5024 -0.1133
  327TMC3     O 4913   0.476   0.312  11.054 -0.1616 -0.0693  0.2676
  327TMC3     H 4914   0.347   0.347  10.809 -0.1278  0.8683 -2.1425
  327TMC3    H1 4915   0.718   0.180  10.867  1.5771  1.2520 -1.5506
  327TMC3    H2 4916   0.613   0.323  10.473 -0.2101 -2.3791 -0.8573
  327TMC3    C7 4917   0.812   0.232  10.618  0.7993 -0.3082 -0.5565
  327TMC3    C8 4918   0.383   0.406  10.557  0.1509 -0.4986  1.0641
  327TMC3    O1 4919   0.829   0.257  10.499 -0.0804  0.4074 -0.0666
  327TMC3    O2 4920   0.309   0.471  10.626  0.4904 -0.3691 -0.0468
  328MPD2     C 4921   3.517   0.393  16.677  0.2081  0.2880  0.2105
  328MPD2    C1 4922   3.496   0.430  16.811 -0.4088 -0.4676 -0.4683
  328MPD2    C2 4923   3.504   0.568  16.835 -0.7072 -0.2260  0.9219
  328MPD2    C3 4924   3.535   0.656  16.734  0.1515 -0.5916  0.1277
  328MPD2    C4 4925   3.567   0.615  16.608 -0.4148  0.5800  0.7340
  328MPD2    C5 4926   3.563   0.480  16.580  0.1474 -0.7160 -0.5055
  328MPD2     H 4927   3.492   0.602  16.937  1.0556  2.2897  0.2987
  328MPD2    H1 4928   3.586   0.678  16.523 -1.3339 -1.4913 -0.9947
  328MPD2    H2 4929   3.501   0.287  16.658 -0.3213  0.3738  0.1658
  328MPD2    H3 4930   3.595   0.435  16.487 -1.5586  0.4169 -1.6315
  328MPD2     N 4931   3.513   0.796  16.746 -0.2595 -0.4221  0.3053
  328MPD2    H5 4932   3.530   0.855  16.665  2.8005  1.5108  2.3671
  328MPD2    N1 4933   3.452   0.334  16.909  0.0510 -0.2490 -0.3637
  328MPD2    H7 4934   3.405   0.252  16.871 -2.2804  0.8461  0.1681
  329TMC3    C1 4935   3.277   0.288  17.067  0.8670 -0.7605  0.3860
  329TMC3    C2 4936   3.271   0.264  17.208  0.4613  0.1175 -0.1073
  329TMC3    C3 4937   3.155   0.293  17.273  0.1840  0.2922 -0.2547
  329TMC3    C4 4938   3.170   0.351  17.007 -0.3041  0.0554  0.2465
  329TMC3    C5 4939   3.054   0.368  17.075 -0.2547  0.2331 -0.0243
  329TMC3    C6 4940   3.051   0.347  17.212  0.1197 -0.2002 -0.4607
  329TMC3     C 4941   3.403   0.365  17.034 -0.3122 -0.3629  0.2117
  329TMC3     O 4942   3.422   0.455  17.109 -0.2079 -0.2282  0.2849
  329TMC3     H 4943   3.359   0.239  17.266  1.8647 -0.7339 -2.6520
  329TMC3    H1 4944   3.176   0.379  16.903 -0.8410 -0.2089  0.1458
  329TMC3    H2 4945   2.954   0.336  17.258  0.1536  0.2811 -0.2759
  329TMC3    C7 4946   2.950   0.442  17.014 -0.0052  0.5961  0.4243
  329TMC3    C8 4947   3.155   0.286  17.416 -0.2577  0.0765 -0.0303
  329TMC3    O1 4948   2.934   0.435  16.893 -0.1537  0.1533 -0.3705
  329TMC3    O2 4949   3.223   0.199  17.468  0.0654  0.3978 -0.4693
  330TMC3    C1 4950   1.189   4.286  10.204 -0.1775  0.4907  0.4654
  330TMC3    C2 4951   1.209   4.194  10.105 -0.2856 -0.1342 -0.6482
  330TMC3    C3 4952   1.149   4.071  10.123  0.5776 -0.6452 -0.2646
  330TMC3    C4 4953   1.114   4.263  10.316 -0.0967 -0.6172  0.1130
  330TMC3    C5 4954   1.064   4.136  10.340  0.5483  0.7619  0.2550
  330TMC3    C6 4955   1.078   4.045  10.235 -0.5754  0.4479 -0.2870
  330TMC3     C 4956   1.227   4.422  10.171 -0.3887  0.0735  0.0230
  330TMC3     O 4957   1.256   4.496  10.266 -0.0409  0.5078  0.1719
  330TMC3     H 4958   1.274   4.224  10.023  0.0304 -0.9706 -0.7058
  330TMC3    H1 4959   1.117   4.321  10.407  0.2489 -0.7427  0.1828
  330TMC3    H2 4960   1.034   3.946  10.242 -1.4206  0.8282 -0.2268
  330TMC3    C7 4961   0.954   4.134  10.430 -0.5454 -0.3127 -0.2067
  330TMC3    C8 4962   1.158   3.982  10.006  0.1612  0.0035  0.4040
  330TMC3    O1 4963   0.916   4.240  10.481 -0.0399 -0.4215 -0.2968
  330TMC3    O2 4964   1.238   4.026   9.924  0.3843  0.0600 -0.0010
  331MPD2     C 4965   3.750   4.208  12.524  0.1801  0.0766  0.3282
  331MPD2    C1 4966   3.836   4.225  12.412 -0.0808  0.2040 -0.7749
  331MPD2    C2 4967   3.905   4.116  12.362 -0.0298 -0.0974 -0.0499
  331MPD2    C3 4968   3.899   3.995  12.425  0.6842  1.0803 -0.0274
  331MPD2    C4 4969   3.821   3.982  12.541  0.2637  0.2186  0.1948
  331MPD2    C5 4970   3.746   4.088  12.590 -0.1500 -0.3404  0.3728
  331MPD2     H 4971   3.961   4.134  12.271 -1.6672  3.0084 -0.4631
  331MPD2    H1 4972   3.805   3.888  12.594  1.5534  0.8740  1.7492
  331MPD2    H2 4973   3.670   4.275  12.553  2.6176  3.6423 -1.2400
  331MPD2    H3 4974   3.681   4.065  12.673  0.9023  0.3195  1.3887
  331MPD2     N 4975   3.967   3.882  12.366  0.3289  0.4645  0.6751
  331MPD2    H5 4976   4.024   3.911  12.287 -2.9714  1.8398 -1.1746
  331MPD2    N1 4977   3.848   4.353  12.350 -0.2917  0.1408 -0.8857
  331MPD2    H7 4978   3.886   4.346  12.256  1.4642  3.1544 -0.3891
  332TMC3    C1 4979   4.069   3.679  12.338 -0.6146 -0.1836  0.0750
  332TMC3    C2 4980   4.070   3.701  12.201  0.6102  0.3916  0.1212
  332TMC3    C3 4981   4.150   3.622  12.131  0.4346  0.9170 -0.3157
  332TMC3    C4 4982   4.135   3.579  12.398  0.2545 -1.2572 -0.2825
  332TMC3    C5 4983   4.220   3.505  12.318 -0.1365  0.0898 -0.1968
  332TMC3    C6 4984   4.230   3.526  12.186  0.8780  0.3717  0.7756
  332TMC3     C 4985   3.977   3.756  12.418  0.5311 -0.2534  0.1144
  332TMC3     O 4986   3.950   3.716  12.530 -0.5366  0.2202  0.7667
  332TMC3     H 4987   4.007   3.777  12.156 -1.3146 -0.5092  1.2715
  332TMC3    H1 4988   4.144   3.576  12.506 -1.8811  0.2310 -0.0727
  332TMC3    H2 4989   4.296   3.469  12.122  1.4408  1.9947 -0.1108
  332TMC3    C7 4990   4.335   3.448  12.387 -0.1196  0.3174  0.5026
  332TMC3    C8 4991   4.206   3.679  12.013 -0.3072 -0.6536  0.6015
  332TMC3    O1 4992   4.313   3.415  12.504 -0.2372 -0.8715 -0.4699
  332TMC3    O2 4993   4.328   3.654  11.999 -0.3650  0.4034 -0.3649
  333MPD2     C 4994   4.273   3.634  11.420 -0.1940 -0.5435 -0.1479
  333MPD2    C1 4995   4.275   3.546  11.315 -0.0040  0.2303  0.2605
  333MPD2    C2 4996   4.215   3.423  11.324  0.0860 -0.3612 -0.3664
  333MPD2    C3 4997   4.168   3.374  11.444  0.0136  0.5086 -0.3778
  333MPD2    C4 4998   4.167   3.463  11.551  0.6816 -0.7366 -1.2124
  333MPD2    C5 4999   4.210   3.594  11.536  0.1444  0.5028 -0.2272
  333MPD2     H 5000   4.219   3.347  11.247 -1.5095 -3.1153  2.2982
  333MPD2    H1 5001   4.143   3.430  11.652  1.5684 -2.7085 -1.6527
  333MPD2    H2 5002   4.320   3.732  11.421  0.4334 -0.8511  2.7938
  333MPD2    H3 5003   4.204   3.665  11.618 -2.5559  0.0204  0.0122
  333MPD2     N 5004   4.143   3.243  11.453 -0.4454  0.0316 -0.2703
  333MPD2    H5 5005   4.157   3.178  11.376 -0.5111  2.2677 -2.1749
  333MPD2    N1 5006   4.348   3.596  11.200 -0.1513  0.7202 -0.1061
  333MPD2    H7 5007   4.387   3.689  11.203  0.7866  0.3253  0.0897
  334TMC3    C1 5008   4.477   3.581  11.007  0.0079 -1.1676 -0.2171
  334TMC3    C2 5009   4.577   3.502  10.953 -0.1468 -0.4903 -0.1900
  334TMC3    C3 5010   4.681   3.573  10.888  0.7518 -1.0340 -0.4581
  334TMC3    C4 5011   4.460   3.713  10.985  0.5427 -0.4649 -0.0578
  334TMC3    C5 5012   4.546   3.766  10.891 -0.4463  0.0112  0.0283
  334TMC3    C6 5013   4.663   3.701  10.848 -0.8066  0.0491 -0.1011
  334TMC3     C 5014   4.393   3.510  11.103  0.2344  0.0916  0.0735
  334TMC3     O 5015   4.384   3.389  11.096 -0.3633 -0.4145 -0.0516
  334TMC3     H 5016   4.598   3.408  11.003  0.7984  0.5233  1.3056
  334TMC3    H1 5017   4.366   3.756  11.017  1.0381  0.6678 -0.1055
  334TMC3    H2 5018   0.012   3.742  10.776  1.4404 -1.5572  1.1406
  334TMC3    C7 5019   4.546   3.912  10.862 -0.1580  0.3026 -0.0826
  334TMC3    C8 5020   0.097   3.529  10.930  0.3098  0.6914 -0.3537
  334TMC3    O1 5021   4.654   3.963  10.835 -0.2076 -0.7377 -0.4097
  334TMC3    O2 5022   0.099   3.412  10.969  0.1456  0.2178  0.4527
  335TMC3    C1 5023   4.006   1.085  17.489  0.5525 -0.7886  0.4644
  335TMC3    C2 5024   3.963   0.963  17.436 -0.0049 -0.2404  0.1146
  335TMC3    C3 5025   4.056   0.876  17.384 -0.9536 -0.6416 -0.8981
  335TMC3    C4 5026   4.138   1.126  17.480  0.0518  0.3331  0.1885
  335TMC3    C5 5027   4.226   1.044  17.412  0.5921 -0.3927  0.1613
  335TMC3    C6 5028   4.182   0.918  17.376 -0.0565  0.5996  0.0021
  335TMC3     C 5029   3.905   1.165  17.554  0.6331  0.1654 -0.0509
  335TMC3     O 5030   3.787   1.122  17.554  0.1430 -0.2210 -0.1069
  335TMC3     H 5031   3.857   0.939  17.440  0.4563 -2.3962 -0.6405
  335TMC3    H1 5032   4.168   1.212  17.539  0.0649 -0.0960  0.8104
  335TMC3    H2 5033   4.253   0.852  17.326 -1.3135 -1.3890  0.8452
  335TMC3    C7 5034   4.359   1.075  17.365 -0.0596  0.6827 -0.4464
  335TMC3    C8 5035   4.006   0.806  17.270  0.1996  0.5826 -0.8897
  335TMC3    O1 5036   4.436   0.993  17.318 -0.1347  0.2250  0.6117
  335TMC3    O2 5037   4.053   0.838  17.164 -0.1334 -0.1288  0.2594
  336MPD2     C 5038   3.351   3.454  16.247 -0.2429  0.3270  0.0136
  336MPD2    C1 5039   3.375   3.350  16.171 -0.2310 -0.3657 -0.1488
  336MPD2    C2 5040   3.471   3.255  16.208 -0.4341 -0.0756 -0.1984
  336MPD2    C3 5041   3.543   3.268  16.325 -0.9830  0.2853  0.6790
  336MPD2    C4 5042   3.506   3.373  16.409 -0.5323 -0.3096 -0.4204
  336MPD2    C5 5043   3.410   3.467  16.375 -0.3347 -0.1928 -0.2336
  336MPD2     H 5044   3.509   3.183  16.136  1.1512 -0.5743  1.1493
  336MPD2    H1 5045   3.537   3.387  16.512 -1.9243 -0.2873 -0.0085
  336MPD2    H2 5046   3.285   3.535  16.219 -0.2487  0.9699  1.8318
  336MPD2    H3 5047   3.380   3.542  16.447  1.3808 -0.6839  1.0068
  336MPD2     N 5048   3.644   3.175  16.366  0.5382 -0.1876 -0.0024
  336MPD2    H5 5049   3.698   3.198  16.449 -1.1572 -3.0341  1.9185
  336MPD2    N1 5050   3.330   3.329  16.042 -0.4231  0.0931  0.4012
  336MPD2    H7 5051   3.345   3.243  15.991  1.7460  1.7484 -1.7167
  337TMC3    C1 5052   3.240   3.365  15.823  0.1457 -0.3252  0.2630
  337TMC3    C2 5053   3.125   3.393  15.753  0.5960 -0.7059 -0.6731
  337TMC3    C3 5054   3.132   3.369  15.619  0.6682 -0.5895 -0.0910
  337TMC3    C4 5055   3.358   3.332  15.766  0.3649 -0.2899 -0.2490
  337TMC3    C5 5056   3.360   3.335  15.629  0.5309 -0.3811  0.9020
  337TMC3    C6 5057   3.251   3.348  15.559  0.3357 -0.1443 -0.1802
  337TMC3     C 5058   3.241   3.403  15.968  0.3293 -0.1386  0.9553
  337TMC3     O 5059   3.174   3.496  16.005  0.4428  0.2377 -0.3124
  337TMC3     H 5060   3.035   3.405  15.811  0.5866 -0.3239 -0.7682
  337TMC3    H1 5061   3.451   3.324  15.822  0.3384  0.6070 -0.0747
  337TMC3    H2 5062   3.262   3.345  15.451  0.7077 -1.8002 -0.0978
  337TMC3    C7 5063   3.491   3.347  15.557 -0.5999 -0.3699 -0.1364
  337TMC3    C8 5064   3.011   3.402  15.553 -0.6400  0.4269  0.7487
  337TMC3    O1 5065   3.492   3.304  15.448 -0.2458  0.0921  0.1310
  337TMC3    O2 5066   2.938   3.466  15.623  0.2077  0.3329 -0.0185
  338MPD2     C 5067   3.955   2.215   0.891 -0.2895  0.5214 -0.7903
  338MPD2    C1 5068   3.920   2.298   0.782 -0.2198  0.0313 -0.2800
  338MPD2    C2 5069   3.789   2.309   0.749  0.6132  0.5993 -0.3146
  338MPD2    C3 5070   3.687   2.241   0.814 -0.4197 -0.2209  0.2289
  338MPD2    C4 5071   3.720   2.142   0.904  0.3510 -0.8116  0.8805
  338MPD2    C5 5072   3.854   2.143   0.945  0.2753  0.1862 -0.1932
  338MPD2     H 5073   3.761   2.376   0.669  0.6700 -0.2337 -1.0353
  338MPD2    H1 5074   3.646   2.096   0.968 -0.8874  1.5401  1.1470
  338MPD2    H2 5075   4.055   2.199   0.929 -0.5141  0.9352 -0.0230
  338MPD2    H3 5076   3.884   2.076   1.024 -1.0973 -0.8654 -0.5691
  338MPD2     N 5077   3.555   2.268   0.775 -0.0054 -0.4260  0.7411
  338MPD2    H5 5078   3.531   2.346   0.715  0.2740 -0.7813  0.1676
  338MPD2    N1 5079   4.006   2.391   0.723 -0.4660 -0.0360  0.7117
  338MPD2    H7 5080   3.963   2.461   0.664 -0.0904  0.1283  0.6311
  339TMC3    C1 5081   3.323   2.249   0.778 -0.3543  0.4150 -0.1017
  339TMC3    C2 5082   3.222   2.254   0.866 -0.2731 -0.3359 -0.0116
  339TMC3    C3 5083   3.127   2.344   0.847 -0.5059  0.5803  0.1765
  339TMC3    C4 5084   3.328   2.330   0.668  0.0208  0.3617 -0.0030
  339TMC3    C5 5085   3.240   2.427   0.655 -0.1990  0.0776  0.5748
  339TMC3    C6 5086   3.134   2.437   0.744  0.1975  0.3154 -0.4797
  339TMC3     C 5087   3.447   2.203   0.836  0.1711  0.2660  0.2910
  339TMC3     O 5088   3.431   2.098   0.896 -0.2802  0.2217 -0.1042
  339TMC3     H 5089   3.229   2.175   0.941 -3.9699 -0.7302 -0.0774
  339TMC3    H1 5090   3.399   2.317   0.587  0.6228 -0.4734  0.6625
  339TMC3    H2 5091   3.070   2.523   0.730 -2.4034 -1.4541  0.6250
  339TMC3    C7 5092   3.289   2.544   0.586  0.3393 -0.5237 -0.3509
  339TMC3    C8 5093   3.006   2.354   0.936 -0.0649 -0.5265  0.3520
  339TMC3    O1 5094   3.412   2.528   0.582 -0.0847 -0.0243 -0.0260
  339TMC3    O2 5095   2.930   2.448   0.918  0.5062 -0.2347  0.4977
  340MPD2     C 5096   3.688   0.495   9.776 -0.4529 -0.5162 -0.4132
  340MPD2    C1 5097   3.748   0.397   9.844 -0.6078  0.0513 -0.1208
  340MPD2    C2 5098   3.740   0.392   9.982  0.1010  0.5069  0.0994
  340MPD2    C3 5099   3.678   0.491  10.053 -0.3849 -0.0638 -0.2063
  340MPD2    C4 5100   3.625   0.593   9.981 -0.3801 -0.0224  0.7469
  340MPD2    C5 5101   3.621   0.595   9.847 -0.2520  0.7434  0.1455
  340MPD2     H 5102   3.782   0.308  10.037 -0.2076  0.6694  0.5825
  340MPD2    H1 5103   3.574   0.669  10.040 -2.5778 -0.1896 -0.9158
  340MPD2    H2 5104   3.685   0.509   9.668  0.1586  1.7666 -0.1270
  340MPD2    H3 5105   3.560   0.674   9.804 -0.5470  1.0495  1.1385
  340MPD2     N 5106   3.670   0.498  10.192  0.0712  0.4551 -0.2985
  340MPD2    H5 5107   3.643   0.584  10.238 -0.2770  0.8901 -1.3204
  340MPD2    N1 5108   3.839   0.311   9.772 -0.5882 -0.5264 -0.3288
  340MPD2    H7 5109   3.862   0.334   9.676 -2.1586 -0.8004 -0.7723
  341TMC3    C1 5110   3.965   0.114   9.722 -0.2203 -0.3079 -0.1877
  341TMC3    C2 5111   3.938   4.698   9.720 -0.2251  0.2485 -0.7545
  341TMC3    C3 5112   3.973   4.628   9.612  0.6560  0.2404  0.9878
  341TMC3    C4 5113   4.006   0.182   9.610  0.0524 -0.3528 -0.3060
  341TMC3    C5 5114   4.043   0.107   9.502  1.5224 -0.1045 -0.0146
  341TMC3    C6 5115   4.019   4.692   9.501  0.9734 -0.6360  0.4339
  341TMC3     C 5116   3.893   0.190   9.819  0.0581 -0.5975  0.5444
  341TMC3     O 5117   3.868   0.129   9.924 -0.0595  0.3726  0.0443
  341TMC3     H 5118   3.885   4.647   9.800 -0.4200  1.3977 -0.1535
  341TMC3    H1 5119   4.027   0.289   9.612 -1.9536 -0.0175  3.2439
  341TMC3    H2 5120   4.044   4.647   9.405  0.4071  0.2356 -0.1202
  341TMC3    C7 5121   4.128   0.160   9.395 -0.2361 -0.2782  0.8072
  341TMC3    C8 5122   3.949   4.487   9.615  0.0503 -0.3200 -0.6888
  341TMC3    O1 5123   4.174   0.073   9.325 -0.2647  0.0504 -0.2908
  341TMC3    O2 5124   3.880   4.440   9.701  0.2825  0.4073 -0.0168
  342MPD2     C 5125   2.262   4.239   0.385 -0.3221  0.1205  0.7003
  342MPD2    C1 5126   2.313   4.180   0.277  0.5530 -0.1338 -0.5046
  342MPD2    C2 5127   2.331   4.253   0.164 -0.7394  0.9171 -0.7007
  342MPD2    C3 5128   2.315   4.390   0.164 -0.1538 -0.1323  1.1812
  342MPD2    C4 5129   2.265   4.443   0.283  0.5715 -0.3833 -0.1970
  342MPD2    C5 5130   2.231   4.372   0.393  0.7037 -0.2571  0.3219
  342MPD2     H 5131   2.358   4.199   0.074 -2.1563 -0.1844 -0.4578
  342MPD2    H1 5132   2.241   4.549   0.288 -1.2916 -0.8042 -0.3995
  342MPD2    H2 5133   2.235   4.177   0.470  3.1390 -0.1110  1.6406
  342MPD2    H3 5134   2.186   4.412   0.483  0.1342 -1.7258  0.6862
  342MPD2     N 5135   2.334   4.473   0.052 -0.0814  0.1346 -0.2163
  342MPD2    H5 5136   2.284   4.562   0.052 -1.7710 -0.8178 -0.2195
  342MPD2    N1 5137   2.354   4.043   0.279  0.8669 -0.2052  0.4650
  342MPD2    H7 5138   2.408   4.006   0.202  2.3128 -0.2443  1.4833
  343TMC3    C1 5139   2.394   3.831   0.342  0.6262 -0.4430  0.6231
  343TMC3    C2 5140   2.515   3.846   0.282 -0.2849 -0.4513 -0.2211
  343TMC3    C3 5141   2.545   3.759   0.182 -0.1896 -0.0847  0.8283
  343TMC3    C4 5142   2.306   3.735   0.296  0.4963  0.3651 -0.4295
  343TMC3    C5 5143   2.344   3.654   0.198  0.1150  0.2856 -0.7957
  343TMC3    C6 5144   2.461   3.659   0.133 -0.1735 -0.2738 -1.0247
  343TMC3     C 5145   2.327   3.956   0.377 -0.0915 -0.5515  0.0698
  343TMC3     O 5146   2.217   3.950   0.439  0.0567  0.0179  0.5281
  343TMC3     H 5147   2.580   3.927   0.311 -1.2477 -0.1983  1.1974
  343TMC3    H1 5148   2.216   3.714   0.353  1.3649  1.5666  1.3795
  343TMC3    H2 5149   2.483   3.568   0.077  1.4001 -1.0690  0.8952
  343TMC3    C7 5150   2.249   3.552   0.164 -0.3850  0.3712 -0.0736
  343TMC3    C8 5151   2.681   3.773   0.138  0.0637 -0.2860  0.4950
  343TMC3    O1 5152   2.233   3.514   0.048  0.1182 -0.2484  0.0676
  343TMC3    O2 5153   2.748   3.868   0.175  0.4104 -0.3676  0.0314
  344MPD2     C 5154   2.998   2.511  10.237 -0.0009  0.6388 -0.4358
  344MPD2    C1 5155   3.132   2.513  10.227 -0.0165  0.5729  0.1098
  344MPD2    C2 5156   3.201   2.629  10.189  0.2808 -0.5634  0.6088
  344MPD2    C3 5157   3.124   2.742  10.164 -0.4156  0.3617 -0.4380
  344MPD2    C4 5158   2.989   2.733  10.175  0.0225 -0.2361  0.3932
  344MPD2    C5 5159   2.921   2.620  10.204 -0.4305  0.9353  0.3577
  344MPD2     H 5160   3.309   2.632  10.183  0.0824  1.6753 -1.7010
  344MPD2    H1 5161   2.938   2.825  10.147  0.8054  0.0689 -0.0257
  344MPD2    H2 5162   2.942   2.420  10.256  0.7598  0.4472  0.8394
  344MPD2    H3 5163   2.813   2.616  10.213 -0.5522 -0.3795 -1.5939
  344MPD2     N 5164   3.178   2.870  10.126  0.2417 -0.3212  0.4564
  344MPD2    H5 5165   3.113   2.948  10.117  1.2192  0.4207 -0.1589
  344MPD2    N1 5166   3.205   2.399  10.264 -0.7513 -0.1791  0.2395
  344MPD2    H7 5167   3.307   2.406  10.266 -0.6245 -2.1661  0.1271
  345TMC3    C1 5168   3.330   3.029  10.043 -0.1750  0.5825 -0.7338
  345TMC3    C2 5169   3.463   3.059  10.035 -0.5138 -0.1299 -0.0405
  345TMC3    C3 5170   3.502   3.143   9.933  0.0435  0.4506  0.3729
  345TMC3    C4 5171   3.237   3.080   9.953 -0.8870 -0.1160 -0.0692
  345TMC3    C5 5172   3.280   3.172   9.859  0.0755 -0.4778 -0.2004
  345TMC3    C6 5173   3.418   3.204   9.842  0.6058 -0.0208 -0.2861
  345TMC3     C 5174   3.308   2.906  10.118  0.3042  1.0467 -0.3971
  345TMC3     O 5175   3.404   2.839  10.158  0.1663 -0.5839  0.0854
  345TMC3     H 5176   3.531   3.028  10.114 -2.1543 -1.7708  0.7115
  345TMC3    H1 5177   3.131   3.058   9.960 -1.0566  2.6820  5.7330
  345TMC3    H2 5178   3.456   3.270   9.764 -0.8386  0.9370 -0.1934
  345TMC3    C7 5179   3.184   3.272   9.803  0.0256  0.5436 -0.2705
  345TMC3    C8 5180   3.630   3.208   9.955 -0.0111  0.1642 -0.1353
  345TMC3    O1 5181   3.224   3.382   9.766 -0.1544 -0.6143 -0.1450
  345TMC3    O2 5182   3.677   3.207  10.069  0.2103 -0.0316  0.3865
  346MPD2     C 5183   3.120   4.365  13.473 -0.0802 -0.8593 -0.8065
  346MPD2    C1 5184   3.166   4.493  13.496  0.1041 -0.0676 -0.7603
  346MPD2    C2 5185   3.169   4.539  13.630  0.0374  0.0614  0.1445
  346MPD2    C3 5186   3.097   4.480  13.733 -0.6775 -0.3466 -0.0558
  346MPD2    C4 5187   3.050   4.351  13.709 -0.0677 -0.3907  0.8882
  346MPD2    C5 5188   3.061   4.300  13.583 -0.5872 -0.5579 -0.2950
  346MPD2     H 5189   3.210   4.639  13.643 -0.0935 -0.1349  2.1317
  346MPD2    H1 5190   3.012   4.301  13.797 -0.7435  1.9631  1.9459
  346MPD2    H2 5191   3.120   4.314  13.377  0.9865  0.0296 -1.2777
  346MPD2    H3 5192   3.017   4.202  13.568 -0.4489 -0.5856 -0.5110
  346MPD2     N 5193   3.085   4.548  13.855  0.3452  0.2488 -0.1616
  346MPD2    H5 5194   3.157   4.619  13.867 -0.8984  1.6434 -0.9845
  346MPD2    N1 5195   3.229   4.573  13.390  0.3466 -0.1230  0.7828
  346MPD2    H7 5196   3.269   4.664  13.412 -1.7662  1.1404 -0.5999
  347TMC3    C1 5197   2.991   4.628  14.048 -0.1440 -0.4051 -0.2290
  347TMC3    C2 5198   3.113   4.646  14.104 -0.2438  0.9696 -0.0508
  347TMC3    C3 5199   3.133   0.012  14.210 -0.0618 -1.1353  0.6688
  347TMC3    C4 5200   2.885   4.709  14.085 -0.1528  0.5500  0.0724
  347TMC3    C5 5201   2.907   0.079  14.181 -0.6126 -0.1262 -0.0808
  347TMC3    C6 5202   3.024   0.096  14.248  0.9010  0.3546  0.3231
  347TMC3     C 5203   2.987   4.535  13.943 -0.1603 -0.4078 -0.7677
  347TMC3     O 5204   2.888   4.466  13.943 -0.3190 -1.0999 -0.3365
  347TMC3     H 5205   3.193   4.574  14.090  0.6504  1.7731  0.9273
  347TMC3    H1 5206   2.789   4.703  14.036  0.7902 -0.8085 -1.6162
  347TMC3    H2 5207   3.034   0.155  14.338  1.1121  0.7360  0.0539
  347TMC3    C7 5208   2.813   0.192  14.190 -0.8979  0.2739 -0.4357
  347TMC3    C8 5209   3.243   4.706  14.297  0.3062  0.7609 -0.4640
  347TMC3    O1 5210   2.695   0.167  14.162 -0.1113  0.0958 -0.6077
  347TMC3    O2 5211   3.289   4.597  14.286  0.0795 -0.5049  0.7719
  348MPD2     C 5212   1.822   4.169  12.504  0.5333  0.3800 -0.0561
  348MPD2    C1 5213   1.801   4.126  12.374  0.0029  0.1212  0.2423
  348MPD2    C2 5214   1.787   4.208  12.267  0.4498 -0.4318 -0.4115
  348MPD2    C3 5215   1.799   4.342  12.284  0.1856 -0.3658  0.5365
  348MPD2    C4 5216   1.818   4.386  12.409  0.1587 -0.3349 -0.4302
  348MPD2    C5 5217   1.829   4.305  12.517  1.0169  0.0630 -0.0495
  348MPD2     H 5218   1.777   4.153  12.174 -2.4952  0.0905 -0.4165
  348MPD2    H1 5219   1.824   4.494  12.420  0.4896 -0.5019  1.0030
  348MPD2    H2 5220   1.825   4.101  12.588 -1.4663  1.2779  0.7270
  348MPD2    H3 5221   1.833   4.355  12.613 -1.0026  0.9398 -0.4186
  348MPD2     N 5222   1.795   4.439  12.179 -0.8574  0.1757 -0.0506
  348MPD2    H5 5223   1.809   4.538  12.198  1.6517 -0.0608 -0.7169
  348MPD2    N1 5224   1.776   3.987  12.345  0.5043 -0.3359 -0.1762
  348MPD2    H7 5225   1.775   3.963  12.247  3.4312 -1.2012 -0.0026
  349TMC3    C1 5226   1.790   3.769  12.345  0.4128 -0.8651 -1.1773
  349TMC3    C2 5227   1.853   3.658  12.386  0.1970  0.8442  0.0037
  349TMC3    C3 5228   1.916   3.576  12.295 -0.4142  0.8648 -0.1480
  349TMC3    C4 5229   1.761   3.785  12.215  0.1242  0.0025  0.0849
  349TMC3    C5 5230   1.831   3.710  12.121  0.0479  0.2836  1.1736
  349TMC3    C6 5231   1.916   3.614  12.166 -0.4073  0.3205  0.6858
  349TMC3     C 5232   1.792   3.881  12.431 -0.6958 -0.0416  0.0217
  349TMC3     O 5233   1.814   3.862  12.549  0.4036 -0.1133  0.4683
  349TMC3     H 5234   1.864   3.628  12.490  2.1891  0.5703 -0.2777
  349TMC3    H1 5235   1.677   3.847  12.187  0.1093 -0.6331 -1.2972
  349TMC3    H2 5236   1.981   3.563  12.096 -1.1174  2.5940 -1.6440
  349TMC3    C7 5237   1.865   3.793  12.009  0.3000  0.4834 -0.5101
  349TMC3    C8 5238   1.944   3.442  12.329  0.5309  0.7198 -0.0965
  349TMC3    O1 5239   1.787   3.781  11.919  0.2975  0.2721  0.2558
  349TMC3    O2 5240   1.884   3.405  12.428  0.6089 -0.3528 -0.0116
  350MPD2     C 5241   1.312   2.563   9.201  0.1453  0.4629 -0.7703
  350MPD2    C1 5242   1.234   2.592   9.311  0.0777  0.0446  0.3298
  350MPD2    C2 5243   1.282   2.547   9.437  0.0445 -0.5271 -0.4367
  350MPD2    C3 5244   1.399   2.485   9.457 -0.1510 -0.2896  0.1184
  350MPD2    C4 5245   1.478   2.465   9.350 -0.2479 -0.0401  0.3008
  350MPD2    C5 5246   1.431   2.496   9.223 -0.1516  0.2057  0.0914
  350MPD2     H 5247   1.215   2.575   9.517 -0.9584 -0.3592 -1.3298
  350MPD2    H1 5248   1.569   2.407   9.365  1.2088  2.3629  0.7011
  350MPD2    H2 5249   1.285   2.577   9.097 -0.3118  0.7439 -0.6114
  350MPD2    H3 5250   1.495   2.470   9.140 -1.8599  3.5030 -2.2877
  350MPD2     N 5251   1.420   2.440   9.590  0.4786  1.1128 -0.3736
  350MPD2    H5 5252   1.351   2.474   9.657 -1.6935 -3.0399 -0.5031
  350MPD2    N1 5253   1.110   2.660   9.306  0.1492  0.1616  0.0708
  350MPD2    H7 5254   1.063   2.681   9.393  0.6061  2.1182 -0.1484
  351TMC3    C1 5255   0.900   2.730   9.223  0.2921 -0.0212  0.1885
  351TMC3    C2 5256   0.796   2.663   9.178 -0.2538 -0.9086 -0.4534
  351TMC3    C3 5257   0.673   2.687   9.239  0.1813 -0.7140 -0.2270
  351TMC3    C4 5258   0.898   2.820   9.331 -0.5477  0.0876  0.7152
  351TMC3    C5 5259   0.781   2.837   9.396  0.5061 -0.2031 -0.1261
  351TMC3    C6 5260   0.669   2.767   9.352 -0.0228 -0.3548 -1.3028
  351TMC3     C 5261   1.029   2.664   9.196 -0.4495  0.1704  0.1645
  351TMC3     O 5262   1.047   2.621   9.082 -0.7553 -0.3525 -0.4632
  351TMC3     H 5263   0.814   2.589   9.101  0.5878 -0.9257 -0.2306
  351TMC3    H1 5264   0.984   2.883   9.350 -0.0058 -0.9100  1.5558
  351TMC3    H2 5265   0.579   2.788   9.408  1.5652  0.3952  0.9749
  351TMC3    C7 5266   0.766   2.903   9.526  0.0915 -0.1514 -0.1281
  351TMC3    C8 5267   0.597   2.572   9.269 -0.0290 -0.0415  1.5006
  351TMC3    O1 5268   0.654   2.932   9.555  0.3041 -0.0098  0.0603
  351TMC3    O2 5269   0.575   2.539   9.384  0.2955  0.2740  0.0550
  352MPD2     C 5270   4.068   0.742   0.901 -0.1495 -0.0771 -0.2635
  352MPD2    C1 5271   3.963   0.687   0.973  0.1446 -0.0201 -0.1167
  352MPD2    C2 5272   3.995   0.587   1.063 -0.7358  0.7583 -0.3714
  352MPD2    C3 5273   4.126   0.549   1.083 -0.2559  0.3500 -0.3537
  352MPD2    C4 5274   4.228   0.600   1.013  0.5904 -0.8503  0.1944
  352MPD2    C5 5275   4.203   0.695   0.916  0.1282 -0.0569  0.0691
  352MPD2     H 5276   3.910   0.531   1.101 -1.2694 -0.2042 -2.9827
  352MPD2    H1 5277   4.330   0.569   1.027  1.1918  0.9310 -0.2027
  352MPD2    H2 5278   4.047   0.832   0.844 -0.3528 -0.3423 -0.6150
  352MPD2    H3 5279   4.282   0.728   0.850 -0.4652  2.5824  0.7099
  352MPD2     N 5280   4.151   0.440   1.167  0.3523 -0.2022  0.1441
  352MPD2    H5 5281   4.250   0.420   1.169  0.1408 -1.4464 -2.0640
  352MPD2    N1 5282   3.828   0.728   0.945 -0.1609 -0.6606  0.2268
  352MPD2    H7 5283   3.825   0.789   0.864  0.6591 -2.3101 -1.0468
  353TMC3    C1 5284   4.124   0.276   1.331 -0.2583 -0.2255  0.7960
  353TMC3    C2 5285   4.241   0.213   1.299  0.3188 -0.2427  0.0234
  353TMC3    C3 5286   4.287   0.106   1.365 -0.2979  0.5779 -0.8075
  353TMC3    C4 5287   4.044   0.221   1.431  1.1446 -0.8259  0.1178
  353TMC3    C5 5288   4.099   0.122   1.508 -0.3849  0.3590  0.3544
  353TMC3    C6 5289   4.218   0.058   1.474 -0.5990  0.9298  0.6153
  353TMC3     C 5290   4.064   0.388   1.262  0.1063 -0.2062  0.2963
  353TMC3     O 5291   3.950   0.418   1.294 -0.0185 -0.5325  0.2047
  353TMC3     H 5292   4.288   0.241   1.206 -0.9004  0.0269 -0.5074
  353TMC3    H1 5293   3.947   0.256   1.464 -0.2253 -2.7490 -1.8590
  353TMC3    H2 5294   4.257   4.700   1.537 -1.7620 -0.7713 -0.7915
  353TMC3    C7 5295   4.004   0.036   1.576  0.8112 -0.8499  0.6947
  353TMC3    C8 5296   4.393   0.023   1.311 -0.6016 -0.1546 -0.1688
  353TMC3    O1 5297   3.887   0.050   1.541  0.2216  0.4076 -0.0960
  353TMC3    O2 5298   4.468   0.079   1.232  0.2008 -0.1720 -0.7348
  354TMC3    C1 5299   1.205   0.874  13.111  0.3764  0.5017  0.4277
  354TMC3    C2 5300   1.210   1.006  13.090  0.2760  0.2400  0.2393
  354TMC3    C3 5301   1.226   1.041  12.962 -0.2839 -0.0302  0.1825
  354TMC3    C4 5302   1.208   0.778  13.010  0.5861  0.2087  0.2589
  354TMC3    C5 5303   1.221   0.816  12.882  0.0955  0.1517 -0.7742
  354TMC3    C6 5304   1.229   0.952  12.858  0.4233  0.8598  0.3497
  354TMC3     C 5305   1.191   0.816  13.246 -0.1783 -0.0178 -0.1633
  354TMC3     O 5306   1.148   0.704  13.261  0.5232  0.0852 -0.1194
  354TMC3     H 5307   1.207   1.086  13.163  0.4799  0.5783 -0.1224
  354TMC3    H1 5308   1.220   0.677  13.046 -0.1117  0.5680  1.5064
  354TMC3    H2 5309   1.245   0.994  12.759  1.2575  0.4834  0.3211
  354TMC3    C7 5310   1.283   0.717  12.791  0.1776  0.2081 -0.1374
  354TMC3    C8 5311   1.241   1.183  12.921  0.0936 -0.2796  0.9265
  354TMC3    O1 5312   1.306   0.613  12.840  0.1531 -0.5515 -0.3410
  354TMC3    O2 5313   1.211   1.199  12.803  0.0302  0.2579  0.1789
  355MPD2     C 5314   1.045   1.943  11.462  0.5128 -0.3520 -0.3963
  355MPD2    C1 5315   1.128   1.895  11.366  0.3192 -0.4041  0.2371
  355MPD2    C2 5316   1.257   1.849  11.401 -0.2117  0.3827  0.1959
  355MPD2    C3 5317   1.299   1.859  11.535  0.5470  0.5217 -0.1828
  355MPD2    C4 5318   1.212   1.903  11.632 -1.0664  0.9839  0.0414
  355MPD2    C5 5319   1.082   1.942  11.595 -0.0174  0.1725  0.2554
  355MPD2     H 5320   1.331   1.835  11.322  2.2844  0.4981  2.5258
  355MPD2    H1 5321   1.244   1.908  11.736  0.1781 -3.1142 -0.1581
  355MPD2    H2 5322   0.953   1.991  11.430  1.8304  3.0127  0.9340
  355MPD2    H3 5323   1.015   1.981  11.671 -0.0303  1.2629 -0.3038
  355MPD2     N 5324   1.436   1.847  11.574  0.3416  0.0983 -0.4804
  355MPD2    H5 5325   1.466   1.884  11.663 -1.0145 -1.3578  0.5815
  355MPD2    N1 5326   1.078   1.914  11.234 -0.1712  0.2271 -0.4585
  355MPD2    H7 5327   0.987   1.958  11.229 -0.3487 -0.0741  0.0857
  356TMC3    C1 5328   1.680   1.839  11.521  0.8195  0.3528 -0.1329
  356TMC3    C2 5329   1.763   1.880  11.422 -0.1498  0.0293  0.3229
  356TMC3    C3 5330   1.879   1.956  11.458  0.5800 -1.2144 -0.4291
  356TMC3    C4 5331   1.719   1.860  11.656  0.0274 -0.2846  0.0657
  356TMC3    C5 5332   1.829   1.933  11.681 -0.1604  0.1037  0.2858
  356TMC3    C6 5333   1.917   1.972  11.585 -0.5163 -0.1701 -0.0676
  356TMC3     C 5334   1.541   1.793  11.492  0.1542 -0.2751 -0.3139
  356TMC3     O 5335   1.534   1.730  11.388 -0.3013 -0.1034 -0.3311
  356TMC3     H 5336   1.743   1.860  11.317 -2.3259  0.4948  0.6541
  356TMC3    H1 5337   1.648   1.841  11.735  1.1012  0.0931  1.1139
  356TMC3    H2 5338   2.009   2.022  11.611 -1.1547  0.0067  1.8591
  356TMC3    C7 5339   1.849   1.985  11.817  0.5344 -0.4802 -0.4005
  356TMC3    C8 5340   1.968   1.984  11.350  0.2798 -0.2828 -0.2507
  356TMC3    O1 5341   1.796   1.913  11.904  0.5979 -0.7933  0.1222
  356TMC3    O2 5342   1.952   1.911  11.253  0.1493  0.3510 -0.0924
  357MPD2     C 5343   0.245   2.308   1.390 -0.3517 -0.4541  0.3055
  357MPD2    C1 5344   0.332   2.369   1.304  0.0790 -0.6545 -0.5908
  357MPD2    C2 5345   0.279   2.454   1.207 -0.2915  0.4162 -0.1937
  357MPD2    C3 5346   0.139   2.469   1.187  0.3767 -0.3321  0.1895
  357MPD2    C4 5347   0.057   2.402   1.272  0.1363 -0.0088 -0.5796
  357MPD2    C5 5348   0.108   2.329   1.374  0.3994 -0.2625  0.3390
  357MPD2     H 5349   0.350   2.496   1.136  0.4984  0.0167  0.3603
  357MPD2    H1 5350   4.670   2.410   1.267  0.2893 -0.2138 -4.0128
  357MPD2    H2 5351   0.269   2.218   1.447  2.5879 -0.4411 -0.9113
  357MPD2    H3 5352   0.035   2.270   1.430  0.1320  0.9281  1.2323
  357MPD2     N 5353   0.088   2.532   1.067 -0.0331  0.2791  0.0902
  357MPD2    H5 5354   4.708   2.540   1.057 -0.0243  1.8440  1.3027
  357MPD2    N1 5355   0.468   2.338   1.314 -0.1538  0.2655 -0.2146
  357MPD2    H7 5356   0.491   2.272   1.388 -1.5348 -0.3551 -0.3440
  358TMC3    C1 5357   0.692   2.315   1.266  0.2366  0.0930 -0.9277
  358TMC3    C2 5358   0.775   2.310   1.159 -0.6420 -0.0415 -0.3077
  358TMC3    C3 5359   0.831   2.192   1.128 -0.5790 -0.1726 -0.2846
  358TMC3    C4 5360   0.708   2.229   1.369  0.6675  0.2085  0.3216
  358TMC3    C5 5361   0.786   2.120   1.350  0.4391 -1.0801 -0.1763
  358TMC3    C6 5362   0.838   2.091   1.226 -0.9179  0.4522 -0.3295
  358TMC3     C 5363   0.568   2.392   1.243  0.3163  0.3655 -0.3870
  358TMC3     O 5364   0.562   2.462   1.145  0.3205 -0.2964 -0.5027
  358TMC3     H 5365   0.754   2.371   1.072  1.2030  0.2504 -0.5426
  358TMC3    H1 5366   0.661   2.254   1.464  1.7798 -0.3373  1.0203
  358TMC3    H2 5367   0.905   2.006   1.218 -0.5564  0.9235 -2.3749
  358TMC3    C7 5368   0.830   2.034   1.458 -0.9353 -0.4758 -0.1625
  358TMC3    C8 5369   0.811   2.135   0.996  0.0295  0.5036 -0.3865
  358TMC3    O1 5370   0.886   1.928   1.433  0.5036  0.2668 -0.0674
  358TMC3    O2 5371   0.888   2.047   0.954 -0.4139  0.7020  0.1734
  359MPD2     C 5372   1.479   0.126  12.740  0.9097 -0.0006  0.1343
  359MPD2    C1 5373   1.388   0.177  12.650  0.3167  0.6167  0.4162
  359MPD2    C2 5374   1.252   0.187  12.683 -0.0397  0.4952 -0.6407
  359MPD2    C3 5375   1.203   0.130  12.803  0.1725  0.4932  0.4526
  359MPD2    C4 5376   1.293   0.067  12.887  0.2967 -0.1514 -0.2095
  359MPD2    C5 5377   1.422   0.076  12.853 -0.5604 -0.8932 -0.0178
  359MPD2     H 5378   1.177   0.234  12.620  1.8477  0.8853 -2.5731
  359MPD2    H1 5379   1.256   0.025  12.980  0.6626  1.4831  0.6685
  359MPD2    H2 5380   1.587   0.132  12.729  1.1016 -3.3306  0.0940
  359MPD2    H3 5381   1.490   0.042  12.930  0.5488  0.0973 -0.5699
  359MPD2     N 5382   1.065   0.116  12.846  0.1893  0.3887  0.5030
  359MPD2    H5 5383   1.057   0.065  12.933  1.8613 -0.8688 -0.0582
  359MPD2    N1 5384   1.432   0.246  12.534 -0.0752  0.1999 -0.4860
  359MPD2    H7 5385   1.371   0.301  12.476  0.5854  0.6422 -0.7539
  360TMC3    C1 5386   1.570   0.322  12.362 -0.3819  0.6178 -0.6677
  360TMC3    C2 5387   1.684   0.402  12.343 -0.2175  0.3401 -1.1544
  360TMC3    C3 5388   1.695   0.478  12.229 -0.6945 -0.0513  0.6219
  360TMC3    C4 5389   1.463   0.330  12.275 -0.2546 -0.3647 -0.0488
  360TMC3    C5 5390   1.475   0.422  12.173  0.2021 -0.1600 -0.6630
  360TMC3    C6 5391   1.584   0.502  12.155 -0.2318 -0.6846 -0.3664
  360TMC3     C 5392   1.563   0.255  12.491 -0.1811 -0.6351  0.2105
  360TMC3     O 5393   1.671   0.217  12.535  0.7518  0.2057 -0.1057
  360TMC3     H 5394   1.770   0.377  12.404  1.7529  2.7681 -2.9703
  360TMC3    H1 5395   1.376   0.266  12.285 -2.1132  2.3614  1.4423
  360TMC3    H2 5396   1.589   0.555  12.060  0.2815 -0.9338 -0.4763
  360TMC3    C7 5397   1.402   0.400  12.045 -0.1004  0.2308 -0.0488
  360TMC3    C8 5398   1.801   0.573  12.218 -0.3989 -0.0735 -0.0795
  360TMC3    O1 5399   1.405   0.490  11.959  0.5639 -0.1916 -0.1349
  360TMC3    O2 5400   1.771   0.691  12.194  0.1789 -0.0570 -0.0221
  361MPD2     C 5401   3.305   4.474  16.741  0.0293 -0.5381  0.2762
  361MPD2    C1 5402   3.219   4.455  16.850 -0.3573 -1.2512  0.0632
  361MPD2    C2 5403   3.269   4.368  16.949 -0.3293  0.1059 -0.2902
  361MPD2    C3 5404   3.381   4.287  16.927 -0.2328  1.1451  0.1662
  361MPD2    C4 5405   3.453   4.299  16.814 -0.2261 -0.0160  0.4595
  361MPD2    C5 5406   3.415   4.392  16.723 -0.0715 -0.6333 -0.0427
  361MPD2     H 5407   3.206   4.356  17.037 -0.6380  1.0620 -0.3839
  361MPD2    H1 5408   3.535   4.231  16.799  0.3869  0.3877  1.9949
  361MPD2    H2 5409   3.285   4.548  16.665 -0.1150 -2.6689 -1.7619
  361MPD2    H3 5410   3.469   4.403  16.630  0.0123 -0.3667  0.0376
  361MPD2     N 5411   3.426   4.189  17.014 -0.0371 -0.4224 -0.3542
  361MPD2    H5 5412   3.502   4.133  16.975  0.5926 -0.3620  0.7686
  361MPD2    N1 5413   3.111   4.530  16.879  0.0810 -0.6037  0.1662
  361MPD2    H7 5414   3.056   4.518  16.963 -1.8415 -0.2620 -1.0358
  362TMC3    C1 5415   2.950   4.697  16.829 -0.7914 -0.9977 -0.1647
  362TMC3    C2 5416   2.930   4.710  16.965  0.2337  0.4951 -0.6502
  362TMC3    C3 5417   2.842   0.086  17.001 -0.2847  0.3724 -0.9229
  362TMC3    C4 5418   2.890   0.055  16.739  0.1517  0.2133 -0.2374
  362TMC3    C5 5419   2.793   0.143  16.779  0.1576 -0.6792  0.1345
  362TMC3    C6 5420   2.764   0.157  16.909  0.3902  1.1782  0.8753
  362TMC3     C 5421   3.064   4.618  16.786 -0.0494  0.1635 -0.3893
  362TMC3     O 5422   3.096   4.637  16.670 -0.1193 -0.2707  0.0064
  362TMC3     H 5423   2.983   4.655  17.042 -1.2273 -0.4105 -0.2909
  362TMC3    H1 5424   2.904   0.045  16.632  2.3285  0.3486  0.0361
  362TMC3    H2 5425   2.711   0.245  16.942  0.8113  0.8966  2.2903
  362TMC3    C7 5426   2.735   0.242  16.689 -0.0356  0.8223 -0.1687
  362TMC3    C8 5427   2.815   0.098  17.144  0.0111 -0.4364  0.4898
  362TMC3    O1 5428   2.791   0.261  16.582  0.3161 -0.1582 -0.3576
  362TMC3    O2 5429   2.907   0.073  17.217 -0.2831 -0.4499  0.3030
  363TMC3    C1 5430   1.445   1.638   9.932 -0.7271 -0.1300 -1.0876
  363TMC3    C2 5431   1.355   1.531   9.932 -0.2982 -0.3197 -0.1732
  363TMC3    C3 5432   1.399   1.400   9.907  0.3651  0.5004  0.0773
  363TMC3    C4 5433   1.577   1.618   9.897 -0.3333 -0.9843 -0.3643
  363TMC3    C5 5434   1.612   1.490   9.877  0.3200  0.8985  1.0029
  363TMC3    C6 5435   1.531   1.376   9.882  0.3407 -0.0351 -1.1326
  363TMC3     C 5436   1.398   1.759   9.869 -0.0666 -0.0821 -0.1167
  363TMC3     O 5437   1.479   1.853   9.869 -0.5083 -0.5120  0.4899
  363TMC3     H 5438   1.250   1.529   9.958  0.0894  0.8287  1.4380
  363TMC3    H1 5439   1.644   1.702   9.882 -1.5075 -0.0879 -0.5773
  363TMC3    H2 5440   1.568   1.282   9.842 -0.8364  0.3877 -3.2001
  363TMC3    C7 5441   1.754   1.478   9.856  0.2839  0.5249 -0.9719
  363TMC3    C8 5442   1.300   1.297   9.878  0.5425 -0.2375  0.0082
  363TMC3    O1 5443   1.800   1.566   9.785  0.1183  0.8889  0.2579
  363TMC3    O2 5444   1.195   1.327   9.819 -0.4249  0.5348 -0.3426
  364MPD2     C 5445   0.249   0.629  10.124 -0.1590  0.4708 -0.9405
  364MPD2    C1 5446   0.280   0.688  10.243 -0.2812  0.5287  0.4492
  364MPD2    C2 5447   0.335   0.608  10.341 -0.7652  0.6763  0.0440
  364MPD2    C3 5448   0.341   0.471  10.319  0.3610 -0.4160  0.2301
  364MPD2    C4 5449   0.317   0.421  10.195 -0.1199  0.6457 -0.8554
  364MPD2    C5 5450   0.278   0.502  10.092  0.2435  0.6474 -0.3214
  364MPD2     H 5451   0.364   0.650  10.437  1.6303 -1.4222  0.2460
  364MPD2    H1 5452   0.326   0.315  10.172 -1.1209  0.7065 -1.5031
  364MPD2    H2 5453   0.219   0.703  10.050 -1.0133 -1.2874 -2.3353
  364MPD2    H3 5454   0.254   0.466   9.993  1.2509  1.8886 -1.0246
  364MPD2     N 5455   0.383   0.381  10.421  0.0391 -0.1541 -0.2284
  364MPD2    H5 5456   0.411   0.286  10.400 -1.4029 -0.4755 -0.6614
  364MPD2    N1 5457   0.266   0.828  10.253  0.4689  0.4311 -0.1098
  364MPD2    H7 5458   0.224   0.879  10.176  1.2404  0.3283 -0.6013
  365TMC3    C1 5459   0.308   1.051  10.318 -0.5178 -0.4233 -0.1664
  365TMC3    C2 5460   0.291   1.088  10.184  0.1744  0.2288 -0.5032
  365TMC3    C3 5461   0.267   1.218  10.151 -0.1764 -0.6160 -0.3781
  365TMC3    C4 5462   0.315   1.153  10.417 -1.6822  0.3900  0.1988
  365TMC3    C5 5463   0.288   1.285  10.379 -0.4174  0.0282 -0.1624
  365TMC3    C6 5464   0.267   1.315  10.242 -0.2058 -0.2253 -0.6021
  365TMC3     C 5465   0.303   0.910  10.354 -1.2766 -0.1632  0.4136
  365TMC3     O 5466   0.335   0.877  10.467  0.1037 -0.2973 -0.5212
  365TMC3     H 5467   0.314   1.014  10.109  0.5035 -1.2210  1.0273
  365TMC3    H1 5468   0.324   1.129  10.523 -0.3586 -0.5715 -0.1311
  365TMC3    H2 5469   0.249   1.417  10.209 -0.2662  0.3430  1.1762
  365TMC3    C7 5470   0.268   1.398  10.463 -0.1233  0.2161 -0.7636
  365TMC3    C8 5471   0.279   1.257  10.011  0.6650  0.6359  0.4867
  365TMC3    O1 5472   0.223   1.504  10.418  0.1088 -0.3413 -0.5263
  365TMC3    O2 5473   0.306   1.377  10.000 -0.2462 -0.2539 -0.1527
  366MPD2     C 5474   4.001   2.094  15.015  0.1586  0.0882  0.3553
  366MPD2    C1 5475   3.979   2.193  15.110  0.0880 -0.2110  0.0152
  366MPD2    C2 5476   4.083   2.208  15.207  0.2261 -0.5675  0.4778
  366MPD2    C3 5477   4.207   2.155  15.196  0.6086 -0.0236 -0.2720
  366MPD2    C4 5478   4.215   2.064  15.096 -0.4846  0.6223 -0.1338
  366MPD2    C5 5479   4.118   2.034  15.010 -0.2130 -0.1821  0.2720
  366MPD2     H 5480   4.061   2.267  15.295 -2.2413  2.2864 -2.0731
  366MPD2    H1 5481   4.307   2.008  15.078  0.6942  1.3816  3.5238
  366MPD2    H2 5482   3.942   2.068  14.927  2.5682  1.5416 -1.7070
  366MPD2    H3 5483   4.128   1.964  14.928 -0.6497  0.1187 -0.0343
  366MPD2     N 5484   4.315   2.166  15.283  0.0934 -0.1939 -0.0947
  366MPD2    H5 5485   4.393   2.101  15.274 -0.1352 -0.4076 -0.5034
  366MPD2    N1 5486   3.866   2.274  15.119  0.1813  0.1333 -0.1212
  366MPD2    H7 5487   3.869   2.346  15.191 -0.4757 -0.1344  0.1743
  367TMC3    C1 5488   3.674   2.387  15.092  0.4553 -0.2140 -0.1317
  367TMC3    C2 5489   3.732   2.481  15.169 -0.4881  0.1781 -0.0778
  367TMC3    C3 5490   3.658   2.584  15.227  0.1013  0.8968  0.3596
  367TMC3    C4 5491   3.539   2.395  15.072 -0.1065  0.0920  0.2107
  367TMC3    C5 5492   3.462   2.501  15.125 -0.4568  0.2896 -0.3681
  367TMC3    C6 5493   3.527   2.596  15.198  0.3991  0.0965  0.0929
  367TMC3     C 5494   3.751   2.269  15.052  1.1104 -0.3766 -0.4717
  367TMC3     O 5495   3.703   2.200  14.964 -0.2822 -0.4824  0.6336
  367TMC3     H 5496   3.839   2.488  15.188 -0.3425 -1.2264 -0.3634
  367TMC3    H1 5497   3.503   2.322  15.000 -0.2362  0.1152  0.2514
  367TMC3    H2 5498   3.468   2.662  15.261  0.4117 -1.1417  1.4064
  367TMC3    C7 5499   3.326   2.529  15.073  0.8550 -0.4248  0.2223
  367TMC3    C8 5500   3.720   2.649  15.338 -0.0881  0.3841  0.0763
  367TMC3    O1 5501   3.295   2.646  15.083 -0.4517 -0.6222 -0.1813
  367TMC3    O2 5502   3.793   2.576  15.406 -0.4047  0.2847 -0.4264
  368MPD2     C 5503   4.219   3.933  12.635 -0.4459 -0.4400 -0.1826
  368MPD2    C1 5504   4.254   4.053  12.583  0.8244  0.3273  0.5060
  368MPD2    C2 5505   4.386   4.059  12.535  0.3284  0.0563  0.1631
  368MPD2    C3 5506   4.472   3.952  12.532  0.5331  0.7710 -0.0462
  368MPD2    C4 5507   4.424   3.828  12.571  0.0801  0.1442 -0.7392
  368MPD2    C5 5508   4.299   3.824  12.618  0.7540  0.6371  0.1473
  368MPD2     H 5509   4.422   4.156  12.501 -1.9773  0.2789 -1.5777
  368MPD2    H1 5510   4.478   3.735  12.556 -1.2052 -0.8874  0.9586
  368MPD2    H2 5511   4.126   3.915  12.688 -2.4911  3.7115 -2.3779
  368MPD2    H3 5512   4.265   3.727  12.652  0.9795  0.7774  0.7880
  368MPD2     N 5513   4.612   3.974  12.499  0.8514  0.6095 -0.2343
  368MPD2    H5 5514   4.679   3.899  12.513  1.5650  1.8958  3.2074
  368MPD2    N1 5515   4.173   4.174  12.602 -0.9889 -0.3508 -0.3169
  368MPD2    H7 5516   4.109   4.175  12.681  0.2294 -1.6547  0.6764
  369TMC3    C1 5517   4.152   4.414  12.590  0.1437 -0.6846 -0.5524
  369TMC3    C2 5518   4.229   4.523  12.565 -0.2704 -0.9657 -0.6175
  369TMC3    C3 5519   4.211   4.629  12.647  0.5612 -0.3295  0.3113
  369TMC3    C4 5520   4.039   4.419  12.668  0.1665 -0.1678  0.1839
  369TMC3    C5 5521   4.009   4.541  12.725  0.4134  0.2541 -0.2434
  369TMC3    C6 5522   4.105   4.641  12.723  0.4671  0.2934 -0.0450
  369TMC3     C 5523   4.204   4.289  12.535 -0.4422  0.1490  0.4526
  369TMC3     O 5524   4.251   4.309  12.422  0.1295  0.0166  0.1971
  369TMC3     H 5525   4.305   4.525  12.487 -0.2962  0.7553 -0.6018
  369TMC3    H1 5526   3.980   4.328  12.676  1.1254 -0.6672  1.6642
  369TMC3    H2 5527   4.099   0.005  12.791 -0.9670  0.0538  0.1480
  369TMC3    C7 5528   3.923   4.527  12.841 -0.3012  0.8489 -0.2875
  369TMC3    C8 5529   4.291   0.023  12.633 -0.0547 -0.1426  0.1402
  369TMC3    O1 5530   3.964   4.564  12.950  0.4704 -0.1571  0.5367
  369TMC3    O2 5531   4.246   0.135  12.651  0.2461 -0.1261  0.2051
  370TMC3    C1 5532   4.069   0.126  16.255 -0.5182  0.4625  0.1498
  370TMC3    C2 5533   4.097   0.100  16.387 -1.0760  1.0235  0.1421
  370TMC3    C3 5534   4.077   4.690  16.425 -0.4510  1.4042  0.3597
  370TMC3    C4 5535   4.003   0.037  16.180  0.0184 -0.9634 -0.1386
  370TMC3    C5 5536   3.984   4.628  16.229  0.4387 -0.5502  1.0618
  370TMC3    C6 5537   4.026   4.591  16.355  0.8505 -0.4337 -0.5836
  370TMC3     C 5538   4.170   0.204  16.182 -0.3202 -0.2345 -0.3142
  370TMC3     O 5539   4.217   0.158  16.077  0.3390  0.3694 -1.0564
  370TMC3     H 5540   4.169   0.161  16.440  0.5396 -0.4857 -0.3198
  370TMC3    H1 5541   3.964   0.064  16.083 -1.4967 -0.0410  0.7307
  370TMC3    H2 5542   4.021   4.488  16.388 -0.9145  0.4108  1.7678
  370TMC3    C7 5543   4.014   4.531  16.134 -0.0470 -0.4235 -0.1677
  370TMC3    C8 5544   4.064   4.671  16.571 -0.5206 -1.2630  1.2515
  370TMC3    O1 5545   3.960   4.548  16.026 -0.1156  0.3211  0.4941
  370TMC3    O2 5546   4.055   4.556  16.615 -0.0486  0.3698  0.0159
  371TMC3    C1 5547   0.925   3.483  15.317  0.5141  0.5864  0.0191
  371TMC3    C2 5548   0.807   3.502  15.380  0.0431 -0.0026 -0.4350
  371TMC3    C3 5549   0.767   3.625  15.417 -0.1834  0.4886 -0.1804
  371TMC3    C4 5550   1.002   3.591  15.281 -0.3887 -0.0701 -0.1355
  371TMC3    C5 5551   0.960   3.722  15.309 -0.2194 -0.0340  0.0785
  371TMC3    C6 5552   0.834   3.743  15.377 -1.0109 -0.7793 -0.3429
  371TMC3     C 5553   1.000   3.363  15.354 -0.3341  0.0796  0.0184
  371TMC3     O 5554   1.121   3.373  15.335  0.2761  0.0905 -0.0659
  371TMC3     H 5555   0.751   3.420  15.424 -0.5941  0.9636  0.5713
  371TMC3    H1 5556   1.092   3.571  15.223  0.3232  0.3528  0.8255
  371TMC3    H2 5557   0.804   3.841  15.412  1.1728  1.1066 -3.7834
  371TMC3    C7 5558   1.036   3.839  15.294  0.0822  0.4186  0.4699
  371TMC3    C8 5559   0.621   3.632  15.423  0.2394 -0.0968 -0.4339
  371TMC3    O1 5560   0.975   3.948  15.297 -0.1952  0.0468  0.4098
  371TMC3    O2 5561   0.565   3.537  15.368  0.0237 -0.0140  0.2609
  372MPD2     C 5562   4.558   0.001  13.276  0.8020  0.0717  0.0091
  372MPD2    C1 5563   4.679   4.667  13.314 -0.6306  0.2011 -0.2684
  372MPD2    C2 5564   4.687   4.537  13.364 -0.4156 -0.4033  0.6607
  372MPD2    C3 5565   4.570   4.468  13.380 -0.5257 -0.2536  0.0680
  372MPD2    C4 5566   4.450   4.530  13.351 -0.0712  0.6761  0.6508
  372MPD2    C5 5567   4.443   4.652  13.297 -0.1882 -0.1055  0.1788
  372MPD2     H 5568   0.061   4.491  13.389  0.3185  0.9435  0.3868
  372MPD2    H1 5569   4.355   4.492  13.386  0.2687 -2.3077 -1.7730
  372MPD2    H2 5570   4.555   0.102  13.239  0.7066 -0.4231 -1.3293
  372MPD2    H3 5571   4.348   4.701  13.276  0.0304  0.5417  0.7287
  372MPD2     N 5572   4.567   4.335  13.431  0.0235 -0.3120 -0.3235
  372MPD2    H5 5573   4.658   4.294  13.450  0.8970  1.2532 -1.1126
  372MPD2    N1 5574   0.082   0.015  13.314 -1.0085 -0.0587 -0.1119
  372MPD2    H7 5575   0.162   4.687  13.353  0.4047  0.0761 -2.8502
  373TMC3    C1 5576   4.497   4.119  13.502 -0.2683 -0.7355  0.6270
  373TMC3    C2 5577   4.461   4.102  13.634 -0.2852  0.4504  0.1006
  373TMC3    C3 5578   4.530   4.030  13.727  0.1569  0.2961  1.0831
  373TMC3    C4 5579   4.615   4.069  13.460  0.6140 -0.3373 -0.5160
  373TMC3    C5 5580   4.676   3.987  13.549  0.4026 -0.3280  0.2132
  373TMC3    C6 5581   4.647   3.971  13.683  0.5384 -0.1412  0.0468
  373TMC3     C 5582   4.461   4.253  13.453  0.0320 -0.4173  0.8691
  373TMC3     O 5583   4.344   4.267  13.422 -0.4398  0.2907 -0.2083
  373TMC3     H 5584   4.387   4.174  13.667  1.9049  1.7375  2.1921
  373TMC3    H1 5585   4.664   4.109  13.372  1.1053 -1.4135 -0.7267
  373TMC3    H2 5586   4.697   3.909  13.757  1.0944  0.0275 -0.1841
  373TMC3    C7 5587   0.053   3.905  13.485  0.0464 -0.1042 -0.0941
  373TMC3    C8 5588   4.518   4.052  13.867  0.4363  0.2305 -0.2668
  373TMC3    O1 5589   0.022   3.859  13.377 -0.2912 -0.1212  0.1689
  373TMC3    O2 5590   4.593   3.985  13.942  0.0981 -0.7336 -0.8000
  374TMC3    C1 5591   0.632   4.097  10.193  0.3984  0.3706  0.4447
  374TMC3    C2 5592   0.665   4.230  10.212 -0.0804  0.6755  0.3682
  374TMC3    C3 5593   0.700   4.302  10.100  0.5969 -0.5662  0.5844
  374TMC3    C4 5594   0.658   4.033  10.073  0.2261 -0.5863 -0.2147
  374TMC3    C5 5595   0.690   4.108   9.964 -0.6836  0.2584 -0.4805
  374TMC3    C6 5596   0.713   4.243   9.976  0.0955  0.3815 -0.5138
  374TMC3     C 5597   0.520   4.044  10.268 -0.0396 -0.2767 -0.3799
  374TMC3     O 5598   0.504   3.921  10.261 -0.2417 -0.1049  0.7228
  374TMC3     H 5599   0.652   4.281  10.307 -0.5832  1.5312 -0.1630
  374TMC3    H1 5600   0.615   3.935  10.054  2.6601 -1.7254  0.2361
  374TMC3    H2 5601   0.758   4.304   9.899 -0.5086  0.8366 -0.5044
  374TMC3    C7 5602   0.746   4.047   9.844 -0.0416  0.0140  0.7997
  374TMC3    C8 5603   0.758   4.436  10.108 -0.3273 -0.4337 -0.3433
  374TMC3    O1 5604   0.832   4.110   9.787 -0.2404  0.9532 -0.0047
  374TMC3    O2 5605   0.754   4.511  10.012  0.4642 -0.0234  0.2503
  375MPD2     C 5606   0.917   1.169  16.997 -0.4325 -0.2273 -0.2641
  375MPD2    C1 5607   0.837   1.074  16.936 -0.1539  0.5339 -0.3408
  375MPD2    C2 5608   0.895   0.962  16.883 -0.4394 -0.0909  0.0906
  375MPD2    C3 5609   1.035   0.946  16.872 -0.5374 -0.3927  0.0653
  375MPD2    C4 5610   1.116   1.056  16.905  0.3746  0.1965  0.4784
  375MPD2    C5 5611   1.051   1.163  16.961  0.2356  0.0598 -0.1374
  375MPD2     H 5612   0.837   0.893  16.823  1.2977 -0.2014 -1.4558
  375MPD2    H1 5613   1.217   1.069  16.869  0.3355 -1.2786 -0.1712
  375MPD2    H2 5614   0.874   1.255  17.047  1.2794  0.2794  0.3112
  375MPD2    H3 5615   1.106   1.253  16.984  1.3109 -0.3111 -1.2648
  375MPD2     N 5616   1.090   0.822  16.818 -0.1906 -0.2507 -0.6475
  375MPD2    H5 5617   1.191   0.818  16.811 -0.3032 -1.1265 -1.9387
  375MPD2    N1 5618   0.698   1.082  16.914  0.0073  0.4323 -0.1951
  375MPD2    H7 5619   0.660   1.007  16.857  1.2747  0.4873 -1.0916
  376TMC3    C1 5620   1.099   0.603  16.729 -0.3359 -0.5256 -0.2772
  376TMC3    C2 5621   1.233   0.594  16.734 -0.3447  0.1893  0.6272
  376TMC3    C3 5622   1.287   0.484  16.673 -0.5886 -0.4317  0.7474
  376TMC3    C4 5623   1.020   0.522  16.654 -0.3387 -1.1738  0.4456
  376TMC3    C5 5624   1.071   0.401  16.603 -0.2279  0.5894  0.3292
  376TMC3    C6 5625   1.211   0.393  16.599  0.3430  0.1234 -0.6695
  376TMC3     C 5626   1.024   0.699  16.810 -0.3830  0.3971  0.0521
  376TMC3     O 5627   0.907   0.672  16.839  0.4193 -0.0024 -0.5991
  376TMC3     H 5628   1.292   0.666  16.790  0.1442  0.2646  0.0176
  376TMC3    H1 5629   0.914   0.543  16.662 -0.1545  0.1054 -0.4683
  376TMC3    H2 5630   1.258   0.314  16.541 -0.0934  0.0987 -0.9910
  376TMC3    C7 5631   1.029   0.388  16.469  0.4431 -0.3389 -0.0455
  376TMC3    C8 5632   1.427   0.486  16.662 -0.3216 -0.3849  0.0272
  376TMC3    O1 5633   1.114   0.396  16.385 -0.0986 -0.8018 -0.1696
  376TMC3    O2 5634   1.472   0.601  16.674 -0.5548  0.0413 -0.2081
  377MPD2     C 5635   3.699   0.087  12.673 -0.1551  0.0518 -0.3514
  377MPD2    C1 5636   3.627   0.124  12.559  0.2497 -0.1827  0.5370
  377MPD2    C2 5637   3.494   0.089  12.549  0.3754  0.1242  0.2173
  377MPD2    C3 5638   3.428   0.034  12.660  0.6862 -0.2690 -0.2739
  377MPD2    C4 5639   3.495   0.014  12.776 -0.4395  0.0587  0.3120
  377MPD2    C5 5640   3.631   0.040  12.784  0.4884  0.6898 -0.0235
  377MPD2     H 5641   3.439   0.088  12.455  1.2614  1.3471 -0.3276
  377MPD2    H1 5642   3.439   4.703  12.864 -1.6645  0.3752 -0.3523
  377MPD2    H2 5643   3.806   0.097  12.685 -0.2703  1.2628 -0.3679
  377MPD2    H3 5644   3.694   0.018  12.869 -0.5480 -0.8324  0.3623
  377MPD2     N 5645   3.294   4.711  12.646 -0.4492 -0.0365 -0.5326
  377MPD2    H5 5646   3.253   4.658  12.722  1.1130 -1.2889 -0.5441
  377MPD2    N1 5647   3.713   0.174  12.454  0.7304  0.6058  0.8155
  377MPD2    H7 5648   3.807   0.200  12.481  1.7746 -0.7856 -1.4749
  378TMC3    C1 5649   3.799   0.382  12.037 -0.6449 -0.2278  0.2707
  378TMC3    C2 5650   3.714   0.323  12.129  0.3509  0.0994  0.2049
  378TMC3    C3 5651   3.767   0.268  12.244  0.6177 -0.9661 -0.5045
  378TMC3    C4 5652   3.934   0.345  12.043  0.5974 -0.4971 -0.2386
  378TMC3    C5 5653   3.983   0.284  12.158  0.0651  0.3307  0.8001
  378TMC3    C6 5654   3.897   0.241  12.257 -0.0655  0.2477  0.2541
  378TMC3     C 5655   3.744   0.415  11.909  0.3451 -0.2127  0.1451
  378TMC3     O 5656   3.624   0.439  11.901  0.4218  0.1440  0.0224
  378TMC3     H 5657   3.609   0.338  12.111  0.6719  0.4278 -1.3193
  378TMC3    H1 5658   3.995   0.391  11.966 -1.1097 -0.4864 -1.5850
  378TMC3    H2 5659   3.944   0.196  12.344  2.9012 -0.0994 -1.5523
  378TMC3    C7 5660   4.121   0.240  12.168 -0.0618 -0.6738 -0.2862
  378TMC3    C8 5661   3.665   0.204  12.328 -0.5396 -0.3183  1.2240
  378TMC3    O1 5662   4.145   0.161  12.256 -0.3163 -0.4760 -0.1445
  378TMC3    O2 5663   3.552   0.197  12.278 -0.1429  0.0552 -0.3439
  379MPD2     C 5664   4.287   2.999  16.424  0.1899 -0.4868  0.0671
  379MPD2    C1 5665   4.382   2.944  16.334 -0.5706  0.2060 -0.2479
  379MPD2    C2 5666   4.487   2.875  16.378 -0.3376  0.6143 -0.1296
  379MPD2    C3 5667   4.492   2.852  16.521  0.3186  0.4664 -0.0895
  379MPD2    C4 5668   4.408   2.912  16.607 -0.1307 -0.6477  0.3456
  379MPD2    C5 5669   4.294   2.977  16.557  0.8977 -0.2651 -0.0044
  379MPD2     H 5670   4.550   2.819  16.310 -2.4943 -0.3981 -1.2761
  379MPD2    H1 5671   4.423   2.908  16.714 -1.0231 -0.7884  0.4671
  379MPD2    H2 5672   4.203   3.060  16.392  0.6896 -0.2738 -0.8321
  379MPD2    H3 5673   4.228   3.029  16.625  0.8465 -1.5943  0.9483
  379MPD2     N 5674   4.597   2.787  16.595 -0.1000  0.1639 -0.6780
  379MPD2    H5 5675   4.606   2.804  16.695 -3.1128 -2.3129  0.0155
  379MPD2    N1 5676   4.357   2.975  16.197  0.6438  0.1450  0.3795
  379MPD2    H7 5677   4.278   3.037  16.184  0.4924 -0.3204 -0.9473
  380TMC3    C1 5678   4.372   2.974  15.955 -0.5362  0.7042  0.2229
  380TMC3    C2 5679   4.453   2.952  15.849 -0.2202  0.6856  0.5632
  380TMC3    C3 5680   4.391   2.933  15.728  0.1597  0.9743 -0.3591
  380TMC3    C4 5681   4.236   2.977  15.950  0.2856 -0.3792  0.0945
  380TMC3    C5 5682   4.183   2.950  15.828  1.2124  0.1086 -0.0170
  380TMC3    C6 5683   4.257   2.936  15.715 -0.3018 -0.3989  0.6305
  380TMC3     C 5684   4.432   2.947  16.084  0.3141  0.4326  0.3662
  380TMC3     O 5685   4.542   2.897  16.086  0.1693  0.3686  0.1319
  380TMC3     H 5686   4.561   2.941  15.859 -0.4159 -2.0391 -0.3305
  380TMC3    H1 5687   4.175   2.964  16.039 -2.1033 -1.1765 -1.6485
  380TMC3    H2 5688   4.206   2.935  15.619 -0.3263  1.7955  0.6247
  380TMC3    C7 5689   4.041   2.973  15.811 -0.3292  0.7156 -0.3279
  380TMC3    C8 5690   4.469   2.876  15.617  0.7226  0.0348 -0.3014
  380TMC3    O1 5691   3.997   3.066  15.874 -0.2712 -0.5269 -0.6021
  380TMC3    O2 5692   4.414   2.794  15.550 -0.0053  0.4798 -0.1355
  381TMC3    C1 5693   4.380   3.944  16.661  0.2136 -0.1473 -0.3150
  381TMC3    C2 5694   4.396   4.072  16.613 -0.4334 -0.7114 -0.0951
  381TMC3    C3 5695   4.316   4.173  16.665  0.1559  0.0528  0.1366
  381TMC3    C4 5696   4.308   3.932  16.779  0.2699 -0.1862 -0.8005
  381TMC3    C5 5697   4.246   4.042  16.836  0.4800  0.3440  0.3493
  381TMC3    C6 5698   4.241   4.163  16.771 -0.5264  0.3584  0.1708
  381TMC3     C 5699   4.442   3.834  16.601  0.0844 -0.1423 -0.3044
  381TMC3     O 5700   4.466   3.737  16.672 -0.0888 -0.9778 -0.3431
  381TMC3     H 5701   4.444   4.089  16.517 -1.2290 -1.1813 -0.5785
  381TMC3    H1 5702   4.298   3.835  16.826  1.4272  0.6722  1.2244
  381TMC3    H2 5703   4.183   4.244  16.814 -1.8134 -0.0967 -0.6837
  381TMC3    C7 5704   4.178   4.018  16.961 -0.2933 -0.8192 -0.3240
  381TMC3    C8 5705   4.327   4.297  16.598  0.1293  0.9850 -0.3083
  381TMC3    O1 5706   4.218   3.931  17.041 -0.6270 -1.0824  0.4151
  381TMC3    O2 5707   4.364   4.295  16.481  0.5189 -0.2561  0.3702
  382MPD2     C 5708   3.221   1.896   0.113 -0.2866  0.1711 -0.1557
  382MPD2    C1 5709   3.208   1.914  17.662 -0.2969 -0.2087 -0.5458
  382MPD2    C2 5710   3.244   1.816  17.569 -0.4501 -0.3188  0.7689
  382MPD2    C3 5711   3.289   1.698  17.620  0.3244 -0.4086  0.0808
  382MPD2    C4 5712   3.289   1.673   0.073  0.1738 -0.3437  0.1463
  382MPD2    C5 5713   3.250   1.773   0.161  0.1853  0.0238 -0.3659
  382MPD2     H 5714   3.252   1.840  17.464  3.9833 -1.8885  0.7295
  382MPD2    H1 5715   3.315   1.573   0.106 -0.1248 -0.2961  0.5261
  382MPD2    H2 5716   3.196   1.976   0.181 -3.0907 -0.9653  0.1774
  382MPD2    H3 5717   3.255   1.764   0.269  1.3522  2.1513 -0.2297
  382MPD2     N 5718   3.338   1.590  17.551 -0.7399 -0.1063 -0.0046
  382MPD2    H5 5719   3.357   1.507  17.606  2.1400  1.3387  1.1828
  382MPD2    N1 5720   3.167   2.037  17.607  0.5666 -0.2109 -0.3647
  382MPD2    H7 5721   3.192   2.053  17.510  0.6475  0.9393 -0.1581
  383TMC3    C1 5722   3.346   1.434  17.382 -0.7891 -0.0346  0.8336
  383TMC3    C2 5723   3.257   1.388  17.291 -0.0880 -0.6051  0.3424
  383TMC3    C3 5724   3.252   1.253  17.274  0.4268  1.0529 -0.1840
  383TMC3    C4 5725   3.402   1.352  17.475 -0.2848  0.0874 -0.3098
  383TMC3    C5 5726   3.397   1.219  17.449 -0.1298  0.0572 -0.8799
  383TMC3    C6 5727   3.310   1.170  17.357  0.4144  0.2884 -0.1158
  383TMC3     C 5728   3.326   1.573  17.421 -0.2166 -0.1800 -0.0243
  383TMC3     O 5729   3.262   1.638  17.340 -0.5610 -0.3934  0.3824
  383TMC3     H 5730   3.201   1.452  17.223  0.6198 -0.4077 -0.0606
  383TMC3    H1 5731   3.459   1.388  17.561 -1.3666  1.6053 -0.2162
  383TMC3    H2 5732   3.294   1.063  17.353  2.5650  0.0202 -1.3740
  383TMC3    C7 5733   3.436   1.132  17.566 -1.5657 -0.2384  0.5210
  383TMC3    C8 5734   3.165   1.201  17.167 -0.0538 -0.5006 -0.6768
  383TMC3    O1 5735   3.423   1.185  17.677  0.3917 -0.2433  0.2748
  383TMC3    O2 5736   3.085   1.277  17.117 -0.0831  0.5910  0.2267
  384MPD2     C 5737   0.136   2.830  11.776  0.0452  0.0305 -0.3540
  384MPD2    C1 5738   0.153   2.810  11.911  0.7799  0.2907  0.3370
  384MPD2    C2 5739   0.233   2.703  11.952  0.5460 -0.3389 -0.2920
  384MPD2    C3 5740   0.299   2.620  11.866  0.3476  0.6607 -0.0659
  384MPD2    C4 5741   0.283   2.641  11.730 -0.2030  0.5042  0.2138
  384MPD2    C5 5742   0.194   2.741  11.690  0.4348 -0.6523 -0.1107
  384MPD2     H 5743   0.239   2.685  12.059  0.0418 -0.1275 -0.2238
  384MPD2    H1 5744   0.337   2.575  11.663  1.1753 -0.1741  1.9912
  384MPD2    H2 5745   0.087   2.921  11.743  2.1228  0.8651 -1.1216
  384MPD2    H3 5746   0.191   2.760  11.583  0.1211  1.6207  0.3229
  384MPD2     N 5747   0.362   2.504  11.925  0.0566 -0.2167 -0.3246
  384MPD2    H5 5748   0.356   2.486  12.025 -0.8311  1.3232 -0.1037
  384MPD2    N1 5749   0.093   2.882  12.013  0.2527 -0.0953 -0.2558
  384MPD2    H7 5750   0.113   2.863  12.111  0.9243  0.3082 -0.3142
  385TMC3    C1 5751   0.487   2.322  11.962  0.2678 -0.5593  1.4217
  385TMC3    C2 5752   0.437   2.198  11.942 -0.2363  0.6125  0.1079
  385TMC3    C3 5753   0.390   2.133  12.055 -0.5602 -0.0130  0.9353
  385TMC3    C4 5754   0.498   2.374  12.087  0.3548 -0.0127 -0.2045
  385TMC3    C5 5755   0.466   2.303  12.196  0.0415 -0.2690  0.4141
  385TMC3    C6 5756   0.417   2.180  12.181  0.0190  0.1176  0.4081
  385TMC3     C 5757   0.441   2.407  11.859  0.1521  0.0748 -0.1864
  385TMC3     O 5758   0.460   2.388  11.738 -0.1943 -0.0181 -0.1020
  385TMC3     H 5759   0.416   2.171  11.839  1.8736  1.7150 -0.6238
  385TMC3    H1 5760   0.522   2.478  12.103 -2.0290  0.7206 -1.3138
  385TMC3    H2 5761   0.365   2.138  12.266  0.5024 -1.9311 -0.2905
  385TMC3    C7 5762   0.378   2.396  12.267 -1.0816 -0.5572  0.7499
  385TMC3    C8 5763   0.334   2.002  12.045  0.2002 -0.1110 -0.3583
  385TMC3    O1 5764   0.321   2.472  12.187 -0.0054  0.6866  0.1878
  385TMC3    O2 5765   0.251   1.982  12.134  0.1018  0.4009  0.2640
  386TMC3    C1 5766   0.673   0.323  11.880 -0.7580 -0.7984 -0.5201
  386TMC3    C2 5767   0.678   0.263  11.754 -0.5986 -0.1486 -0.1838
  386TMC3    C3 5768   0.627   0.331  11.642 -0.0952 -0.3202  0.9490
  386TMC3    C4 5769   0.622   0.446  11.890 -0.4008  0.4702 -0.2173
  386TMC3    C5 5770   0.575   0.509  11.775  0.1871  0.5332  0.0724
  386TMC3    C6 5771   0.588   0.460  11.651  0.1793  0.0316 -0.6343
  386TMC3     C 5772   0.657   0.247  12.005  0.0549 -0.0384  0.0307
  386TMC3     O 5773   0.577   0.284  12.089 -0.6725 -0.0792 -0.3466
  386TMC3     H 5774   0.696   0.157  11.744  2.7904  0.1265  2.9593
  386TMC3    H1 5775   0.621   0.489  11.990 -0.4988  1.6001 -0.6985
  386TMC3    H2 5776   0.539   0.498  11.562 -0.0006 -2.6756 -1.6906
  386TMC3    C7 5777   0.450   0.573  11.807 -0.1931  0.7749  0.0079
  386TMC3    C8 5778   0.576   0.256  11.525 -0.8722  0.2299 -0.4873
  386TMC3    O1 5779   0.406   0.544  11.921 -0.8015 -0.3552 -0.0017
  386TMC3    O2 5780   0.482   0.306  11.466  0.3233  0.4126  0.3749
  387MPD2     C 5781   2.478   4.583   9.961  0.0548  0.5911  0.3938
  387MPD2    C1 5782   2.610   4.545   9.974 -0.0666  0.2059  0.2473
  387MPD2    C2 5783   2.650   4.424   9.922  0.1914 -0.6567  0.5715
  387MPD2    C3 5784   2.568   4.342   9.857  0.3101  0.1550 -0.1450
  387MPD2    C4 5785   2.435   4.369   9.860  0.3126  0.1142 -0.2551
  387MPD2    C5 5786   2.392   4.491   9.907 -0.3932 -0.2541 -0.2131
  387MPD2     H 5787   2.756   4.407   9.929  0.2577  0.4096  2.0801
  387MPD2    H1 5788   2.354   4.320   9.807  0.4641 -0.4755  0.0667
  387MPD2    H2 5789   2.450   4.686   9.980  1.3451  0.9072  0.6086
  387MPD2    H3 5790   2.287   4.516   9.903 -0.5231 -0.5401  1.2843
  387MPD2     N 5791   2.615   4.225   9.790 -0.6098 -0.0360 -0.7727
  387MPD2    H5 5792   2.715   4.213   9.802 -0.6310  0.2411 -0.3257
  387MPD2    N1 5793   2.717   4.622  10.024  0.1688 -0.3273  0.0558
  387MPD2    H7 5794   2.811   4.585  10.031  1.0518  1.4337 -2.3488
  388TMC3    C1 5795   2.837   0.087  10.058 -0.0693 -0.4614  0.0790
  388TMC3    C2 5796   2.882   0.160  10.168  0.3311  0.1027  0.0442
  388TMC3    C3 5797   3.010   0.197  10.175 -0.5537  0.5191 -0.5935
  388TMC3    C4 5798   2.916   0.057   9.952  0.0950  0.0757 -0.3481
  388TMC3    C5 5799   3.051   0.094   9.967  0.2682  0.9976  0.8481
  388TMC3    C6 5800   3.104   0.156  10.077  0.3309  0.7393 -0.2622
  388TMC3     C 5801   2.705   0.028  10.074  0.7537 -0.5696 -0.6257
  388TMC3     O 5802   2.603   0.100  10.073  0.1532 -1.0461  0.1342
  388TMC3     H 5803   2.813   0.197  10.244  0.3236  0.3446 -0.0804
  388TMC3    H1 5804   2.878   0.007   9.864  1.9477  2.1253 -2.3322
  388TMC3    H2 5805   3.207   0.189  10.076  0.0378  1.6615  0.3502
  388TMC3    C7 5806   3.142   0.027   9.872 -0.3934  0.4019  0.4334
  388TMC3    C8 5807   3.063   0.226  10.313 -0.5029 -0.2812  0.2283
  388TMC3    O1 5808   3.209   0.086   9.789  0.1460  0.2546  0.1577
  388TMC3    O2 5809   2.983   0.258  10.403  0.6245  0.7549  0.0827
  389MPD2     C 5810   2.361   3.108  11.090 -0.3804  0.2570  0.5619
  389MPD2    C1 5811   2.351   2.998  11.007  0.6039 -0.8093  0.2704
  389MPD2    C2 5812   2.272   2.893  11.055  0.1415 -0.2403 -0.2866
  389MPD2    C3 5813   2.234   2.886  11.191  0.6328  0.0328 -0.4220
  389MPD2    C4 5814   2.256   2.998  11.272  0.4041  0.1325  0.8118
  389MPD2    C5 5815   2.316   3.105  11.215 -0.2131 -0.3004 -0.0165
  389MPD2     H 5816   2.232   2.823  10.983  0.5748 -1.2335  0.4423
  389MPD2    H1 5817   2.224   3.016  11.374  2.9134  1.7079  1.3361
  389MPD2    H2 5818   2.408   3.202  11.061 -1.1935 -0.0507 -1.7681
  389MPD2    H3 5819   2.315   3.195  11.275 -1.7983 -0.0085 -0.4564
  389MPD2     N 5820   2.149   2.785  11.239  0.1964 -1.1662  0.2954
  389MPD2    H5 5821   2.108   2.797  11.331  1.0589 -1.3542  0.7043
  389MPD2    N1 5822   2.426   2.993  10.883  0.1442  0.0148 -0.1169
  389MPD2    H7 5823   2.497   3.062  10.861 -0.7723  0.1252 -2.7283
  390TMC3    C1 5824   1.996   2.603  11.221 -0.0758 -0.1761 -0.9293
  390TMC3    C2 5825   1.965   2.470  11.179  0.0207 -0.4949  0.2378
  390TMC3    C3 5826   1.855   2.414  11.243 -0.4210 -0.0504 -0.0811
  390TMC3    C4 5827   1.920   2.678  11.310 -0.1762 -0.3299  0.4617
  390TMC3    C5 5828   1.816   2.612  11.365 -0.1669 -0.4358  0.2843
  390TMC3    C6 5829   1.778   2.487  11.332  0.9468 -0.4820  0.1847
  390TMC3     C 5830   2.116   2.667  11.172  0.6505 -0.1896  0.8427
  390TMC3     O 5831   2.166   2.622  11.074 -0.5076 -0.2264 -0.2953
  390TMC3     H 5832   2.025   2.420  11.104  1.0312  1.4927 -0.2765
  390TMC3    H1 5833   1.925   2.786  11.317  2.6618 -0.4340  0.0863
  390TMC3    H2 5834   1.689   2.440  11.372  0.3409 -0.0555 -0.6699
  390TMC3    C7 5835   1.701   2.705  11.372  1.1393  0.4608 -0.2337
  390TMC3    C8 5836   1.756   2.367  11.149  0.0898 -0.2439  0.6512
  390TMC3    O1 5837   1.726   2.824  11.392  0.2366 -0.6143  0.4455
  390TMC3    O2 5838   1.647   2.425  11.144  0.0922  0.0962 -0.3037
  391MPD2     C 5839   1.277   4.356  11.601 -0.2738  0.4624  0.9827
  391MPD2    C1 5840   1.371   4.447  11.563  0.2506  0.1623 -0.1281
  391MPD2    C2 5841   1.359   4.510  11.443 -0.5511 -0.3625 -0.6537
  391MPD2    C3 5842   1.261   4.480  11.350 -0.3042 -0.1439 -0.6275
  391MPD2    C4 5843   1.167   4.388  11.394  0.5190 -0.3077 -1.1368
  391MPD2    C5 5844   1.175   4.329  11.518  0.9553 -0.2073  0.0758
  391MPD2     H 5845   1.427   4.592  11.421 -0.9982 -0.0166 -0.7430
  391MPD2    H1 5846   1.090   4.350  11.328  0.6258 -0.2192 -1.3136
  391MPD2    H2 5847   1.283   4.297  11.691  0.9703  0.2086  0.7397
  391MPD2    H3 5848   1.093   4.263  11.542 -0.3067  0.7098 -1.7005
  391MPD2     N 5849   1.266   4.535  11.223 -0.2518  0.3327  0.1995
  391MPD2    H5 5850   1.346   4.597  11.207 -0.7536  0.7913 -0.5079
  391MPD2    N1 5851   1.469   4.478  11.661  0.5425  0.9602  0.5467
  391MPD2    H7 5852   1.468   4.423  11.746  1.2642 -0.5198 -0.3965
  392TMC3    C1 5853   1.191   4.608  11.016  0.1736 -0.1204  0.3563
  392TMC3    C2 5854   1.103   4.605  10.920 -0.1735  0.3021  0.3662
  392TMC3    C3 5855   1.126   4.661  10.798 -0.4775 -0.4120 -0.8685
  392TMC3    C4 5856   1.311   4.660  10.989 -0.6686  1.0086 -0.2758
  392TMC3    C5 5857   1.346   4.707  10.862 -0.4365 -0.1590  0.1495
  392TMC3    C6 5858   1.247   4.712  10.767  0.0274 -0.5311 -0.4071
  392TMC3     C 5859   1.158   4.538  11.135  0.4962  0.7293 -0.1504
  392TMC3     O 5860   1.047   4.486  11.146 -0.0571 -0.2179 -0.1830
  392TMC3     H 5861   1.009   4.555  10.942  0.1805 -1.1053 -1.2878
  392TMC3    H1 5862   1.391   4.661  11.063 -0.9786  1.7207  0.0518
  392TMC3    H2 5863   1.279   0.018  10.667  0.3772 -0.6707 -0.3344
  392TMC3    C7 5864   1.473   0.053  10.847 -0.5522 -0.3452  0.4571
  392TMC3    C8 5865   1.049   4.608  10.685 -0.5419  0.1089 -0.2116
  392TMC3    O1 5866   1.529   0.081  10.950  0.6332 -0.0017  0.0098
  392TMC3    O2 5867   0.988   4.501  10.689 -0.3359 -0.6157  0.0187
  393TMC3    C1 5868   0.321   2.107  10.031  0.2675 -0.3228  0.4282
  393TMC3    C2 5869   0.253   2.050  10.133  0.8928  0.0493 -0.2470
  393TMC3    C3 5870   0.316   2.041  10.258 -0.0448 -0.0187 -0.6357
  393TMC3    C4 5871   0.447   2.151  10.069 -0.2392 -0.0795  0.0604
  393TMC3    C5 5872   0.510   2.143  10.191 -0.2441 -0.1730  0.9377
  393TMC3    C6 5873   0.448   2.074  10.288 -0.5699  0.7047  0.3345
  393TMC3     C 5874   0.269   2.143   9.901 -0.8199 -0.4481 -0.3708
  393TMC3     O 5875   0.320   2.240   9.846  0.1463  0.2625  0.0069
  393TMC3     H 5876   0.150   2.019  10.123  0.6903  0.8534 -0.6436
  393TMC3    H1 5877   0.505   2.200   9.991 -1.0806  0.3715 -0.2867
  393TMC3    H2 5878   0.492   2.075  10.387  0.6157  2.0407 -0.2174
  393TMC3    C7 5879   0.588   2.262  10.233 -0.0184 -0.0857 -0.0719
  393TMC3    C8 5880   0.232   1.998  10.370 -0.4367 -0.5388  0.1275
  393TMC3    O1 5881   0.545   2.334  10.323 -0.0860  0.4512  0.1135
  393TMC3    O2 5882   0.111   2.035  10.353 -0.0999 -0.3164 -0.2160
  394TMC3    C1 5883   2.531   2.895  10.698 -0.2210  0.1958  1.1307
  394TMC3    C2 5884   2.597   2.784  10.654  0.2808  0.1346  0.8989
  394TMC3    C3 5885   2.688   2.800  10.549  0.0975  0.1426  0.5104
  394TMC3    C4 5886   2.569   3.016  10.658  0.4173 -0.1034  0.1404
  394TMC3    C5 5887   2.655   3.027  10.552 -0.2854 -1.0728 -0.1883
  394TMC3    C6 5888   2.724   2.925  10.502 -0.8624 -0.7147  0.3170
  394TMC3     C 5889   2.435   2.878  10.808 -0.3148 -0.3228 -0.2628
  394TMC3     O 5890   2.373   2.774  10.823  0.0597  0.6973 -0.1566
  394TMC3     H 5891   2.548   2.689  10.670 -0.4880  0.4446  0.4114
  394TMC3    H1 5892   2.519   3.111  10.676  0.4423  0.0922 -0.8213
  394TMC3    H2 5893   2.794   2.935  10.419  1.0068  1.8552  2.1918
  394TMC3    C7 5894   2.660   3.155  10.476 -0.1246 -0.7892  0.0117
  394TMC3    C8 5895   2.784   2.697  10.533  0.1034 -0.8036 -0.3914
  394TMC3    O1 5896   2.628   3.257  10.535 -0.3137 -0.0865  0.1710
  394TMC3    O2 5897   2.902   2.718  10.510 -0.0594 -0.0599 -0.0970
  395TMC3    C1 5898   1.876   0.406  14.624 -0.3150  0.1643 -0.4819
  395TMC3    C2 5899   1.892   0.322  14.521 -1.2328 -0.1052 -0.2797
  395TMC3    C3 5900   1.971   0.356  14.423 -0.0145 -0.1497 -0.2031
  395TMC3    C4 5901   1.938   0.533  14.618 -0.1934  0.6552  0.5239
  395TMC3    C5 5902   2.027   0.551  14.518  0.3725 -0.5867 -0.7997
  395TMC3    C6 5903   2.057   0.462  14.416  0.3428 -0.5870 -0.3300
  395TMC3     C 5904   1.825   0.353  14.755 -0.3441  0.0582 -0.0236
  395TMC3     O 5905   1.870   0.407  14.852  0.7086 -0.0202 -0.3828
  395TMC3     H 5906   1.845   0.224  14.528 -0.1722 -0.4753  1.6515
  395TMC3    H1 5907   1.918   0.608  14.694  1.1619  1.7910 -0.2598
  395TMC3    H2 5908   2.136   0.471  14.343  0.8602  0.7546  0.4052
  395TMC3    C7 5909   2.126   0.652  14.544  0.0000  0.1672  0.5240
  395TMC3    C8 5910   1.960   0.280  14.294  0.3353 -0.6461 -0.6176
  395TMC3    O1 5911   2.085   0.743  14.615 -0.6726 -0.4141 -0.2707
  395TMC3    O2 5912   2.035   0.315  14.208 -0.1868  0.6646  0.2526
  396MPD2     C 5913   2.612   1.479  17.215 -0.0301  0.6005 -0.4477
  396MPD2    C1 5914   2.481   1.519  17.199  0.0526 -0.2627 -0.3018
  396MPD2    C2 5915   2.449   1.640  17.144  0.4441  0.3089  0.1086
  396MPD2    C3 5916   2.550   1.721  17.088  0.2455 -0.6253 -0.1269
  396MPD2    C4 5917   2.680   1.676  17.096  0.0582  1.1921 -0.9515
  396MPD2    C5 5918   2.711   1.556  17.150 -0.3230  0.0741  0.0518
  396MPD2     H 5919   2.347   1.675  17.144  0.6921  1.0223 -1.2561
  396MPD2    H1 5920   2.760   1.724  17.041  0.8828 -1.6906 -2.2550
  396MPD2    H2 5921   2.643   1.385  17.260 -0.1728  0.0163 -1.5790
  396MPD2    H3 5922   2.816   1.530  17.152  0.1567  2.1487  2.5897
  396MPD2     N 5923   2.515   1.855  17.041  0.1645 -0.1700  0.4111
  396MPD2    H5 5924   2.418   1.877  17.058  0.6212  1.9800  0.2400
  396MPD2    N1 5925   2.394   1.426  17.254 -0.3588 -0.4894 -0.2852
  396MPD2    H7 5926   2.434   1.338  17.284  0.5502 -0.2214 -0.7135
  397TMC3    C1 5927   2.191   1.308  17.297  0.5495  0.0800  0.3116
  397TMC3    C2 5928   2.263   1.202  17.260 -0.0483 -0.1354  0.6702
  397TMC3    C3 5929   2.199   1.092  17.213 -0.1127 -1.1075 -0.0761
  397TMC3    C4 5930   2.057   1.315  17.275  0.2298 -0.1316  0.6284
  397TMC3    C5 5931   1.990   1.196  17.259 -0.0184 -0.7445 -0.2335
  397TMC3    C6 5932   2.064   1.085  17.210 -0.8712 -0.1634  0.3604
  397TMC3     C 5933   2.257   1.426  17.252 -0.1561  0.2645 -0.2435
  397TMC3     O 5934   2.184   1.511  17.203 -0.2812 -0.4415 -0.4431
  397TMC3     H 5935   2.365   1.176  17.289  0.1446 -1.3538 -1.0505
  397TMC3    H1 5936   2.007   1.408  17.301 -0.6141 -0.3009 -0.3568
  397TMC3    H2 5937   2.010   1.002  17.168 -0.2704 -1.4640  2.1388
  397TMC3    C7 5938   1.849   1.197  17.218 -0.3368  0.5175 -0.5658
  397TMC3    C8 5939   2.283   0.988  17.166  1.0123 -0.0771  0.4855
  397TMC3    O1 5940   1.816   1.113  17.140  0.2751  0.0908  0.1704
  397TMC3    O2 5941   2.263   0.873  17.201 -0.0828 -0.5868 -0.3332
  398MPD2     C 5942   4.475   3.068  17.518 -0.4233 -0.3633 -0.2290
  398MPD2    C1 5943   4.583   2.984  17.556 -0.1285  0.1528 -0.0339
  398MPD2    C2 5944   4.712   3.029  17.512  0.4425 -0.3635 -0.2753
  398MPD2    C3 5945   0.005   3.146  17.431 -0.2793  0.5295  0.2091
  398MPD2    C4 5946   4.612   3.218  17.389  0.0940  0.0900  0.7841
  398MPD2    C5 5947   4.489   3.177  17.434  0.2168  0.3988 -0.4161
  398MPD2     H 5948   0.083   2.972  17.510  1.0284  0.5456  0.3557
  398MPD2    H1 5949   4.617   3.303  17.323  0.9486 -2.0574 -1.9148
  398MPD2    H2 5950   4.377   3.051  17.561  0.9195  0.1137  3.0280
  398MPD2    H3 5951   4.405   3.235  17.399 -0.6024  0.7779  2.1988
  398MPD2     N 5952   0.142   3.182  17.401 -0.2920  0.1867  0.1780
  398MPD2    H5 5953   0.223   3.121  17.404 -0.6851 -0.3898 -1.3686
  398MPD2    N1 5954   4.564   2.864  17.625  0.6120 -0.3346  0.1811
  398MPD2    H7 5955   4.646   2.811  17.654  0.1311 -0.1731  1.8707
  399TMC3    C1 5956   4.444   2.691   0.049  0.3294 -0.0115  0.4979
  399TMC3    C2 5957   4.549   2.672   0.139  0.5014 -0.0340  0.5970
  399TMC3    C3 5958   4.541   2.558   0.216  0.0432  0.3695 -0.3465
  399TMC3    C4 5959   4.346   2.598   0.035  0.4601  0.3424 -0.3779
  399TMC3    C5 5960   4.351   2.484   0.108 -0.1283  0.2498 -0.7369
  399TMC3    C6 5961   4.440   2.465   0.209  0.0791 -0.1314  0.1885
  399TMC3     C 5962   4.444   2.800  17.641  0.1065 -0.1372  0.4746
  399TMC3     O 5963   4.349   2.821  17.569 -0.8066  0.0304 -0.2421
  399TMC3     H 5964   4.628   2.745   0.151  0.6902 -0.5423  2.3542
  399TMC3    H1 5965   4.259   2.617  17.659  0.1739 -0.9293 -0.3799
  399TMC3    H2 5966   4.442   2.385   0.283  1.2329 -0.5136 -0.2546
  399TMC3    C7 5967   4.224   2.416   0.144 -0.2493  0.0730  0.0709
  399TMC3    C8 5968   4.674   2.513   0.253  0.9150 -0.0630  0.5710
  399TMC3    O1 5969   4.217   2.366   0.252 -0.2794 -0.1088 -0.5550
  399TMC3    O2 5970   0.044   2.590   0.275  0.7324 -0.1408  0.0528
  400TMC3    C1 5971   3.465   0.999  16.839  0.4901 -0.2043 -0.1850
  400TMC3    C2 5972   3.355   1.039  16.764 -0.4782 -0.4567 -0.0656
  400TMC3    C3 5973   3.296   1.164  16.781 -0.1289 -0.0970 -0.7520
  400TMC3    C4 5974   3.502   1.081  16.944  0.1020 -0.2868  0.2032
  400TMC3    C5 5975   3.455   1.208  16.949 -0.1495  0.8119  0.2767
  400TMC3    C6 5976   3.347   1.252  16.870  0.6695 -0.0628  0.3575
  400TMC3     C 5977   3.483   0.855  16.862 -0.6580 -0.0845 -0.4797
  400TMC3     O 5978   3.503   0.830  16.976  0.1152 -0.4303 -0.2969
  400TMC3     H 5979   3.316   0.970  16.690 -2.5675 -0.3226  0.9019
  400TMC3    H1 5980   3.584   1.052  17.009  0.3270 -3.1861 -1.3827
  400TMC3    H2 5981   3.300   1.348  16.888 -0.6652 -0.4907 -0.8336
  400TMC3    C7 5982   3.517   1.294  17.048 -0.1634 -0.2409  0.7553
  400TMC3    C8 5983   3.195   1.215  16.695 -0.4252  0.2702 -0.4187
  400TMC3    O1 5984   3.590   1.240  17.127  0.1681 -0.0633  0.0140
  400TMC3    O2 5985   3.176   1.337  16.697  0.2881  0.2761 -0.1943
  401MPD2     C 5986   2.544   4.395   0.496  0.2104  1.0658 -0.2311
  401MPD2    C1 5987   2.509   4.354   0.618  0.3659 -0.2202 -0.4815
  401MPD2    C2 5988   2.564   4.236   0.664 -0.3891 -0.9480 -0.0726
  401MPD2    C3 5989   2.643   4.154   0.586 -0.4108 -0.1394  0.7371
  401MPD2    C4 5990   2.668   4.186   0.454  0.0264 -0.7366  0.3966
  401MPD2    C5 5991   2.624   4.312   0.417 -0.4367  0.2141  0.3020
  401MPD2     H 5992   2.553   4.210   0.769  0.1613  0.0532  0.2332
  401MPD2    H1 5993   2.712   4.129   0.374  0.0049 -0.0526 -0.1076
  401MPD2    H2 5994   2.519   4.493   0.456 -0.5239  0.3956 -1.3968
  401MPD2    H3 5995   2.662   4.361   0.327  1.4212  0.6172  1.2928
  401MPD2     N 5996   2.684   4.028   0.643 -0.3236  0.3355  0.1847
  401MPD2    H5 5997   2.642   4.010   0.733 -0.8208  0.3178 -0.0550
  401MPD2    N1 5998   2.433   4.435   0.710  0.0649  0.1799  0.6460
  401MPD2    H7 5999   2.403   4.384   0.792  1.2373  1.2427  1.7320
  402TMC3    C1 6000   2.734   3.804   0.661 -0.0157  0.0312  0.2662
  402TMC3    C2 6001   2.674   3.805   0.786  0.1705  0.3535  0.2763
  402TMC3    C3 6002   2.716   3.706   0.877  0.1215 -0.1338 -0.8560
  402TMC3    C4 6003   2.812   3.695   0.620 -0.0325  0.1884  0.4055
  402TMC3    C5 6004   2.861   3.608   0.715 -0.0242 -0.4137  0.5766
  402TMC3    C6 6005   2.810   3.613   0.841 -0.6861  0.0044 -0.0293
  402TMC3     C 6006   2.743   3.921   0.585 -0.5167  0.2568 -0.0591
  402TMC3     O 6007   2.786   3.913   0.473  0.1044 -0.1127 -0.1993
  402TMC3     H 6008   2.600   3.877   0.819  0.1757 -1.6588  4.6691
  402TMC3    H1 6009   2.853   3.704   0.520  0.1025 -0.0017  0.4445
  402TMC3    H2 6010   2.857   3.555   0.919  0.4494  0.3561 -0.4532
  402TMC3    C7 6011   2.953   3.504   0.664 -0.3860 -0.4606  0.0472
  402TMC3    C8 6012   2.664   3.693   1.012  0.0454 -0.0000 -0.5041
  402TMC3    O1 6013   3.004   3.534   0.558 -0.1282  0.8560  0.1700
  402TMC3    O2 6014   2.632   3.577   1.045 -0.6605  0.2999 -0.1426
  403MPD2     C 6015   4.484   3.109  13.342 -0.2353  0.1080  0.3622
  403MPD2    C1 6016   4.471   2.997  13.418  0.2958 -0.4764 -0.8578
  403MPD2    C2 6017   4.567   2.969  13.511  0.0652  0.6682 -0.0849
  403MPD2    C3 6018   4.672   3.052  13.532  0.3373  0.5697 -0.3718
  403MPD2    C4 6019   4.685   3.167  13.454 -0.8032 -0.0958  0.4585
  403MPD2    C5 6020   4.593   3.188  13.356  1.2986  0.2631 -0.0143
  403MPD2     H 6021   4.558   2.875  13.565 -0.0792  1.5897  1.5015
  403MPD2    H1 6022   0.049   3.235  13.452 -2.5073  2.0140 -0.9047
  403MPD2    H2 6023   4.421   3.119  13.254 -0.4796 -0.9209  0.4193
  403MPD2    H3 6024   4.613   3.271  13.290 -1.0377  0.8658  0.0118
  403MPD2     N 6025   0.045   3.014  13.631  0.3092  0.1799 -0.0110
  403MPD2    H5 6026   0.013   2.931  13.680 -0.3244  1.3385  1.5405
  403MPD2    N1 6027   4.367   2.900  13.386  0.1485 -0.2011  0.3993
  403MPD2    H7 6028   4.318   2.919  13.300  1.9307 -1.1254 -0.8165
  404TMC3    C1 6029   4.262   2.696  13.379  0.0955 -0.0173 -0.1270
  404TMC3    C2 6030   4.241   2.575  13.439 -0.5452  0.0099  0.3785
  404TMC3    C3 6031   4.194   2.463  13.375 -0.1387  0.8433  0.4770
  404TMC3    C4 6032   4.247   2.706  13.242 -0.3997 -0.4877  0.1926
  404TMC3    C5 6033   4.223   2.594  13.175 -0.7478 -0.0617 -0.2783
  404TMC3    C6 6034   4.176   2.479  13.238 -0.0529  0.4437  0.0602
  404TMC3     C 6035   4.337   2.789  13.459  0.3501  0.2149  0.0124
  404TMC3     O 6036   4.351   2.767  13.579  0.5501 -0.4698  0.2108
  404TMC3     H 6037   4.274   2.563  13.542 -0.2049  0.8064  0.3616
  404TMC3    H1 6038   4.254   2.801  13.190  0.7945  0.2352  1.6903
  404TMC3    H2 6039   4.136   2.390  13.191 -1.7074  0.9332  0.5393
  404TMC3    C7 6040   4.229   2.596  13.031  1.0461  0.5257 -0.5132
  404TMC3    C8 6041   4.232   2.332  13.415  0.0353 -0.7622  0.2678
  404TMC3    O1 6042   4.267   2.704  12.987  0.2455 -0.4204  0.3653
  404TMC3    O2 6043   4.235   2.246  13.330  0.1828 -0.2640  0.0159
  405MPD2     C 6044   0.354   2.947  14.669 -0.5356  0.0995  0.4757
  405MPD2    C1 6045   0.320   2.944  14.533 -0.1356 -0.1025  0.0760
  405MPD2    C2 6046   0.339   3.050  14.445 -0.0331  0.7562  0.1812
  405MPD2    C3 6047   0.371   3.171  14.500  0.2047 -0.2115 -0.1743
  405MPD2    C4 6048   0.393   3.178  14.638  0.2390  0.2581  0.1523
  405MPD2    C5 6049   0.387   3.070  14.720 -0.9396 -0.0569 -0.4223
  405MPD2     H 6050   0.339   3.041  14.337  0.0641 -1.1172  0.3419
  405MPD2    H1 6051   0.422   3.270  14.688 -0.3138  1.0432 -0.9492
  405MPD2    H2 6052   0.344   2.863  14.736  0.1797 -0.7251 -0.4625
  405MPD2    H3 6053   0.414   3.082  14.824 -0.0434  2.0614 -0.9018
  405MPD2     N 6054   0.371   3.280  14.411  0.0224  0.1099  0.2386
  405MPD2    H5 6055   0.373   3.258  14.312  2.0685 -0.4668  0.4027
  405MPD2    N1 6056   0.283   2.818  14.488  0.4949 -0.1124 -0.0610
  405MPD2    H7 6057   0.271   2.750  14.562  1.2947  1.5831  1.6271
  406TMC3    C1 6058   0.091   3.620  14.337 -0.0989 -1.0158 -0.1275
  406TMC3    C2 6059   0.050   3.565  14.220 -0.3099 -0.8187  0.5224
  406TMC3    C3 6060   0.127   3.465  14.171 -1.0228 -0.7802  0.0428
  406TMC3    C4 6061   0.213   3.587  14.395  0.5857  0.1406  0.5389
  406TMC3    C5 6062   0.289   3.489  14.341  0.0659 -0.7379 -0.0340
  406TMC3    C6 6063   0.245   3.425  14.228 -0.1694 -0.4990  0.7292
  406TMC3     C 6064   0.006   3.712  14.410 -0.2563  0.9397 -0.4984
  406TMC3     O 6065   0.052   3.789  14.491  0.2605 -0.6809 -0.1901
  406TMC3     H 6066   4.678   3.593  14.170 -0.0570 -0.7739  0.0797
  406TMC3    H1 6067   0.250   3.638  14.484  0.8801  2.5218 -0.9419
  406TMC3    H2 6068   0.310   3.352  14.181 -1.2704 -0.0358 -1.5330
  406TMC3    C7 6069   0.360   3.408  14.446 -0.3908 -0.8908  0.0115
  406TMC3    C8 6070   0.062   3.375  14.083 -0.3810 -0.1029 -0.5984
  406TMC3    O1 6071   0.384   3.459  14.554 -0.2696 -0.1044 -0.3009
  406TMC3    O2 6072   4.689   3.416  14.019  0.6000 -0.2402 -0.3764
  407MPD2     C 6073   1.947   4.047   9.655  0.2104 -0.2586 -0.2740
  407MPD2    C1 6074   2.075   4.079   9.686  0.5576  0.2218 -0.1290
  407MPD2    C2 6075   2.100   4.137   9.810 -0.2655 -0.0917  0.2484
  407MPD2    C3 6076   1.998   4.176   9.902 -0.2589 -0.4789  0.1632
  407MPD2    C4 6077   1.873   4.133   9.864 -0.0896 -0.0533 -0.6011
  407MPD2    C5 6078   1.845   4.078   9.741  0.1940  0.2542  0.0106
  407MPD2     H 6079   2.201   4.168   9.833  0.3041 -1.7384 -0.0436
  407MPD2    H1 6080   1.784   4.156   9.921  1.6415  0.4620  1.8796
  407MPD2    H2 6081   1.916   4.006   9.560 -0.0246  0.4549 -0.5068
  407MPD2    H3 6082   1.740   4.068   9.712  0.4086 -2.2752  0.0922
  407MPD2     N 6083   2.015   4.257  10.013  0.4144  0.6476 -0.3888
  407MPD2    H5 6084   1.936   4.314  10.039  0.7079  1.5245 -1.4087
  407MPD2    N1 6085   2.185   4.060   9.597  0.4344 -0.0650  0.3383
  407MPD2    H7 6086   2.279   4.067   9.635  0.9317  0.4134 -0.9819
  408TMC3    C1 6087   2.290   4.046   9.394  0.8650 -0.2584 -0.2077
  408TMC3    C2 6088   2.353   3.943   9.324 -0.1556 -0.6991  0.0819
  408TMC3    C3 6089   2.480   3.969   9.271 -0.1813 -0.1468  0.9932
  408TMC3    C4 6090   2.352   4.166   9.420  0.1517 -0.4202  0.5124
  408TMC3    C5 6091   2.478   4.178   9.372 -0.0821 -0.2911  0.2733
  408TMC3    C6 6092   2.548   4.081   9.304  0.5719  0.0146 -0.8276
  408TMC3     C 6093   2.175   4.019   9.467 -0.3357  0.1728 -0.3057
  408TMC3     O 6094   2.079   3.979   9.408 -0.5736  0.3566  0.0022
  408TMC3     H 6095   2.301   3.850   9.304  0.2335 -1.2480  1.6357
  408TMC3    H1 6096   2.295   4.249   9.459  1.7292  0.3851  1.1350
  408TMC3    H2 6097   2.650   4.102   9.274  0.3187  1.8438 -0.4143
  408TMC3    C7 6098   2.549   4.305   9.379  0.1703 -0.8808 -0.3576
  408TMC3    C8 6099   2.561   3.847   9.277  0.4402 -0.1239 -0.4553
  408TMC3    O1 6100   2.627   4.319   9.288 -0.8445  0.0169 -0.3500
  408TMC3    O2 6101   2.501   3.746   9.311 -0.2668  0.3553  0.7954
  409MPD2     C 6102   1.905   0.786  16.899  0.1075  0.7564  0.0245
  409MPD2    C1 6103   2.028   0.799  16.964 -0.5142  0.3074 -0.4014
  409MPD2    C2 6104   2.139   0.836  16.896  0.3326 -0.4058 -0.0887
  409MPD2    C3 6105   2.128   0.872  16.763 -0.1711  0.3621 -0.5664
  409MPD2    C4 6106   2.008   0.858  16.702  0.2708 -0.0888 -0.8171
  409MPD2    C5 6107   1.892   0.813  16.770  0.4185 -0.5049  0.1659
  409MPD2     H 6108   2.225   0.860  16.957 -0.1488  1.1713 -0.0215
  409MPD2    H1 6109   1.991   0.884  16.598  2.5397  1.9301 -0.6841
  409MPD2    H2 6110   1.813   0.769  16.952 -0.5401  0.2247 -1.2761
  409MPD2    H3 6111   1.794   0.818  16.724  0.1140 -0.4239  0.8303
  409MPD2     N 6112   2.235   0.924  16.686  0.0607  0.2000 -0.7239
  409MPD2    H5 6113   2.205   0.965  16.598 -1.1048  1.4427  0.2574
  409MPD2    N1 6114   2.048   0.755  17.091 -0.6191  0.7084  0.4237
  409MPD2    H7 6115   2.142   0.759  17.128 -0.5700 -1.7270  0.5932
  410TMC3    C1 6116   2.471   0.978  16.668 -0.1766 -0.0331  0.2259
  410TMC3    C2 6117   2.591   0.990  16.737  0.1967 -0.4845 -0.1599
  410TMC3    C3 6118   2.691   1.063  16.684 -0.1411  0.5637  0.8372
  410TMC3    C4 6119   2.452   1.045  16.551  0.1981 -0.2465  0.5139
  410TMC3    C5 6120   2.558   1.126  16.500 -0.1902 -0.0725  0.4577
  410TMC3    C6 6121   2.678   1.135  16.569  0.2967 -0.9619 -0.2210
  410TMC3     C 6122   2.367   0.903  16.733  0.0284  0.4534 -0.6844
  410TMC3     O 6123   2.399   0.849  16.836 -0.5783  0.1829  0.2773
  410TMC3     H 6124   2.603   0.943  16.834 -2.1924 -0.5533  0.1109
  410TMC3    H1 6125   2.362   1.029  16.492 -0.3824  1.5207  0.9291
  410TMC3    H2 6126   2.765   1.187  16.531 -1.7735  0.3194 -3.1619
  410TMC3    C7 6127   2.544   1.145  16.359 -0.1931  0.5668  0.1400
  410TMC3    C8 6128   2.820   1.077  16.758 -0.0299  0.2115  0.3437
  410TMC3    O1 6129   2.473   1.069  16.291 -0.5230  0.6186 -0.7323
  410TMC3    O2 6130   2.884   1.181  16.749 -0.3605 -0.5900  0.4129
  411MPD2     C 6131   2.666   1.597  14.588 -0.2707 -0.3001  0.4910
  411MPD2    C1 6132   2.533   1.574  14.578 -0.2442 -0.3121  0.0574
  411MPD2    C2 6133   2.493   1.462  14.515  0.3424  0.2777 -0.0030
  411MPD2    C3 6134   2.587   1.377  14.445  0.4478  0.7613 -0.1449
  411MPD2    C4 6135   2.719   1.405  14.455  0.3358  0.3718  0.0037
  411MPD2    C5 6136   2.757   1.514  14.527 -0.2772  0.0589 -0.5654
  411MPD2     H 6137   2.393   1.422  14.510  0.1581  0.4314  2.4500
  411MPD2    H1 6138   2.789   1.359  14.387  1.0600  0.3500  0.7711
  411MPD2    H2 6139   2.699   1.685  14.641 -0.2551 -0.1662  0.2571
  411MPD2    H3 6140   2.857   1.553  14.517 -0.1766 -0.0594  0.0018
  411MPD2     N 6141   2.549   1.259  14.373 -0.3198  0.3324 -0.4408
  411MPD2    H5 6142   2.615   1.207  14.315  2.2930  2.1859  0.8244
  411MPD2    N1 6143   2.446   1.673  14.617  0.2546  0.3486  0.0571
  411MPD2    H7 6144   2.491   1.747  14.671  0.3990  0.5539 -0.3437
  412TMC3    C1 6145   2.408   1.085  14.306 -0.3392  0.5334 -0.4337
  412TMC3    C2 6146   2.303   1.006  14.335 -0.2299 -0.2599  0.1134
  412TMC3    C3 6147   2.271   0.901  14.254 -0.5948 -0.2526 -0.3749
  412TMC3    C4 6148   2.494   1.060  14.197  0.0695 -0.0927  0.2524
  412TMC3    C5 6149   2.474   0.938  14.137  0.3715  0.0196  0.0968
  412TMC3    C6 6150   2.364   0.864  14.157 -0.2931  0.1638  1.0087
  412TMC3     C 6151   2.431   1.201  14.393  0.0608 -0.6078  0.2860
  412TMC3     O 6152   2.342   1.226  14.474  0.0100  0.3491  0.0710
  412TMC3     H 6153   2.242   1.031  14.421 -2.6841  0.4929 -1.8356
  412TMC3    H1 6154   2.584   1.115  14.172  0.6427 -1.4423 -0.6514
  412TMC3    H2 6155   2.343   0.793  14.077 -1.2857 -0.4889  1.8401
  412TMC3    C7 6156   2.491   0.941  13.987  0.0607 -0.0837 -0.3994
  412TMC3    C8 6157   2.132   0.887  14.221 -0.1381 -0.3689 -0.1551
  412TMC3    O1 6158   2.536   0.843  13.931 -0.0655 -0.1032 -0.3768
  412TMC3    O2 6159   2.061   0.977  14.269  0.5160 -0.3690 -0.0930
  413MPD2     C 6160   3.552   3.968  15.041  0.8126  0.4162  0.0032
  413MPD2    C1 6161   3.635   4.063  14.992 -0.4138 -0.0101  0.1482
  413MPD2    C2 6162   3.763   4.026  14.944  0.4294 -1.3946 -0.1411
  413MPD2    C3 6163   3.804   3.893  14.945 -0.6682  0.9524 -0.1433
  413MPD2    C4 6164   3.712   3.795  14.986  0.2545 -0.2313  0.6279
  413MPD2    C5 6165   3.594   3.836  15.042  0.4981 -0.1338  0.1050
  413MPD2     H 6166   3.836   4.100  14.913  0.3996 -1.5244 -0.5302
  413MPD2    H1 6167   3.745   3.693  15.002 -3.1058 -1.7516 -2.2028
  413MPD2    H2 6168   3.450   3.987  15.070  0.3289 -1.3558 -0.5132
  413MPD2    H3 6169   3.521   3.769  15.087  0.2945  0.2259  0.3096
  413MPD2     N 6170   3.936   3.865  14.902  0.0866 -0.0150  0.0555
  413MPD2    H5 6171   4.007   3.934  14.878  0.0280  0.5901  1.6323
  413MPD2    N1 6172   3.591   4.195  15.015 -0.8503  0.2061 -0.5231
  413MPD2    H7 6173   3.519   4.210  15.085  1.0865 -0.1109  1.5170
  414TMC3    C1 6174   4.126   3.723  14.844  0.1128  0.4364 -0.2353
  414TMC3    C2 6175   4.181   3.604  14.802  0.1295  0.4075  0.2623
  414TMC3    C3 6176   4.313   3.583  14.808  0.7411  0.3655 -0.0212
  414TMC3    C4 6177   4.211   3.818  14.899 -1.0474 -0.0425 -0.0898
  414TMC3    C5 6178   4.349   3.787  14.915  0.1511 -0.2446  0.0872
  414TMC3    C6 6179   4.397   3.672  14.865 -0.3042 -0.0410  0.7708
  414TMC3     C 6180   3.985   3.739  14.871  0.3652 -0.5838  0.2585
  414TMC3     O 6181   3.917   3.634  14.858 -0.1982 -0.1910  0.4762
  414TMC3     H 6182   4.120   3.516  14.780 -2.1372  1.9854  0.2130
  414TMC3    H1 6183   4.173   3.913  14.935  3.5119  1.5805  0.5459
  414TMC3    H2 6184   4.504   3.656  14.873 -0.3998 -0.2493  1.5570
  414TMC3    C7 6185   4.436   3.863  15.001 -0.6792 -0.7390 -0.2027
  414TMC3    C8 6186   4.359   3.440  14.799 -0.3033  1.2019 -0.9239
  414TMC3    O1 6187   4.557   3.839  14.992 -0.5361  0.0345 -0.5747
  414TMC3    O2 6188   4.274   3.355  14.781  0.5803 -0.3770 -0.7066
  415TMC3    C1 6189   3.714   1.973   9.808 -0.4474 -0.3265  0.6424
  415TMC3    C2 6190   3.754   2.097   9.762  0.6339 -0.0559  0.0286
  415TMC3    C3 6191   3.751   2.201   9.846  0.2313 -0.2883 -0.0427
  415TMC3    C4 6192   3.685   1.948   9.941 -0.6300  0.0257 -0.6537
  415TMC3    C5 6193   3.688   2.058  10.023 -0.1580  0.2667 -0.6246
  415TMC3    C6 6194   3.720   2.185   9.974  0.3831  0.6036 -0.6373
  415TMC3     C 6195   3.654   1.883   9.711 -0.1002 -0.3912  0.2263
  415TMC3     O 6196   3.710   1.875   9.600 -0.0675 -0.3183  0.3530
  415TMC3     H 6197   3.763   2.114   9.655 -2.2276  1.0160 -0.0525
  415TMC3    H1 6198   3.647   1.853   9.977 -1.5455  1.2224  1.5312
  415TMC3    H2 6199   3.715   2.269  10.041 -0.4175 -0.1181  0.2055
  415TMC3    C7 6200   3.662   2.039  10.168  0.0080  0.1526 -0.4279
  415TMC3    C8 6201   3.751   2.336   9.803 -0.1645  0.4385  0.3811
  415TMC3    O1 6202   3.584   2.114  10.230 -0.3438 -0.2618  0.7559
  415TMC3    O2 6203   3.686   2.419   9.866 -0.4798  0.0818 -0.1017
  416MPD2     C 6204   1.679   1.092  10.939  0.4401  0.3082  0.3071
  416MPD2    C1 6205   1.596   1.088  11.051 -0.3458 -0.8061  0.2815
  416MPD2    C2 6206   1.565   0.968  11.106 -0.8830  0.2144 -0.2386
  416MPD2    C3 6207   1.600   0.848  11.051  0.7500  0.3031  0.8316
  416MPD2    C4 6208   1.682   0.854  10.936 -0.7834 -0.2812 -0.3004
  416MPD2    C5 6209   1.718   0.978  10.884 -1.0406 -0.0784  0.4801
  416MPD2     H 6210   1.501   0.968  11.193  0.4685 -3.3626  0.7773
  416MPD2    H1 6211   1.693   0.766  10.874  0.0538  1.0835 -2.0668
  416MPD2    H2 6212   1.694   1.183  10.884 -1.1209 -0.3933 -1.2595
  416MPD2    H3 6213   1.780   0.972  10.796 -0.9895  0.9081  0.4509
  416MPD2     N 6214   1.570   0.724  11.099 -0.0289 -0.0345 -0.0058
  416MPD2    H5 6215   1.609   0.647  11.045  0.2964  0.2665 -0.2007
  416MPD2    N1 6216   1.535   1.201  11.099 -0.7227 -0.3443  0.1675
  416MPD2    H7 6217   1.534   1.291  11.051 -3.0024 -1.1984 -1.4058
  417TMC3    C1 6218   1.426   1.339  11.248  0.3349  0.0526  0.3774
  417TMC3    C2 6219   1.425   1.350  11.382 -0.2594  1.1202  0.4041
  417TMC3    C3 6220   1.319   1.414  11.441  0.5594  0.1964 -0.3008
  417TMC3    C4 6221   1.312   1.380  11.180  0.2545 -0.3130 -0.4288
  417TMC3    C5 6222   1.205   1.436  11.238  0.0140 -0.3749 -0.5637
  417TMC3    C6 6223   1.216   1.469  11.365 -0.6265 -0.2324  0.1027
  417TMC3     C 6224   1.468   1.205  11.223  0.4654  0.0012  0.7349
  417TMC3     O 6225   1.442   1.125  11.310  0.4811  0.6687 -0.3036
  417TMC3     H 6226   1.509   1.317  11.442  0.9189  1.7773 -0.8888
  417TMC3    H1 6227   1.314   1.359  11.074  1.1347 -3.4051  0.1697
  417TMC3    H2 6228   1.140   1.527  11.416  1.8320  2.3893  0.7574
  417TMC3    C7 6229   1.104   1.497  11.145  0.1816  0.6473 -0.3297
  417TMC3    C8 6230   1.328   1.442  11.587 -0.6723 -0.2380 -0.2495
  417TMC3    O1 6231   1.118   1.471  11.022 -0.0677 -0.1533  0.2500
  417TMC3    O2 6232   1.287   1.551  11.621 -0.5294  0.3987 -0.0542
  418TMC3    C1 6233   0.531   3.314  17.376  0.7529  0.0301 -0.2806
  418TMC3    C2 6234   0.405   3.269  17.356  0.3099 -0.1960  0.5016
  418TMC3    C3 6235   0.316   3.349  17.424  0.0555 -0.2847 -0.2468
  418TMC3    C4 6236   0.572   3.414  17.461 -0.8423 -1.0875  0.3416
  418TMC3    C5 6237   0.475   3.479  17.535 -0.5111  0.8913  0.3611
  418TMC3    C6 6238   0.343   3.445  17.512 -0.1512 -0.0632 -0.5355
  418TMC3     C 6239   0.639   3.227  17.332 -0.3186  0.4769  0.5012
  418TMC3     O 6240   0.735   3.289  17.289  0.2345 -0.0608 -0.7831
  418TMC3     H 6241   0.380   3.197  17.279  0.0261  1.1724 -0.6861
  418TMC3    H1 6242   0.674   3.422  17.494 -0.0531 -1.1929 -2.0707
  418TMC3    H2 6243   0.268   3.503  17.565  0.1134  1.4443 -1.8218
  418TMC3    C7 6244   0.490   3.499  17.679 -0.2176  0.7586  0.3956
  418TMC3    C8 6245   0.175   3.318  17.398  0.1021 -0.6021  0.3301
  418TMC3    O1 6246   0.402   3.438   0.054 -0.4084 -0.0525 -0.3270
  418TMC3    O2 6247   0.098   3.415  17.399 -0.5724  0.6650  0.0461
  419MPD2     C 6248   3.393   0.824  12.434  0.7796 -0.4350 -0.0437
  419MPD2    C1 6249   3.335   0.949  12.451 -0.1043  1.0496  0.0280
  419MPD2    C2 6250   3.345   1.007  12.574 -0.2330  0.9912 -0.0475
  419MPD2    C3 6251   3.425   0.950  12.674  0.5577 -0.2737  0.9671
  419MPD2    C4 6252   3.476   0.816  12.661 -0.2332  0.0255  0.2764
  419MPD2    C5 6253   3.464   0.760  12.536 -0.1712 -0.2118  0.1214
  419MPD2     H 6254   3.311   1.110  12.580  0.4990  1.2194  0.2581
  419MPD2    H1 6255   3.523   0.760  12.741 -1.1441 -0.8065  0.2148
  419MPD2    H2 6256   3.380   0.767  12.342  1.3597  0.6627 -0.8122
  419MPD2    H3 6257   3.490   0.656  12.515  0.9471 -0.4936  2.9626
  419MPD2     N 6258   3.446   1.023  12.789  0.0566 -0.4834 -1.0292
  419MPD2    H5 6259   3.414   1.120  12.788 -0.1321 -0.5331  0.2386
  419MPD2    N1 6260   3.275   1.029  12.350  0.2032  0.2943  0.9361
  419MPD2    H7 6261   3.219   1.109  12.378 -0.9279 -0.6513  1.3873
  420TMC3    C1 6262   3.520   1.093  12.998  0.1871  0.4593  0.2935
  420TMC3    C2 6263   3.398   1.148  13.030  0.7249 -0.0757  0.7209
  420TMC3    C3 6264   3.402   1.250  13.124  0.2276  0.5848  0.0157
  420TMC3    C4 6265   3.636   1.139  13.049 -0.0044 -0.3148  0.0496
  420TMC3    C5 6266   3.635   1.247  13.135 -0.6990 -1.1934  0.4322
  420TMC3    C6 6267   3.517   1.300  13.180  0.3013  0.5969 -0.3433
  420TMC3     C 6268   3.524   0.993  12.897  0.3029 -0.1637 -0.1786
  420TMC3     O 6269   3.601   0.900  12.912 -0.4757  0.2802 -0.0958
  420TMC3     H 6270   3.306   1.133  12.975  0.8731  0.9147  0.1955
  420TMC3    H1 6271   3.729   1.094  13.017 -1.3169 -2.8270 -0.1970
  420TMC3    H2 6272   3.525   1.386  13.244 -0.9982 -0.1144  0.7944
  420TMC3    C7 6273   3.745   1.251  13.221  0.1179  0.9633  0.2531
  420TMC3    C8 6274   3.298   1.352  13.117  0.5375  0.9206 -0.4451
  420TMC3    O1 6275   3.856   1.240  13.165 -0.2408 -0.1974 -0.0722
  420TMC3    O2 6276   3.327   1.470  13.110 -0.6381 -0.1807 -0.2000
  421TMC3    C1 6277   0.226   3.017  13.779  0.1056  0.4350 -0.5354
  421TMC3    C2 6278   0.309   3.093  13.866  0.5979  0.6878 -0.0102
  421TMC3    C3 6279   0.374   3.019  13.964  0.0475 -0.2380  0.3514
  421TMC3    C4 6280   0.212   2.884  13.788 -0.2650 -0.1429  0.0542
  421TMC3    C5 6281   0.287   2.822  13.884 -0.7470  0.0853 -0.1117
  421TMC3    C6 6282   0.378   2.881  13.968 -0.2263  0.4010  0.0604
  421TMC3     C 6283   0.159   3.087  13.674  0.1528 -0.5442  0.3313
  421TMC3     O 6284   0.201   3.196  13.635 -0.4911 -0.3965 -0.0205
  421TMC3     H 6285   0.328   3.199  13.861  1.2443  0.5586 -0.2642
  421TMC3    H1 6286   0.173   2.822  13.708 -0.5942 -1.7461  1.4616
  421TMC3    H2 6287   0.440   2.833  14.043 -0.4734 -1.5831 -0.9990
  421TMC3    C7 6288   0.300   2.674  13.880  0.3644  0.1863  0.2708
  421TMC3    C8 6289   0.475   3.090  14.038 -0.2821 -0.2245 -1.1478
  421TMC3    O1 6290   0.384   2.623  13.956  0.4215 -0.1087  0.4790
  421TMC3    O2 6291   0.431   3.178  14.115 -0.3488  0.2281  0.4267
  422TMC3    C1 6292   2.280   3.629  12.542 -1.1988  0.1504  0.3112
  422TMC3    C2 6293   2.248   3.760  12.571 -0.2027 -0.0380 -0.2399
  422TMC3    C3 6294   2.146   3.775  12.670  0.0028  0.4848  0.4309
  422TMC3    C4 6295   2.206   3.525  12.581  0.0081  0.3506 -0.1785
  422TMC3    C5 6296   2.099   3.544  12.670  0.5104 -0.3278 -0.1372
  422TMC3    C6 6297   2.074   3.668  12.719  0.2063  0.1246 -0.4861
  422TMC3     C 6298   2.381   3.614  12.436  0.6154  0.2975  0.4258
  422TMC3     O 6299   2.397   3.708  12.360  0.0104 -0.3069 -0.4103
  422TMC3     H 6300   2.299   3.844  12.524  2.8133 -1.7094  0.0555
  422TMC3    H1 6301   2.215   3.427  12.535 -2.6203  0.7053 -1.4787
  422TMC3    H2 6302   2.001   3.678  12.798 -2.1105  0.3429 -2.6747
  422TMC3    C7 6303   2.057   3.422  12.734  0.4341  0.7528  0.0274
  422TMC3    C8 6304   2.117   3.913  12.715  0.3544 -0.2255 -0.0051
  422TMC3    O1 6305   2.136   3.330  12.732  0.1579  0.3282  0.2337
  422TMC3    O2 6306   2.211   3.988  12.696 -0.1526 -0.0401 -0.1227
  423MPD2     C 6307   3.306   0.633   0.419 -0.2351  0.0803  0.4098
  423MPD2    C1 6308   3.406   0.585   0.493  0.2148 -0.3431  0.2580
  423MPD2    C2 6309   3.487   0.482   0.445 -0.1907  0.2946 -0.2893
  423MPD2    C3 6310   3.468   0.437   0.314  0.2489 -0.9687  0.3712
  423MPD2    C4 6311   3.366   0.483   0.237  0.0249 -0.1926  0.7116
  423MPD2    C5 6312   3.279   0.579   0.291  0.5457 -0.5810  0.1646
  423MPD2     H 6313   3.567   0.450   0.510 -0.9298 -2.1969 -0.6101
  423MPD2    H1 6314   3.344   0.443   0.139  0.6584  0.1985  0.4124
  423MPD2    H2 6315   3.236   0.701   0.466  0.7496  0.5072  1.2399
  423MPD2    H3 6316   3.211   0.613   0.214 -1.7270  2.6240  3.6086
  423MPD2     N 6317   3.552   0.339   0.254  0.7033  0.5770 -0.0350
  423MPD2    H5 6318   3.548   0.319   0.155 -0.0452 -2.1073  0.5374
  423MPD2    N1 6319   3.436   0.643   0.619  0.3315  0.6562 -0.3220
  423MPD2    H7 6320   3.516   0.613   0.672 -0.8084 -1.5238  0.1441
  424TMC3    C1 6321   3.442   0.795   0.801 -0.0027 -0.0627 -0.5747
  424TMC3    C2 6322   3.569   0.745   0.838 -0.3991  0.6179  0.2214
  424TMC3    C3 6323   3.598   0.771   0.967  0.3035 -0.3092 -0.1008
  424TMC3    C4 6324   3.368   0.869   0.890 -0.5701 -0.7605  1.0505
  424TMC3    C5 6325   3.406   0.877   1.018  0.2984  0.3640 -0.3714
  424TMC3    C6 6326   3.519   0.839   1.063  0.3618 -0.2594  0.0586
  424TMC3     C 6327   3.380   0.757   0.678 -0.3933 -0.3092 -0.3327
  424TMC3     O 6328   3.291   0.827   0.639  0.9308  0.1323  0.4938
  424TMC3     H 6329   3.636   0.699   0.766 -0.1292 -0.1036  0.9356
  424TMC3    H1 6330   3.267   0.889   0.858 -0.1221  1.3111  0.9588
  424TMC3    H2 6331   3.551   0.868   1.163 -1.5519 -0.2649  0.6762
  424TMC3    C7 6332   3.326   0.968   1.095  0.5019  0.7159 -0.1997
  424TMC3    C8 6333   3.721   0.712   1.026  0.0309  0.1386  0.7942
  424TMC3    O1 6334   3.239   1.025   1.029 -0.0786  0.0108  0.2181
  424TMC3    O2 6335   3.707   0.649   1.131 -0.0654 -0.0615  0.3288
  425MPD2     C 6336   2.929   4.248  16.965 -0.7185 -0.1842 -0.0556
  425MPD2    C1 6337   2.931   4.214  17.099  0.0218  0.5084  0.1967
  425MPD2    C2 6338   2.857   4.298  17.184 -0.4172 -0.7934  0.0450
  425MPD2    C3 6339   2.773   4.398  17.141  0.2527 -0.1555 -0.2468
  425MPD2    C4 6340   2.760   4.414  17.001 -0.1490 -0.7106 -0.6811
  425MPD2    C5 6341   2.846   4.346  16.919  0.8069 -0.2439  0.1681
  425MPD2     H 6342   2.852   4.270  17.288 -0.5085 -1.1839 -0.0646
  425MPD2    H1 6343   2.691   4.490  16.964 -0.1050  0.1512  1.0223
  425MPD2    H2 6344   2.984   4.191  16.890 -0.0871 -1.0184  1.0541
  425MPD2    H3 6345   2.848   4.359  16.812 -3.1130 -3.7328 -0.3596
  425MPD2     N 6346   2.696   4.462  17.237  0.4106  0.0195 -0.4947
  425MPD2    H5 6347   2.725   4.456  17.334  2.0735  1.8160 -0.8825
  425MPD2    N1 6348   3.006   4.112  17.148 -0.8667 -0.4108  0.1617
  425MPD2    H7 6349   3.056   4.063  17.074 -1.8885 -0.3171 -0.6013
  426TMC3    C1 6350   3.116   3.951  17.291  0.4406  0.6102  0.3008
  426TMC3    C2 6351   3.094   3.856  17.195  0.0913  0.3661 -0.4826
  426TMC3    C3 6352   3.145   3.733  17.212 -0.2904 -0.9634 -0.1655
  426TMC3    C4 6353   3.185   3.936  17.403 -0.1370  0.4603  0.0122
  426TMC3    C5 6354   3.251   3.819  17.406  0.6562  0.2139 -0.0581
  426TMC3    C6 6355   3.230   3.718  17.314  0.2175 -0.1499  0.0669
  426TMC3     C 6356   3.041   4.072  17.277  0.1041  0.0652  0.6017
  426TMC3     O 6357   3.004   4.126  17.382  0.3943 -0.7183  0.3073
  426TMC3     H 6358   3.032   3.866  17.107  1.1111  0.3862 -1.1846
  426TMC3    H1 6359   3.211   4.022  17.465 -0.9898  0.0496  0.9389
  426TMC3    H2 6360   3.261   3.615  17.331  2.9388  0.3568 -1.8000
  426TMC3    C7 6361   3.340   3.778  17.516 -0.0464 -0.2630 -0.2333
  426TMC3    C8 6362   3.121   3.618  17.118 -0.4891  0.0087 -0.1389
  426TMC3    O1 6363   3.417   3.687  17.489  0.4379 -0.0326 -0.3744
  426TMC3    O2 6364   3.216   3.547  17.090  0.4489 -0.5051 -0.0077
  427MPD2     C 6365   1.498   1.477  14.970 -0.1282  0.0349 -0.0655
  427MPD2    C1 6366   1.453   1.459  15.095  0.3444 -0.7246 -0.0601
  427MPD2    C2 6367   1.327   1.474  15.140 -0.3736 -0.2546  0.7932
  427MPD2    C3 6368   1.233   1.511  15.043 -0.4727 -0.1754 -1.2679
  427MPD2    C4 6369   1.269   1.529  14.913 -0.2317 -0.4917  0.0609
  427MPD2    C5 6370   1.405   1.519  14.880  0.2227  0.2222 -0.0442
  427MPD2     H 6371   1.310   1.457  15.246 -2.8715 -3.2288 -0.0903
  427MPD2    H1 6372   1.195   1.566  14.843  1.9849  2.3616 -0.7746
  427MPD2    H2 6373   1.599   1.469  14.932  0.2781 -0.2894  1.0789
  427MPD2    H3 6374   1.437   1.551  14.781 -1.8992 -1.0447 -1.1278
  427MPD2     N 6375   1.100   1.552  15.076  0.6674 -0.0852 -0.3187
  427MPD2    H5 6376   1.039   1.566  14.997  1.1489  0.4136 -0.6034
  427MPD2    N1 6377   1.546   1.416  15.189 -0.4344  0.5093  0.0502
  427MPD2    H7 6378   1.511   1.386  15.280 -2.6280  1.6675 -0.4254
  428TMC3    C1 6379   1.759   1.350  15.282 -0.1312 -0.5092 -0.1680
  428TMC3    C2 6380   1.708   1.241  15.353  0.8636 -0.1329  0.1753
  428TMC3    C3 6381   1.787   1.187  15.446  0.1432 -0.6326  1.1605
  428TMC3    C4 6382   1.879   1.404  15.316  1.2440 -0.1940  0.1981
  428TMC3    C5 6383   1.949   1.348  15.421 -1.0448  0.8661  0.3349
  428TMC3    C6 6384   1.913   1.233  15.485 -0.1728 -0.6053 -0.6872
  428TMC3     C 6385   1.682   1.398  15.172  0.1809  0.2710 -0.7172
  428TMC3     O 6386   1.758   1.435  15.086  0.1735 -0.1736  0.3051
  428TMC3     H 6387   1.611   1.202  15.327  0.7459  0.9716 -1.0550
  428TMC3    H1 6388   1.907   1.495  15.265  1.0526  0.8581  1.9703
  428TMC3    H2 6389   1.971   1.175  15.556 -0.1815  0.0605 -0.1373
  428TMC3    C7 6390   2.086   1.380  15.441  0.7415  0.4739  0.0719
  428TMC3    C8 6391   1.735   1.060  15.494 -0.2237 -0.3364 -0.1313
  428TMC3    O1 6392   2.126   1.370  15.558 -0.3337 -0.2280 -0.2424
  428TMC3    O2 6393   1.674   0.995  15.411 -0.7516 -0.0455 -0.0924
  429MPD2     C 6394   2.744   2.048  17.385 -0.6498 -0.1869  0.5958
  429MPD2    C1 6395   2.828   1.947  17.350 -0.0352  0.2223 -0.0029
  429MPD2    C2 6396   2.939   1.991  17.288  0.8638  0.5828 -0.3915
  429MPD2    C3 6397   2.955   2.122  17.238  0.1097  0.1234 -0.2547
  429MPD2    C4 6398   2.861   2.218  17.271 -0.8459  0.3698 -0.8000
  429MPD2    C5 6399   2.751   2.182  17.346  0.7810 -0.5549  0.0376
  429MPD2     H 6400   3.008   1.914  17.254 -0.9230 -0.6320 -1.2403
  429MPD2    H1 6401   2.879   2.325  17.263 -1.6919  0.6827  1.4943
  429MPD2    H2 6402   2.659   2.036  17.452 -1.3600  1.2405 -0.0670
  429MPD2    H3 6403   2.680   2.254  17.384  0.5666 -1.4222  1.2983
  429MPD2     N 6404   3.069   2.145  17.153 -0.2358  0.4741  0.4955
  429MPD2    H5 6405   3.128   2.062  17.153 -0.2811  0.4294 -1.0768
  429MPD2    N1 6406   2.812   1.815  17.387 -0.3189 -0.6170 -0.9344
  429MPD2    H7 6407   2.889   1.751  17.370  1.4238  1.5781 -1.4035
  430TMC3    C1 6408   3.220   2.243  17.015 -0.2575 -0.0645  0.2357
  430TMC3    C2 6409   3.192   2.293  16.890  0.0781  0.0354  0.6278
  430TMC3    C3 6410   3.253   2.227  16.781  0.0612  0.6467 -0.5990
  430TMC3    C4 6411   3.308   2.136  17.031  0.1089  0.4225  0.5632
  430TMC3    C5 6412   3.373   2.082  16.925 -0.0809  0.0683 -0.1445
  430TMC3    C6 6413   3.340   2.124  16.800  0.2908 -0.7935  0.0882
  430TMC3     C 6414   3.102   2.266  17.100  0.4215  0.3366 -0.3398
  430TMC3     O 6415   3.038   2.374  17.090  0.7120 -0.2246  0.4825
  430TMC3     H 6416   3.127   2.379  16.879 -1.3673 -1.0993  0.2949
  430TMC3    H1 6417   3.334   2.097  17.129 -1.4478  0.7430  1.1007
  430TMC3    H2 6418   3.370   2.067  16.713 -2.3270  2.2021 -2.8043
  430TMC3    C7 6419   3.418   1.948  16.922  0.1853  0.6981  0.1700
  430TMC3    C8 6420   3.178   2.225  16.657  0.1775  0.7468 -0.0649
  430TMC3    O1 6421   3.402   1.871  16.827  0.0055 -0.0234  0.5601
  430TMC3    O2 6422   3.184   2.124  16.591  0.3568  0.1992 -0.2922
  431MPD2     C 6423   3.310   1.641  12.654 -0.2220  0.2623  0.2891
  431MPD2    C1 6424   3.374   1.650  12.537  0.0745 -0.1690  0.2986
  431MPD2    C2 6425   3.334   1.587  12.423 -0.5018 -0.4708 -0.3852
  431MPD2    C3 6426   3.235   1.491  12.441 -0.1388  0.5171  0.4198
  431MPD2    C4 6427   3.174   1.480  12.563 -0.0066  0.0654  0.3224
  431MPD2    C5 6428   3.197   1.561  12.668  0.0978 -0.3353 -0.1117
  431MPD2     H 6429   3.387   1.603  12.330  2.0267  4.7838  2.0211
  431MPD2    H1 6430   3.096   1.407  12.585 -0.1275  0.2626  0.5401
  431MPD2    H2 6431   3.338   1.704  12.737 -2.5855 -0.9640  2.0195
  431MPD2    H3 6432   3.144   1.546  12.762 -1.3700  1.4012 -0.6731
  431MPD2     N 6433   3.193   1.406  12.336  0.2912 -0.3282  0.4392
  431MPD2    H5 6434   3.110   1.350  12.352 -0.6397  1.2368  1.1028
  431MPD2    N1 6435   3.489   1.727  12.519 -0.4476  0.4665  0.1667
  431MPD2    H7 6436   3.515   1.733  12.422 -0.0184  1.7501  0.3611
  432TMC3    C1 6437   3.167   1.313  12.128 -0.4571 -0.4323  0.5468
  432TMC3    C2 6438   3.230   1.314  12.003 -0.2081 -0.4130  0.0063
  432TMC3    C3 6439   3.273   1.204  11.940 -0.1046 -0.0307  0.2042
  432TMC3    C4 6440   3.159   1.194  12.194  0.2390  0.1849 -1.0553
  432TMC3    C5 6441   3.222   1.091  12.135 -0.0753 -0.1293 -0.4480
  432TMC3    C6 6442   3.267   1.082  12.007  0.3357  0.3020  0.3343
  432TMC3     C 6443   3.237   1.407  12.208 -0.1782  0.1933  0.5582
  432TMC3     O 6444   3.324   1.468  12.147  0.0810 -0.2964 -0.0786
  432TMC3     H 6445   3.250   1.407  11.951 -0.6077 -0.6683 -0.5957
  432TMC3    H1 6446   3.111   1.188  12.291  2.1499  0.4508 -0.1023
  432TMC3    H2 6447   3.304   0.989  11.964  1.1621  0.5035  0.6027
  432TMC3    C7 6448   3.277   0.988  12.219  0.1353 -0.1492  0.5445
  432TMC3    C8 6449   3.380   1.230  11.847  0.1960 -0.2763  0.0957
  432TMC3    O1 6450   3.334   0.897  12.160 -0.2215  0.6418 -0.2332
  432TMC3    O2 6451   3.457   1.319  11.884 -0.4348  0.1494  0.3496
  433MPD2     C 6452   2.584   0.077  11.080 -0.0481 -0.0370  0.2023
  433MPD2    C1 6453   2.453   0.025  11.103  0.5536  0.1467 -0.1466
  433MPD2    C2 6454   2.413   0.032  11.234  0.2268  0.2583 -1.0869
  433MPD2    C3 6455   2.480   0.117  11.326 -0.2247 -0.6198 -0.5105
  433MPD2    C4 6456   2.584   0.197  11.285 -0.1448 -0.4481  0.3956
  433MPD2    C5 6457   2.647   0.163  11.170  0.2311 -0.2443 -0.3243
  433MPD2     H 6458   2.321   4.705  11.265  1.3508 -1.1561  0.1105
  433MPD2    H1 6459   2.644   0.261  11.350  0.0767 -1.8467  1.5669
  433MPD2    H2 6460   2.630   0.063  10.983  1.3720 -3.0226  1.2796
  433MPD2    H3 6461   2.734   0.214  11.130  0.4503  1.0797  1.8636
  433MPD2     N 6462   2.441   0.115  11.462  0.5247 -0.3188  0.3945
  433MPD2    H5 6463   2.368   0.047  11.481 -0.8134  1.2399  0.7869
  433MPD2    N1 6464   2.386   4.676  10.997  0.7438 -0.6960  0.7479
  433MPD2    H7 6465   2.441   4.687  10.912  2.3921  0.4907  1.9723
  434TMC3    C1 6466   2.218   4.536  10.906  0.4778 -0.5710  0.3534
  434TMC3    C2 6467   2.295   4.421  10.919 -0.2264  0.1121  0.1168
  434TMC3    C3 6468   2.221   4.305  10.918  0.6513 -0.0485  0.4195
  434TMC3    C4 6469   2.086   4.542  10.877 -0.4993  0.3932  0.2319
  434TMC3    C5 6470   2.028   4.422  10.852 -0.2269  0.0296 -0.7976
  434TMC3    C6 6471   2.089   4.302  10.883 -0.1370  0.2071  0.1855
  434TMC3     C 6472   2.252   4.654  10.984 -0.7482  0.0805 -0.1317
  434TMC3     O 6473   2.159   4.688  11.055  0.0339 -0.6579  0.0374
  434TMC3     H 6474   2.397   4.431  10.954  0.6633 -2.8445 -1.7216
  434TMC3    H1 6475   2.030   4.633  10.862  0.4134  0.9798  0.3426
  434TMC3    H2 6476   2.043   4.204  10.882  0.3996 -0.0600  1.5562
  434TMC3    C7 6477   1.952   4.423  10.726 -0.6311 -0.2012 -0.2528
  434TMC3    C8 6478   2.271   4.187  10.987 -0.0299 -0.3519 -0.2562
  434TMC3    O1 6479   1.888   4.523  10.695  0.3308 -0.2213  0.2210
  434TMC3    O2 6480   2.196   4.118  11.055 -0.5911 -0.2078 -0.0332
  435MPD2     C 6481   4.010   4.586  15.519 -0.7832 -0.6028 -0.0287
  435MPD2    C1 6482   3.989   4.662  15.633 -0.2560 -0.2207 -0.3858
  435MPD2    C2 6483   4.091   4.667  15.727  0.3003  0.8744 -0.6352
  435MPD2    C3 6484   4.209   4.596  15.703 -0.0797 -0.5427  0.7729
  435MPD2    C4 6485   4.228   4.518  15.592  0.0771 -0.2544 -0.3996
  435MPD2    C5 6486   4.120   4.512  15.509 -0.0879  0.2141  0.3023
  435MPD2     H 6487   4.080   4.721  15.820 -0.9485 -0.8243  0.1900
  435MPD2    H1 6488   4.316   4.461  15.562 -0.4792 -0.4034 -1.7334
  435MPD2    H2 6489   3.935   4.571  15.442  0.6031 -0.4600 -1.4108
  435MPD2    H3 6490   4.132   4.457  15.416  2.7963  0.4544  0.5351
  435MPD2     N 6491   4.312   4.620  15.795  0.0167 -0.0776  0.0694
  435MPD2    H5 6492   4.296   4.678  15.876  2.4007  1.2927 -0.4319
  435MPD2    N1 6493   3.864   0.016  15.652 -0.4922 -0.0410  0.1070
  435MPD2    H7 6494   3.859   0.090  15.721  0.2477 -0.8192  0.9990
  436TMC3    C1 6495   3.518   0.216  15.784  0.3255  0.8249  0.9172
  436TMC3    C2 6496   3.625   0.144  15.752  0.3904 -0.3539 -0.8504
  436TMC3    C3 6497   3.652   0.117  15.623  0.1200 -0.0376  0.2906
  436TMC3    C4 6498   3.435   0.260  15.689  0.6165 -0.1847  0.1099
  436TMC3    C5 6499   3.460   0.224  15.557 -0.3980 -0.1715 -1.3456
  436TMC3    C6 6500   3.567   0.153  15.522 -0.0650  0.1566 -0.4526
  436TMC3     C 6501   3.487   0.231  15.926  0.4708  0.5976 -0.8508
  436TMC3     O 6502   3.532   0.140  15.999  0.4313 -0.0766  0.3877
  436TMC3     H 6503   3.684   0.110  15.836 -1.5570  0.2292  0.7419
  436TMC3    H1 6504   3.335   0.295  15.710  1.1025 -0.7684  3.2692
  436TMC3    H2 6505   3.583   0.121  15.420  1.2732 -1.3562  0.2353
  436TMC3    C7 6506   3.351   0.242  15.463 -0.3138  0.4300  0.3248
  436TMC3    C8 6507   3.745   0.014  15.580  0.6521  0.2037  0.0298
  436TMC3    O1 6508   3.245   0.284  15.509 -0.5174 -0.0265  0.5034
  436TMC3    O2 6509   3.726   4.685  15.471  0.3388  0.3208 -0.3932
  437TMC3    C1 6510   2.890   2.327  12.480  0.2261 -0.2766 -0.5184
  437TMC3    C2 6511   2.779   2.308  12.405  0.2014 -0.2242 -0.2702
  437TMC3    C3 6512   2.786   2.331  12.269 -0.0269  0.6102  0.2358
  437TMC3    C4 6513   3.009   2.376  12.429  1.0357  0.6676 -0.2089
  437TMC3    C5 6514   3.010   2.393  12.287  0.2605 -0.1977  0.2691
  437TMC3    C6 6515   2.899   2.380  12.213 -0.3102 -0.0946  0.5422
  437TMC3     C 6516   2.891   2.269  12.614  0.1516  0.0652  0.2575
  437TMC3     O 6517   3.000   2.259  12.667  0.2530  0.0169  0.0354
  437TMC3     H 6518   2.698   2.256  12.454  2.6649  0.5236  4.5792
  437TMC3    H1 6519   3.097   2.378  12.492  2.5055  2.1261 -2.2637
  437TMC3    H2 6520   2.922   2.370  12.108 -0.7993  2.1386  0.2348
  437TMC3    C7 6521   3.136   2.435  12.215 -0.5969  1.2537 -0.5842
  437TMC3    C8 6522   2.666   2.338  12.181 -0.1578  0.3535 -0.6031
  437TMC3    O1 6523   3.128   2.457  12.094 -0.4590  0.1262 -0.3347
  437TMC3    O2 6524   2.566   2.286  12.226 -0.2945 -0.0637 -0.1422
  438MPD2     C 6525   0.956   3.366  16.341  0.7453 -0.3153 -0.5348
  438MPD2    C1 6526   1.018   3.326  16.454 -0.1882 -0.2311 -0.8302
  438MPD2    C2 6527   1.009   3.401  16.566 -0.2381 -0.7431 -0.6159
  438MPD2    C3 6528   0.925   3.514  16.573 -0.3705  0.6279 -0.1278
  438MPD2    C4 6529   0.857   3.549  16.458 -0.2478  0.2421  0.1294
  438MPD2    C5 6530   0.869   3.475  16.346 -0.0669 -0.3090  0.8997
  438MPD2     H 6531   1.062   3.365  16.653 -1.3497 -1.3913 -0.2111
  438MPD2    H1 6532   0.803   3.642  16.448  0.2341  0.5297  0.1991
  438MPD2    H2 6533   0.978   3.305  16.254  1.2326 -1.6072  0.4927
  438MPD2    H3 6534   0.824   3.506  16.253  1.0367 -0.6056  0.2623
  438MPD2     N 6535   0.914   3.592  16.683 -0.2195 -0.6210 -0.7487
  438MPD2    H5 6536   0.853   3.673  16.684  0.1461 -0.3523 -0.3172
  438MPD2    N1 6537   1.104   3.214  16.468  0.0275 -0.3184  0.5967
  438MPD2    H7 6538   1.136   3.191  16.562  2.0021  1.8185  0.4493
  439TMC3    C1 6539   1.258   3.044  16.425 -0.3163 -0.1389 -0.3820
  439TMC3    C2 6540   1.283   2.940  16.341 -0.6714  0.4990  0.3629
  439TMC3    C3 6541   1.386   2.863  16.376 -1.1364  1.0075 -0.5003
  439TMC3    C4 6542   1.341   3.082  16.533 -0.0959  0.2833  0.0856
  439TMC3    C5 6543   1.443   2.998  16.550 -0.0146  0.4266 -0.0786
  439TMC3    C6 6544   1.465   2.888  16.479 -0.0843  0.5633 -0.3136
  439TMC3     C 6545   1.162   3.140  16.370  0.5588 -0.0068 -0.4728
  439TMC3     O 6546   1.141   3.139  16.248  0.0553  1.0247 -0.5422
  439TMC3     H 6547   1.224   2.916  16.253 -2.2203 -1.6776  2.0073
  439TMC3    H1 6548   1.323   3.179  16.576 -0.3025  1.4115 -2.5209
  439TMC3    H2 6549   1.534   2.811  16.512  1.0304  2.0839  0.8796
  439TMC3    C7 6550   1.533   3.034  16.660  0.6082  0.2458 -0.0743
  439TMC3    C8 6551   1.420   2.740  16.312  0.2945 -0.5827 -0.6510
  439TMC3    O1 6552   1.488   3.104  16.748  0.0497  0.2517  0.0320
  439TMC3    O2 6553   1.539   2.719  16.290  0.3859  0.0641  0.0213
  440MPD2     C 6554   3.881   3.204  14.779  0.1754  1.0599 -0.4002
  440MPD2    C1 6555   3.966   3.191  14.894 -0.3521 -0.0286 -0.3044
  440MPD2    C2 6556   4.059   3.087  14.894  0.0300 -0.8891 -0.2291
  440MPD2    C3 6557   4.062   2.991  14.790 -0.0538  0.5320 -0.3217
  440MPD2    C4 6558   3.973   2.998  14.684 -1.4293 -0.8838  0.6043
  440MPD2    C5 6559   3.885   3.107  14.680 -0.1420 -0.5784  0.4013
  440MPD2     H 6560   4.137   3.089  14.969 -0.7593 -0.2901  0.5732
  440MPD2    H1 6561   3.975   2.922  14.607 -2.2567  1.7701 -2.0260
  440MPD2    H2 6562   3.815   3.288  14.764  0.0062  1.2394  1.3178
  440MPD2    H3 6563   3.823   3.120  14.591 -1.2473 -1.6083  1.0254
  440MPD2     N 6564   4.152   2.880  14.795  0.0814 -0.2244  0.0080
  440MPD2    H5 6565   4.142   2.809  14.724  1.6909 -0.4607  0.0142
  440MPD2    N1 6566   3.966   3.281  14.996 -0.2292  0.4231 -0.4976
  440MPD2    H7 6567   4.043   3.267  15.061  1.0339  2.2891 -1.5799
  441TMC3    C1 6568   4.312   2.736  14.866  0.0313 -0.1314 -0.0748
  441TMC3    C2 6569   4.403   2.753  14.761  0.3335 -0.9449  0.6076
  441TMC3    C3 6570   4.545   2.739  14.764 -0.1493 -0.5687  0.0913
  441TMC3    C4 6571   4.375   2.700  14.981 -0.9189  0.2349  1.0257
  441TMC3    C5 6572   4.509   2.673  14.986  0.1065  0.2828 -0.4321
  441TMC3    C6 6573   4.597   2.684  14.882 -0.1557 -0.0031 -0.8530
  441TMC3     C 6574   4.242   2.856  14.894  0.6131 -0.1084  0.1164
  441TMC3     O 6575   4.276   2.925  14.989 -0.4335  0.4696  0.0104
  441TMC3     H 6576   4.358   2.804  14.677  0.4726  1.3729  1.9181
  441TMC3    H1 6577   4.321   2.690  15.075 -1.5670 -0.4106  0.5800
  441TMC3    H2 6578   4.704   2.679  14.897 -0.4958 -0.6900  1.2485
  441TMC3    C7 6579   4.568   2.690  15.120  0.8022  0.0988 -0.9039
  441TMC3    C8 6580   4.618   2.848  14.714  0.2093  0.0016 -0.2611
  441TMC3    O1 6581   4.504   2.634  15.207 -0.5131 -0.7532  0.5514
  441TMC3    O2 6582   0.005   2.828  14.667  0.7348  0.3340 -0.0674
  442MPD2     C 6583   3.014   3.628  16.679 -0.2721  0.4294  0.5608
  442MPD2    C1 6584   2.884   3.644  16.640  0.2692  0.4629  0.0249
  442MPD2    C2 6585   2.833   3.567  16.537  0.0496 -0.4136 -1.0393
  442MPD2    C3 6586   2.910   3.478  16.468 -0.2162 -0.3792  0.2511
  442MPD2    C4 6587   3.039   3.471  16.506  0.4461  1.1164  1.0957
  442MPD2    C5 6588   3.090   3.535  16.611  0.1475  0.2206  0.5438
  442MPD2     H 6589   2.727   3.574  16.515 -0.2338 -0.3422  0.3897
  442MPD2    H1 6590   3.106   3.415  16.442 -0.5519 -2.0216  2.8260
  442MPD2    H2 6591   3.057   3.688  16.759 -3.3430  1.4946  1.4167
  442MPD2    H3 6592   3.194   3.520  16.638  0.8929  1.1581 -1.7851
  442MPD2     N 6593   2.861   3.397  16.365  0.0877  0.6525  0.5234
  442MPD2    H5 6594   2.927   3.335  16.319  2.3703  2.4410  1.3919
  442MPD2    N1 6595   2.797   3.744  16.691 -0.0902  0.1133  0.1289
  442MPD2    H7 6596   2.706   3.759  16.648  0.4138  1.9156 -0.3335
  443TMC3    C1 6597   2.714   3.915  16.836 -0.7157 -0.5856  0.5470
  443TMC3    C2 6598   2.626   3.949  16.738 -0.1558 -0.7633  0.4129
  443TMC3    C3 6599   2.509   4.013  16.776  0.1194  0.0806 -0.2468
  443TMC3    C4 6600   2.694   3.950  16.963 -0.1723  0.0658 -0.0017
  443TMC3    C5 6601   2.578   4.016  17.000 -0.2873  0.2065  0.4712
  443TMC3    C6 6602   2.479   4.049  16.906  0.1727  0.2738 -0.3115
  443TMC3     C 6603   2.821   3.819  16.805  0.6718 -0.1139  0.5274
  443TMC3     O 6604   2.921   3.843  16.870  0.4085  0.4393  0.4692
  443TMC3     H 6605   2.650   3.921  16.636  1.9518  0.3964  0.6023
  443TMC3    H1 6606   2.756   3.908  17.042  0.9689  0.8005 -0.5134
  443TMC3    H2 6607   2.382   4.095  16.920  1.5450  2.9922  0.3202
  443TMC3    C7 6608   2.517   3.969  17.127 -0.0564  0.0759  0.2657
  443TMC3    C8 6609   2.396   3.994  16.683  0.7213  0.1043  0.1528
  443TMC3    O1 6610   2.546   3.854  17.163 -0.0257  0.1159  0.5355
  443TMC3    O2 6611   2.407   3.899  16.606  0.3073  0.2324  0.2065
  444MPD2     C 6612   2.961   3.695   0.066 -0.6290  0.4474  0.3571
  444MPD2    C1 6613   2.846   3.648   0.001 -0.1186  0.2962 -0.4658
  444MPD2    C2 6614   2.869   3.563  17.583 -0.8308  0.2892  0.4478
  444MPD2    C3 6615   2.990   3.525  17.538  0.2063  1.0853  1.1379
  444MPD2    C4 6616   3.099   3.566  17.606 -0.4348 -0.2872  0.6672
  444MPD2    C5 6617   3.090   3.649   0.039  0.3219  0.4625  0.4260
  444MPD2     H 6618   2.783   3.534  17.524 -0.2317 -1.6996  0.5597
  444MPD2    H1 6619   3.194   3.519  17.585  1.3793  3.8799 -0.3516
  444MPD2    H2 6620   2.952   3.768   0.145  0.8400  0.0615  0.8900
  444MPD2    H3 6621   3.174   3.666   0.105  0.6773  4.3296 -0.9933
  444MPD2     N 6622   2.997   3.428  17.431  0.0031 -0.1323 -0.5657
  444MPD2    H5 6623   2.914   3.403  17.379 -2.2880  1.2594  2.3671
  444MPD2    N1 6624   2.710   3.678   0.036  0.5953 -0.4321 -0.1481
  444MPD2    H7 6625   2.630   3.628  17.685 -1.1888  1.5325  1.0114
  445TMC3    C1 6626   3.077   3.267  17.276  0.3553 -0.7942 -0.0839
  445TMC3    C2 6627   2.956   3.202  17.278  0.2344 -0.1845 -0.5671
  445TMC3    C3 6628   2.934   3.111  17.175 -0.6145  0.3517 -0.2331
  445TMC3    C4 6629   3.181   3.225  17.196  0.6909 -0.8647  0.2290
  445TMC3    C5 6630   3.154   3.122  17.104  0.0954  0.4325  0.4442
  445TMC3    C6 6631   3.031   3.076  17.084  0.3939 -0.0968  0.1223
  445TMC3     C 6632   3.112   3.368  17.382 -0.1828 -0.4982  0.6994
  445TMC3     O 6633   3.232   3.374  17.405 -0.3024  0.1701 -0.4734
  445TMC3     H 6634   2.891   3.211  17.365  1.6056  2.1129  0.2498
  445TMC3    H1 6635   3.276   3.272  17.219  1.5437 -2.3064 -0.3170
  445TMC3    H2 6636   3.011   3.002  17.007 -1.9108  1.3447 -0.6751
  445TMC3    C7 6637   3.259   3.054  17.028  1.3655  0.6864 -0.0949
  445TMC3    C8 6638   2.806   3.047  17.157  0.8894  0.5206 -0.2014
  445TMC3    O1 6639   3.234   2.972  16.938  0.2778 -0.2217 -0.2630
  445TMC3    O2 6640   2.804   2.948  17.087 -0.1343  0.2397 -0.3367
  446MPD2     C 6641   2.213   4.246  11.514 -0.0243  0.4951  0.0384
  446MPD2    C1 6642   2.198   4.250  11.377 -1.1194  0.0456  0.3585
  446MPD2    C2 6643   2.293   4.319  11.305 -0.2052  0.2633 -0.2634
  446MPD2    C3 6644   2.407   4.357  11.367  0.2357 -0.1019 -0.1854
  446MPD2    C4 6645   2.426   4.349  11.501  0.0472  0.3738  0.7408
  446MPD2    C5 6646   2.322   4.298  11.577 -0.0419 -0.0159  0.1521
  446MPD2     H 6647   2.277   4.326  11.198 -1.6883  1.3483  0.0285
  446MPD2    H1 6648   2.513   4.391  11.549  0.4093 -0.0537  0.4629
  446MPD2    H2 6649   2.140   4.196  11.576 -1.3167  2.0976 -0.2055
  446MPD2    H3 6650   2.331   4.302  11.685  1.5814 -1.0261  0.0652
  446MPD2     N 6651   2.509   4.409  11.286 -0.2321  0.3359 -0.4490
  446MPD2    H5 6652   2.489   4.419  11.187  0.0135 -0.6397 -0.6015
  446MPD2    N1 6653   2.097   4.184  11.304  0.5935  0.4281  0.1651
  446MPD2    H7 6654   2.096   4.197  11.203  0.8057 -2.9081 -0.2570
  447TMC3    C1 6655   2.723   4.449  11.202  0.4439  0.6638  0.2304
  447TMC3    C2 6656   2.676   4.482  11.079 -0.1339 -0.1362  0.2041
  447TMC3    C3 6657   2.761   4.497  10.976 -0.0779  0.8589 -0.2479
  447TMC3    C4 6658   2.856   4.417  11.214  0.0439 -1.1129 -0.5311
  447TMC3    C5 6659   2.938   4.412  11.104  0.6706  0.1586 -0.0004
  447TMC3    C6 6660   2.890   4.457  10.985  0.9836 -0.0142  0.6204
  447TMC3     C 6661   2.645   4.429  11.316 -0.0730 -0.8552 -0.1786
  447TMC3     O 6662   2.714   4.413  11.419  0.0035  0.4382 -0.0715
  447TMC3     H 6663   2.576   4.520  11.063 -1.0689 -2.8326 -0.3703
  447TMC3    H1 6664   2.896   4.375  11.305  0.7778 -1.1396 -0.8689
  447TMC3    H2 6665   2.962   4.481  10.907  0.6849 -0.5787  0.1773
  447TMC3    C7 6666   3.076   4.348  11.111  0.1013  0.5601  0.2315
  447TMC3    C8 6667   2.702   4.512  10.845 -0.5635  0.7220 -0.0777
  447TMC3    O1 6668   3.137   4.354  11.007 -0.4144 -0.6370 -0.0096
  447TMC3    O2 6669   2.588   4.555  10.837  0.6678 -0.1137 -0.3544
  448TMC3    C1 6670   1.114   0.205  17.342 -0.2124  0.1260 -0.2620
  448TMC3    C2 6671   1.080   0.116  17.239 -0.1245 -0.2949 -0.0764
  448TMC3    C3 6672   1.182   0.052  17.175 -0.5298 -0.3479 -0.5331
  448TMC3    C4 6673   1.244   0.231  17.379 -0.1029  0.7180 -0.0596
  448TMC3    C5 6674   1.338   0.174  17.303 -0.0173  0.3035  0.1783
  448TMC3    C6 6675   1.316   0.069  17.213 -0.2099 -0.2721  0.1443
  448TMC3     C 6676   1.010   0.293  17.392  0.3885 -0.5738 -0.0246
  448TMC3     O 6677   1.051   0.393  17.452 -0.3220 -0.0068 -0.1813
  448TMC3     H 6678   0.976   0.101  17.212  0.2575 -2.2270 -0.5143
  448TMC3    H1 6679   1.272   0.306  17.453  0.2700 -0.1630  0.6920
  448TMC3    H2 6680   1.400   0.009  17.181  1.1788  1.1450  1.1758
  448TMC3    C7 6681   1.460   0.144  17.373 -0.0600 -0.5212 -0.1313
  448TMC3    C8 6682   1.160   4.659  17.087 -0.5595 -0.0701 -0.2171
  448TMC3    O1 6683   1.559   0.130  17.306  0.2977 -0.2601 -0.1294
  448TMC3    O2 6684   1.257   4.585  17.076 -0.2227 -0.4877  0.6941
  449MPD2     C 6685   2.135   2.361  13.838 -0.2334  0.4190  0.8016
  449MPD2    C1 6686   2.032   2.281  13.788 -0.2675 -0.5643 -0.4935
  449MPD2    C2 6687   1.952   2.199  13.866  0.5291 -0.0650 -0.4248
  449MPD2    C3 6688   1.969   2.200  14.001  0.4725  0.2239  0.1101
  449MPD2    C4 6689   2.078   2.273  14.054  0.3006  0.3010  0.4214
  449MPD2    C5 6690   2.155   2.346  13.967 -0.6301  0.1573 -0.4789
  449MPD2     H 6691   1.872   2.137  13.826  0.4966 -0.1029 -0.3021
  449MPD2    H1 6692   2.113   2.263  14.156 -0.3285 -2.8038  0.3267
  449MPD2    H2 6693   2.200   2.421  13.775 -1.5055  1.3460  0.3591
  449MPD2    H3 6694   2.243   2.395  14.007 -0.9685 -0.9047  1.5551
  449MPD2     N 6695   1.871   2.133  14.082 -0.2436  0.8917 -0.7083
  449MPD2    H5 6696   1.800   2.099  14.019 -1.2433  1.8095 -0.0928
  449MPD2    N1 6697   1.999   2.276  13.653 -0.5588 -0.2734  0.1334
  449MPD2    H7 6698   1.932   2.207  13.620 -1.3148 -0.1527  1.4167
  450TMC3    C1 6699   1.970   2.322  13.438 -0.2457 -0.6106 -0.1062
  450TMC3    C2 6700   2.020   2.339  13.314  0.3873  0.1045  0.7899
  450TMC3    C3 6701   1.938   2.313  13.201 -0.4582 -0.1887 -0.7503
  450TMC3    C4 6702   1.838   2.298  13.457 -0.4716  0.0635 -0.5050
  450TMC3    C5 6703   1.767   2.272  13.347 -0.1345  0.2221  0.4476
  450TMC3    C6 6704   1.813   2.260  13.221  0.4492 -0.4042  0.2684
  450TMC3     C 6705   2.039   2.355  13.555  0.3328 -0.1382 -0.0382
  450TMC3     O 6706   2.127   2.437  13.549  0.2791 -0.2615 -0.0198
  450TMC3     H 6707   2.119   2.383  13.315 -0.8592  2.8163  3.2695
  450TMC3    H1 6708   1.790   2.327  13.550  0.8129  1.1464 -0.1841
  450TMC3    H2 6709   1.745   2.234  13.141  1.7051 -2.5647 -0.0947
  450TMC3    C7 6710   1.629   2.234  13.366  0.1957 -0.6938 -0.1814
  450TMC3    C8 6711   1.981   2.351  13.071 -0.5254 -0.0810 -0.9648
  450TMC3    O1 6712   1.548   2.260  13.278  0.6129 -0.3921 -0.7909
  450TMC3    O2 6713   1.900   2.344  12.986  1.1562  0.4455  0.2330
  451MPD2     C 6714   3.072   1.342   1.670  0.1273  0.3252 -0.0525
  451MPD2    C1 6715   3.109   1.434   1.573  0.4326  0.3452  0.1203
  451MPD2    C2 6716   3.235   1.409   1.513  0.0531  1.0064 -0.0882
  451MPD2    C3 6717   3.321   1.316   1.552 -0.0047  0.2773  0.1478
  451MPD2    C4 6718   3.284   1.227   1.648  0.2321 -0.0222  0.0165
  451MPD2    C5 6719   3.164   1.246   1.709 -0.2003 -0.1541 -0.2815
  451MPD2     H 6720   3.276   1.478   1.441  1.7477  0.1341  0.0476
  451MPD2    H1 6721   3.347   1.144   1.676  0.4702  0.8056  2.0117
  451MPD2    H2 6722   2.974   1.346   1.716 -0.8441 -0.7345 -2.0121
  451MPD2    H3 6723   3.133   1.188   1.796  0.1973  0.6240  0.3878
  451MPD2     N 6724   3.450   1.297   1.502  0.3185 -0.0361  0.2142
  451MPD2    H5 6725   3.526   1.242   1.541  2.2182  2.3776 -0.0427
  451MPD2    N1 6726   3.014   1.531   1.528  0.7690  0.0167 -0.2511
  451MPD2    H7 6727   2.919   1.526   1.564  0.4874  2.4647 -0.6215
  452TMC3    C1 6728   3.638   1.334   1.354 -0.3324  0.1072 -0.7543
  452TMC3    C2 6729   3.734   1.274   1.432  0.4796 -0.5288 -0.3879
  452TMC3    C3 6730   3.862   1.285   1.394  0.4546  0.2316  0.1177
  452TMC3    C4 6731   3.676   1.396   1.235 -0.6586  0.5648 -0.4224
  452TMC3    C5 6732   3.806   1.413   1.207 -0.2528  0.2830 -0.2316
  452TMC3    C6 6733   3.906   1.357   1.287  0.5976  0.1062  0.1377
  452TMC3     C 6734   3.492   1.338   1.379 -0.3254 -0.3662  0.4308
  452TMC3     O 6735   3.422   1.391   1.289 -0.2964 -0.1733 -0.6287
  452TMC3     H 6736   3.705   1.209   1.513  3.2638 -0.1857  0.9034
  452TMC3    H1 6737   3.596   1.431   1.171 -0.1059  0.9504 -0.9115
  452TMC3    H2 6738   4.012   1.360   1.268  0.2808  1.8303 -1.3160
  452TMC3    C7 6739   3.834   1.514   1.115 -0.0508  0.6386 -0.6291
  452TMC3    C8 6740   3.953   1.235   1.491 -0.4087  0.2127 -0.3871
  452TMC3    O1 6741   3.735   1.550   1.052 -0.1643 -0.3200 -0.6178
  452TMC3    O2 6742   3.906   1.166   1.583  1.0646 -0.2315 -0.1742
  453TMC3    C1 6743   4.528   3.583  11.656  0.0013  0.3042  0.2759
  453TMC3    C2 6744   4.461   3.501  11.735 -1.2681 -0.0198 -0.6124
  453TMC3    C3 6745   4.455   3.366  11.706  1.1176  0.4328  0.2532
  453TMC3    C4 6746   4.575   3.535  11.533  0.5130 -0.5572  0.6606
  453TMC3    C5 6747   4.573   3.401  11.514 -0.2479  0.1170 -0.6405
  453TMC3    C6 6748   4.511   3.310  11.597  0.0178 -0.2009 -0.5598
  453TMC3     C 6749   4.617   3.685  11.715 -0.1708  0.3855 -0.2810
  453TMC3     O 6750   4.703   3.727  11.640  0.3048  0.6837 -0.1852
  453TMC3     H 6751   4.435   3.532  11.835  0.1034  0.7057 -0.4792
  453TMC3    H1 6752   4.624   3.592  11.454 -1.1542 -1.4486 -1.0315
  453TMC3    H2 6753   4.502   3.209  11.560  0.5998 -0.3059 -0.4115
  453TMC3    C7 6754   4.666   3.358  11.413  0.4418 -0.3271 -0.4649
  453TMC3    C8 6755   4.360   3.280  11.772  0.1713 -0.3491 -0.0484
  453TMC3    O1 6756   4.705   3.434  11.326  0.6376 -0.6504 -0.6455
  453TMC3    O2 6757   4.282   3.325  11.852 -0.2639  0.3573  0.7661
  454MPD2     C 6758   3.647   2.575  16.193 -0.3758 -0.9670  0.5501
  454MPD2    C1 6759   3.539   2.632  16.130  0.5764  0.2836 -0.1249
  454MPD2    C2 6760   3.447   2.702  16.199 -0.1619 -0.1670 -0.5510
  454MPD2    C3 6761   3.463   2.730  16.330  0.0367 -0.2667 -0.7664
  454MPD2    C4 6762   3.572   2.679  16.397  0.3825  0.1614 -0.2604
  454MPD2    C5 6763   3.663   2.601  16.327 -0.0404  0.4633 -0.1247
  454MPD2     H 6764   3.365   2.746  16.143 -1.3655  0.7400  1.9341
  454MPD2    H1 6765   3.588   2.698  16.503  1.4876 -0.0360 -0.3934
  454MPD2    H2 6766   3.733   2.525  16.150  0.9152  0.7684  1.1215
  454MPD2    H3 6767   3.760   2.577  16.369  0.4549  0.6251 -1.1805
  454MPD2     N 6768   3.376   2.818  16.389 -0.5118  0.0123 -0.6583
  454MPD2    H5 6769   3.294   2.855  16.341 -0.7755 -0.3698 -0.5019
  454MPD2    N1 6770   3.514   2.635  15.988  0.3148  0.3299  0.7452
  454MPD2    H7 6771   3.428   2.680  15.960 -0.3561 -0.5802  1.3786
  455TMC3    C1 6772   3.263   2.952  16.538 -0.0739 -0.3468  0.1766
  455TMC3    C2 6773   3.260   3.072  16.614 -0.1643 -0.0496  0.1988
  455TMC3    C3 6774   3.134   3.129  16.632  0.1803 -1.0381  0.3314
  455TMC3    C4 6775   3.149   2.907  16.478 -0.1942 -0.5130  0.7978
  455TMC3    C5 6776   3.038   2.976  16.487  0.2972 -0.1899 -0.0562
  455TMC3    C6 6777   3.026   3.091  16.557  0.0219 -0.3150  0.3896
  455TMC3     C 6778   3.381   2.880  16.514  1.1670 -0.1156  0.6381
  455TMC3     O 6779   3.467   2.886  16.598  0.2311 -0.1160 -0.5662
  455TMC3     H 6780   3.355   3.106  16.651 -0.7175  0.6488  0.9550
  455TMC3    H1 6781   3.147   2.806  16.438  0.3958 -1.2546  2.6650
  455TMC3    H2 6782   2.941   3.157  16.549  0.5843  0.2226 -1.0680
  455TMC3    C7 6783   2.929   2.944  16.393 -0.1722  0.2771 -0.7365
  455TMC3    C8 6784   3.119   3.228  16.730 -0.7064 -0.6537  0.1466
  455TMC3    O1 6785   2.823   3.004  16.412  0.1926 -0.2539  0.3894
  455TMC3    O2 6786   3.219   3.277  16.781  0.4518  0.0055 -0.0017
  456MPD2     C 6787   1.186   3.536  16.076 -0.5986  0.3845 -0.0815
  456MPD2    C1 6788   1.273   3.485  16.172 -0.9425 -0.1127  0.0198
  456MPD2    C2 6789   1.277   3.549  16.296 -0.0690 -0.1714  0.3621
  456MPD2    C3 6790   1.201   3.666  16.311 -0.1579 -0.7516 -0.7620
  456MPD2    C4 6791   1.110   3.710  16.215 -0.2230  0.2677  0.2405
  456MPD2    C5 6792   1.104   3.640  16.100 -0.7059 -0.2349 -0.2646
  456MPD2     H 6793   1.341   3.517  16.377  0.8272  0.8806  0.0832
  456MPD2    H1 6794   1.061   3.807  16.211 -0.0076  0.3755  0.2058
  456MPD2    H2 6795   1.183   3.487  15.980  1.4725  0.2755 -0.1002
  456MPD2    H3 6796   1.043   3.673  16.016 -1.8458  0.6659  0.9093
  456MPD2     N 6797   1.210   3.720  16.442 -0.0764 -0.4196 -0.1078
  456MPD2    H5 6798   1.277   3.681  16.507 -1.8030  1.3049  2.6981
  456MPD2    N1 6799   1.353   3.372  16.132 -0.3302  0.0000 -0.1793
  456MPD2    H7 6800   1.359   3.342  16.035  2.5078 -2.0732  0.6570
  457TMC3    C1 6801   1.189   3.876  16.626 -0.1974 -0.1280  0.0415
  457TMC3    C2 6802   1.182   4.013  16.645 -0.1088 -0.3583  0.7097
  457TMC3    C3 6803   1.241   4.074  16.752 -0.0266 -0.1059  0.7734
  457TMC3    C4 6804   1.252   3.787  16.712 -0.0960  0.2761 -0.1821
  457TMC3    C5 6805   1.326   3.852  16.809 -0.4147  0.8064  0.4331
  457TMC3    C6 6806   1.317   3.991  16.835  0.3641  0.5880  0.1056
  457TMC3     C 6807   1.148   3.830  16.488  0.7607  0.3519 -0.1042
  457TMC3     O 6808   1.083   3.911  16.428 -0.5395 -0.5665  0.1043
  457TMC3     H 6809   1.141   4.081  16.571  1.2881  0.6321  0.8537
  457TMC3    H1 6810   1.248   3.679  16.702  2.1816  0.0903  0.8712
  457TMC3    H2 6811   1.360   4.028  16.927  0.5253 -2.1815  1.1622
  457TMC3    C7 6812   1.373   3.778  16.924  0.4674 -0.1536 -0.0505
  457TMC3    C8 6813   1.195   4.199  16.813 -0.3830 -0.3110 -1.3822
  457TMC3    O1 6814   1.310   3.684  16.966  0.6677  0.0720  0.1776
  457TMC3    O2 6815   1.248   4.234  16.918  0.5681  0.3490  0.0720
  458MPD2     C 6816   3.645   2.501  12.182 -0.0033 -0.1402 -0.1600
  458MPD2    C1 6817   3.617   2.473  12.310  0.1623 -0.0551  0.0159
  458MPD2    C2 6818   3.485   2.441  12.342 -0.8773  0.2969 -0.0487
  458MPD2    C3 6819   3.385   2.436  12.247 -0.1354 -0.8704 -1.4934
  458MPD2    C4 6820   3.417   2.465  12.115 -0.2970 -0.1087 -0.2608
  458MPD2    C5 6821   3.547   2.499  12.087 -0.4305  0.7075  0.1639
  458MPD2     H 6822   3.456   2.421  12.445 -1.0688  2.1558  0.2562
  458MPD2    H1 6823   3.340   2.473  12.039  1.3688 -0.1702 -1.9613
  458MPD2    H2 6824   3.745   2.531  12.154 -0.3434 -1.1196 -2.4203
  458MPD2    H3 6825   3.588   2.526  11.990  0.5819 -0.7329  0.2001
  458MPD2     N 6826   3.254   2.421  12.288 -0.5099  0.4968 -0.2901
  458MPD2    H5 6827   3.241   2.408  12.388  3.0914  1.0276  0.2557
  458MPD2    N1 6828   3.719   2.494  12.409 -0.0449  0.0767  0.1264
  458MPD2    H7 6829   3.813   2.527  12.389  1.2737 -3.0659  1.0797
  459TMC3    C1 6830   3.802   2.529  12.635 -0.0623  0.1954 -0.1759
  459TMC3    C2 6831   3.856   2.650  12.596 -0.1833 -0.3147 -0.1484
  459TMC3    C3 6832   3.913   2.729  12.693  0.0131 -0.3968  1.1431
  459TMC3    C4 6833   3.814   2.485  12.758 -0.3705 -0.0464  0.2539
  459TMC3    C5 6834   3.874   2.559  12.857  0.3368  0.6653 -1.1818
  459TMC3    C6 6835   3.926   2.687  12.824  0.9244 -0.5199 -0.2147
  459TMC3     C 6836   3.702   2.469  12.548 -0.1607 -0.3529 -0.4406
  459TMC3     O 6837   3.613   2.403  12.600  0.8139 -0.6806 -0.2818
  459TMC3     H 6838   3.843   2.690  12.496  0.4788  0.1901 -0.0339
  459TMC3    H1 6839   3.775   2.386  12.776 -0.2692  0.1136  1.3540
  459TMC3    H2 6840   3.959   2.756  12.901 -0.1785  0.4225 -0.5991
  459TMC3    C7 6841   3.871   2.508  12.990  0.3405 -0.5476 -0.6817
  459TMC3    C8 6842   4.003   2.829  12.641 -0.6161  0.0249 -0.3730
  459TMC3    O1 6843   3.868   2.385  12.992  0.0469 -0.0231 -0.9078
  459TMC3    O2 6844   4.109   2.847  12.698  0.1413  0.0697  0.1480
  460MPD2     C 6845   2.847   4.372  10.528  0.4158 -0.0901 -0.3604
  460MPD2    C1 6846   2.757   4.445  10.607  1.2782  0.0877  0.1413
  460MPD2    C2 6847   2.641   4.493  10.546  0.1706 -0.7597 -0.1435
  460MPD2    C3 6848   2.613   4.455  10.412 -0.0543  0.2811 -0.7210
  460MPD2    C4 6849   2.703   4.378  10.338  0.4651  0.6109  0.0332
  460MPD2    C5 6850   2.818   4.336  10.398 -0.6958 -0.6624  0.3819
  460MPD2     H 6851   2.570   4.553  10.602  1.1095  1.2295 -1.0807
  460MPD2    H1 6852   2.693   4.360  10.232 -3.1433  0.6993  0.3684
  460MPD2    H2 6853   2.944   4.337  10.562 -0.3082 -0.1073  1.6891
  460MPD2    H3 6854   2.895   4.291  10.335 -0.0769  0.0120  0.6603
  460MPD2     N 6855   2.487   4.476  10.344 -0.1706 -0.1276  0.2256
  460MPD2    H5 6856   2.489   4.450  10.246 -1.4096  2.8132 -0.5894
  460MPD2    N1 6857   2.784   4.462  10.742  0.1844 -0.1918 -0.5748
  460MPD2    H7 6858   2.871   4.417  10.768  1.1010  1.6138 -0.4497
  461TMC3    C1 6859   2.272   4.521  10.301 -0.2923  0.9637  0.0832
  461TMC3    C2 6860   2.246   4.403  10.227 -0.0380  0.2251  0.6035
  461TMC3    C3 6861   2.132   4.385  10.163 -0.0153  0.5147 -0.1703
  461TMC3    C4 6862   2.181   4.622  10.310 -0.2210  0.9943  0.6446
  461TMC3    C5 6863   2.072   4.603  10.236  0.1087 -0.1014 -0.6304
  461TMC3    C6 6864   2.039   4.491  10.164  0.5238 -0.0524 -0.3283
  461TMC3     C 6865   2.379   4.533  10.401  0.6484 -0.4963 -0.6490
  461TMC3     O 6866   2.349   4.569  10.512 -0.0173 -0.1877  0.0699
  461TMC3     H 6867   2.315   4.320  10.235 -0.2813 -0.0733 -0.3216
  461TMC3    H1 6868   2.200   4.709  10.372  1.3091  0.0417  1.4965
  461TMC3    H2 6869   1.944   4.489  10.112  1.2358 -1.8078 -1.5631
  461TMC3    C7 6870   2.006   0.006  10.198 -0.1789  0.0154 -0.2408
  461TMC3    C8 6871   2.138   4.288  10.059 -0.4971  0.3508 -0.3277
  461TMC3    O1 6872   1.917   4.713  10.114  0.0501  0.0712  0.4299
  461TMC3    O2 6873   2.242   4.219  10.049 -0.7599  0.4360  0.1251
  462TMC3    C1 6874   2.639   1.011   0.116  0.0651  0.3031 -0.3805
  462TMC3    C2 6875   2.712   0.897   0.113  0.0630 -0.1302  0.4903
  462TMC3    C3 6876   2.651   0.786   0.158 -0.0331  0.6913  0.1383
  462TMC3    C4 6877   2.507   1.016   0.143  0.0811 -0.1206  0.6472
  462TMC3    C5 6878   2.449   0.898   0.178  0.3091  0.6572  0.6924
  462TMC3    C6 6879   2.523   0.787   0.207  0.1239 -0.3788 -0.0360
  462TMC3     C 6880   2.710   1.136   0.103 -0.2288 -0.2963  0.0084
  462TMC3     O 6881   2.820   1.137   0.055 -0.0655 -0.6617  0.0198
  462TMC3     H 6882   2.816   0.887   0.085 -0.5203 -3.5197 -0.4884
  462TMC3    H1 6883   2.449   1.107   0.129  0.6232  0.2361  0.7534
  462TMC3    H2 6884   2.482   0.693   0.241  2.4599 -1.3942 -0.0436
  462TMC3    C7 6885   2.304   0.880   0.204  0.7102  0.3360 -0.0915
  462TMC3    C8 6886   2.724   0.664   0.171  0.2383 -0.2292  0.7744
  462TMC3    O1 6887   2.271   0.763   0.201  0.0651  0.0759  0.0461
  462TMC3    O2 6888   2.673   0.575   0.237 -0.1634 -0.1514  0.6860
  463MPD2     C 6889   4.169   0.303   1.793 -0.6454  0.4259  0.7498
  463MPD2    C1 6890   4.053   0.361   1.750 -0.2562  0.1934  0.5389
  463MPD2    C2 6891   4.056   0.464   1.658 -0.1985  0.2785 -0.2359
  463MPD2    C3 6892   4.175   0.521   1.611 -0.1276 -0.7001 -0.2528
  463MPD2    C4 6893   4.287   0.466   1.665 -0.5189  0.3757 -0.1926
  463MPD2    C5 6894   4.286   0.365   1.749  0.9012 -0.0385 -1.1054
  463MPD2     H 6895   3.961   0.505   1.625 -0.9864 -0.4488  1.1193
  463MPD2    H1 6896   4.386   0.495   1.632 -0.1697 -0.3065  0.2371
  463MPD2    H2 6897   4.176   0.214   1.854  0.6893  0.5401  0.7572
  463MPD2    H3 6898   4.385   0.334   1.777  0.3065 -0.9475 -0.0316
  463MPD2     N 6899   4.177   0.627   1.519  0.0217 -0.3002 -0.6553
  463MPD2    H5 6900   4.271   0.657   1.494 -0.3389  1.8455  0.5127
  463MPD2    N1 6901   3.925   0.317   1.783  0.3790 -0.1718  0.1811
  463MPD2    H7 6902   3.845   0.344   1.727  2.7356  1.7994 -2.2325
  464TMC3    C1 6903   3.755   0.172   1.876  0.6453  0.3146  0.2345
  464TMC3    C2 6904   3.657   0.255   1.842  0.1370  0.3513 -0.0566
  464TMC3    C3 6905   3.532   0.211   1.852 -0.2255  0.0195  1.2691
  464TMC3    C4 6906   3.730   0.051   1.927  0.3339  0.3240  0.1582
  464TMC3    C5 6907   3.604   0.004   1.928  0.2777  0.3664  0.0402
  464TMC3    C6 6908   3.499   0.084   1.887  0.5396  0.7507  0.2283
  464TMC3     C 6909   3.892   0.214   1.872  0.1071 -0.9113  0.0610
  464TMC3     O 6910   3.973   0.153   1.944 -0.0004 -0.3336  0.2701
  464TMC3     H 6911   3.681   0.354   1.804 -0.3882  0.6659  0.4286
  464TMC3    H1 6912   3.815   4.708   1.948 -0.2448  0.2349  2.1683
  464TMC3    H2 6913   3.399   0.042   1.887  1.6837 -1.9903  3.1460
  464TMC3    C7 6914   3.575   4.615   2.015 -0.2146  0.1253 -0.1945
  464TMC3    C8 6915   3.424   0.300   1.810 -0.4256  0.2345 -0.2048
  464TMC3    O1 6916   3.647   4.594   2.111 -0.6736 -0.1828  0.8900
  464TMC3    O2 6917   3.459   0.402   1.753  0.1210  0.0854  0.6537
  465MPD2     C 6918   0.710   3.859   0.727 -0.6620  0.6411 -0.3970
  465MPD2    C1 6919   0.572   3.864   0.752  0.6253 -0.2084  0.4556
  465MPD2    C2 6920   0.490   3.828   0.644 -0.2305 -0.1845  0.1952
  465MPD2    C3 6921   0.532   3.807   0.514  0.1211  0.0230  0.8026
  465MPD2    C4 6922   0.670   3.824   0.495  0.1827  0.1460 -0.6028
  465MPD2    C5 6923   0.757   3.843   0.596  0.1642 -0.0863  0.2897
  465MPD2     H 6924   0.383   3.820   0.652 -0.0567 -1.4389  1.2525
  465MPD2    H1 6925   0.715   3.808   0.397  0.9842  0.8825 -0.3518
  465MPD2    H2 6926   0.783   3.856   0.807  0.3439  0.9374 -1.3106
  465MPD2    H3 6927   0.865   3.836   0.584  0.1764  0.2391  0.2098
  465MPD2     N 6928   0.441   3.774   0.412  0.0743 -0.0608 -0.3060
  465MPD2    H5 6929   0.343   3.759   0.433 -0.3632  1.2669 -1.4158
  465MPD2    N1 6930   0.515   3.876   0.879  0.2147 -0.0248  0.2914
  465MPD2    H7 6931   0.413   3.875   0.886  0.0034  2.0764 -2.5322
  466TMC3    C1 6932   0.146   3.625   0.196 -0.8012  0.2727 -0.1287
  466TMC3    C2 6933   0.107   3.682   0.077  0.2023  0.0963  0.2794
  466TMC3    C3 6934   0.203   3.767   0.019 -0.3776  0.0184  0.8333
  466TMC3    C4 6935   0.268   3.644   0.251  0.0998  0.0766 -0.2280
  466TMC3    C5 6936   0.359   3.723   0.192 -0.1001 -0.2612  0.2554
  466TMC3    C6 6937   0.330   3.776   0.070  0.2200  0.0111  0.0777
  466TMC3     C 6938   0.035   3.613   0.286 -0.7288 -0.5908  0.1647
  466TMC3     O 6939   0.057   3.664   0.394  0.0280  0.1292  0.2536
  466TMC3     H 6940   0.015   3.662   0.024  0.1557 -0.1581  0.4591
  466TMC3    H1 6941   0.289   3.591   0.344 -0.1709 -2.0523 -1.3776
  466TMC3    H2 6942   0.399   3.847   0.025 -0.9268  1.0383 -0.0429
  466TMC3    C7 6943   0.473   3.768   0.279 -0.9161 -0.1128  0.2325
  466TMC3    C8 6944   0.196   3.807  17.568 -0.3310  0.7223 -0.6244
  466TMC3    O1 6945   0.561   3.830   0.222 -0.2300 -0.0424 -0.2019
  466TMC3    O2 6946   0.302   3.827  17.516 -0.0300 -0.1346 -0.3129
  467TMC3    C1 6947   0.835   2.102  13.430 -0.3708  0.2502 -0.2310
  467TMC3    C2 6948   0.863   2.139  13.299  0.1525  0.0063  0.7410
  467TMC3    C3 6949   0.769   2.219  13.238 -0.9460  0.8610  0.3005
  467TMC3    C4 6950   0.720   2.126  13.495 -0.9445  0.8731  0.6182
  467TMC3    C5 6951   0.631   2.202  13.424 -0.4109 -0.3536 -0.0562
  467TMC3    C6 6952   0.661   2.268  13.302  0.3744  0.0109  0.1721
  467TMC3     C 6953   0.953   2.056  13.502 -0.3613 -0.7606 -0.2324
  467TMC3     O 6954   1.053   2.063  13.435 -0.0458 -0.4060  0.1994
  467TMC3     H 6955   0.958   2.124  13.249  0.8007  0.3901  1.8737
  467TMC3    H1 6956   0.706   2.104  13.600  1.7157 -1.5293  0.4620
  467TMC3    H2 6957   0.587   2.307  13.234  1.3582  1.2590 -0.1793
  467TMC3    C7 6958   0.484   2.195  13.447 -0.3867  0.3546 -0.2313
  467TMC3    C8 6959   0.803   2.275  13.112  0.3325 -0.4533  0.3639
  467TMC3    O1 6960   0.416   2.282  13.398 -0.4620 -0.2483  0.1151
  467TMC3    O2 6961   0.780   2.393  13.095  0.0394 -0.2589 -0.3714
  468MPD2     C 6962   4.331   4.364  10.972  0.0280  0.0297 -0.0696
  468MPD2    C1 6963   4.459   4.338  10.936 -0.2635 -0.1546  0.6569
  468MPD2    C2 6964   4.494   4.206  10.895 -0.4680 -0.8395 -0.0437
  468MPD2    C3 6965   4.396   4.108  10.882 -0.8643  0.1574 -0.1414
  468MPD2    C4 6966   4.264   4.149  10.908  0.4338  0.1849  0.3473
  468MPD2    C5 6967   4.228   4.274  10.941 -0.1275  0.9677 -0.6591
  468MPD2     H 6968   4.599   4.183  10.882 -0.2776  1.9206 -3.6748
  468MPD2    H1 6969   4.183   4.077  10.907  3.0632 -2.7235  0.7495
  468MPD2    H2 6970   4.305   4.455  11.023 -1.0514 -0.0809 -0.4264
  468MPD2    H3 6971   4.124   4.293  10.965 -0.4378  1.6475 -2.5743
  468MPD2     N 6972   4.420   3.974  10.866 -0.2264  0.3547 -1.2367
  468MPD2    H5 6973   4.338   3.914  10.867 -0.4188  0.6160 -1.3527
  468MPD2    N1 6974   4.563   4.431  10.965  0.3583  0.0786  0.4300
  468MPD2    H7 6975   4.658   4.404  10.940 -0.9818 -1.9032 -2.4739
  469TMC3    C1 6976   4.663   4.641  10.994  0.1112  0.3526 -0.0029
  469TMC3    C2 6977   0.064   4.578  11.004  0.3573  0.3457  0.0268
  469TMC3    C3 6978   0.171   4.657  11.009  0.1223  0.0647 -0.0377
  469TMC3    C4 6979   4.657   0.047  10.946  1.0674 -0.0542  0.0019
  469TMC3    C5 6980   0.049   0.122  10.950 -0.0430  0.1130 -0.1438
  469TMC3    C6 6981   0.170   0.070  10.989 -0.3985  0.0264 -0.1520
  469TMC3     C 6982   4.544   4.562  11.000 -0.5432 -0.4203  0.4172
  469TMC3     O 6983   4.444   4.632  11.009  0.1446  0.5315  0.2800
  469TMC3     H 6984   0.079   4.478  11.043 -1.0013 -0.2249 -0.9021
  469TMC3    H1 6985   4.563   0.094  10.923 -0.3588 -2.1708  1.5121
  469TMC3    H2 6986   0.264   0.121  10.976 -0.5478  0.3159 -0.0943
  469TMC3    C7 6987   0.034   0.268  10.939  0.1690  0.4210 -0.4514
  469TMC3    C8 6988   0.300   4.604  11.050 -0.1227  0.8423 -0.5818
  469TMC3    O1 6989   0.136   0.334  10.922  0.5669 -0.8733 -0.5312
  469TMC3    O2 6990   0.333   4.490  11.033  0.8300  0.3821  0.9298
  470TMC3    C1 6991   1.377   1.400   0.585 -0.0267  0.4969 -0.2436
  470TMC3    C2 6992   1.452   1.506   0.631  0.3213  0.7763 -0.1199
  470TMC3    C3 6993   1.444   1.526   0.768  0.5044  0.3894  0.5178
  470TMC3    C4 6994   1.302   1.322   0.666 -1.2374 -0.1238 -0.4564
  470TMC3    C5 6995   1.292   1.345   0.800 -0.1249  0.0442 -0.0910
  470TMC3    C6 6996   1.363   1.458   0.852 -0.4442 -0.3955 -0.0867
  470TMC3     C 6997   1.388   1.362   0.446 -0.0689  0.4809  1.0981
  470TMC3     O 6998   1.279   1.319   0.403  0.2479  0.2083 -0.4162
  470TMC3     H 6999   1.528   1.559   0.574 -2.2293  2.6905 -1.7192
  470TMC3    H1 7000   1.256   1.229   0.637 -3.3520  0.7942 -0.0676
  470TMC3    H2 7001   1.361   1.481   0.958 -1.1557  0.4148 -0.2699
  470TMC3    C7 7002   1.251   1.231   0.885  0.4349 -0.2072  0.3873
  470TMC3    C8 7003   1.548   1.606   0.833 -0.5522 -0.3275  0.2669
  470TMC3    O1 7004   1.246   1.121   0.830 -1.1601  0.1038 -0.2408
  470TMC3    O2 7005   1.523   1.656   0.942 -0.2705  0.0033  0.0881
  471MPD2     C 7006   2.797   2.427  16.380  0.0858 -0.1260  0.2090
  471MPD2    C1 7007   2.841   2.295  16.400  0.1489  0.4596  0.2109
  471MPD2    C2 7008   2.933   2.273  16.504 -0.4711  0.1804 -0.1578
  471MPD2    C3 7009   3.003   2.375  16.555 -0.9443 -0.1222  0.5813
  471MPD2    C4 7010   2.966   2.505  16.529  0.6039 -0.0345 -0.1449
  471MPD2    C5 7011   2.863   2.528  16.440 -0.5386 -0.9678 -0.1700
  471MPD2     H 7012   2.956   2.174  16.541  0.7809  0.2358 -0.7979
  471MPD2    H1 7013   3.018   2.589  16.573  1.0570 -0.0117 -0.7254
  471MPD2    H2 7014   2.720   2.467  16.315 -0.7479  1.0393  1.8932
  471MPD2    H3 7015   2.852   2.629  16.403  0.5393 -0.8298 -0.1099
  471MPD2     N 7016   3.113   2.343  16.641  0.3148 -0.1158  0.2529
  471MPD2    H5 7017   3.146   2.419  16.699 -3.6464  2.0548 -0.3967
  471MPD2    N1 7018   2.762   2.193  16.338 -0.4241 -0.0175  0.0846
  471MPD2    H7 7019   2.759   2.104  16.386  3.2628  0.4870  1.1901
  472TMC3    C1 7020   2.597   2.103  16.195 -0.2449 -0.6115 -0.7906
  472TMC3    C2 7021   2.484   2.126  16.119  0.2422 -0.1759  0.3836
  472TMC3    C3 7022   2.431   2.015  16.051 -0.6073  0.6092  1.0548
  472TMC3    C4 7023   2.675   1.988  16.186 -0.1468 -0.2125 -0.5364
  472TMC3    C5 7024   2.627   1.889  16.100 -0.0058  0.4444 -0.8071
  472TMC3    C6 7025   2.498   1.897  16.041  0.3508 -0.8093 -0.2375
  472TMC3     C 7026   2.672   2.219  16.235 -1.0160 -0.3388  1.1881
  472TMC3     O 7027   2.643   2.316  16.168 -0.0040  0.3359  0.1162
  472TMC3     H 7028   2.427   2.217  16.132 -2.3302 -1.9631  1.5751
  472TMC3    H1 7029   2.772   1.974  16.233 -1.1292 -1.9791  0.9684
  472TMC3    H2 7030   2.449   1.816  15.987  1.0612 -4.0105  3.8910
  472TMC3    C7 7031   2.664   1.751  16.137  1.2324  0.0245 -0.0461
  472TMC3    C8 7032   2.286   2.020  16.021 -0.2117 -0.1247 -0.2959
  472TMC3    O1 7033   2.703   1.736  16.254  0.5376  0.0661  0.1202
  472TMC3    O2 7034   2.246   2.117  15.961 -0.4677 -0.2240  0.2238
  473MPD2     C 7035   2.288   3.914  13.843  0.3152 -0.4213  0.2692
  473MPD2    C1 7036   2.183   3.998  13.806  0.2793 -0.3624  0.8456
  473MPD2    C2 7037   2.204   4.134  13.807  0.0938 -0.0084 -0.6585
  473MPD2    C3 7038   2.313   4.190  13.867  0.5408 -0.1679 -0.2397
  473MPD2    C4 7039   2.406   4.101  13.926 -0.7378 -0.5130  0.6180
  473MPD2    C5 7040   2.397   3.963  13.904  0.1224 -0.0042  0.3757
  473MPD2     H 7041   2.129   4.203  13.769 -2.0691 -2.4825 -0.8759
  473MPD2    H1 7042   2.489   4.140  13.983  0.7982 -0.8933 -1.3597
  473MPD2    H2 7043   2.288   3.806  13.832 -1.0648 -0.2600 -1.3726
  473MPD2    H3 7044   2.469   3.892  13.943  0.0839 -1.1257 -1.6324
  473MPD2     N 7045   2.335   4.332  13.877  0.4075  0.6144  0.0333
  473MPD2    H5 7046   2.426   4.361  13.913  1.3282 -0.8819 -1.0768
  473MPD2    N1 7047   2.066   3.952  13.747 -0.5341 -0.3435  0.1105
  473MPD2    H7 7048   1.990   4.011  13.715 -0.8614 -0.2701  1.0473
  474TMC3    C1 7049   2.282   4.558  13.884 -0.1542  0.2115 -0.1163
  474TMC3    C2 7050   2.403   4.594  13.830 -0.8883 -0.2712  0.5058
  474TMC3    C3 7051   2.455   4.716  13.871  0.2612  1.2113 -0.4557
  474TMC3    C4 7052   2.220   4.630  13.985  0.3220  0.0856 -0.0072
  474TMC3    C5 7053   2.286   0.017  14.039 -0.2633  0.3995 -0.1712
  474TMC3    C6 7054   2.404   0.068  13.979 -0.8800  0.4797  0.0373
  474TMC3     C 7055   2.235   4.427  13.863  0.6664 -0.3368 -0.5712
  474TMC3     O 7056   2.114   4.405  13.869 -0.3246  0.0668  0.2127
  474TMC3     H 7057   2.460   4.528  13.766  0.0656  2.4114 -1.4037
  474TMC3    H1 7058   2.130   4.589  14.029  0.4538 -1.1566 -0.8967
  474TMC3    H2 7059   2.443   0.165  14.009  0.8469 -0.2310  0.0823
  474TMC3    C7 7060   2.264   0.065  14.174 -0.3933 -1.1953  0.4415
  474TMC3    C8 7061   2.585   0.023  13.810 -0.0072 -0.1645  0.6889
  474TMC3    O1 7062   2.314   0.168  14.205 -0.3643  0.8790 -0.4348
  474TMC3    O2 7063   2.623   4.672  13.720  0.2915  0.1016 -0.4036
  475MPD2     C 7064   1.038   2.501  10.239 -0.3133 -0.2637 -0.3199
  475MPD2    C1 7065   1.045   2.405  10.143 -0.6099  0.0849 -0.5884
  475MPD2    C2 7066   0.929   2.333  10.112 -0.0441 -0.5363 -0.5381
  475MPD2    C3 7067   0.809   2.358  10.179  0.3900  0.1020 -0.6614
  475MPD2    C4 7068   0.802   2.461  10.268  0.3340  0.6658  0.8088
  475MPD2    C5 7069   0.917   2.527  10.294 -0.1225 -0.5012  0.6729
  475MPD2     H 7070   0.938   2.244  10.052  0.2562 -1.4832  0.9171
  475MPD2    H1 7071   0.713   2.496  10.318  1.0033  0.7586  1.9466
  475MPD2    H2 7072   1.125   2.561  10.263  1.8334 -2.8771 -1.5341
  475MPD2    H3 7073   0.906   2.604  10.369 -1.6890  1.7877 -1.9272
  475MPD2     N 7074   0.698   2.271  10.155 -0.5489  0.6053  0.7112
  475MPD2    H5 7075   0.706   2.199  10.083  1.2825 -0.7158  2.2143
  475MPD2    N1 7076   1.174   2.369  10.088  0.1944 -0.6555  0.1451
  475MPD2    H7 7077   1.256   2.409  10.133 -0.4975  0.2501  0.6279
  476TMC3    C1 7078   1.329   2.308   9.937 -0.3709  0.1518 -0.3400
  476TMC3    C2 7079   1.358   2.311   9.804  0.1242  0.0437  0.0750
  476TMC3    C3 7080   1.494   2.323   9.767 -0.3688  0.0356  0.8314
  476TMC3    C4 7081   1.421   2.336  10.034 -0.2203  0.5418 -0.5249
  476TMC3    C5 7082   1.550   2.344   9.994  0.6689 -0.5063  0.1532
  476TMC3    C6 7083   1.586   2.350   9.857  0.5011  0.5042  0.2630
  476TMC3     C 7084   1.190   2.298   9.972  0.8236 -0.0673  0.1715
  476TMC3     O 7085   1.116   2.234   9.897 -0.1188 -0.2166  0.3719
  476TMC3     H 7086   1.274   2.300   9.737 -0.6122 -0.5047  1.0820
  476TMC3    H1 7087   1.391   2.316  10.136  0.0193 -0.5067 -0.6622
  476TMC3    H2 7088   1.689   2.377   9.837  1.1190 -1.4415  0.8583
  476TMC3    C7 7089   1.654   2.398  10.090  0.6730  0.6298  0.3873
  476TMC3    C8 7090   1.527   2.371   9.637  0.4280 -0.7117 -0.6508
  476TMC3    O1 7091   1.768   2.387  10.057 -0.3758  0.2334  0.6931
  476TMC3    O2 7092   1.638   2.355   9.585 -0.2894  0.1002  0.9154
  477MPD2     C 7093   2.987   3.396  11.614 -0.1756  0.6129 -0.6562
  477MPD2    C1 7094   2.914   3.433  11.727  0.1740 -0.0325 -0.6476
  477MPD2    C2 7095   2.961   3.405  11.854 -0.5965  0.4581 -1.0577
  477MPD2    C3 7096   3.091   3.349  11.871  0.0755 -0.2184 -0.2032
  477MPD2    C4 7097   3.158   3.310  11.759  0.2305 -0.2869  0.1792
  477MPD2    C5 7098   3.112   3.336  11.630 -0.4125  0.0366  0.3229
  477MPD2     H 7099   2.912   3.434  11.946  1.3676  2.7628 -0.7360
  477MPD2    H1 7100   3.254   3.260  11.762 -0.2198 -1.1777 -0.1226
  477MPD2    H2 7101   2.949   3.414  11.514 -1.9923 -0.8037 -0.2229
  477MPD2    H3 7102   3.176   3.303  11.549 -0.8543  1.3066 -0.5399
  477MPD2     N 7103   3.148   3.344  11.999 -0.3331 -0.0289  0.3800
  477MPD2    H5 7104   3.088   3.373  12.075  0.6119  1.0724  0.7043
  477MPD2    N1 7105   2.799   3.509  11.703  0.1736  0.3796  1.1268
  477MPD2    H7 7106   2.790   3.536  11.606  1.2900 -0.8004  0.7083
  478TMC3    C1 7107   2.609   3.641  11.738  0.1463  0.7260 -0.0445
  478TMC3    C2 7108   2.547   3.712  11.836  0.5359 -0.7740  0.6230
  478TMC3    C3 7109   2.491   3.828  11.805 -0.3649 -0.3845  0.2458
  478TMC3    C4 7110   2.615   3.689  11.607  0.3754  0.2676 -0.3662
  478TMC3    C5 7111   2.558   3.812  11.584  0.1852 -0.1217  0.2309
  478TMC3    C6 7112   2.495   3.886  11.679  0.0161  0.2159  0.2821
  478TMC3     C 7113   2.702   3.540  11.790 -1.0995 -0.2520 -0.8434
  478TMC3     O 7114   2.698   3.529  11.912 -0.7056 -0.1256  0.3854
  478TMC3     H 7115   2.538   3.669  11.936 -4.1530  0.7608  0.8859
  478TMC3    H1 7116   2.676   3.641  11.532  0.0483  0.9296 -1.0471
  478TMC3    H2 7117   2.451   3.982  11.653 -0.4597 -0.2096 -0.4761
  478TMC3    C7 7118   2.610   3.879  11.463  0.2586 -0.3489  0.0252
  478TMC3    C8 7119   2.452   3.908  11.920  1.1211  0.4457 -0.5625
  478TMC3    O1 7120   2.731   3.870  11.449  0.3724  0.3781  0.2271
  478TMC3    O2 7121   2.404   3.842  12.015 -0.2097  0.3387  0.2787
  479MPD2     C 7122   2.294   1.571  15.210 -0.4987  0.0721 -0.1192
  479MPD2    C1 7123   2.254   1.521  15.332 -0.4072 -0.5838  0.0379
  479MPD2    C2 7124   2.320   1.563  15.447  0.4885 -0.9083 -0.2214
  479MPD2    C3 7125   2.416   1.660  15.440  0.8093  0.0187  0.1955
  479MPD2    C4 7126   2.469   1.691  15.319  0.3215 -0.7116 -0.3510
  479MPD2    C5 7127   2.411   1.639  15.207 -0.7532  0.2581 -0.3200
  479MPD2     H 7128   2.294   1.518  15.543 -1.6087 -0.5440 -0.6198
  479MPD2    H1 7129   2.553   1.758  15.314 -2.2092  2.3488 -1.5513
  479MPD2    H2 7130   2.245   1.534  15.121 -2.2685  1.1953  0.3862
  479MPD2    H3 7131   2.457   1.665  15.112  0.5844  1.5135  0.6567
  479MPD2     N 7132   2.473   1.716  15.560 -0.0086 -0.6217 -0.0910
  479MPD2    H5 7133   2.565   1.752  15.540  0.6499 -2.2079  0.0662
  479MPD2    N1 7134   2.143   1.436  15.330 -0.8446 -0.2700  0.3805
  479MPD2    H7 7135   2.102   1.429  15.238 -0.7029 -0.1129  0.3042
  480TMC3    C1 7136   2.124   1.621  15.877 -0.3494 -0.5163  0.1819
  480TMC3    C2 7137   2.028   1.692  15.808  0.1174  0.4002 -0.4205
  480TMC3    C3 7138   2.060   1.760  15.696 -0.7103 -0.1450  0.4888
  480TMC3    C4 7139   2.258   1.629  15.838 -0.0497  0.5199 -0.6536
  480TMC3    C5 7140   2.291   1.690  15.721  0.1132  0.5924  0.2533
  480TMC3    C6 7141   2.191   1.749  15.649  0.2234  0.5066  0.0388
  480TMC3     C 7142   2.090   1.499  15.950  0.5480  0.3349 -0.4099
  480TMC3     O 7143   2.180   1.419  15.962  0.6417 -0.7171 -0.2205
  480TMC3     H 7144   1.923   1.693  15.836  0.5442 -0.9507  1.2354
  480TMC3    H1 7145   2.337   1.573  15.887 -0.2626 -0.4323 -1.4106
  480TMC3    H2 7146   2.222   1.797  15.557  0.7674  0.3864  0.1643
  480TMC3    C7 7147   2.429   1.714  15.694 -0.2344  0.7961  0.4428
  480TMC3    C8 7148   1.947   1.754  15.601  0.1135  0.2660  0.1608
  480TMC3    O1 7149   2.511   1.714  15.785  0.0769 -0.2171 -0.3803
  480TMC3    O2 7150   1.838   1.714  15.639 -0.0323  0.4610  0.0724
  481MPD2     C 7151   4.015   0.672  14.447  0.2377 -0.2951 -0.6682
  481MPD2    C1 7152   3.878   0.673  14.409  0.2478 -0.1900 -0.0361
  481MPD2    C2 7153   3.784   0.641  14.512 -0.4376  0.1043  0.1118
  481MPD2    C3 7154   3.820   0.616  14.644 -0.9092 -0.2786  0.2020
  481MPD2    C4 7155   3.957   0.611  14.671 -0.1317  0.3746  0.0385
  481MPD2    C5 7156   4.048   0.638  14.578  0.6767  0.0178  0.6099
  481MPD2     H 7157   3.679   0.651  14.486 -1.0510 -1.0271  2.1940
  481MPD2    H1 7158   3.985   0.593  14.774  1.4636 -3.2319 -1.0336
  481MPD2    H2 7159   4.100   0.689  14.381  0.7838  0.8556  0.3339
  481MPD2    H3 7160   4.153   0.634  14.605  0.6615 -2.6096  0.1990
  481MPD2     N 7161   3.732   0.593  14.749  0.7784 -0.1102  0.0668
  481MPD2    H5 7162   3.775   0.568  14.837 -0.4592  3.0352  1.5599
  481MPD2    N1 7163   3.844   0.694  14.270  0.0753  0.2378 -0.5011
  481MPD2    H7 7164   3.913   0.742  14.214 -0.7251  0.4527 -1.3063
  482TMC3    C1 7165   3.730   0.684  14.069  0.5361  0.1353 -0.3660
  482TMC3    C2 7166   3.646   0.615  13.994 -0.6213  0.1327 -0.4623
  482TMC3    C3 7167   3.629   0.651  13.866  0.2197  0.0809  0.0135
  482TMC3    C4 7168   3.792   0.803  14.035 -0.2006 -0.0866 -0.0482
  482TMC3    C5 7169   3.764   0.846  13.908  0.4519  0.3103  0.0124
  482TMC3    C6 7170   3.683   0.772  13.824  0.0855  0.6339  0.4933
  482TMC3     C 7171   3.730   0.647  14.205 -0.3269  0.1627 -0.2255
  482TMC3     O 7172   3.644   0.576  14.254 -0.1723 -0.5856  0.0745
  482TMC3     H 7173   3.603   0.521  14.029 -1.9176  0.8796 -0.0478
  482TMC3    H1 7174   3.848   0.867  14.103  1.0012 -0.4027 -0.7369
  482TMC3    H2 7175   3.669   0.802  13.720  2.5671  0.2841  0.0538
  482TMC3    C7 7176   3.834   0.966  13.861 -0.1446  0.4738  0.5107
  482TMC3    C8 7177   3.541   0.574  13.783 -0.0538 -0.2012  0.0568
  482TMC3    O1 7178   3.943   0.995  13.910 -0.1092 -0.1492  0.8113
  482TMC3    O2 7179   3.528   0.458  13.811  0.3582 -0.0306 -0.0420
  483TMC3    C1 7180   2.275   4.596   0.784 -0.1851  0.0002 -0.6734
  483TMC3    C2 7181   2.163   4.655   0.736  0.7017  0.2372 -0.4785
  483TMC3    C3 7182   2.061   4.665   0.824  0.2869 -0.2022  0.2234
  483TMC3    C4 7183   2.294   4.550   0.913  0.3078 -0.6804 -0.3621
  483TMC3    C5 7184   2.182   4.560   0.997 -0.4957 -0.1823  0.0871
  483TMC3    C6 7185   2.067   4.619   0.956  1.0901  0.2461  0.1741
  483TMC3     C 7186   2.366   4.556   0.678  0.3421  0.2188  0.3121
  483TMC3     O 7187   2.364   4.617   0.573 -0.3453 -0.2132 -0.0372
  483TMC3     H 7188   2.149   4.680   0.631 -1.5774 -0.3259 -0.3097
  483TMC3    H1 7189   2.389   4.523   0.956  1.8391  1.7296 -2.2689
  483TMC3    H2 7190   1.979   4.627   1.019  1.1187  0.3087  0.2049
  483TMC3    C7 7191   2.200   4.507   1.132 -0.5280 -0.3205 -0.2657
  483TMC3    C8 7192   1.963   0.034   0.771  0.4010 -0.2824  0.3155
  483TMC3    O1 7193   2.309   4.521   1.190 -0.1950 -0.4136  0.4754
  483TMC3    O2 7194   1.992   0.098   0.668  0.2380  0.3246 -0.4505
  484MPD2     C 7195   3.938   3.098  12.380  0.1701  0.1985 -0.3772
  484MPD2    C1 7196   4.008   3.004  12.458 -0.3366 -0.6708  0.4214
  484MPD2    C2 7197   4.143   3.001  12.438 -0.3125  0.4027 -0.6082
  484MPD2    C3 7198   4.207   3.084  12.347 -0.5966 -0.2270  0.0888
  484MPD2    C4 7199   4.138   3.174  12.272  0.1501  0.3492  0.3211
  484MPD2    C5 7200   4.003   3.185  12.291 -0.2574  1.3254 -0.4508
  484MPD2     H 7201   4.204   2.927  12.489  1.1833  1.3074 -1.0803
  484MPD2    H1 7202   4.185   3.236  12.196 -0.5731  2.0988  1.3197
  484MPD2    H2 7203   3.832   3.106  12.400  0.3132 -0.3489  0.6056
  484MPD2    H3 7204   3.949   3.265  12.241 -2.6768 -0.3634 -0.5329
  484MPD2     N 7205   4.345   3.090  12.322 -0.2514  0.3885  0.4659
  484MPD2    H5 7206   4.372   3.131  12.233 -3.0126 -0.5632 -0.7970
  484MPD2    N1 7207   3.939   2.910  12.542  0.7299 -0.3092 -0.0084
  484MPD2    H7 7208   3.838   2.921  12.544  0.7494 -0.5242  1.5895
  485TMC3    C1 7209   4.567   3.017  12.328 -0.0830 -0.1014 -0.2897
  485TMC3    C2 7210   4.672   2.990  12.414 -0.2612  0.1452 -0.2736
  485TMC3    C3 7211   0.077   2.992  12.364 -0.0393 -0.0884 -0.0857
  485TMC3    C4 7212   4.587   3.041  12.190 -0.2139  0.5259  0.0298
  485TMC3    C5 7213   4.715   3.041  12.143 -0.1399  0.4623 -0.8118
  485TMC3    C6 7214   0.097   3.026  12.231  0.3772  0.5549  0.3330
  485TMC3     C 7215   4.439   3.013  12.392 -0.3957  0.1807  0.6789
  485TMC3     O 7216   4.440   2.947  12.494  0.1799  0.5714 -0.8345
  485TMC3     H 7217   4.655   2.957  12.516  0.9882 -0.6933 -0.3274
  485TMC3    H1 7218   4.503   3.033  12.122 -0.2276 -2.9169  0.4278
  485TMC3    H2 7219   0.197   3.016  12.192  0.5121 -1.4158  1.1813
  485TMC3    C7 7220   0.011   2.990  12.007  0.5800 -0.0638  0.2297
  485TMC3    C8 7221   0.160   2.875  12.388  0.5476 -0.4445 -0.6636
  485TMC3    O1 7222   4.691   3.057  11.917 -0.3794 -0.1889  0.2073
  485TMC3    O2 7223   0.187   2.817  12.280 -0.0272 -0.2618  0.2661
  486MPD2     C 7224   1.840   1.818  12.557  0.0974  0.0983 -0.7110
  486MPD2    C1 7225   1.765   1.739  12.472  1.0958  0.2550  0.1058
  486MPD2    C2 7226   1.700   1.797  12.363  0.3123  0.1133 -0.0534
  486MPD2    C3 7227   1.700   1.936  12.348 -0.7003 -0.1681  0.0977
  486MPD2    C4 7228   1.768   2.019  12.433 -0.0796 -0.2028  0.1201
  486MPD2    C5 7229   1.846   1.955  12.526 -0.0316  0.4030  0.0466
  486MPD2     H 7230   1.647   1.733  12.293  2.2483 -0.5098 -0.9455
  486MPD2    H1 7231   1.786   2.124  12.416 -0.4290 -0.0837  0.5015
  486MPD2    H2 7232   1.894   1.777  12.641 -0.1722  0.3904 -0.3941
  486MPD2    H3 7233   1.912   2.014  12.589 -0.1828 -0.6451  1.1974
  486MPD2     N 7234   1.635   2.000  12.240 -0.6581  0.8577  0.4344
  486MPD2    H5 7235   1.604   1.946  12.160  3.0488  0.1056 -0.4942
  486MPD2    N1 7236   1.769   1.604  12.500  0.4830 -0.1212  0.5693
  486MPD2    H7 7237   1.809   1.572  12.588  3.1770 -0.9777 -0.9591
  487TMC3    C1 7238   1.756   1.375  12.493  0.1745  0.2570  0.6887
  487TMC3    C2 7239   1.753   1.268  12.407  0.2670 -0.4109 -0.3048
  487TMC3    C3 7240   1.784   1.139  12.448  0.4100  0.2061  0.2833
  487TMC3    C4 7241   1.781   1.369  12.626  0.1132 -0.5065 -1.1901
  487TMC3    C5 7242   1.804   1.244  12.662 -0.3108 -0.2477 -0.4047
  487TMC3    C6 7243   1.815   1.131  12.583  0.2542 -0.2679  0.0476
  487TMC3     C 7244   1.721   1.500  12.426  0.8434 -0.6131  0.3025
  487TMC3     O 7245   1.664   1.502  12.320  0.1107  0.2431  0.2768
  487TMC3     H 7246   1.727   1.276  12.302 -3.2719 -0.1128  0.5817
  487TMC3    H1 7247   1.762   1.453  12.693  1.9398  1.2131 -2.8510
  487TMC3    H2 7248   1.851   1.042  12.634 -1.8263 -0.1676  1.6627
  487TMC3    C7 7249   1.787   1.209  12.796 -0.4812 -0.9863 -0.5168
  487TMC3    C8 7250   1.706   1.024  12.399  0.1088  0.1055 -0.3679
  487TMC3    O1 7251   1.852   1.277  12.878 -0.4596  0.0288 -0.4982
  487TMC3    O2 7252   1.594   1.049  12.353 -0.3105 -0.4104 -0.2640
  488MPD2     C 7253   2.205   3.275  16.464  0.8865  0.3458 -0.2056
  488MPD2    C1 7254   2.108   3.368  16.500 -0.5168  0.9290 -0.2133
  488MPD2    C2 7255   2.036   3.352  16.617 -0.3010  0.5864 -0.1319
  488MPD2    C3 7256   2.097   3.282  16.721 -0.0785 -0.1757 -1.1833
  488MPD2    C4 7257   2.209   3.208  16.695 -0.4170  0.2402 -0.1885
  488MPD2    C5 7258   2.253   3.189  16.564  0.1966  0.4660 -0.1980
  488MPD2     H 7259   1.950   3.417  16.633 -1.1273 -0.1632 -1.4958
  488MPD2    H1 7260   2.243   3.145  16.776 -0.5698 -1.7505 -1.6612
  488MPD2    H2 7261   2.234   3.264  16.360 -0.8039 -2.1214 -0.4203
  488MPD2    H3 7262   2.332   3.115  16.550  0.2020  0.4284  0.0345
  488MPD2     N 7263   2.055   3.290  16.856 -0.7277  0.2551  0.0007
  488MPD2    H5 7264   2.118   3.249  16.925  0.4832  1.2133 -0.5479
  488MPD2    N1 7265   2.057   3.459  16.407  0.4539 -0.1391  0.3392
  488MPD2    H7 7266   1.981   3.518  16.441 -1.5964 -1.5087 -1.8731
  489TMC3    C1 7267   1.954   3.381  17.057  0.5233  0.4766  0.1166
  489TMC3    C2 7268   2.062   3.453  17.095  1.0492 -0.5076  0.1826
  489TMC3    C3 7269   2.057   3.511  17.220  0.2056  0.1415 -0.6837
  489TMC3    C4 7270   1.840   3.368  17.128  0.9865 -0.7366  0.2843
  489TMC3    C5 7271   1.842   3.426  17.252  0.8864 -0.1855 -0.2566
  489TMC3    C6 7272   1.948   3.503  17.297 -0.6905  0.0877  0.2844
  489TMC3     C 7273   1.946   3.360  16.913 -0.2739  0.3141 -0.4139
  489TMC3     O 7274   1.867   3.437  16.857 -0.1612 -0.4898  0.1365
  489TMC3     H 7275   2.131   3.490  17.020 -1.5003  1.0544 -1.3914
  489TMC3    H1 7276   1.758   3.307  17.092  0.4999 -0.0812  0.2771
  489TMC3    H2 7277   1.941   3.553  17.393  0.5954 -1.8705  1.4070
  489TMC3    C7 7278   1.735   3.385  17.340 -0.2339 -0.2670 -0.3969
  489TMC3    C8 7279   2.170   3.596  17.253 -0.3852 -0.0895 -1.2724
  489TMC3    O1 7280   1.637   3.332  17.290  0.0221 -0.2107 -0.2380
  489TMC3    O2 7281   2.267   3.589  17.174  0.2767  0.4226 -0.1294
  490MPD2     C 7282   2.555   3.396   0.300  0.6345  0.1112  0.0421
  490MPD2    C1 7283   2.591   3.300   0.209 -0.1423 -0.0180 -0.6778
  490MPD2    C2 7284   2.722   3.289   0.166 -0.3094  0.1607  0.5797
  490MPD2    C3 7285   2.815   3.376   0.206 -0.2569  0.4172 -0.3004
  490MPD2    C4 7286   2.779   3.471   0.298  0.3236 -0.0137 -0.8052
  490MPD2    C5 7287   2.650   3.483   0.352 -0.3274  0.9055 -0.6614
  490MPD2     H 7288   2.754   3.221   0.088 -0.4335 -0.6278  1.2181
  490MPD2    H1 7289   2.853   3.544   0.331 -0.5729  0.8935 -0.8104
  490MPD2    H2 7290   2.451   3.398   0.331 -0.4246  3.7264 -3.7599
  490MPD2    H3 7291   2.627   3.558   0.426 -0.0846  2.2637 -1.9535
  490MPD2     N 7292   2.950   3.376   0.169 -0.4254  0.1226 -0.2209
  490MPD2    H5 7293   3.009   3.457   0.184  0.7179 -0.8762  0.7781
  490MPD2    N1 7294   2.489   3.203   0.171 -0.1160  0.2130  0.2470
  490MPD2    H7 7295   2.433   3.184   0.254 -0.0497 -1.4627 -0.0890
  491TMC3    C1 7296   2.410   3.002   0.059 -1.1454 -0.0585 -0.2333
  491TMC3    C2 7297   2.350   2.964   0.175 -0.3919 -1.1641  0.2377
  491TMC3    C3 7298   2.330   2.828   0.199  0.5436  0.0451  0.4156
  491TMC3    C4 7299   2.457   2.906  17.660 -0.5911  0.4631 -0.1244
  491TMC3    C5 7300   2.425   2.774   0.002 -0.4768 -0.1813 -0.6656
  491TMC3    C6 7301   2.361   2.730   0.110  0.2155  0.2906 -0.0061
  491TMC3     C 7302   2.503   3.119   0.062 -0.1409  0.2143 -0.7213
  491TMC3     O 7303   2.586   3.132  17.660  0.3570  0.5355 -0.7913
  491TMC3     H 7304   2.313   3.036   0.248 -1.5746 -1.0887 -0.4395
  491TMC3    H1 7305   2.490   2.932  17.560 -1.3064 -0.3503 -0.5758
  491TMC3    H2 7306   2.338   2.625   0.122  0.5625  0.1178 -0.8569
  491TMC3    C7 7307   2.471   2.669  17.597 -0.2031  0.2877 -0.6221
  491TMC3    C8 7308   2.253   2.806   0.314 -0.5918  0.7179  0.2531
  491TMC3    O1 7309   2.415   2.562  17.589  0.1737  0.2785 -0.1261
  491TMC3    O2 7310   2.276   2.882   0.410  0.7961  0.3343  0.5039
  492MPD2     C 7311   3.325   2.496  10.881 -0.1279 -0.4688  0.4444
  492MPD2    C1 7312   3.284   2.369  10.863 -0.5730 -0.2446  0.1531
  492MPD2    C2 7313   3.212   2.299  10.962 -0.1337  0.2172  0.9292
  492MPD2    C3 7314   3.171   2.372  11.072  0.2950  0.2499 -0.5649
  492MPD2    C4 7315   3.215   2.500  11.093 -0.2381 -0.1685  0.4016
  492MPD2    C5 7316   3.298   2.559  11.001  0.3286 -0.6144  0.1887
  492MPD2     H 7317   3.180   2.195  10.957  0.5921  0.0715 -0.5268
  492MPD2    H1 7318   3.176   2.560  11.175 -0.5219  2.2398 -1.4825
  492MPD2    H2 7319   3.397   2.537  10.810  0.9870 -3.8685 -0.3766
  492MPD2    H3 7320   3.336   2.660  11.014  1.8025 -0.9965 -1.1995
  492MPD2     N 7321   3.085   2.315  11.169  0.1170  0.1023 -0.3960
  492MPD2    H5 7322   3.075   2.357  11.261 -0.8569 -0.0307 -0.4386
  492MPD2    N1 7323   3.324   2.316  10.739  0.2171 -0.1523  0.0586
  492MPD2    H7 7324   3.351   2.385  10.669  1.4283 -0.1837  0.5063
  493TMC3    C1 7325   3.335   2.151  10.567  0.4673  0.3168 -0.2599
  493TMC3    C2 7326   3.288   2.246  10.476 -0.0653  0.0375  0.2100
  493TMC3    C3 7327   3.245   2.195  10.356 -0.2684  0.1859 -0.1213
  493TMC3    C4 7328   3.322   2.021  10.542  0.0684  0.3462  0.2193
  493TMC3    C5 7329   3.260   1.972  10.436 -0.0291  0.1664  0.1684
  493TMC3    C6 7330   3.234   2.058  10.329 -1.1731  0.2953  0.3704
  493TMC3     C 7331   3.315   2.178  10.709 -0.8489 -0.3651  1.0086
  493TMC3     O 7332   3.270   2.083  10.772 -0.1811 -0.2500 -0.5667
  493TMC3     H 7333   3.293   2.353  10.492  0.3520  0.0045  0.3002
  493TMC3    H1 7334   3.349   1.945  10.614 -2.0134 -1.2318 -0.6760
  493TMC3    H2 7335   3.187   2.020  10.239  0.4108  1.1133 -0.7982
  493TMC3    C7 7336   3.148   1.894  10.473  0.4870  0.6916  0.6039
  493TMC3    C8 7337   3.156   2.277  10.282  0.6136  0.3163 -0.2806
  493TMC3    O1 7338   3.075   1.852  10.378  0.3249  0.3630  0.0733
  493TMC3    O2 7339   3.051   2.231  10.229  0.5042 -0.0835 -0.7779
  494TMC3    C1 7340   3.383   0.156   0.737  0.3243 -0.7995  0.0503
  494TMC3    C2 7341   3.439   0.078   0.831 -0.1627 -0.2172 -0.2906
  494TMC3    C3 7342   3.491   4.677   0.796  0.4273  0.5434  0.2772
  494TMC3    C4 7343   3.392   0.125   0.607  0.3021 -0.2215  0.8447
  494TMC3    C5 7344   3.460   0.008   0.571  0.0485 -0.4374  0.5999
  494TMC3    C6 7345   3.507   4.641   0.666  0.3102 -0.9235  1.1555
  494TMC3     C 7346   3.312   0.278   0.777  0.0735  0.5727  0.0514
  494TMC3     O 7347   3.353   0.328   0.882  0.0686 -0.3894  0.7285
  494TMC3     H 7348   3.451   0.100   0.937 -1.7377 -1.2564  0.1048
  494TMC3    H1 7349   3.355   0.185   0.524 -0.7173 -2.1445 -0.0729
  494TMC3    H2 7350   3.554   4.550   0.632 -1.5396 -2.2651  2.1457
  494TMC3    C7 7351   3.448   4.687   0.433 -0.9023 -0.9610 -0.4267
  494TMC3    C8 7352   3.510   4.578   0.899  0.1215  0.6731  0.2886
  494TMC3    O1 7353   3.409   0.053   0.352  0.2544 -0.4502 -0.0665
  494TMC3    O2 7354   3.442   4.599   1.002 -0.7176 -0.0921  0.3070
  495TMC3    C1 7355   2.251   1.812  14.631  0.6043 -0.4913  0.2643
  495TMC3    C2 7356   2.151   1.843  14.540 -0.4125 -0.0949  0.1237
  495TMC3    C3 7357   2.020   1.842  14.589 -0.3283 -0.4986 -1.1699
  495TMC3    C4 7358   2.223   1.799  14.763  0.8792 -0.6845 -0.0777
  495TMC3    C5 7359   2.095   1.826  14.804  0.6508 -0.2622 -0.0099
  495TMC3    C6 7360   1.990   1.847  14.722 -0.2096  0.3324 -0.4204
  495TMC3     C 7361   2.316   1.700  14.565 -0.0304  0.5017  0.9180
  495TMC3     O 7362   2.253   1.640  14.476 -0.3518 -0.7095 -0.1019
  495TMC3     H 7363   2.177   1.839  14.435 -0.9870  0.6024 -0.0422
  495TMC3    H1 7364   2.301   1.782  14.837  1.5171 -0.9150 -0.8053
  495TMC3    H2 7365   1.886   1.833  14.750  0.1547  0.5881  1.0381
  495TMC3    C7 7366   2.080   1.835  14.950  0.1784 -0.0859 -0.6042
  495TMC3    C8 7367   1.914   1.809  14.495  0.1408  0.2498 -0.5231
  495TMC3    O1 7368   2.181   1.853  15.017 -0.3682  0.3526 -0.1693
  495TMC3    O2 7369   1.796   1.842  14.515 -0.4461  0.8113 -0.2233
  496MPD2     C 7370   4.043   1.029  15.200  0.9387 -0.6700  0.4122
  496MPD2    C1 7371   4.166   1.077  15.202  0.6232 -0.5742 -0.0891
  496MPD2    C2 7372   4.207   1.172  15.292  0.8507 -0.3249  0.3604
  496MPD2    C3 7373   4.112   1.219  15.386  0.0017  0.5075  1.8602
  496MPD2    C4 7374   3.982   1.164  15.384  0.1187 -0.1665 -0.0602
  496MPD2    C5 7375   3.958   1.058  15.297 -0.5369 -0.2979  0.4677
  496MPD2     H 7376   4.308   1.210  15.294  0.6757  0.0353  2.3760
  496MPD2    H1 7377   3.900   1.189  15.451  0.3280  1.3606 -0.3811
  496MPD2    H2 7378   4.008   0.958  15.125 -1.5814  0.7681  0.2107
  496MPD2    H3 7379   3.861   1.009  15.289 -0.7245  0.0126  0.8324
  496MPD2     N 7380   4.134   1.320  15.482 -0.0674 -0.0702 -0.2262
  496MPD2    H5 7381   4.059   1.347  15.545  0.5816  1.4173 -0.0871
  496MPD2    N1 7382   4.249   1.035  15.098 -0.2364  0.4513  0.5772
  496MPD2    H7 7383   4.214   0.948  15.058  0.6681  0.3050  0.0861
  497TMC3    C1 7384   4.267   1.455  15.623  0.0700  0.3380 -0.5546
  497TMC3    C2 7385   4.219   1.405  15.739 -0.3728 -0.5586  0.8136
  497TMC3    C3 7386   4.276   1.452  15.849  0.0620 -0.2294  0.2498
  497TMC3    C4 7387   4.369   1.542  15.615  0.4151 -0.0227  0.5978
  497TMC3    C5 7388   4.430   1.578  15.730 -0.1573  0.5670 -0.2121
  497TMC3    C6 7389   4.385   1.538  15.849 -0.1744  0.0211  0.0692
  497TMC3     C 7390   4.258   1.372  15.507  0.8518 -0.7168 -0.1414
  497TMC3     O 7391   4.365   1.338  15.460  0.4691  0.3813  0.0908
  497TMC3     H 7392   4.135   1.337  15.750 -1.4156  0.5488 -0.3011
  497TMC3    H1 7393   4.411   1.576  15.522 -0.1902  1.1990  0.7671
  497TMC3    H2 7394   4.420   1.565  15.947  1.8020  2.9768 -1.4549
  497TMC3    C7 7395   4.538   1.678  15.711  0.5993 -0.6657  0.3011
  497TMC3    C8 7396   4.212   1.424  15.976  0.4979 -0.0504 -0.5943
  497TMC3    O1 7397   4.559   1.712  15.592 -0.0020 -0.1255 -0.3251
  497TMC3    O2 7398   4.193   1.516  16.052 -0.0291  0.2243 -0.1976
  498MPD2     C 7399   3.926   2.700   9.471  1.2282 -0.0171 -0.2217
  498MPD2    C1 7400   3.988   2.580   9.444  0.1912 -1.2095 -0.0337
  498MPD2    C2 7401   3.965   2.471   9.523 -0.1565 -0.9151 -0.5766
  498MPD2    C3 7402   3.864   2.476   9.627  0.1998 -0.6231  0.5857
  498MPD2    C4 7403   3.810   2.595   9.660  0.1523  0.0578 -0.7720
  498MPD2    C5 7404   3.836   2.698   9.573 -0.3171 -0.5084  0.2840
  498MPD2     H 7405   4.002   2.371   9.504 -0.7573 -1.0802 -0.8830
  498MPD2    H1 7406   3.739   2.606   9.741 -2.1648 -1.5089 -2.5456
  498MPD2    H2 7407   3.937   2.785   9.405  0.2038  0.0423 -0.3237
  498MPD2    H3 7408   3.793   2.796   9.592  0.2882 -0.0698 -0.6398
  498MPD2     N 7409   3.831   2.356   9.694 -0.0664  0.5606 -0.3998
  498MPD2    H5 7410   3.869   2.271   9.655  3.0293  1.5968  0.3749
  498MPD2    N1 7411   4.078   2.562   9.337  0.3306 -0.6330  0.7968
  498MPD2    H7 7412   4.114   2.471   9.312  0.4673 -0.6525  1.0678
  499TMC3    C1 7413   4.248   2.606   9.189 -0.3899  0.1249  1.2509
  499TMC3    C2 7414   4.247   2.474   9.153  0.6443  0.2616  0.0239
  499TMC3    C3 7415   4.357   2.427   9.084  0.2463  0.4167 -0.5840
  499TMC3    C4 7416   4.354   2.685   9.166  0.5483  0.1543 -0.0136
  499TMC3    C5 7417   4.462   2.639   9.099  0.4637 -0.5785 -0.6146
  499TMC3    C6 7418   4.467   2.511   9.061 -0.3042 -0.5394  0.1624
  499TMC3     C 7419   4.136   2.661   9.262  0.0243 -0.8629  0.2397
  499TMC3     O 7420   4.130   2.781   9.272  0.0121  0.0022 -0.6129
  499TMC3     H 7421   4.164   2.407   9.171  0.4546  0.8182  1.2821
  499TMC3    H1 7422   4.351   2.791   9.188  1.9997  0.0205  0.8676
  499TMC3    H2 7423   4.555   2.463   9.021  2.0708  2.8437  1.3725
  499TMC3    C7 7424   4.556   2.740   9.062  0.3423  0.5238  0.1924
  499TMC3    C8 7425   4.348   2.292   9.033 -0.2525  0.7407 -0.3426
  499TMC3    O1 7426   4.580   2.830   9.142  0.3121 -0.8270 -0.3313
  499TMC3    O2 7427   4.259   2.224   9.083  0.2205  0.2923  0.1656
  500MPD2     C 7428   2.147   3.679   9.648 -0.1695 -0.1242 -0.2739
  500MPD2    C1 7429   2.062   3.668   9.755  0.2670 -0.2370  0.5628
  500MPD2    C2 7430   1.931   3.628   9.736  0.7637 -0.5146 -0.7698
  500MPD2    C3 7431   1.882   3.580   9.616  0.1673 -0.0720  1.4800
  500MPD2    C4 7432   1.966   3.595   9.510 -0.3848 -0.3448  0.2226
  500MPD2    C5 7433   2.091   3.646   9.528 -0.1889 -1.4290  0.0169
  500MPD2     H 7434   1.868   3.619   9.824  0.1007  1.2207 -1.0687
  500MPD2    H1 7435   1.930   3.562   9.413 -1.3095  0.8146  0.1766
  500MPD2    H2 7436   2.243   3.729   9.648 -1.3522  2.1863  0.1247
  500MPD2    H3 7437   2.151   3.646   9.439 -1.1564 -0.8784 -0.6302
  500MPD2     N 7438   1.763   3.508   9.590 -0.4351 -0.1726 -0.9471
  500MPD2    H5 7439   1.766   3.445   9.511  2.9362 -0.7130 -0.4042
  500MPD2    N1 7440   2.095   3.703   9.892 -0.1649 -0.6109  0.3931
  500MPD2    H7 7441   2.024   3.697   9.965 -1.4312  1.2393 -0.6874
  501TMC3    C1 7442   2.231   3.783  10.066 -0.6144  0.2456 -0.2753
  501TMC3    C2 7443   2.115   3.818  10.128  0.1025 -0.8534  0.1117
  501TMC3    C3 7444   2.113   3.799  10.263  0.1581 -1.0241  0.2309
  501TMC3    C4 7445   2.333   3.716  10.131  0.3259 -0.2594 -0.2641
  501TMC3    C5 7446   2.327   3.691  10.266 -0.0276 -0.6556  0.8657
  501TMC3    C6 7447   2.215   3.736  10.335  0.6894 -0.1340 -0.4848
  501TMC3     C 7448   2.223   3.743   9.928  0.4317  0.6429  0.2402
  501TMC3     O 7449   2.322   3.757   9.864  0.0366  0.2774 -0.2177
  501TMC3     H 7450   2.038   3.863  10.067  0.2037 -2.7346 -1.4298
  501TMC3    H1 7451   2.423   3.691  10.075  1.0467 -0.0804  0.8196
  501TMC3    H2 7452   2.194   3.702  10.436  1.1451 -0.6117 -0.5477
  501TMC3    C7 7453   2.452   3.671  10.336  0.3823  0.2847 -0.2451
  501TMC3    C8 7454   2.032   3.892  10.350 -0.5666 -0.1171  0.2169
  501TMC3    O1 7455   2.553   3.653  10.267  0.1293 -0.3781  0.0385
  501TMC3    O2 7456   2.046   3.880  10.472  0.5265 -0.5525 -0.2343
  502TMC3    C1 7457   1.677   2.644  15.216  0.6516 -0.1054 -0.0231
  502TMC3    C2 7458   1.653   2.740  15.127  0.4106  0.2295 -0.0233
  502TMC3    C3 7459   1.522   2.765  15.103  0.1512 -0.7537  0.1681
  502TMC3    C4 7460   1.584   2.561  15.279 -0.4341  0.0115  0.3719
  502TMC3    C5 7461   1.456   2.591  15.246 -0.1954  0.9648 -0.0825
  502TMC3    C6 7462   1.421   2.694  15.154  0.4538 -1.0274  0.0080
  502TMC3     C 7463   1.816   2.632  15.252 -0.2154 -0.5722 -0.1800
  502TMC3     O 7464   1.908   2.674  15.182  0.2752 -0.3162 -0.5741
  502TMC3     H 7465   1.733   2.800  15.085  0.4558 -0.0256 -0.3013
  502TMC3    H1 7466   1.604   2.466  15.327  2.9894 -0.0523 -1.1316
  502TMC3    H2 7467   1.318   2.705  15.123  0.8974  1.7890 -0.5293
  502TMC3    C7 7468   1.359   2.535  15.335 -0.4426  0.3835 -0.6318
  502TMC3    C8 7469   1.488   2.886  15.034  0.5818 -0.3249 -0.1171
  502TMC3    O1 7470   1.393   2.448  15.415  0.7065  0.1661  0.3826
  502TMC3    O2 7471   1.574   2.918  14.947 -0.1186  0.0556 -0.4249
  503MPD2     C 7472   3.874   3.642  16.907 -1.0759 -0.4370  0.1162
  503MPD2    C1 7473   3.840   3.617  17.041 -0.4084  0.1426  0.2556
  503MPD2    C2 7474   3.898   3.510  17.110  0.3648  0.7157  0.0913
  503MPD2    C3 7475   3.991   3.434  17.048  0.7464  0.0232  0.2130
  503MPD2    C4 7476   4.024   3.460  16.914 -0.0264 -0.3843 -0.2405
  503MPD2    C5 7477   3.960   3.561  16.842  0.1255  0.1090 -0.3702
  503MPD2     H 7478   3.861   3.489  17.209 -2.9316  1.9115 -0.8597
  503MPD2    H1 7479   4.105   3.402  16.871  0.2936 -2.3206  2.9277
  503MPD2    H2 7480   3.834   3.724  16.848  1.4497 -1.7051 -3.3353
  503MPD2    H3 7481   3.988   3.597  16.744 -0.2451 -2.2988 -1.3729
  503MPD2     N 7482   4.063   3.343  17.132  0.0039 -0.1165 -0.0335
  503MPD2    H5 7483   4.039   3.343  17.231  0.3979 -0.4081  0.0613
  503MPD2    N1 7484   3.745   3.695  17.112 -0.3134  0.2421  0.3987
  503MPD2    H7 7485   3.713   3.666  17.204 -1.3295  1.8397  0.5561
  504TMC3    C1 7486   4.172   3.153  17.193 -1.0949  0.3986  0.5961
  504TMC3    C2 7487   4.078   3.124  17.295 -1.0233 -0.1693 -0.6812
  504TMC3    C3 7488   4.101   3.010  17.372  0.7446 -0.3826 -0.5628
  504TMC3    C4 7489   4.268   3.060  17.161 -0.4444 -0.7775 -0.2110
  504TMC3    C5 7490   4.276   2.954  17.236  0.1074 -0.3777 -0.6896
  504TMC3    C6 7491   4.198   2.923  17.343 -0.8017 -0.5140  0.0104
  504TMC3     C 7492   4.145   3.247  17.094  0.3585 -0.4524 -0.5099
  504TMC3     O 7493   4.192   3.224  16.982  0.4627  0.1599  0.4242
  504TMC3     H 7494   3.983   3.177  17.300 -0.0679  1.5464 -0.7289
  504TMC3    H1 7495   4.337   3.084  17.081 -0.5714  1.3413  0.3158
  504TMC3    H2 7496   4.185   2.833  17.402 -0.5079 -0.2112  0.5316
  504TMC3    C7 7497   4.376   2.866  17.188  0.3073  0.0738  0.2761
  504TMC3    C8 7498   4.005   2.972  17.472  0.3092  0.0209 -0.0653
  504TMC3    O1 7499   4.445   2.904  17.093 -0.5836  0.1834  0.0905
  504TMC3    O2 7500   3.888   3.010  17.448  0.3997  0.0997  0.0029
  505MPD2     C 7501   4.153   1.354   9.998 -0.2926 -0.0813 -0.1450
  505MPD2    C1 7502   4.059   1.260  10.024 -0.1378 -0.6024  0.1365
  505MPD2    C2 7503   3.994   1.208   9.912  0.5242  0.4231 -0.3183
  505MPD2    C3 7504   4.015   1.261   9.788  1.3315 -0.3009  0.1600
  505MPD2    C4 7505   4.104   1.366   9.768 -0.3817 -0.0738 -0.4431
  505MPD2    C5 7506   4.176   1.409   9.873  0.6103  0.3937  0.1159
  505MPD2     H 7507   3.929   1.123   9.929  1.9638 -0.8366 -0.9998
  505MPD2    H1 7508   4.112   1.415   9.672  1.9007 -2.2809 -1.3809
  505MPD2    H2 7509   4.207   1.401  10.079 -1.6185 -1.6544  1.6552
  505MPD2    H3 7510   4.248   1.486   9.846  2.7060 -0.5177  3.0979
  505MPD2     N 7511   3.939   1.201   9.686  0.6996 -0.3126  0.5278
  505MPD2    H5 7512   3.892   1.118   9.720 -2.2264  1.2906  0.4818
  505MPD2    N1 7513   4.039   1.207  10.156  0.4877 -0.1649 -0.3113
  505MPD2    H7 7514   4.076   1.266  10.230 -0.1702 -0.7882  0.5169
  506TMC3    C1 7515   3.886   1.132  10.319  0.1368 -1.0273  0.8820
  506TMC3    C2 7516   3.871   1.260  10.368 -0.2204 -0.3697  0.4707
  506TMC3    C3 7517   3.763   1.280  10.455  1.0465 -0.0979 -0.3174
  506TMC3    C4 7518   3.805   1.028  10.352 -0.3683  0.1243  0.8325
  506TMC3    C5 7519   3.691   1.058  10.414 -0.3251 -0.5101 -0.0860
  506TMC3    C6 7520   3.674   1.177  10.479  0.3435 -0.2658  0.3829
  506TMC3     C 7521   3.951   1.113  10.188  1.0742 -0.0938  0.5516
  506TMC3     O 7522   3.879   1.039  10.123 -0.2437  0.1006 -0.3633
  506TMC3     H 7523   3.939   1.339  10.337  0.7546 -1.0384  0.8972
  506TMC3    H1 7524   3.809   0.931  10.304 -0.7851  0.4630  0.1025
  506TMC3    H2 7525   3.576   1.208  10.516  0.0141 -0.3781 -0.3945
  506TMC3    C7 7526   3.576   1.023  10.337 -0.5436 -0.2267  0.1908
  506TMC3    C8 7527   3.727   1.410  10.512  0.4043  0.1014 -0.1625
  506TMC3    O1 7528   3.480   0.983  10.404 -0.2143  0.6201  0.3134
  506TMC3    O2 7529   3.651   1.407  10.602  0.6070 -0.4513  0.2229
  507TMC3    C1 7530   4.715   2.553  14.427  0.6258 -0.6041 -0.3571
  507TMC3    C2 7531   4.676   2.526  14.302 -0.1500  0.4522 -0.8445
  507TMC3    C3 7532   0.032   2.569  14.195  0.5837  0.0918  0.0500
  507TMC3    C4 7533   0.104   2.621  14.461  0.6729 -0.0140  0.1598
  507TMC3    C5 7534   0.189   2.658  14.359 -0.2618 -0.5598  0.0191
  507TMC3    C6 7535   0.156   2.628  14.229 -0.3067  0.5707 -0.0790
  507TMC3     C 7536   4.631   2.500  14.537  0.0821 -0.3677  0.7248
  507TMC3     O 7537   4.688   2.485  14.642  0.4748  0.4207  0.6290
  507TMC3     H 7538   4.589   2.462  14.287 -1.4165  2.1807 -0.8943
  507TMC3    H1 7539   0.139   2.618  14.563 -0.4849  1.5023  0.6027
  507TMC3    H2 7540   0.231   2.634  14.151 -0.7675  1.7303 -0.4233
  507TMC3    C7 7541   0.259   2.780  14.364  0.5061  0.9179  0.2268
  507TMC3    C8 7542   4.686   2.658  14.106 -0.3002  0.5708 -0.1445
  507TMC3    O1 7543   0.262   2.835  14.257  0.6128 -0.1908  0.0565
  507TMC3    O2 7544   4.567   2.638  14.073 -0.4169 -0.4092 -0.7621
  508MPD2     C 7545   0.690   0.362  16.340  0.2727  0.1822  0.4237
  508MPD2    C1 7546   0.824   0.390  16.333 -0.1778  0.4586  0.1981
  508MPD2    C2 7547   0.884   0.424  16.215  0.4745  0.4356 -0.2894
  508MPD2    C3 7548   0.809   0.442  16.104  0.3204  0.2506 -0.4732
  508MPD2    C4 7549   0.675   0.431  16.113  0.4641 -0.6056  0.1842
  508MPD2    C5 7550   0.617   0.382  16.227 -0.0434 -0.1135 -0.3236
  508MPD2     H 7551   0.987   0.457  16.212 -0.1804  2.3939 -0.9092
  508MPD2    H1 7552   0.615   0.449  16.024  0.8168 -0.0117  0.0629
  508MPD2    H2 7553   0.648   0.316  16.429  1.4254 -2.8276 -0.5652
  508MPD2    H3 7554   0.511   0.358  16.225  0.4857 -2.2914 -1.5468
  508MPD2     N 7555   0.880   0.467  15.978 -0.3463  0.4108  0.2689
  508MPD2    H5 7556   0.978   0.490  15.980 -0.2905  0.2835 -0.9917
  508MPD2    N1 7557   0.892   0.377  16.452 -0.1446 -0.5119 -0.0985
  508MPD2    H7 7558   0.841   0.359  16.538  0.7724 -1.2707  0.2930
  509TMC3    C1 7559   0.854   0.756  15.623  0.7204  0.3779  0.6939
  509TMC3    C2 7560   0.956   0.839  15.672  1.2727  0.7878  0.4464
  509TMC3    C3 7561   1.034   0.779  15.772 -0.2279  0.4797  0.1577
  509TMC3    C4 7562   0.832   0.630  15.669 -0.1012 -0.3273 -0.3597
  509TMC3    C5 7563   0.899   0.584  15.774  0.0238  0.7846  0.0525
  509TMC3    C6 7564   0.995   0.663  15.828 -0.3246  0.2315 -0.0102
  509TMC3     C 7565   0.762   0.806  15.520  0.0481 -0.2090 -0.1009
  509TMC3     O 7566   0.677   0.720  15.484 -0.0942 -0.2202  0.3705
  509TMC3     H 7567   1.000   0.915  15.607 -0.8319  0.7428 -1.0224
  509TMC3    H1 7568   0.753   0.574  15.621 -0.1674 -0.4043 -0.1645
  509TMC3    H2 7569   1.051   0.629  15.914 -1.7250 -0.8037  0.4982
  509TMC3    C7 7570   0.829   0.479  15.850 -0.1176  0.3700  0.2125
  509TMC3    C8 7571   1.151   0.847  15.832 -0.3665  0.5670  0.0095
  509TMC3    O1 7572   0.720   0.444  15.809  0.7828  0.3153  0.6014
  509TMC3    O2 7573   1.214   0.790  15.921  0.4785  0.2383  0.2080
  510MPD2     C 7574   3.628   1.821  14.519 -0.2130  0.1366 -0.1092
  510MPD2    C1 7575   3.731   1.795  14.608 -0.2151  0.1768  0.7550
  510MPD2    C2 7576   3.866   1.796  14.573  0.1117 -0.3711 -0.1657
  510MPD2    C3 7577   3.893   1.824  14.440 -0.3229  0.3527  0.6117
  510MPD2    C4 7578   3.786   1.820  14.351 -0.0256  0.4672  1.1489
  510MPD2    C5 7579   3.659   1.829  14.380  0.4533 -0.1758  1.4851
  510MPD2     H 7580   3.940   1.762  14.645  0.4525 -0.0989 -0.3897
  510MPD2    H1 7581   3.798   1.829  14.244 -0.3128 -0.7305  1.0160
  510MPD2    H2 7582   3.527   1.793  14.544  0.2268 -2.6067 -1.3626
  510MPD2    H3 7583   3.579   1.824  14.307  2.5113  0.1704 -0.8111
  510MPD2     N 7584   4.031   1.836  14.404 -0.4374 -0.2276  0.0791
  510MPD2    H5 7585   4.102   1.825  14.475 -1.6704  2.5548  1.7220
  510MPD2    N1 7586   3.695   1.747  14.740 -1.0494  0.2973  0.5028
  510MPD2    H7 7587   3.597   1.727  14.754 -1.6777  1.9229 -1.6723
  511TMC3    C1 7588   3.676   1.667  14.952  0.7664 -0.7669  0.1665
  511TMC3    C2 7589   3.583   1.762  14.989  0.2351 -0.0498  0.2748
  511TMC3    C3 7590   3.459   1.720  15.041  0.1013 -0.9010  0.6643
  511TMC3    C4 7591   3.654   1.533  14.953  0.1844 -0.4696 -0.2030
  511TMC3    C5 7592   3.531   1.496  15.005 -0.0999 -0.5650  0.0671
  511TMC3    C6 7593   3.433   1.586  15.048 -0.4240  0.5586  0.8829
  511TMC3     C 7594   3.768   1.706  14.848 -0.1381  0.0521  0.2570
  511TMC3     O 7595   3.885   1.692  14.870  0.2637  0.6922  0.2554
  511TMC3     H 7596   3.601   1.868  14.998  1.5653 -0.1691 -0.9179
  511TMC3    H1 7597   3.718   1.458  14.909 -0.4655  0.4362 -2.6932
  511TMC3    H2 7598   3.333   1.548  15.065 -0.6529 -1.2689 -4.7091
  511TMC3    C7 7599   3.472   1.383  14.927 -0.6459  0.4019 -0.0023
  511TMC3    C8 7600   3.380   1.818  15.115 -0.1490  0.6756  0.0778
  511TMC3    O1 7601   3.544   1.329  14.845  0.2813 -0.1843  0.4975
  511TMC3    O2 7602   3.390   1.936  15.086  0.3220 -0.4680  0.0268
  512TMC3    C1 7603   2.239   1.236  12.881 -0.3332  0.2473  0.5520
  512TMC3    C2 7604   2.346   1.212  12.963  0.4384  0.2714 -0.0347
  512TMC3    C3 7605   2.350   1.092  13.029 -0.7774 -0.2613  0.2845
  512TMC3    C4 7606   2.151   1.138  12.845  0.0712 -0.4364  0.6644
  512TMC3    C5 7607   2.166   1.012  12.901  0.6635 -0.0112 -0.1066
  512TMC3    C6 7608   2.256   0.989  13.004 -0.6369  0.5092  0.5898
  512TMC3     C 7609   2.258   1.355  12.798 -0.8184  0.4533 -0.0724
  512TMC3     O 7610   2.339   1.438  12.841 -0.0447  0.1624 -0.6410
  512TMC3     H 7611   2.417   1.290  12.988 -0.9032  2.5004 -3.2783
  512TMC3    H1 7612   2.064   1.162  12.783 -1.0391  0.3076  2.5092
  512TMC3    H2 7613   2.254   0.894  13.055 -0.9675  1.6293  2.6678
  512TMC3    C7 7614   2.076   0.905  12.867 -0.7963 -0.6472  0.0953
  512TMC3    C8 7615   2.455   1.058  13.128 -0.4681 -0.1052  0.1903
  512TMC3    O1 7616   1.980   0.936  12.793  0.1501 -0.2614  0.1241
  512TMC3    O2 7617   2.493   0.943  13.123  0.2615  0.7300  0.0991
  513MPD2     C 7618   4.299   1.360  13.379  0.8525 -0.3245 -0.0067
  513MPD2    C1 7619   4.370   1.391  13.264  0.3429 -0.1717 -0.5239
  513MPD2    C2 7620   4.460   1.496  13.275 -0.0376 -0.1323 -0.5065
  513MPD2    C3 7621   4.491   1.551  13.393 -0.0162 -0.1725  0.0318
  513MPD2    C4 7622   4.427   1.505  13.500 -0.5711  0.4861  0.0394
  513MPD2    C5 7623   4.327   1.416  13.492 -0.5167  0.1055  0.1964
  513MPD2     H 7624   4.510   1.536  13.187 -0.1431 -0.2913 -0.6392
  513MPD2    H1 7625   4.444   1.535  13.603  1.3497  2.4735 -0.8549
  513MPD2    H2 7626   4.236   1.272  13.378  1.2201 -0.5872  0.1171
  513MPD2    H3 7627   4.275   1.381  13.581 -0.7801  0.9127  0.3668
  513MPD2     N 7628   4.592   1.648  13.391  0.2086  0.6612 -0.0460
  513MPD2    H5 7629   4.624   1.689  13.304 -1.7236 -1.8076 -1.9407
  513MPD2    N1 7630   4.353   1.316  13.145 -0.4571  0.1701  0.1786
  513MPD2    H7 7631   4.275   1.252  13.137  0.5822 -0.9364 -1.0443
  514TMC3    C1 7632   4.438   1.200  12.962  0.4841  0.4384 -0.6034
  514TMC3    C2 7633   4.321   1.183  12.896 -0.3794 -0.8748 -0.6692
  514TMC3    C3 7634   4.337   1.178  12.757 -0.0822 -0.1910 -0.4581
  514TMC3    C4 7635   4.567   1.199  12.906  0.4230 -0.4363  0.2945
  514TMC3    C5 7636   4.568   1.197  12.772 -0.5449  0.0211 -0.6604
  514TMC3    C6 7637   4.456   1.187  12.689 -0.2702 -0.1964  0.0976
  514TMC3     C 7638   4.441   1.317  13.045 -0.2886  0.3086  0.0606
  514TMC3     O 7639   4.549   1.372  13.044 -0.2604  0.5722 -0.2465
  514TMC3     H 7640   4.227   1.193  12.949  0.9828 -2.1720  1.9723
  514TMC3    H1 7641   4.658   1.199  12.966 -1.0934  1.3889  2.6018
  514TMC3    H2 7642   4.484   1.193  12.584  1.3221  1.4691  0.6029
  514TMC3    C7 7643   4.671   1.280  12.721  0.1578 -0.2940  0.0123
  514TMC3    C8 7644   4.211   1.188  12.685 -0.1031 -0.6613  0.4181
  514TMC3    O1 7645   4.715   1.253  12.611 -0.0415 -0.0802  0.2205
  514TMC3    O2 7646   4.110   1.220  12.740 -0.0705 -0.1782  0.0318
  515MPD2     C 7647   2.229   3.098  14.234  1.0450 -0.5586 -0.7269
  515MPD2    C1 7648   2.235   2.967  14.275  1.1385  0.2613 -0.7810
  515MPD2    C2 7649   2.303   2.938  14.391  0.2139 -0.0016  0.1295
  515MPD2    C3 7650   2.367   3.038  14.464  0.6783  0.0413 -0.1534
  515MPD2    C4 7651   2.367   3.174  14.419 -0.0020 -0.1918 -0.1286
  515MPD2    C5 7652   2.295   3.195  14.302  0.1115 -0.6942 -0.1091
  515MPD2     H 7653   2.318   2.832  14.406  1.1527  0.1833  0.4615
  515MPD2    H1 7654   2.410   3.259  14.471  1.7561 -0.4374 -1.1925
  515MPD2    H2 7655   2.164   3.117  14.149  0.9778 -1.7607 -0.9458
  515MPD2    H3 7656   2.272   3.296  14.270 -1.1032 -0.1407  2.4724
  515MPD2     N 7657   2.452   3.016  14.575  0.1431  0.1777  0.0719
  515MPD2    H5 7658   2.500   3.097  14.612 -1.4707  0.8066  0.8076
  515MPD2    N1 7659   2.179   2.858  14.198 -0.7357 -0.6877  0.0026
  515MPD2    H7 7660   2.201   2.763  14.225 -1.0210 -0.0020  2.6280
  516TMC3    C1 7661   2.036   2.740  14.047  0.1375 -0.6133  0.8532
  516TMC3    C2 7662   1.971   2.715  13.929  0.4148  1.2761  0.3636
  516TMC3    C3 7663   1.878   2.620  13.927 -0.0315  0.2559 -0.5181
  516TMC3    C4 7664   2.015   2.654  14.153  0.8062 -0.5342  0.4939
  516TMC3    C5 7665   1.925   2.550  14.144  0.5577 -0.4930  0.3770
  516TMC3    C6 7666   1.846   2.535  14.032 -0.3245 -0.0141 -0.4496
  516TMC3     C 7667   2.106   2.867  14.078 -1.1888  0.1266 -0.0887
  516TMC3     O 7668   2.052   2.964  14.029  0.0181  0.5669  0.1908
  516TMC3     H 7669   1.984   2.785  13.846 -1.9760  1.1709 -0.1231
  516TMC3    H1 7670   2.063   2.672  14.248 -2.2868 -0.9317  2.1390
  516TMC3    H2 7671   1.790   2.444  14.017 -0.3833 -0.3258  1.6939
  516TMC3    C7 7672   1.892   2.482  14.263 -0.5261 -0.0711 -0.0061
  516TMC3    C8 7673   1.806   2.584  13.806  0.8081  0.2586 -0.1408
  516TMC3    O1 7674   1.978   2.497  14.348 -0.3762 -0.3165 -0.6799
  516TMC3    O2 7675   1.701   2.524  13.817  0.2766 -0.4348  0.0843
  517MPD2     C 7676   1.971   0.233  17.294  0.2092  0.5213  0.3314
  517MPD2    C1 7677   2.022   0.204  17.414 -0.1892 -0.3555 -0.1273
  517MPD2    C2 7678   1.965   0.251  17.531 -0.1384  0.1387  0.0232
  517MPD2    C3 7679   1.845   0.320  17.529  0.8065 -0.6889 -0.2730
  517MPD2    C4 7680   1.790   0.351  17.400  0.4546  0.5849 -0.8456
  517MPD2    C5 7681   1.860   0.312  17.282 -0.1264  0.1934 -0.1417
  517MPD2     H 7682   2.013   0.232  17.626 -0.7377  2.2377  0.7370
  517MPD2    H1 7683   1.703   0.415  17.394  0.8745  1.2785  0.7737
  517MPD2    H2 7684   2.007   0.185  17.204  0.7142  1.4321  0.0458
  517MPD2    H3 7685   1.838   0.330  17.178  1.1955 -0.6078 -0.5626
  517MPD2     N 7686   1.780   0.371  17.646 -0.1562 -0.5925 -0.1070
  517MPD2    H5 7687   1.693   0.423  17.636 -1.3656 -2.5951  0.0182
  517MPD2    N1 7688   2.136   0.123  17.430  0.1621 -0.3988 -0.5901
  517MPD2    H7 7689   2.184   0.127  17.519 -1.2316 -1.8086  0.1987
  518TMC3    C1 7690   2.325   4.714  17.387 -0.3205  0.0998 -0.8395
  518TMC3    C2 7691   2.312   4.623  17.488  0.0748  0.5877 -0.6897
  518TMC3    C3 7692   2.409   4.533  17.515 -0.2149  1.0608  0.1977
  518TMC3    C4 7693   2.430   4.697  17.294  0.1959 -0.5534  0.3584
  518TMC3    C5 7694   2.523   4.607  17.321  0.9246  0.4325 -0.2861
  518TMC3    C6 7695   2.527   4.532  17.438  0.0457 -0.0484 -0.9315
  518TMC3     C 7696   2.208   0.059  17.334  0.7859 -0.3619  0.4134
  518TMC3     O 7697   2.193   0.062  17.212  0.6834  0.0338 -0.2744
  518TMC3     H 7698   2.221   4.615  17.547  0.9851 -1.1104  0.5167
  518TMC3    H1 7699   2.433   0.045  17.211 -2.5082 -0.7874  0.0702
  518TMC3    H2 7700   2.595   4.449  17.453 -0.1852 -0.2089 -0.7655
  518TMC3    C7 7701   2.594   4.553  17.208 -0.6056 -0.2317  0.1170
  518TMC3    C8 7702   2.406   4.434  17.623 -1.3706  0.0290  0.5535
  518TMC3    O1 7703   2.546   4.582  17.098 -0.3725  0.4800 -0.1838
  518TMC3    O2 7704   2.494   4.350  17.622 -0.1180  0.7337 -0.2357
  519MPD2     C 7705   3.530   2.871  14.396 -0.0274 -0.1379 -0.4052
  519MPD2    C1 7706   3.463   2.789  14.316 -0.2506  0.6443  0.0147
  519MPD2    C2 7707   3.487   2.654  14.308  0.6239  0.9376  0.2334
  519MPD2    C3 7708   3.585   2.594  14.385  0.6054 -0.4666 -0.2226
  519MPD2    C4 7709   3.668   2.684  14.450  0.1176 -0.2435  0.4888
  519MPD2    C5 7710   3.634   2.813  14.464 -0.6119 -0.2715  0.3057
  519MPD2     H 7711   3.420   2.601  14.242 -0.0390  0.8503  0.9733
  519MPD2    H1 7712   3.758   2.643  14.493  1.4098  1.0753 -0.9238
  519MPD2    H2 7713   3.507   2.976  14.410  2.0028  0.2686 -0.0617
  519MPD2    H3 7714   3.695   2.886  14.517  0.5989 -1.9354  1.1918
  519MPD2     N 7715   3.614   2.452  14.393 -0.3698  0.1550  0.1842
  519MPD2    H5 7716   3.705   2.426  14.431  0.2798 -1.3204 -2.3969
  519MPD2    N1 7717   3.348   2.837  14.250  0.8265  0.2598  0.5637
  519MPD2    H7 7718   3.290   2.768  14.204 -1.1499  1.9056  0.5832
  520TMC3    C1 7719   3.595   2.222  14.346  0.1802 -0.1786  0.5646
  520TMC3    C2 7720   3.558   2.151  14.233 -0.5244  0.6299  0.0523
  520TMC3    C3 7721   3.648   2.117  14.143  0.3489 -0.2616  0.4867
  520TMC3    C4 7722   3.726   2.226  14.391  0.7256 -0.1584 -0.9257
  520TMC3    C5 7723   3.810   2.173  14.301 -0.4090  0.0673  0.2067
  520TMC3    C6 7724   3.779   2.125  14.179  0.7123  0.4097 -0.0237
  520TMC3     C 7725   3.535   2.349  14.351  0.2611  0.7252 -0.3829
  520TMC3     O 7726   3.426   2.365  14.295 -0.4841 -0.2143 -0.0726
  520TMC3     H 7727   3.451   2.140  14.221 -0.4036 -1.8822  1.2799
  520TMC3    H1 7728   3.765   2.282  14.475  0.8035 -1.8640  0.1876
  520TMC3    H2 7729   3.855   2.080  14.116  1.8200  2.3626 -0.0659
  520TMC3    C7 7730   3.949   2.215  14.314  0.1546  0.2880 -0.0617
  520TMC3    C8 7731   3.623   2.132  14.006 -0.3059  0.3146  0.1831
  520TMC3    O1 7732   3.995   2.201  14.424 -0.5851  0.2513 -0.1652
  520TMC3    O2 7733   3.714   2.106  13.926 -0.4274  0.1681 -0.1099
  521MPD2     C 7734   4.489   1.418  17.368 -0.5729  0.5817  0.0107
  521MPD2    C1 7735   4.491   1.284  17.342  0.0644 -0.4879  0.5503
  521MPD2    C2 7736   4.592   1.225  17.273 -0.2788  0.8871 -0.3499
  521MPD2    C3 7737   4.697   1.299  17.220 -0.0940 -0.4064 -0.0992
  521MPD2    C4 7738   4.699   1.432  17.250 -0.3579 -0.3635 -1.1238
  521MPD2    C5 7739   4.595   1.491  17.321  0.3532  0.2510  0.2180
  521MPD2     H 7740   4.601   1.118  17.256 -1.5253  0.8903 -0.9896
  521MPD2    H1 7741   0.063   1.493  17.221 -1.1552  2.3051  2.1314
  521MPD2    H2 7742   4.406   1.457  17.425 -0.3399  0.7495  0.2366
  521MPD2    H3 7743   4.606   1.597  17.337  1.5598  0.1979 -0.2073
  521MPD2     N 7744   0.074   1.236  17.145  0.1634 -0.4859 -0.3974
  521MPD2    H5 7745   0.055   1.141  17.113 -1.7686 -0.6469  1.2609
  521MPD2    N1 7746   4.374   1.212  17.379 -0.7116 -0.2147  0.4698
  521MPD2    H7 7747   4.298   1.257  17.429 -0.2318  1.8761 -0.7046
  522TMC3    C1 7748   0.277   1.204  17.036  0.6602 -0.7266 -0.1785
  522TMC3    C2 7749   0.404   1.232  17.041 -1.0978 -0.4764 -0.3434
  522TMC3    C3 7750   0.479   1.151  16.964  0.0375 -0.6496  0.5798
  522TMC3    C4 7751   0.217   1.108  16.970  0.0669  0.1895 -0.5083
  522TMC3    C5 7752   0.291   1.019  16.888  0.5051  0.1608  0.1221
  522TMC3    C6 7753   0.425   1.041  16.889 -0.0005  0.3794  0.2058
  522TMC3     C 7754   0.200   1.288  17.128  0.1790  0.4341 -0.4543
  522TMC3     O 7755   0.262   1.376  17.193 -0.3377  0.7040 -0.0227
  522TMC3     H 7756   0.450   1.307  17.104 -2.6887 -1.0919  1.5605
  522TMC3    H1 7757   0.110   1.093  16.959 -0.2500  1.9492  0.3297
  522TMC3    H2 7758   0.491   0.969  16.842  0.4979  0.8211  0.2333
  522TMC3    C7 7759   0.241   0.968  16.759  0.1954 -0.9040 -0.4988
  522TMC3    C8 7760   0.621   1.178  16.970  0.0586  0.2523 -0.4055
  522TMC3    O1 7761   0.331   0.956  16.678  0.4571  0.2129  0.6219
  522TMC3    O2 7762   0.656   1.271  17.044 -0.7076  0.4638  0.0868
  523MPD2     C 7763   2.056   0.353  10.300 -0.1770 -0.6439 -0.1584
  523MPD2    C1 7764   1.983   0.248  10.265  0.2088  0.8749  0.2214
  523MPD2    C2 7765   1.873   0.264  10.188  0.5604  0.3999 -0.2641
  523MPD2    C3 7766   1.822   0.395  10.156 -0.3806 -0.4079  0.3858
  523MPD2    C4 7767   1.896   0.503  10.205  0.5059 -0.2916  0.3995
  523MPD2    C5 7768   2.010   0.484  10.278 -0.1123 -0.6859  0.0615
  523MPD2     H 7769   1.824   0.186  10.131 -0.8926 -0.0691  1.6292
  523MPD2    H1 7770   1.863   0.605  10.190  1.2423 -0.1776 -0.4319
  523MPD2    H2 7771   2.152   0.333  10.345 -0.1790  1.5864  0.8442
  523MPD2    H3 7772   2.068   0.570  10.310 -0.1080 -0.6313 -0.0930
  523MPD2     N 7773   1.716   0.426  10.070  0.3046 -0.3470 -0.1839
  523MPD2    H5 7774   1.718   0.523  10.039  1.4176 -0.6467 -1.0846
  523MPD2    N1 7775   2.052   0.121  10.256 -0.2761  0.0754 -0.9441
  523MPD2    H7 7776   2.145   0.125  10.296 -1.2442 -1.6881  1.4335
  524TMC3    C1 7777   1.561   0.363   9.895  0.0250  0.4584  0.3091
  524TMC3    C2 7778   1.572   0.263   9.803 -0.3567 -0.1108  0.0574
  524TMC3    C3 7779   1.496   0.277   9.689  0.5652  1.1834 -0.5779
  524TMC3    C4 7780   1.470   0.464   9.902  0.8682  0.3177 -0.7897
  524TMC3    C5 7781   1.391   0.467   9.787  0.1555  0.1747 -0.2280
  524TMC3    C6 7782   1.398   0.371   9.687  0.1039 -0.5968  0.9608
  524TMC3     C 7783   1.633   0.337  10.018 -0.0562  0.4168 -0.1910
  524TMC3     O 7784   1.621   0.215  10.036  0.1090 -0.0934 -0.1485
  524TMC3     H 7785   1.663   0.205   9.802  1.0643  2.1644 -0.6324
  524TMC3    H1 7786   1.460   0.532   9.985 -0.2385 -1.0943  0.2278
  524TMC3    H2 7787   1.354   0.370   9.588  0.0305  0.5880  0.9768
  524TMC3    C7 7788   1.300   0.573   9.767 -0.5149 -0.6361 -0.1099
  524TMC3    C8 7789   1.470   0.147   9.625  0.0682  0.2620  0.0764
  524TMC3    O1 7790   1.202   0.537   9.702  0.3861 -0.1532  0.2146
  524TMC3    O2 7791   1.512   0.043   9.678  0.1955 -0.4237 -0.1375
  525MPD2     C 7792   0.315   2.285  14.392  0.5943  0.1259 -0.1843
  525MPD2    C1 7793   0.440   2.284  14.452  0.0307 -0.1648 -0.0058
  525MPD2    C2 7794   0.554   2.329  14.377 -0.3945  0.6810  0.2100
  525MPD2    C3 7795   0.532   2.393  14.259 -0.2901  0.1691 -0.0824
  525MPD2    C4 7796   0.409   2.398  14.204  0.2688  0.5106 -0.1949
  525MPD2    C5 7797   0.304   2.335  14.268 -1.0104 -0.8480 -0.1402
  525MPD2     H 7798   0.651   2.340  14.425 -0.6385 -0.9000  1.0663
  525MPD2    H1 7799   0.379   2.443  14.110  1.1531 -0.2785 -0.8562
  525MPD2    H2 7800   0.222   2.247  14.434  0.9845 -0.7055 -0.0806
  525MPD2    H3 7801   0.211   2.331  14.212 -1.2978 -2.8380  0.4970
  525MPD2     N 7802   0.638   2.455  14.187 -0.2334 -0.2631 -0.5917
  525MPD2    H5 7803   0.610   2.514  14.109 -0.6774 -0.1158 -0.3172
  525MPD2    N1 7804   0.463   2.225  14.581 -0.4485 -0.3150  0.2970
  525MPD2    H7 7805   0.558   2.200  14.607 -1.4155 -2.6528  1.5810
  526TMC3    C1 7806   0.422   2.147  14.790  0.1968 -0.3563 -1.0262
  526TMC3    C2 7807   0.348   2.146  14.903  0.3351 -0.3441 -0.1186
  526TMC3    C3 7808   0.401   2.110  15.026 -0.1049 -0.4198  0.0031
  526TMC3    C4 7809   0.549   2.095  14.793 -0.2248 -0.1988 -0.6847
  526TMC3    C5 7810   0.588   2.033  14.910  0.2067 -0.0053 -0.1938
  526TMC3    C6 7811   0.522   2.047  15.028 -0.7112 -0.2240  0.3775
  526TMC3     C 7812   0.362   2.193  14.669  0.6075 -0.3834 -0.3496
  526TMC3     O 7813   0.239   2.204  14.659 -0.3949 -0.2218  0.0630
  526TMC3     H 7814   0.254   2.199  14.909  0.5644  0.0800 -0.2459
  526TMC3    H1 7815   0.610   2.071  14.706  1.0978  1.4717 -0.2225
  526TMC3    H2 7816   0.558   2.021  15.127  1.3021  0.5205 -0.1589
  526TMC3    C7 7817   0.725   1.983  14.919  0.1382  0.5695 -0.6477
  526TMC3    C8 7818   0.389   2.198  15.136 -1.2146  0.0878  0.2266
  526TMC3    O1 7819   0.762   1.943  15.029  0.2892 -0.1414 -0.4765
  526TMC3    O2 7820   0.478   2.277  15.161  0.0639  0.2670 -0.2292
  527MPD2     C 7821   3.046   1.017   1.521 -0.7792  0.3716  0.4636
  527MPD2    C1 7822   3.155   0.939   1.549  0.2641  0.4321 -0.0278
  527MPD2    C2 7823   3.253   0.917   1.447  0.4093 -0.2028 -0.1437
  527MPD2    C3 7824   3.244   0.975   1.322 -0.4948  0.1486 -0.5194
  527MPD2    C4 7825   3.125   1.049   1.296 -0.6114 -0.1883  0.4831
  527MPD2    C5 7826   3.033   1.067   1.395  0.3042 -0.7988  0.3049
  527MPD2     H 7827   3.339   0.855   1.466  0.3456  0.0542  0.9763
  527MPD2    H1 7828   3.102   1.100   1.203  1.1222  1.5451  1.0095
  527MPD2    H2 7829   2.978   1.045   1.601  1.0449  2.6519  1.2052
  527MPD2    H3 7830   2.952   1.136   1.376  0.7019  0.1879  2.1349
  527MPD2     N 7831   3.339   0.938   1.229  0.2373 -0.6394  1.1428
  527MPD2    H5 7832   3.424   0.895   1.266 -0.5262 -2.8644  0.3360
  527MPD2    N1 7833   3.173   0.866   1.668  0.5910  0.2732  0.1438
  527MPD2    H7 7834   3.258   0.810   1.673  1.6491  1.9050  0.1568
  528TMC3    C1 7835   3.131   0.784   1.891 -0.1451  0.5663 -0.1056
  528TMC3    C2 7836   3.262   0.740   1.906  0.9372 -0.1179  0.0762
  528TMC3    C3 7837   3.293   0.673   2.019  0.5191 -0.0022 -0.2153
  528TMC3    C4 7838   3.036   0.759   1.984 -0.0513  0.9775 -0.8488
  528TMC3    C5 7839   3.074   0.688   2.096 -0.3775 -0.2880 -0.5104
  528TMC3    C6 7840   3.201   0.643   2.117  0.3786 -0.3465  0.0904
  528TMC3     C 7841   3.097   0.877   1.785 -0.2888  0.3343  0.1994
  528TMC3     O 7842   2.992   0.940   1.797  0.3302 -0.2439  0.0302
  528TMC3     H 7843   3.339   0.779   1.840 -1.2641  0.3778 -2.2182
  528TMC3    H1 7844   2.932   0.789   1.973 -0.6954 -0.9171  0.1462
  528TMC3    H2 7845   3.230   0.598   2.212  0.7159  0.1913  0.2410
  528TMC3    C7 7846   2.969   0.617   2.157 -0.5820  0.3878 -0.0670
  528TMC3    C8 7847   3.435   0.638   2.031 -0.0446 -0.0337 -0.7305
  528TMC3    O1 7848   3.000   0.515   2.215  0.6060 -0.5297  0.5112
  528TMC3    O2 7849   3.513   0.698   1.953 -0.1226  0.3997  0.7294
  529MPD2     C 7850   2.004   4.157   0.995 -0.0815  0.1180  0.0134
  529MPD2    C1 7851   1.873   4.166   1.030 -0.5198  0.4049 -0.2138
  529MPD2    C2 7852   1.792   4.253   0.964 -0.2306 -0.1755  0.3087
  529MPD2    C3 7853   1.839   4.324   0.852  0.3999  0.0353 -0.0622
  529MPD2    C4 7854   1.970   4.306   0.816  1.3785 -0.4039 -0.6304
  529MPD2    C5 7855   2.055   4.226   0.885 -0.1253  0.6854 -0.2890
  529MPD2     H 7856   1.686   4.250   0.990 -0.0782 -0.3998  0.9075
  529MPD2    H1 7857   2.016   4.369   0.742  1.3511 -2.4989 -2.4566
  529MPD2    H2 7858   2.073   4.089   1.044 -0.8114  0.4716  1.5358
  529MPD2    H3 7859   2.160   4.231   0.861  0.4698  0.5744  2.2458
  529MPD2     N 7860   1.764   4.401   0.760  0.5220  0.4443  0.1744
  529MPD2    H5 7861   1.812   4.432   0.676  0.4691 -0.9134 -0.3448
  529MPD2    N1 7862   1.822   4.101   1.144  0.0534  0.4040 -0.3129
  529MPD2    H7 7863   1.725   4.124   1.163 -0.3013  1.0018 -2.8646
  530TMC3    C1 7864   1.771   3.906   1.270 -0.4459  0.1873 -0.4872
  530TMC3    C2 7865   1.815   3.823   1.368 -0.4139  0.1446  0.3433
  530TMC3    C3 7866   1.725   3.742   1.432  0.4652 -0.1666  0.9413
  530TMC3    C4 7867   1.641   3.915   1.230 -0.5786  0.1380 -0.3031
  530TMC3    C5 7868   1.559   3.823   1.286  0.3424 -0.3008 -0.6739
  530TMC3    C6 7869   1.592   3.743   1.395 -0.2240  0.5923 -0.3761
  530TMC3     C 7870   1.874   3.990   1.209  0.1178  0.1229 -0.0165
  530TMC3     O 7871   1.982   3.936   1.188  0.2742  0.4338 -0.0331
  530TMC3     H 7872   1.921   3.821   1.390 -0.9291  1.0884  2.9186
  530TMC3    H1 7873   1.608   3.982   1.152  2.0884 -0.4005 -1.8758
  530TMC3    H2 7874   1.526   3.676   1.449  0.7327  1.2576  1.6227
  530TMC3    C7 7875   1.426   3.822   1.231  0.5085 -0.0971 -0.4967
  530TMC3    C8 7876   1.773   3.663   1.530  0.5481 -0.1634 -0.5643
  530TMC3    O1 7877   1.399   3.900   1.140 -0.4475  0.2287  0.0116
  530TMC3    O2 7878   1.864   3.714   1.594 -0.1632  0.1006  0.0694
  531MPD2     C 7879   0.285   1.653  12.830 -0.1695 -1.4099  0.0218
  531MPD2    C1 7880   0.186   1.654  12.925 -0.1658  0.4900 -0.0595
  531MPD2    C2 7881   0.088   1.561  12.920  0.2499  0.0916 -0.3235
  531MPD2    C3 7882   0.080   1.477  12.810  0.0870 -0.4047  0.1700
  531MPD2    C4 7883   0.167   1.487  12.700  0.0336 -0.0211 -0.2828
  531MPD2    C5 7884   0.272   1.573  12.725  0.4447 -0.3421  0.2586
  531MPD2     H 7885   0.025   1.540  13.006  0.3373  0.0991 -0.2570
  531MPD2    H1 7886   0.166   1.419  12.616  1.1739  0.4710 -0.6982
  531MPD2    H2 7887   0.378   1.708  12.831 -0.5923 -0.6992 -0.1866
  531MPD2    H3 7888   0.350   1.576  12.650  0.0229  4.1745 -0.0268
  531MPD2     N 7889   4.701   1.374  12.822 -0.0470  0.3970 -0.2020
  531MPD2    H5 7890   4.646   1.372  12.908 -1.2113 -2.4411 -0.9935
  531MPD2    N1 7891   0.222   1.724  13.048  0.0192  0.6626 -0.5054
  531MPD2    H7 7892   0.320   1.748  13.061 -0.2184  0.2077  2.0373
  532TMC3    C1 7893   0.169   1.787  13.270 -0.0670  0.1966 -0.0032
  532TMC3    C2 7894   0.069   1.818  13.360 -0.2144  0.0274 -0.5367
  532TMC3    C3 7895   0.067   1.747  13.475 -0.1173  0.0887 -1.1206
  532TMC3    C4 7896   0.281   1.725  13.310 -0.8648  0.0040 -0.4914
  532TMC3    C5 7897   0.281   1.660  13.426  0.2239 -0.0674 -0.0875
  532TMC3    C6 7898   0.176   1.665  13.504  0.7744  0.4462 -0.7400
  532TMC3     C 7899   0.119   1.733  13.146 -0.7418 -0.6967 -0.4874
  532TMC3     O 7900   4.720   1.731  13.133  0.7258 -0.2225 -0.3049
  532TMC3     H 7901   4.703   1.868  13.317 -1.1115 -0.8698  0.2359
  532TMC3    H1 7902   0.370   1.729  13.248  0.3545  0.9999  1.3066
  532TMC3    H2 7903   0.177   1.602  13.592  1.1598  0.3367 -0.8270
  532TMC3    C7 7904   0.385   1.561  13.440 -0.0008 -0.0924 -0.0312
  532TMC3    C8 7905   4.661   1.677  13.504 -0.2081 -0.3538  0.0150
  532TMC3    O1 7906   0.448   1.532  13.337 -0.7319 -0.3185 -0.2734
  532TMC3    O2 7907   4.649   1.630  13.618 -0.0726  0.3022 -0.7168
  533TMC3    C1 7908   0.822   2.591  14.181  0.8451 -0.8286  0.0313
  533TMC3    C2 7909   0.958   2.603  14.187 -0.0988  0.2166 -0.6803
  533TMC3    C3 7910   1.008   2.726  14.213 -0.0794 -0.1988  0.0393
  533TMC3    C4 7911   0.740   2.701  14.191 -0.4122 -0.5315 -0.4325
  533TMC3    C5 7912   0.793   2.819  14.231 -0.2715  1.0130  0.1477
  533TMC3    C6 7913   0.930   2.833  14.230  0.0005  0.7412  1.3055
  533TMC3     C 7914   0.767   2.465  14.222 -0.2651  0.2351  0.6890
  533TMC3     O 7915   0.844   2.390  14.284  0.0561  0.1126  0.2043
  533TMC3     H 7916   1.027   2.520  14.179  1.3949  1.2676  1.3204
  533TMC3    H1 7917   0.633   2.689  14.186 -0.2846 -0.6906 -2.4763
  533TMC3    H2 7918   0.973   2.923  14.274  0.3237  0.7421  0.9879
  533TMC3    C7 7919   0.734   2.868  14.352  0.2830 -0.0781  0.7218
  533TMC3    C8 7920   1.148   2.734  14.189  1.2855  0.4364  0.0826
  533TMC3    O1 7921   0.639   2.808  14.402  0.1682 -0.2694  0.9498
  533TMC3    O2 7922   1.215   2.634  14.196  0.1168  0.2078 -0.0944
  534MPD2     C 7923   3.455   4.371   2.158  0.6563  0.2353 -0.0099
  534MPD2    C1 7924   3.407   4.433   2.043 -0.2099 -0.1436  0.4292
  534MPD2    C2 7925   3.300   4.373   1.982 -0.1272 -0.2977  0.3098
  534MPD2    C3 7926   3.255   4.248   2.022 -0.0223 -0.6835 -0.5077
  534MPD2    C4 7927   3.308   4.183   2.129 -0.1649 -0.3755  0.0130
  534MPD2    C5 7928   3.404   4.251   2.203 -0.2443 -0.9493 -0.0339
  534MPD2     H 7929   3.262   4.412   1.889  1.9921  0.5576 -0.1965
  534MPD2    H1 7930   3.260   4.096   2.172  0.8758 -0.7505  0.4264
  534MPD2    H2 7931   3.544   4.409   2.207  2.0118 -0.7920 -1.7000
  534MPD2    H3 7932   3.442   4.211   2.297 -0.6313 -0.6704  0.2407
  534MPD2     N 7933   3.158   4.177   1.948 -0.8974  0.2569 -0.6921
  534MPD2    H5 7934   3.160   4.077   1.962 -3.0662  0.3200  0.1432
  534MPD2    N1 7935   3.465   4.544   1.975  0.9999  0.9638  0.1876
  534MPD2    H7 7936   3.416   4.567   1.889  1.2485  1.3068  0.1362
  535TMC3    C1 7937   3.036   4.109   1.764 -0.4501 -0.4621 -0.1132
  535TMC3    C2 7938   3.022   3.984   1.831 -0.1364 -0.5367  1.0868
  535TMC3    C3 7939   3.047   3.873   1.755  0.6611  0.2151  0.3678
  535TMC3    C4 7940   3.071   4.113   1.627  0.4817  0.4810 -0.2400
  535TMC3    C5 7941   3.096   3.998   1.561  0.1448 -0.0563  0.3621
  535TMC3    C6 7942   3.084   3.878   1.621  0.0308  0.5350 -0.4562
  535TMC3     C 7943   3.087   4.222   1.839  0.1652  0.2074 -0.5482
  535TMC3     O 7944   3.071   4.332   1.787 -0.1487 -0.1426  0.1910
  535TMC3     H 7945   2.956   3.981   1.917 -0.0896  1.5462  1.1931
  535TMC3    H1 7946   3.070   4.208   1.576 -1.1718  0.3761 -0.3993
  535TMC3    H2 7947   3.097   3.789   1.560  1.0734 -1.2703  2.4199
  535TMC3    C7 7948   3.168   4.010   1.439 -0.0786  0.7567  0.1257
  535TMC3    C8 7949   2.965   3.757   1.785 -0.5148 -0.1131 -0.4089
  535TMC3    O1 7950   3.248   3.922   1.420  0.6876 -0.2692  0.3432
  535TMC3    O2 7951   2.855   3.773   1.832  0.1395 -0.8215 -0.8527
  536MPD2     C 7952   2.466   2.570  16.473  0.4240 -1.0379 -0.7355
  536MPD2    C1 7953   2.414   2.449  16.510  0.1689 -0.0113 -0.5696
  536MPD2    C2 7954   2.321   2.384  16.433 -0.0625  0.1549 -0.5853
  536MPD2    C3 7955   2.278   2.441  16.317  0.0397 -0.2405  0.1882
  536MPD2    C4 7956   2.330   2.561  16.278  0.5404  1.0354 -0.4019
  536MPD2    C5 7957   2.424   2.622  16.355 -0.5974  0.3643 -0.1310
  536MPD2     H 7958   2.273   2.294  16.470 -1.2034  1.1593  0.3533
  536MPD2    H1 7959   2.279   2.607  16.195  3.1369  0.9267 -2.0793
  536MPD2    H2 7960   2.542   2.621  16.532 -0.9601 -0.1050  0.2411
  536MPD2    H3 7961   2.461   2.719  16.323  0.6042  0.2179  0.7779
  536MPD2     N 7962   2.182   2.381  16.234  0.5785  0.0349 -0.3506
  536MPD2    H5 7963   2.147   2.443  16.161 -0.9212 -0.6897 -0.2441
  536MPD2    N1 7964   2.463   2.393  16.631 -0.1588  0.2030 -0.0844
  536MPD2    H7 7965   2.531   2.434  16.694  1.1213  0.7214 -1.7916
  537TMC3    C1 7966   2.503   2.227  16.798 -0.2810 -0.1508  0.0089
  537TMC3    C2 7967   2.497   2.313  16.904  0.2950 -0.2477 -0.1713
  537TMC3    C3 7968   2.509   2.267  17.033 -0.1640  0.4744 -0.4816
  537TMC3    C4 7969   2.539   2.097  16.824  1.1822  0.0424  0.3401
  537TMC3    C5 7970   2.547   2.054  16.949 -0.2536 -0.0691 -0.2626
  537TMC3    C6 7971   2.531   2.134  17.062  0.2537 -0.5520  0.0190
  537TMC3     C 7972   2.445   2.261  16.665  0.1026  0.0061 -0.5585
  537TMC3     O 7973   2.385   2.165  16.623 -0.0447 -0.2995  0.0599
  537TMC3     H 7974   2.468   2.417  16.892  3.1564  0.7485  1.5309
  537TMC3    H1 7975   2.562   2.032  16.741 -0.7003  0.2298 -0.3386
  537TMC3    H2 7976   2.570   2.102  17.158  2.5633  0.8273 -0.4525
  537TMC3    C7 7977   2.603   1.927  16.967 -0.2589 -0.4797 -0.0184
  537TMC3    C8 7978   2.519   2.350  17.143 -0.1001 -0.8032  0.5463
  537TMC3    O1 7979   2.716   1.911  16.920  0.1115 -0.3444  0.0321
  537TMC3    O2 7980   2.479   2.313  17.252  0.2216 -0.0136 -0.1518
  538TMC3    C1 7981   3.265   4.685  10.923 -0.3639 -0.1470  0.6968
  538TMC3    C2 7982   3.300   4.598  10.828 -0.7331  0.4569 -0.4981
  538TMC3    C3 7983   3.221   4.582  10.721 -0.3736  0.1174  0.3723
  538TMC3    C4 7984   3.140   0.022  10.923  0.4467  0.6142 -0.1815
  538TMC3    C5 7985   3.068   0.014  10.803 -0.1450 -0.0154 -0.2607
  538TMC3    C6 7986   3.109   4.658  10.704  0.0668  0.8192  0.6573
  538TMC3     C 7987   3.337   4.680  11.048  0.1320 -0.3506  0.3335
  538TMC3     O 7988   3.291   0.021  11.143 -0.1694  0.2353  0.2321
  538TMC3     H 7989   3.394   4.545  10.832 -0.2449  1.3733 -0.0737
  538TMC3    H1 7990   3.119   0.097  10.998 -2.1231 -1.9229  1.6472
  538TMC3    H2 7991   3.047   4.657  10.615  0.8105  0.2256  0.1448
  538TMC3    C7 7992   2.949   0.090  10.809  0.4283 -0.6283 -0.6620
  538TMC3    C8 7993   3.269   4.558  10.586  0.0680 -0.0639  0.4344
  538TMC3    O1 7994   2.892   0.106  10.921  0.0799 -0.2431  0.3111
  538TMC3    O2 7995   3.204   4.603  10.494  0.6971  0.1189 -0.4460
  539MPD2     C 7996   2.425   4.119  12.123 -0.7349  0.0980 -0.0016
  539MPD2    C1 7997   2.471   4.137  11.998  0.0870 -0.0813 -0.3617
  539MPD2    C2 7998   2.489   4.269  11.964 -0.2620 -0.1235  0.8753
  539MPD2    C3 7999   2.459   4.378  12.047  0.1220 -0.3369  0.7235
  539MPD2    C4 8000   2.413   4.352  12.177  0.0472 -0.2877  0.1740
  539MPD2    C5 8001   2.382   4.224  12.205 -0.3040 -0.0278 -0.0434
  539MPD2     H 8002   2.506   4.286  11.858  0.1506 -1.3652  0.7379
  539MPD2    H1 8003   2.366   4.428  12.237 -0.0980 -2.1154  2.3709
  539MPD2    H2 8004   2.394   4.024  12.164  3.2152 -0.1077  2.4900
  539MPD2    H3 8005   2.348   4.207  12.307 -0.0560 -0.1833  0.0130
  539MPD2     N 8006   2.443   4.508  11.999 -0.0553 -0.6720  1.0543
  539MPD2    H5 8007   2.386   4.570  12.055 -0.7972  0.7612 -1.2581
  539MPD2    N1 8008   2.495   4.038  11.909 -0.2001  0.7572 -0.3752
  539MPD2    H7 8009   2.523   4.070  11.817 -0.9648 -0.1122 -0.9061
  540TMC3    C1 8010   2.444   4.692  11.847 -0.3551 -0.8956 -0.2070
  540TMC3    C2 8011   2.467   0.007  11.717 -0.1992  0.7147  0.0953
  540TMC3    C3 8012   2.457   0.145  11.691  0.7105 -1.8567 -0.5645
  540TMC3    C4 8013   2.409   0.063  11.943 -0.2384 -0.6676  0.5322
  540TMC3    C5 8014   2.399   0.188  11.913 -0.1381  0.1778  0.2024
  540TMC3    C6 8015   2.429   0.238  11.786 -1.2976  0.4073  0.1677
  540TMC3     C 8016   2.496   4.563  11.882  0.2015  0.0854  0.5168
  540TMC3     O 8017   2.561   4.499  11.795  0.3852 -0.0390  0.3031
  540TMC3     H 8018   2.491   4.650  11.646 -2.0665  1.0324 -0.8842
  540TMC3    H1 8019   2.384   0.041  12.047 -0.0479  0.5161  0.8286
  540TMC3    H2 8020   2.403   0.342  11.767  1.4410  0.8737 -1.0706
  540TMC3    C7 8021   2.336   0.271  12.014 -0.5049  0.5267  0.0731
  540TMC3    C8 8022   2.483   0.199  11.560 -0.1087 -0.3522 -0.0795
  540TMC3    O1 8023   2.263   0.217  12.095 -0.5202 -0.0628 -0.2794
  540TMC3    O2 8024   2.557   0.296  11.555 -0.1264  0.8380 -0.6585
  541MPD2     C 8025   1.361   1.492  13.097  0.7191 -1.0966 -0.3938
  541MPD2    C1 8026   1.324   1.405  12.995  0.6866 -0.2150  0.3551
  541MPD2    C2 8027   1.342   1.470  12.874 -0.2167 -0.0421  0.5947
  541MPD2    C3 8028   1.383   1.604  12.854  0.6660  0.0145 -0.6721
  541MPD2    C4 8029   1.413   1.685  12.965  0.5261  0.6754 -0.3334
  541MPD2    C5 8030   1.397   1.626  13.087  0.2947  0.6223  0.1146
  541MPD2     H 8031   1.324   1.404  12.790  0.6101 -0.0448  0.4216
  541MPD2    H1 8032   1.449   1.788  12.961 -1.8744  1.5493  0.1133
  541MPD2    H2 8033   1.341   1.448  13.194  2.2034  0.2000  0.4845
  541MPD2    H3 8034   1.430   1.675  13.179  0.7067  0.0130  0.2917
  541MPD2     N 8035   1.390   1.661  12.732 -0.6706  0.0493  0.5014
  541MPD2    H5 8036   1.406   1.762  12.733 -1.1821  0.1188  2.1633
  541MPD2    N1 8037   1.280   1.271  13.020 -0.3017  0.6273 -0.1519
  541MPD2    H7 8038   1.306   1.237  13.111 -2.3658  0.3559  0.3376
  542TMC3    C1 8039   1.360   1.660  12.491 -0.2459  0.8586  0.7715
  542TMC3    C2 8040   1.370   1.586  12.376  0.5611  0.5973  0.7331
  542TMC3    C3 8041   1.314   1.645  12.267 -0.0609 -0.2028 -1.0409
  542TMC3    C4 8042   1.295   1.785  12.499 -0.3508 -1.0394  0.5149
  542TMC3    C5 8043   1.234   1.829  12.392  0.3932  0.4359 -0.1591
  542TMC3    C6 8044   1.261   1.771  12.268 -0.7792  0.6498  0.5959
  542TMC3     C 8045   1.381   1.588  12.616 -0.6728  0.2573 -0.0747
  542TMC3     O 8046   1.406   1.469  12.597  0.4389 -0.1559  0.3864
  542TMC3     H 8047   1.436   1.501  12.364 -1.6203 -0.7454 -1.6987
  542TMC3    H1 8048   1.278   1.836  12.593 -4.1559 -0.6913 -0.3901
  542TMC3    H2 8049   1.228   1.810  12.172  2.5335  1.4920 -0.2143
  542TMC3    C7 8050   1.180   1.964  12.392 -0.4614  0.5701  0.4098
  542TMC3    C8 8051   1.322   1.583  12.134  0.2321 -0.2903 -0.4825
  542TMC3    O1 8052   1.223   2.041  12.475 -0.0529 -0.0794 -0.1564
  542TMC3    O2 8053   1.254   1.638  12.048 -0.3800 -0.1113  0.8092
  543TMC3    C1 8054   0.892   3.632  16.904  0.7055 -0.1194  0.5376
  543TMC3    C2 8055   0.752   3.618  16.896 -0.6496 -0.4173 -0.0584
  543TMC3    C3 8056   0.682   3.643  17.010 -0.4133 -0.6463 -0.0130
  543TMC3    C4 8057   0.960   3.683  17.012  0.3419 -1.0381 -0.1840
  543TMC3    C5 8058   0.880   3.697  17.123 -0.6936 -0.1861  0.6899
  543TMC3    C6 8059   0.749   3.676  17.124  0.3376 -0.5728 -1.0254
  543TMC3     C 8060   0.974   3.572  16.801 -0.7773 -0.3262 -0.0374
  543TMC3     O 8061   1.081   3.529  16.835  0.8612 -0.7651  0.2504
  543TMC3     H 8062   0.713   3.567  16.809  2.3858  1.5298 -2.5282
  543TMC3    H1 8063   1.068   3.691  17.013  0.3700 -1.5380  0.9915
  543TMC3    H2 8064   0.699   3.679  17.220 -0.6338 -0.4168 -1.5350
  543TMC3    C7 8065   0.945   3.742  17.245  0.5760 -0.6708 -0.5514
  543TMC3    C8 8066   0.556   3.574  17.028 -0.1406  0.5141  0.2592
  543TMC3    O1 8067   0.894   3.726  17.353 -1.2685 -0.1988 -0.0425
  543TMC3    O2 8068   0.462   3.635  17.077 -0.2108  0.9171 -0.2234
  544MPD2     C 8069   0.315   3.127  17.044  0.3379 -0.0574 -0.7221
  544MPD2    C1 8070   0.447   3.110  17.006  0.4349  0.4398  0.4409
  544MPD2    C2 8071   0.534   3.216  16.989 -0.0914 -0.5873 -0.3141
  544MPD2    C3 8072   0.479   3.340  17.008  0.0112  0.0972  0.5365
  544MPD2    C4 8073   0.347   3.361  17.038  0.5148 -0.0527  0.1973
  544MPD2    C5 8074   0.265   3.255  17.049  0.6241 -0.6438 -0.4203
  544MPD2     H 8075   0.637   3.207  16.957  0.9783 -0.4291  3.0517
  544MPD2    H1 8076   0.306   3.460  17.051  0.9902  0.3562 -1.3964
  544MPD2    H2 8077   0.250   3.043  17.063  1.5539 -0.6497  0.7783
  544MPD2    H3 8078   0.168   3.272  17.096  0.0587 -2.9451 -0.7387
  544MPD2     N 8079   0.574   3.447  16.991 -0.2223  0.0886  0.2242
  544MPD2    H5 8080   0.669   3.421  16.967 -0.0639  1.6931 -0.8335
  544MPD2    N1 8081   0.482   2.974  16.995 -0.4177 -0.2190 -0.2586
  544MPD2    H7 8082   0.411   2.905  17.016  1.0276 -1.0723  1.8869
  545TMC3    C1 8083   0.640   2.794  16.979  0.5841 -0.5096 -0.9455
  545TMC3    C2 8084   0.758   2.745  16.939  0.7326  0.1290  0.2525
  545TMC3    C3 8085   0.787   2.612  16.946 -0.2961  0.4651 -0.1633
  545TMC3    C4 8086   0.558   2.706  17.051 -0.4399 -0.2191  0.2450
  545TMC3    C5 8087   0.593   2.578  17.075  1.1339  0.7543 -0.2923
  545TMC3    C6 8088   0.708   2.527  17.016 -0.2617  0.1392 -0.1803
  545TMC3     C 8089   0.606   2.933  16.948  0.6115 -0.2121  0.1610
  545TMC3     O 8090   0.693   2.999  16.896  0.1989 -0.1505 -0.1283
  545TMC3     H 8091   0.817   2.804  16.870  0.0953 -0.0247 -0.4154
  545TMC3    H1 8092   0.468   2.754  17.087 -0.8798 -0.8819  0.0097
  545TMC3    H2 8093   0.733   2.422  17.025 -0.8757  0.0633  0.6541
  545TMC3    C7 8094   0.511   2.506  17.172 -0.9590  0.5496  0.9241
  545TMC3    C8 8095   0.925   2.578  16.925 -0.0045 -0.1060  0.1536
  545TMC3    O1 8096   0.415   2.572  17.211 -1.8398  0.0400 -0.8562
  545TMC3    O2 8097   1.007   2.665  16.919  0.4841  0.0636 -0.2085
  546MPD2     C 8098   2.045   3.107   0.312  0.5183 -0.2564 -0.3741
  546MPD2    C1 8099   2.046   3.163   0.187 -0.4422  0.0788  0.1787
  546MPD2    C2 8100   2.095   3.294   0.172  0.9328  0.1922 -0.5743
  546MPD2    C3 8101   2.155   3.361   0.280 -0.3673 -0.5371 -0.0804
  546MPD2    C4 8102   2.141   3.305   0.407  0.3481 -0.1422  0.0012
  546MPD2    C5 8103   2.092   3.179   0.417 -0.4094  0.0833 -0.1824
  546MPD2     H 8104   2.086   3.343   0.076 -0.5779 -2.2907 -1.7008
  546MPD2    H1 8105   2.149   3.341   0.509  0.2609  1.4797 -0.5666
  546MPD2    H2 8106   2.004   3.010   0.335 -0.6881  0.6393  1.2878
  546MPD2    H3 8107   2.093   3.133   0.516 -0.8622  0.1442 -0.1487
  546MPD2     N 8108   2.214   3.488   0.278  0.2424  0.0820  0.0379
  546MPD2    H5 8109   2.250   3.529   0.364  0.9250 -3.1693  1.2929
  546MPD2    N1 8110   1.986   3.092   0.070  0.5433 -0.0935  0.0748
  546MPD2    H7 8111   1.945   3.003   0.094  0.4066 -0.2825 -0.9031
  547TMC3    C1 8112   1.938   3.052  17.531  0.8655 -0.1738 -0.2634
  547TMC3    C2 8113   1.970   3.075  17.405  0.2371 -0.0834 -0.9027
  547TMC3    C3 8114   1.904   3.015  17.303 -0.2083  0.2293  0.0025
  547TMC3    C4 8115   1.841   2.961  17.558 -0.7756  0.1850  0.4102
  547TMC3    C5 8116   1.783   2.887  17.456 -0.0843  0.2131  0.2936
  547TMC3    C6 8117   1.819   2.913  17.324 -0.7767 -0.2219  0.3379
  547TMC3     C 8118   1.993   3.139  17.628  0.4674 -0.4897 -0.1585
  547TMC3     O 8119   2.037   3.242  17.586 -0.3927  0.6262 -0.2691
  547TMC3     H 8120   2.044   3.149  17.379  0.6167 -0.8740 -2.0482
  547TMC3    H1 8121   1.806   2.932  17.656  0.1170  1.1592  1.0189
  547TMC3    H2 8122   1.765   2.868  17.241 -0.9833 -0.1056  0.4079
  547TMC3    C7 8123   1.658   2.827  17.487 -0.4741  0.6777  0.0114
  547TMC3    C8 8124   1.951   3.030  17.164 -0.0296 -0.3525 -0.3775
  547TMC3    O1 8125   1.619   2.821  17.602  0.2108  0.4633 -0.0266
  547TMC3    O2 8126   2.064   3.074  17.155 -0.2226  0.0977 -0.2185
  548MPD2     C 8127   1.822   3.419  11.919  0.4307 -0.2344  0.9806
  548MPD2    C1 8128   1.765   3.325  12.003 -0.5687  0.7675 -0.4996
  548MPD2    C2 8129   1.851   3.215  12.036  0.0958 -0.1098  0.0351
  548MPD2    C3 8130   1.976   3.199  11.983 -0.1032 -0.5804  0.1513
  548MPD2    C4 8131   2.026   3.293  11.897  0.3968 -0.1351 -0.2623
  548MPD2    C5 8132   1.945   3.399  11.861 -0.1906  0.1219 -0.1515
  548MPD2     H 8133   1.818   3.140  12.108  0.8813  0.1725  0.6930
  548MPD2    H1 8134   2.115   3.284  11.837 -0.5816  0.5824 -1.8114
  548MPD2    H2 8135   1.762   3.506  11.892 -1.8053 -1.4798  1.9381
  548MPD2    H3 8136   1.984   3.466  11.785  0.1799  0.3738  0.2603
  548MPD2     N 8137   2.052   3.079  12.006  0.0586  0.7047 -0.0144
  548MPD2    H5 8138   2.008   2.999  12.050  0.5064  0.5414  0.1344
  548MPD2    N1 8139   1.637   3.356  12.059 -0.2840 -0.3527  0.0940
  548MPD2    H7 8140   1.597   3.443  12.026  0.6255 -0.2287 -0.6675
  549TMC3    C1 8141   1.423   3.298  12.148  0.3017  0.3590  0.0879
  549TMC3    C2 8142   1.385   3.430  12.131  0.4546 -0.1266 -0.1166
  549TMC3    C3 8143   1.257   3.451  12.081  0.0459 -0.8549  0.0638
  549TMC3    C4 8144   1.343   3.188  12.132  0.6916  0.6045 -0.0894
  549TMC3    C5 8145   1.216   3.220  12.084  0.0575 -0.0860 -0.0868
  549TMC3    C6 8146   1.177   3.345  12.051  0.7009  0.0206 -0.9616
  549TMC3     C 8147   1.564   3.277  12.143  0.1497  0.1330 -0.0126
  549TMC3     O 8148   1.593   3.166  12.180 -0.5476  0.7125  0.3092
  549TMC3     H 8149   1.455   3.506  12.163  1.0717 -0.4347 -0.7479
  549TMC3    H1 8150   1.379   3.088  12.153  1.0905  0.8223  0.2602
  549TMC3    H2 8151   1.094   3.357  11.982 -1.6688 -2.1001  1.5012
  549TMC3    C7 8152   1.120   3.109  12.056  0.4983 -0.0446  0.0709
  549TMC3    C8 8153   1.189   3.576  12.080 -0.4899  0.2813 -0.4347
  549TMC3    O1 8154   0.999   3.139  12.045  0.0816  0.1147  0.4315
  549TMC3    O2 8155   1.089   3.578  12.014 -0.2346 -0.0499 -0.5566
  550TMC3    C1 8156   0.214   1.865  12.492 -0.1770  0.9640 -1.0876
  550TMC3    C2 8157   0.132   1.889  12.601 -0.4473 -0.1029  0.3522
  550TMC3    C3 8158   0.002   1.844  12.592 -0.0271  0.4062 -0.2711
  550TMC3    C4 8159   0.175   1.822  12.372 -0.0883 -0.4148  0.2556
  550TMC3    C5 8160   0.040   1.800  12.365 -0.0567 -0.1789  0.5511
  550TMC3    C6 8161   4.674   1.799  12.473 -0.1336  0.1478  0.0630
  550TMC3     C 8162   0.356   1.867  12.521  0.0762  0.7614 -0.5885
  550TMC3     O 8163   0.399   1.973  12.566 -0.2779 -0.4957 -0.2117
  550TMC3     H 8164   0.189   1.912  12.690  1.9930  0.2992 -1.3046
  550TMC3    H1 8165   0.252   1.800  12.299 -0.3706 -2.6106  0.6267
  550TMC3    H2 8166   4.566   1.787  12.465 -0.3218  1.5449  0.5012
  550TMC3    C7 8167   4.703   1.742  12.247 -0.2930 -0.2523 -1.0706
  550TMC3    C8 8168   4.662   1.822  12.720 -1.0574  0.0164 -0.5085
  550TMC3    O1 8169   4.614   1.659  12.266 -0.0535 -0.6971  0.1217
  550TMC3    O2 8170   4.702   1.893  12.811 -0.1108  0.1723 -0.1233
  551TMC3    C1 8171   2.580   3.583  13.217 -0.3621  0.2846  0.1724
  551TMC3    C2 8172   2.629   3.635  13.102 -0.2282 -0.2768  0.3024
  551TMC3    C3 8173   2.663   3.770  13.097  0.5196 -1.0379  0.6438
  551TMC3    C4 8174   2.560   3.661  13.325  0.6459  0.5924 -0.3940
  551TMC3    C5 8175   2.586   3.798  13.320  0.0665  0.6336 -1.2242
  551TMC3    C6 8176   2.655   3.855  13.209  0.1041  0.2173 -0.0953
  551TMC3     C 8177   2.542   3.449  13.209  0.0723 -1.0431  0.8094
  551TMC3     O 8178   2.583   3.381  13.112 -0.0401 -0.3551  0.4551
  551TMC3     H 8179   2.658   3.573  13.018  0.7760 -1.2262  1.3519
  551TMC3    H1 8180   2.522   3.622  13.419 -0.9325 -1.5246 -1.9131
  551TMC3    H2 8181   2.690   3.956  13.195  0.6709 -0.1622 -1.4435
  551TMC3    C7 8182   2.615   3.861  13.452  0.3650 -0.2837 -0.2612
  551TMC3    C8 8183   2.776   3.803  13.007 -0.6130  0.1868  0.3192
  551TMC3    O1 8184   2.625   3.800  13.554 -0.1032  0.2198 -0.2497
  551TMC3    O2 8185   2.868   3.722  13.022  0.2018  0.5366 -0.3626
  552MPD2     C 8186   4.643   1.241  13.738  0.0327  0.2510 -0.0869
  552MPD2    C1 8187   4.601   1.132  13.816 -0.0699 -0.2473  0.0398
  552MPD2    C2 8188   4.688   1.083  13.913  0.4411 -0.8397  0.1304
  552MPD2    C3 8189   0.095   1.143  13.921 -0.1762  0.0881  0.1787
  552MPD2    C4 8190   0.122   1.257  13.847  0.7443  0.6075 -0.1579
  552MPD2    C5 8191   0.037   1.303  13.755 -0.2953 -0.3737  0.2374
  552MPD2     H 8192   4.664   0.998  13.976 -2.0639 -0.0804  0.2273
  552MPD2    H1 8193   0.219   1.304  13.856  1.0283 -0.0247  0.1301
  552MPD2    H2 8194   4.581   1.280  13.658  0.4368 -0.2090 -0.6317
  552MPD2    H3 8195   0.063   1.385  13.690 -0.0990 -0.3161  0.3875
  552MPD2     N 8196   0.188   1.108  14.026  0.5714 -1.0391 -0.9005
  552MPD2    H5 8197   0.263   1.174  14.048 -0.8414  0.2292  0.0789
  552MPD2    N1 8198   4.473   1.063  13.783 -0.0241 -0.0755  0.2668
  552MPD2    H7 8199   4.442   0.990  13.847  0.9744  0.4205  1.3162
  553TMC3    C1 8200   4.349   0.938  13.630  0.1951 -0.6614  0.5311
  553TMC3    C2 8201   4.336   0.951  13.497  0.4896  0.3544  0.4332
  553TMC3    C3 8202   4.403   0.854  13.422  0.0059  0.0682 -0.1054
  553TMC3    C4 8203   4.411   0.831  13.698 -0.4951  0.6794  0.2521
  553TMC3    C5 8204   4.477   0.743  13.612  0.3523  0.4894 -0.4157
  553TMC3    C6 8205   4.474   0.754  13.476  0.4015 -0.7876 -0.1307
  553TMC3     C 8206   4.403   1.069  13.668  0.3569  0.9402  0.3783
  553TMC3     O 8207   4.419   1.139  13.571  0.5288 -0.3063 -0.1952
  553TMC3     H 8208   4.288   1.035  13.447  0.1660  1.8403  3.2713
  553TMC3    H1 8209   4.422   0.824  13.805  0.3437  2.0551  0.2483
  553TMC3    H2 8210   4.540   0.698  13.410  1.7751 -1.0948  1.4979
  553TMC3    C7 8211   4.619   0.749  13.659 -0.0722 -0.4684 -0.0891
  553TMC3    C8 8212   4.484   0.906  13.312 -0.1939  0.3015  0.0580
  553TMC3    O1 8213   4.667   0.697  13.755  0.1434 -0.3034 -0.1308
  553TMC3    O2 8214   4.539   0.833  13.237 -0.0053 -0.4676 -0.6174
  554TMC3    C1 8215   1.729   4.523  11.973  0.0969 -0.4311  0.2474
  554TMC3    C2 8216   1.663   4.497  11.856 -0.1088  0.5103 -0.4296
  554TMC3    C3 8217   1.649   4.601  11.772 -0.0310 -1.3589  0.1935
  554TMC3    C4 8218   1.796   4.644  11.999  0.0423  0.5015 -0.0032
  554TMC3    C5 8219   1.791   0.023  11.906 -1.0949  0.2833 -0.3782
  554TMC3    C6 8220   1.715   0.005  11.795  0.4466 -0.3222  0.3144
  554TMC3     C 8221   1.753   4.403  12.055  0.0678  0.2779 -0.0021
  554TMC3     O 8222   1.704   4.297  12.018  0.0057  0.0411 -0.1714
  554TMC3     H 8223   1.633   4.397  11.825 -0.7056  0.5703 -0.0561
  554TMC3    H1 8224   1.853   4.671  12.087 -1.3447 -0.7450  1.2792
  554TMC3    H2 8225   1.694   0.089  11.730  0.7789 -2.2110 -2.2125
  554TMC3    C7 8226   1.886   0.130  11.904  0.5341 -0.1141  0.3066
  554TMC3    C8 8227   1.549   4.590  11.659 -0.4389 -0.6418 -0.7000
  554TMC3    O1 8228   1.913   0.182  12.013 -0.1118  0.8164 -0.9654
  554TMC3    O2 8229   1.573   4.679  11.576  0.4972  0.2337  0.8318
  555TMC3    C1 8230   1.126   4.625  15.024  0.2504 -0.2527  0.2601
  555TMC3    C2 8231   1.146   4.715  15.128  0.0629 -0.3113  1.2976
  555TMC3    C3 8232   1.208   4.685  15.245  0.9690  0.4860  0.0623
  555TMC3    C4 8233   1.150   4.495  15.054  0.3309 -0.2859  0.3330
  555TMC3    C5 8234   1.215   4.463  15.165  0.0417 -0.5743 -0.0497
  555TMC3    C6 8235   1.248   4.554  15.260 -0.2638  0.0622 -0.0974
  555TMC3     C 8236   1.020   4.659  14.927 -0.1987 -0.1686 -0.5967
  555TMC3     O 8237   0.933   4.578  14.897  0.2333  0.2361  0.5792
  555TMC3     H 8238   1.124   0.100  15.113 -0.6040 -0.5246  0.7678
  555TMC3    H1 8239   1.112   4.416  14.989  0.9012 -1.0776  0.9615
  555TMC3    H2 8240   1.294   4.513  15.350 -0.0013  0.6350  0.0306
  555TMC3    C7 8241   1.211   4.330  15.212 -0.2022  0.0699  0.2686
  555TMC3    C8 8242   1.149   0.036  15.360 -0.1747 -0.2158  0.9386
  555TMC3    O1 8243   1.101   4.282  15.202 -0.0027 -0.3682  0.6860
  555TMC3    O2 8244   1.050   0.104  15.341  0.4647 -0.1877 -0.2445
  556MPD2     C 8245   3.093   0.603  10.159  0.5083 -0.1624  0.1924
  556MPD2    C1 8246   3.202   0.575  10.242 -0.1239 -0.2386  0.0876
  556MPD2    C2 8247   3.298   0.485  10.188  0.8480  0.5135 -0.6302
  556MPD2    C3 8248   3.284   0.429  10.062 -0.2726 -0.0288  0.5343
  556MPD2    C4 8249   3.168   0.453   9.984  0.1165 -1.3878  0.0314
  556MPD2    C5 8250   3.078   0.541  10.039  0.6208  0.6419  0.5421
  556MPD2     H 8251   3.395   0.469  10.233 -0.2119  1.3140  1.9344
  556MPD2    H1 8252   3.150   0.424   9.881  2.1556  0.1385 -0.7352
  556MPD2    H2 8253   3.007   0.656  10.199 -0.4022 -1.0230 -0.6213
  556MPD2    H3 8254   2.989   0.563   9.981 -0.3825 -1.1493  1.3835
  556MPD2     N 8255   3.389   0.356  10.006  0.5213 -0.4245 -0.4246
  556MPD2    H5 8256   3.472   0.332  10.058 -0.3889  0.2479  1.3141
  556MPD2    N1 8257   3.209   0.619  10.382  0.2656  0.2502 -0.0765
  556MPD2    H7 8258   3.128   0.670  10.416  1.6428  0.7795  2.4149
  557TMC3    C1 8259   3.481   0.193   9.865 -0.1066 -0.1873 -0.0008
  557TMC3    C2 8260   3.487   0.135   9.745  0.9100 -0.2071 -0.2597
  557TMC3    C3 8261   3.516   0.004   9.741  0.1802  0.1639  0.0243
  557TMC3    C4 8262   3.496   0.123   9.979  0.3199  0.3082 -0.0731
  557TMC3    C5 8263   3.500   4.710   9.976  0.9361  0.3049  0.2132
  557TMC3    C6 8264   3.517   4.650   9.858  0.4731 -0.2788 -0.5827
  557TMC3     C 8265   3.398   0.312   9.873 -0.2187  0.2483  0.5126
  557TMC3     O 8266   3.342   0.361   9.775  0.0674 -0.8664  1.0458
  557TMC3     H 8267   3.498   0.202   9.661  2.6179  0.6630  0.6455
  557TMC3    H1 8268   3.505   0.167  10.078  3.9257 -1.4310  0.3555
  557TMC3    H2 8269   3.520   4.542   9.844  2.1988 -0.1825 -1.0275
  557TMC3    C7 8270   3.439   4.644  10.087 -0.6161 -0.6848  0.2914
  557TMC3    C8 8271   3.571   4.685   9.611 -0.0006 -0.1227 -0.0085
  557TMC3    O1 8272   3.348   4.705  10.142 -0.5022 -0.0884 -0.4037
  557TMC3    O2 8273   3.594   0.044   9.527  0.5098  0.7999 -0.4281
  558TMC3    C1 8274   1.556   3.398   9.628  0.2148 -0.7950  0.1728
  558TMC3    C2 8275   1.484   3.338   9.723  0.7996 -0.3308 -0.2473
  558TMC3    C3 8276   1.354   3.309   9.699 -0.2400 -0.2336  0.1328
  558TMC3    C4 8277   1.499   3.427   9.503  0.2878 -0.1531 -0.0816
  558TMC3    C5 8278   1.363   3.392   9.481 -0.0649  0.2572 -0.2621
  558TMC3    C6 8279   1.291   3.336   9.579 -0.5496 -0.1133  0.1374
  558TMC3     C 8280   1.663   3.485   9.679  0.0984  0.6418  0.0720
  558TMC3     O 8281   1.638   3.528   9.793 -0.2420  0.1065  0.3187
  558TMC3     H 8282   1.534   3.302   9.812 -0.6498 -0.4619  0.5320
  558TMC3    H1 8283   1.563   3.480   9.433  1.3603 -0.8446  0.3716
  558TMC3    H2 8284   1.183   3.334   9.565 -0.5666 -2.0481  0.4360
  558TMC3    C7 8285   1.293   3.467   9.375 -0.4338 -0.0878 -0.3510
  558TMC3    C8 8286   1.272   3.307   9.815 -0.1775 -0.6293 -0.6323
  558TMC3    O1 8287   1.361   3.547   9.317 -0.0272 -0.6283  0.2020
  558TMC3    O2 8288   1.154   3.313   9.789 -0.2570 -0.2487 -0.2881
  559MPD2     C 8289   1.309   4.387  10.688 -0.5726 -0.9436  0.3239
  559MPD2    C1 8290   1.283   4.262  10.738 -0.6374  0.3182  0.4629
  559MPD2    C2 8291   1.376   4.193  10.813 -0.4734  0.2666  0.1664
  559MPD2    C3 8292   1.495   4.250  10.849 -0.1109  0.6191 -0.0621
  559MPD2    C4 8293   1.528   4.376  10.796 -0.0931 -1.0073  0.0065
  559MPD2    C5 8294   1.438   4.441  10.712 -0.6190 -0.4427 -0.5248
  559MPD2     H 8295   1.349   4.100  10.863 -1.3844 -0.1443 -1.0994
  559MPD2    H1 8296   1.616   4.428  10.833  0.6544 -2.6906  0.5920
  559MPD2    H2 8297   1.250   4.435  10.611 -2.1305 -0.2043  1.9602
  559MPD2    H3 8298   1.481   4.525  10.658 -0.3982 -0.0538  0.2449
  559MPD2     N 8299   1.583   4.177  10.937  0.1173 -0.9131  0.7123
  559MPD2    H5 8300   1.559   4.086  10.973 -2.9671  0.4859  2.1746
  559MPD2    N1 8301   1.156   4.217  10.718  0.0224  0.2250 -0.5958
  559MPD2    H7 8302   1.086   4.283  10.685 -1.2854  0.7714  3.2061
  560TMC3    C1 8303   1.769   4.119  11.071 -0.2864  0.2192 -0.5392
  560TMC3    C2 8304   1.733   3.988  11.067 -0.3372  0.4534 -0.3241
  560TMC3    C3 8305   1.791   3.897  11.144  0.5557  0.4157 -0.1834
  560TMC3    C4 8306   1.870   4.162  11.158 -0.3851  0.8920 -0.4899
  560TMC3    C5 8307   1.915   4.064  11.247  0.0114  0.6958 -0.1554
  560TMC3    C6 8308   1.886   3.932  11.235 -0.5276 -0.0628 -0.0691
  560TMC3     C 8309   1.694   4.224  11.004 -0.4068  0.3670 -0.8231
  560TMC3     O 8310   1.747   4.334  11.010  0.6146  0.2166 -0.2758
  560TMC3     H 8311   1.675   3.961  10.980  1.7685 -0.8687 -1.3201
  560TMC3    H1 8312   1.884   4.269  11.175  0.4742  0.1428  3.5661
  560TMC3    H2 8313   1.934   3.862  11.302  0.4409  0.0432 -0.6501
  560TMC3    C7 8314   2.004   4.100  11.349 -0.2947  0.6245  0.7100
  560TMC3    C8 8315   1.797   3.762  11.082 -0.1066 -0.2334  0.3871
  560TMC3    O1 8316   1.993   4.039  11.454 -0.1689 -0.5768  0.2115
  560TMC3    O2 8317   1.730   3.745  10.986  0.5079 -0.0791  0.0122
  561TMC3    C1 8318   4.191   2.830  11.491  0.4048  0.1390  0.2042
  561TMC3    C2 8319   4.134   2.760  11.597 -0.5504 -0.1271  0.1444
  561TMC3    C3 8320   4.066   2.831  11.691  0.2784 -0.3265 -0.3093
  561TMC3    C4 8321   4.169   2.966  11.468 -0.8091  0.2082 -0.7648
  561TMC3    C5 8322   4.094   3.035  11.565 -0.4409 -0.2545 -0.5732
  561TMC3    C6 8323   4.044   2.966  11.670 -0.4007  0.0728 -0.2727
  561TMC3     C 8324   4.230   2.760  11.375 -0.4810  0.1513 -0.6080
  561TMC3     O 8325   4.238   2.639  11.386 -0.0742 -0.3118 -0.4889
  561TMC3     H 8326   4.131   2.652  11.595 -1.7137 -0.0717 -0.6915
  561TMC3    H1 8327   4.224   3.014  11.388  0.5718 -1.4614 -0.8208
  561TMC3    H2 8328   4.018   3.021  11.760  2.2044  0.2210  0.3862
  561TMC3    C7 8329   4.081   3.178  11.557 -0.0880  0.7415 -0.4208
  561TMC3    C8 8330   4.006   2.766  11.805  0.3253  0.2949 -0.1700
  561TMC3    O1 8331   4.012   3.225  11.643  0.3183  0.2881 -0.1324
  561TMC3    O2 8332   4.052   2.655  11.830 -0.5817 -0.0779  0.0278
  562TMC3    C1 8333   0.592   0.011  16.105 -0.5290 -0.2668 -0.0120
  562TMC3    C2 8334   0.473   0.065  16.095  0.1981  0.5640 -0.6273
  562TMC3    C3 8335   0.426   0.091  15.972  0.5912 -0.1308 -0.0448
  562TMC3    C4 8336   0.664   4.705  15.997 -0.0693 -0.1224  0.4676
  562TMC3    C5 8337   0.618   0.010  15.867 -0.0091  0.3830 -0.3330
  562TMC3    C6 8338   0.491   0.054  15.853  0.8309 -0.2707 -0.1964
  562TMC3     C 8339   0.657   0.007  16.232  1.4159  0.3694  0.1890
  562TMC3     O 8340   0.777   0.027  16.239 -0.3402 -1.0518 -0.1088
  562TMC3     H 8341   0.424   0.111  16.180 -0.2092 -0.5794 -0.2477
  562TMC3    H1 8342   0.769   4.684  16.011 -0.0111 -0.6750 -0.7870
  562TMC3    H2 8343   0.457   0.078  15.753  2.2214 -0.0485 -0.6220
  562TMC3    C7 8344   0.684   4.673  15.746 -0.4728  0.6519 -0.3190
  562TMC3    C8 8345   0.287   0.130  15.964  0.7275  0.2818 -0.3900
  562TMC3    O1 8346   0.624   4.687  15.646 -0.3655 -0.1383  0.2407
  562TMC3    O2 8347   0.231   0.169  16.065 -0.8792 -0.0339  0.1234
  563MPD2     C 8348   2.986   1.040  15.379 -0.1390  0.7568  0.2345
  563MPD2    C1 8349   3.037   1.153  15.436 -0.9632 -0.0519  0.2275
  563MPD2    C2 8350   3.128   1.146  15.532  0.3897 -0.7408 -0.0863
  563MPD2    C3 8351   3.184   1.024  15.557  0.6027 -0.1266 -0.3011
  563MPD2    C4 8352   3.147   0.917  15.485 -0.2858  0.3998  0.1616
  563MPD2    C5 8353   3.039   0.918  15.410  0.0302  0.1680 -0.1353
  563MPD2     H 8354   3.173   1.233  15.579  4.1802 -2.5619 -0.3611
  563MPD2    H1 8355   3.184   0.821  15.518  0.8262 -0.0469 -2.4372
  563MPD2    H2 8356   2.916   1.043  15.297 -0.5987  2.3223  0.6784
  563MPD2    H3 8357   3.000   0.828  15.364  1.3012 -1.4178  1.9074
  563MPD2     N 8358   3.285   1.025  15.660  0.8068  0.1504 -0.6258
  563MPD2    H5 8359   3.314   1.117  15.693  1.8678 -0.7778  1.0258
  563MPD2    N1 8360   3.001   1.283  15.398 -0.2477  0.3195  0.1223
  563MPD2    H7 8361   3.028   1.360  15.459 -0.5468 -2.4699  3.7357
  564TMC3    C1 8362   2.873   1.455  15.328  0.4320 -0.4908  0.0202
  564TMC3    C2 8363   2.741   1.443  15.351 -0.3719 -0.1058  0.2731
  564TMC3    C3 8364   2.696   1.495  15.466 -0.1895 -0.9624 -0.6601
  564TMC3    C4 8365   2.958   1.536  15.399  0.5617  0.1487 -0.7928
  564TMC3    C5 8366   2.909   1.589  15.514  0.2823 -0.2318 -0.3660
  564TMC3    C6 8367   2.782   1.573  15.547  0.0335  0.3989  0.2265
  564TMC3     C 8368   2.930   1.327  15.292 -0.4361 -0.1436 -0.1224
  564TMC3     O 8369   2.885   1.262  15.201 -0.0115 -0.0062  0.1445
  564TMC3     H 8370   2.687   1.357  15.312 -0.0922 -0.6885  1.1760
  564TMC3    H1 8371   3.063   1.543  15.371  0.7420  1.7028  0.2700
  564TMC3    H2 8372   2.756   1.612  15.644  2.7998 -0.1585  1.1774
  564TMC3    C7 8373   2.994   1.563  15.621  0.5347  0.1771  0.1200
  564TMC3    C8 8374   2.621   1.404  15.552  0.0634 -0.1924  0.6733
  564TMC3    O1 8375   3.057   1.460  15.606  0.6858 -0.2884  0.2339
  564TMC3    O2 8376   2.665   1.381  15.662  0.1475 -0.3224 -0.4254
  565TMC3    C1 8377   3.882   2.865   9.963 -0.1857  0.1384 -0.4595
  565TMC3    C2 8378   3.900   2.779  10.068  0.3445 -0.7797 -1.0238
  565TMC3    C3 8379   3.781   2.716  10.090 -0.8629 -0.3772 -0.2344
  565TMC3    C4 8380   3.764   2.886   9.895 -0.3279  0.5146 -0.0878
  565TMC3    C5 8381   3.663   2.801   9.912  0.1430 -0.3416 -0.9076
  565TMC3    C6 8382   3.661   2.729  10.022  0.2843  0.4518  0.4286
  565TMC3     C 8383   3.985   2.964   9.948  0.1719 -0.5229  0.6326
  565TMC3     O 8384   4.026   2.977   9.834  0.3201 -0.5611  0.4401
  565TMC3     H 8385   3.991   2.770  10.126 -1.6137  3.3907  2.6998
  565TMC3    H1 8386   3.765   2.957   9.813  1.8743 -1.8805 -2.1346
  565TMC3    H2 8387   3.581   2.661  10.053 -0.2829  1.6522  1.5982
  565TMC3    C7 8388   3.545   2.812   9.814  0.0211 -0.3865  0.1734
  565TMC3    C8 8389   3.775   2.592  10.167  0.0294 -0.1693  0.1519
  565TMC3    O1 8390   3.544   2.913   9.739  0.3224 -0.6142 -0.2814
  565TMC3    O2 8391   3.681   2.556  10.234 -0.5613 -0.2149  0.5879
  566MPD2     C 8392   4.396   4.345  14.261  0.1898  0.5327  0.5768
  566MPD2    C1 8393   4.516   4.295  14.223 -0.0982  0.3910 -0.0953
  566MPD2    C2 8394   4.520   4.214  14.110 -0.4898  1.1006  0.2038
  566MPD2    C3 8395   4.403   4.194  14.031  0.2652 -0.9167 -0.8190
  566MPD2    C4 8396   4.284   4.243  14.076  0.4224 -0.0503 -0.1775
  566MPD2    C5 8397   4.277   4.319  14.193  0.1141 -0.1747  0.4467
  566MPD2     H 8398   4.617   4.178  14.079 -0.7163  0.1039  0.6304
  566MPD2    H1 8399   4.190   4.225  14.024  0.3505 -0.5578  0.1250
  566MPD2    H2 8400   4.386   4.405  14.351 -0.4203 -0.6219  1.2812
  566MPD2    H3 8401   4.186   4.356  14.239  1.2928  2.5154  0.6324
  566MPD2     N 8402   4.410   4.125  13.905  0.6234 -0.3396  0.1990
  566MPD2    H5 8403   4.324   4.124  13.851 -0.0483  1.4313  1.2543
  566MPD2    N1 8404   4.639   4.328  14.286  0.7142  0.4194  0.3903
  566MPD2    H7 8405   4.650   4.411  14.343  0.9397  0.9282 -0.3932
  567TMC3    C1 8406   0.148   4.354  14.302 -0.6239  0.1556  0.3681
  567TMC3    C2 8407   0.171   4.460  14.220  0.3623  0.3741  0.3491
  567TMC3    C3 8408   0.300   4.504  14.198 -0.6890  0.1009  0.1966
  567TMC3    C4 8409   0.259   4.289  14.362  0.5237 -0.0828 -0.8078
  567TMC3    C5 8410   0.387   4.336  14.334  0.3421  0.2269  0.3253
  567TMC3    C6 8411   0.413   4.438  14.251  0.4322  0.0510  0.5833
  567TMC3     C 8412   0.039   4.265  14.267 -0.0081 -0.2649  0.2482
  567TMC3     O 8413   0.062   4.149  14.239  0.1128  0.5590  0.4563
  567TMC3     H 8414   0.087   4.521  14.188  0.0553 -0.0610  0.3328
  567TMC3    H1 8415   0.237   4.204  14.427 -0.3955  1.3665  0.7864
  567TMC3    H2 8416   0.517   4.464  14.241  0.6022 -1.1337 -0.6886
  567TMC3    C7 8417   0.499   4.293  14.419  0.1623  0.7591  0.4565
  567TMC3    C8 8418   0.316   4.599  14.095 -0.5081 -0.0775  0.3588
  567TMC3    O1 8419   0.612   4.318  14.378  0.1175  0.0867 -0.2968
  567TMC3    O2 8420   0.229   4.612  14.009 -0.7673 -0.5071  0.2436
  568MPD2     C 8421   2.419   0.422  16.702  0.1894 -0.4166  0.4606
  568MPD2    C1 8422   2.541   0.385  16.652  0.2528  0.1575 -0.0702
  568MPD2    C2 8423   2.583   0.441  16.533  0.5737  0.0674  0.3849
  568MPD2    C3 8424   2.502   0.530  16.471 -0.2228 -0.1581  0.0992
  568MPD2    C4 8425   2.381   0.571  16.520  0.1192 -0.2137 -0.4950
  568MPD2    C5 8426   2.341   0.523  16.644  0.4996 -0.5691  0.0828
  568MPD2     H 8427   2.682   0.428  16.492  0.0950 -0.8549 -0.4709
  568MPD2    H1 8428   2.325   0.644  16.462 -1.0304  1.5668  2.8772
  568MPD2    H2 8429   2.388   0.367  16.790  0.9387  0.4167  1.2507
  568MPD2    H3 8430   2.239   0.546  16.671  0.7279 -0.2010  0.6193
  568MPD2     N 8431   2.547   0.575  16.349 -0.3325 -0.3768 -0.0370
  568MPD2    H5 8432   2.636   0.536  16.319  0.7686  0.9376  1.5069
  568MPD2    N1 8433   2.620   0.302  16.733  0.2145  0.2455  0.2286
  568MPD2    H7 8434   2.580   0.280  16.824  0.0738 -2.7730 -0.5501
  569TMC3    C1 8435   2.560   0.708  16.161 -0.2137  0.1887 -1.0142
  569TMC3    C2 8436   2.688   0.746  16.192 -0.2808  0.2332 -0.7524
  569TMC3    C3 8437   2.751   0.818  16.096 -0.0661 -0.5242  0.8534
  569TMC3    C4 8438   2.487   0.750  16.053  0.5118  0.9620  0.1370
  569TMC3    C5 8439   2.559   0.814  15.960  0.2167  0.1977 -0.2361
  569TMC3    C6 8440   2.690   0.847  15.977  0.6009 -0.0609  0.5707
  569TMC3     C 8441   2.479   0.655  16.262 -0.5878  0.3086  0.1085
  569TMC3     O 8442   2.360   0.688  16.257 -0.1640 -0.1674 -0.3219
  569TMC3     H 8443   2.730   0.726  16.290 -1.6325  1.5038  0.0807
  569TMC3    H1 8444   2.395   0.699  16.029  1.5380 -0.2158 -1.2492
  569TMC3    H2 8445   2.750   0.877  15.892  0.1817 -1.9049 -0.3735
  569TMC3    C7 8446   2.475   0.871  15.865 -1.5015  0.2637 -0.2078
  569TMC3    C8 8447   2.836   0.928  16.137  0.0583 -0.7130  0.6297
  569TMC3    O1 8448   2.361   0.833  15.861 -0.0680 -0.8223 -0.2633
  569TMC3    O2 8449   2.840   1.018  16.052 -0.4205  0.3388 -0.5155
  570TMC3    C1 8450   2.057   3.607  16.207 -0.0874 -0.4291  0.6181
  570TMC3    C2 8451   2.104   3.624  16.073  0.7609  0.0744  0.0017
  570TMC3    C3 8452   2.054   3.738  16.011  0.0604 -0.1453  0.4941
  570TMC3    C4 8453   1.966   3.684  16.268  0.9017 -1.0840  0.3079
  570TMC3    C5 8454   1.919   3.791  16.195 -0.1250 -0.0276 -0.0471
  570TMC3    C6 8455   1.955   3.817  16.067 -0.1015 -0.0615  0.3563
  570TMC3     C 8456   2.106   3.482  16.273 -0.6830  0.3846 -0.4265
  570TMC3     O 8457   2.178   3.412  16.202  0.5291  0.3843  0.1085
  570TMC3     H 8458   2.193   3.566  16.050  0.7240  1.1665 -2.8507
  570TMC3    H1 8459   1.935   3.676  16.371 -0.4647  2.1710  0.1690
  570TMC3    H2 8460   1.917   3.907  16.022  0.6081  0.4990  0.8676
  570TMC3    C7 8461   1.893   3.895  16.284  0.6366  0.1453 -0.3907
  570TMC3    C8 8462   2.108   3.796  15.887  0.2764  0.7323  0.5276
  570TMC3    O1 8463   1.796   3.965  16.264 -0.6355 -0.2836  0.9989
  570TMC3    O2 8464   2.084   3.914  15.863  0.4033  0.3803 -0.2444
  571MPD2     C 8465   0.731   0.943  17.237 -0.3826  0.1743  0.0364
  571MPD2    C1 8466   0.613   0.879  17.201  0.4645  0.1099 -0.0597
  571MPD2    C2 8467   0.497   0.938  17.250  0.2103 -0.4581  0.3387
  571MPD2    C3 8468   0.490   1.043  17.343  0.5685 -0.0323 -0.2351
  571MPD2    C4 8469   0.612   1.093  17.378 -0.3033 -0.5939 -0.5066
  571MPD2    C5 8470   0.732   1.048  17.323 -0.4542  0.0937  0.2615
  571MPD2     H 8471   0.400   0.898  17.222  0.8636 -1.2432 -0.8204
  571MPD2    H1 8472   0.627   1.175  17.448 -0.1284  0.4554 -1.7744
  571MPD2    H2 8473   0.827   0.915  17.196 -1.5601 -0.4155 -2.3216
  571MPD2    H3 8474   0.827   1.092  17.354  1.5361 -3.5652 -0.6350
  571MPD2     N 8475   0.371   1.099  17.399  0.0316 -0.1643 -0.0361
  571MPD2    H5 8476   0.384   1.181  17.458  0.2124 -0.4585  0.3349
  571MPD2    N1 8477   0.631   0.759  17.124  0.0482 -0.1248 -0.4629
  571MPD2    H7 8478   0.722   0.714  17.124  0.5153  0.8109  2.8925
  572TMC3    C1 8479   0.157   1.109  17.498  0.0025 -0.2484  0.3714
  572TMC3    C2 8480   0.068   1.027  17.562  0.0924  0.1380  0.0848
  572TMC3    C3 8481   4.702   1.091  17.642  0.1544  0.2098  0.6379
  572TMC3    C4 8482   0.190   1.231  17.533  0.1973 -0.1545  0.0393
  572TMC3    C5 8483   0.109   1.290  17.631  0.4776 -0.3290 -0.5265
  572TMC3    C6 8484   0.004   1.224   0.002 -0.6105 -0.1488 -0.5068
  572TMC3     C 8485   0.249   1.043  17.405 -0.3068  0.4553 -0.2531
  572TMC3     O 8486   0.228   0.925  17.373  0.2501 -0.6860 -0.6194
  572TMC3     H 8487   0.049   0.923  17.537 -1.8669  0.3677  0.6756
  572TMC3    H1 8488   0.250   1.298  17.472 -1.6480  2.9341  1.5663
  572TMC3    H2 8489   4.666   1.268   0.081  0.1768 -0.5531  0.3083
  572TMC3    C7 8490   0.083   1.436  17.629 -0.0101  0.7771  0.3734
  572TMC3    C8 8491   4.578   1.031  17.682 -0.1787  0.4959  0.3203
  572TMC3    O1 8492   4.700   1.475  17.677 -0.0071 -0.1744 -0.2258
  572TMC3    O2 8493   4.568   0.919  17.642 -0.2523  0.0028 -0.3395
  573MPD2     C 8494   0.488   2.188   0.823 -0.2309  0.3297  0.8110
  573MPD2    C1 8495   0.619   2.133   0.843  0.4968 -0.7780 -0.3870
  573MPD2    C2 8496   0.692   2.082   0.734  0.7937  0.1514 -0.0813
  573MPD2    C3 8497   0.625   2.074   0.607 -0.5590  0.2440 -0.1607
  573MPD2    C4 8498   0.492   2.113   0.601  0.6423 -0.6711  0.0810
  573MPD2    C5 8499   0.426   2.158   0.703 -0.4688  0.0743  0.1080
  573MPD2     H 8500   0.799   2.065   0.742  0.9690  1.1508 -0.3413
  573MPD2    H1 8501   0.437   2.087   0.511 -0.8464 -1.0215  1.0927
  573MPD2    H2 8502   0.429   2.240   0.897 -0.0127  1.0849  0.4572
  573MPD2    H3 8503   0.322   2.188   0.706 -0.6034 -0.0405 -4.1665
  573MPD2     N 8504   0.679   2.040   0.481 -0.0183 -0.1428 -0.1028
  573MPD2    H5 8505   0.628   2.082   0.404 -2.4898 -0.7774  1.1974
  573MPD2    N1 8506   0.678   2.167   0.964 -0.7417 -0.1960 -0.7864
  573MPD2    H7 8507   0.621   2.223   1.028  0.6017 -1.1027  1.1917
  574TMC3    C1 8508   0.808   1.949   0.310  0.9929 -0.4907 -0.3656
  574TMC3    C2 8509   0.702   1.965   0.220 -0.0579  0.2376 -0.4293
  574TMC3    C3 8510   0.720   1.969   0.084  0.5284 -0.5790  0.3887
  574TMC3    C4 8511   0.930   1.936   0.256 -0.8129 -0.1750  0.1134
  574TMC3    C5 8512   0.947   1.939   0.122 -0.2906  0.5277 -0.2965
  574TMC3    C6 8513   0.843   1.959   0.034 -0.0620  0.0379 -0.4179
  574TMC3     C 8514   0.796   1.976   0.452  0.0735 -0.8900 -0.2628
  574TMC3     O 8515   0.882   1.935   0.526 -0.3628  0.2989 -0.3089
  574TMC3     H 8516   0.600   1.986   0.250  0.3415  1.9629 -0.2931
  574TMC3    H1 8517   1.015   1.921   0.323  0.5403 -0.6244 -1.7062
  574TMC3    H2 8518   0.864   1.924  17.619  0.0330  0.2779 -0.4801
  574TMC3    C7 8519   1.086   1.914   0.081 -0.0114 -0.3131 -0.1941
  574TMC3    C8 8520   0.601   2.015   0.010 -0.1680 -0.0280 -0.0673
  574TMC3    O1 8521   1.174   1.904   0.168  0.1244  0.0753  0.2030
  574TMC3    O2 8522   0.486   1.986   0.052  0.5704 -0.2443 -0.1996
  575TMC3    C1 8523   3.680   2.154  10.918 -0.4799  0.6245  0.0649
  575TMC3    C2 8524   3.716   2.021  10.937  0.3710 -0.1389 -0.9868
  575TMC3    C3 8525   3.765   1.959  10.821 -0.8399 -0.1831 -0.8429
  575TMC3    C4 8526   3.693   2.222  10.803  1.3614 -0.4394  0.5501
  575TMC3    C5 8527   3.738   2.151  10.695 -0.4201  0.9403 -0.3473
  575TMC3    C6 8528   3.777   2.022  10.698 -0.3385 -0.3601 -0.0864
  575TMC3     C 8529   3.633   2.221  11.034 -0.1410 -0.1588 -0.0429
  575TMC3     O 8530   3.670   2.335  11.048  0.4204  0.2548  0.0977
  575TMC3     H 8531   3.708   1.969  11.032 -0.6245 -0.0916 -1.0456
  575TMC3    H1 8532   3.651   2.322  10.797  0.4763 -0.7724  1.1569
  575TMC3    H2 8533   3.817   1.977  10.608  0.7310  0.7036 -0.1359
  575TMC3    C7 8534   3.775   2.229  10.580  0.6734  0.5078 -0.3677
  575TMC3    C8 8535   3.806   1.818  10.833 -0.6683 -0.1103 -0.2813
  575TMC3    O1 8536   3.742   2.346  10.587  0.3540  0.1328  0.5851
  575TMC3    O2 8537   3.759   1.748  10.923 -0.7684 -0.0164 -0.0774
  576MPD2     C 8538   2.897   3.266  12.647  0.3325 -0.4422  0.2217
  576MPD2    C1 8539   2.963   3.370  12.584 -0.1240  0.1662  0.7175
  576MPD2    C2 8540   2.911   3.502  12.589  0.4850  0.0208  0.3293
  576MPD2    C3 8541   2.796   3.530  12.663  0.0007  0.2858  0.6998
  576MPD2    C4 8542   2.733   3.424  12.720  0.3993 -0.7039 -0.3279
  576MPD2    C5 8543   2.780   3.294  12.719 -0.0575  0.3983 -0.1571
  576MPD2     H 8544   2.967   3.573  12.530 -1.9417 -0.8473 -3.0239
  576MPD2    H1 8545   2.639   3.438  12.772 -0.0494  0.7744 -1.5431
  576MPD2    H2 8546   2.927   3.162  12.640 -0.8440 -0.8501  1.1898
  576MPD2    H3 8547   2.716   3.221  12.767 -1.3003 -0.0552 -2.5444
  576MPD2     N 8548   2.740   3.661  12.658 -0.1292  0.0704 -0.8022
  576MPD2    H5 8549   2.803   3.725  12.609 -0.7233  2.7405  1.8962
  576MPD2    N1 8550   3.070   3.341  12.497 -0.4986 -0.0679 -0.1088
  576MPD2    H7 8551   3.114   3.422  12.453  0.6690 -2.0158 -2.5449
  577TMC3    C1 8552   3.232   3.226  12.367 -0.0886  0.0505 -0.0385
  577TMC3    C2 8553   3.339   3.147  12.380 -0.2757 -0.1107 -0.2352
  577TMC3    C3 8554   3.435   3.168  12.287 -0.1757  0.6389 -0.1299
  577TMC3    C4 8555   3.208   3.311  12.264 -0.4122  0.6067 -1.3079
  577TMC3    C5 8556   3.305   3.313  12.171 -0.0680 -0.0963 -0.5338
  577TMC3    C6 8557   3.427   3.255  12.189 -0.3541  0.4355 -0.2688
  577TMC3     C 8558   3.134   3.220  12.476 -0.7290  0.1045  0.0894
  577TMC3     O 8559   3.146   3.129  12.554  0.4285 -0.4913 -0.3487
  577TMC3     H 8560   3.347   3.076  12.461  1.0774  0.3514  0.0396
  577TMC3    H1 8561   3.117   3.369  12.254 -0.1080  1.2021 -0.6749
  577TMC3    H2 8562   3.515   3.274  12.128 -1.0934 -1.6490 -2.0016
  577TMC3    C7 8563   3.273   3.309  12.030  0.2216 -0.2140 -0.2755
  577TMC3    C8 8564   3.545   3.069  12.300  0.1947 -0.9922 -0.2741
  577TMC3    O1 8565   3.365   3.269  11.963  0.1097 -0.0528 -0.2677
  577TMC3    O2 8566   3.529   2.985  12.384  0.0381 -0.0728 -0.3458
  578MPD2     C 8567   2.478   3.938   1.182  0.3818 -0.8843 -0.3966
  578MPD2    C1 8568   2.542   3.823   1.174 -0.6609 -0.3062 -0.0927
  578MPD2    C2 8569   2.504   3.720   1.261  0.6129 -0.5585 -0.2377
  578MPD2    C3 8570   2.403   3.737   1.350 -0.4139 -0.2523 -0.0081
  578MPD2    C4 8571   2.334   3.859   1.350  0.4222  0.4053  0.6181
  578MPD2    C5 8572   2.368   3.949   1.257 -0.0205 -0.0559  0.1532
  578MPD2     H 8573   2.545   3.619   1.256  0.6639 -0.5530  0.1011
  578MPD2    H1 8574   2.251   3.876   1.417 -0.5582  0.7670 -0.6944
  578MPD2    H2 8575   2.504   4.026   1.124 -0.7462 -0.5372 -0.3678
  578MPD2    H3 8576   2.309   4.040   1.261 -0.1426 -0.1311  0.0869
  578MPD2     N 8577   2.378   3.631   1.438  0.2283  0.3380  0.6411
  578MPD2    H5 8578   2.444   3.554   1.431 -0.3352  0.2378 -3.5084
  578MPD2    N1 8579   2.621   3.813   1.061  0.2269  0.4924  0.6706
  578MPD2    H7 8580   2.661   3.894   1.013 -1.2834 -0.1814 -1.6924
  579TMC3    C1 8581   2.250   3.493   1.580  0.2098  0.4292  0.2591
  579TMC3    C2 8582   2.371   3.448   1.624 -0.1246 -0.3679 -0.4185
  579TMC3    C3 8583   2.397   3.316   1.638 -0.0161 -0.2034  0.4008
  579TMC3    C4 8584   2.151   3.411   1.549 -0.1899 -0.0265  0.2113
  579TMC3    C5 8585   2.172   3.278   1.563 -0.0589 -0.3878  0.2686
  579TMC3    C6 8586   2.297   3.229   1.596  0.1157  0.4084  0.0073
  579TMC3     C 8587   2.262   3.617   1.509  0.0622  0.4751  0.2762
  579TMC3     O 8588   2.158   3.676   1.490 -0.1025  0.1624  0.3144
  579TMC3     H 8589   2.432   3.533   1.653 -1.1584 -0.0127  0.7086
  579TMC3    H1 8590   2.060   3.460   1.517 -1.9619 -0.4678  4.5577
  579TMC3    H2 8591   2.332   3.127   1.578  0.5154  0.2302  1.8101
  579TMC3    C7 8592   2.070   3.190   1.504 -0.1365  0.4907  0.2662
  579TMC3    C8 8593   2.533   3.275   1.636  0.2809  0.6074 -0.3391
  579TMC3    O1 8594   2.070   3.078   1.552  0.3247  0.6049 -0.2808
  579TMC3    O2 8595   2.565   3.167   1.588 -0.0771  0.2609 -0.2186
  580TMC3    C1 8596   0.798   2.529  11.175  0.1227  0.2038  0.7235
  580TMC3    C2 8597   0.852   2.575  11.057  0.4244 -0.5120 -0.6785
  580TMC3    C3 8598   0.978   2.528  11.026  0.0439  0.1844 -0.4795
  580TMC3    C4 8599   0.849   2.425  11.245 -0.0774 -0.1206  0.4874
  580TMC3    C5 8600   0.969   2.381  11.201  0.0015 -1.1964 -0.3227
  580TMC3    C6 8601   1.040   2.431  11.094  0.5763 -0.1279  0.8014
  580TMC3     C 8602   0.749   2.632  11.258  0.4344  0.4481 -0.4665
  580TMC3     O 8603   0.701   2.606  11.367 -0.5689  0.2193 -0.1117
  580TMC3     H 8604   0.806   2.659  11.006 -2.4682  0.7138  3.9523
  580TMC3    H1 8605   0.818   2.398  11.346  1.4092 -0.2847  0.8997
  580TMC3    H2 8606   1.132   2.383  11.064  0.1795  0.0947 -0.8066
  580TMC3    C7 8607   1.058   2.331  11.309  0.5529  0.8329  0.3407
  580TMC3    C8 8608   1.053   2.650  11.024 -0.3741  0.1399 -0.7773
  580TMC3    O1 8609   1.029   2.350  11.425  0.0160  0.4678  0.0473
  580TMC3    O2 8610   0.993   2.754  11.014  0.2633  0.3466 -0.1578
  581MPD2     C 8611   3.973   2.970  15.228 -0.1739 -0.2372 -0.8340
  581MPD2    C1 8612   3.984   2.842  15.181  0.4218  0.6148 -0.4446
  581MPD2    C2 8613   3.908   2.805  15.073 -0.2867  0.6727  0.8535
  581MPD2    C3 8614   3.791   2.874  15.046 -0.2360 -0.1590 -0.3201
  581MPD2    C4 8615   3.780   3.002  15.093  0.0567 -0.4455  0.1199
  581MPD2    C5 8616   3.873   3.052  15.181 -0.3176 -0.5199  0.1190
  581MPD2     H 8617   3.930   2.716  15.015 -0.0961  1.2747 -0.0013
  581MPD2    H1 8618   3.695   3.058  15.056  2.1629  0.6695 -2.9495
  581MPD2    H2 8619   4.026   3.004  15.317  2.4856  1.4468 -3.0779
  581MPD2    H3 8620   3.865   3.155  15.213 -2.0991 -0.9992  1.1637
  581MPD2     N 8621   3.698   2.818  14.951 -0.5995 -0.8992  0.2259
  581MPD2    H5 8622   3.726   2.731  14.907  1.5827  1.0524 -2.1903
  581MPD2    N1 8623   4.096   2.766  15.236  0.3580  0.2523 -0.3270
  581MPD2    H7 8624   4.164   2.818  15.291  0.5935  0.6470 -0.9865
  582TMC3    C1 8625   4.204   2.588  15.329  0.5045 -0.2082  0.9449
  582TMC3    C2 8626   4.166   2.626  15.456 -0.3126  0.7476 -0.5278
  582TMC3    C3 8627   4.207   2.543  15.556 -0.7529  0.1816  0.4799
  582TMC3    C4 8628   4.237   2.457  15.308  0.0093 -0.3354  0.3633
  582TMC3    C5 8629   4.249   2.366  15.414  0.0234  0.8077  0.4080
  582TMC3    C6 8630   4.249   2.412  15.544 -0.0687 -0.2121  0.2246
  582TMC3     C 8631   4.117   2.636  15.225 -0.2800 -0.3854  0.3074
  582TMC3     O 8632   4.051   2.560  15.156  0.1002  0.5811  0.3888
  582TMC3     H 8633   4.136   2.728  15.480  1.1733  1.0602 -0.0077
  582TMC3    H1 8634   4.262   2.431  15.206 -0.7347 -2.1256  0.6392
  582TMC3    H2 8635   4.251   2.340  15.625 -2.4927 -2.3406 -1.5845
  582TMC3    C7 8636   4.323   2.237  15.402 -0.1064  0.2617  0.3970
  582TMC3    C8 8637   4.199   2.581  15.695 -0.2780 -0.5877  0.7476
  582TMC3    O1 8638   4.407   2.217  15.489  0.1711  0.2548 -0.0637
  582TMC3    O2 8639   4.119   2.670  15.707  0.4204 -0.6229 -0.5824
  583MPD2     C 8640   4.036   4.083  17.209 -0.3100  0.1193 -0.3565
  583MPD2    C1 8641   4.001   4.127  17.088  0.1690 -0.4086 -0.0764
  583MPD2    C2 8642   3.893   4.215  17.075 -0.3557 -0.0027  0.2032
  583MPD2    C3 8643   3.824   4.254  17.185  0.2541  0.0175 -1.1023
  583MPD2    C4 8644   3.855   4.203  17.306  0.2097 -0.5067  0.4315
  583MPD2    C5 8645   3.962   4.118  17.316  0.5031  0.1462 -0.3873
  583MPD2     H 8646   3.855   4.252  16.981 -1.3231 -2.5267 -0.4111
  583MPD2    H1 8647   3.811   4.235  17.399 -0.0754 -0.0125  0.1267
  583MPD2    H2 8648   4.123   4.022  17.226 -0.8880 -0.4629  0.5522
  583MPD2    H3 8649   3.994   4.076  17.411  1.2521  1.0771 -0.2297
  583MPD2     N 8650   3.731   4.359  17.176 -0.5779  0.4334  0.0442
  583MPD2    H5 8651   3.726   4.402  17.084 -1.5905  0.0663 -0.0707
  583MPD2    N1 8652   4.069   4.097  16.967 -0.7252 -0.0696  0.4998
  583MPD2    H7 8653   4.035   4.137  16.881  1.7493  1.3155  0.1553
  584TMC3    C1 8654   3.600   4.540  17.267  0.1954 -0.0718  0.3722
  584TMC3    C2 8655   3.693   4.629  17.231  0.1306  1.2234 -0.3732
  584TMC3    C3 8656   3.687   0.033  17.293 -0.1949 -0.0373 -0.6733
  584TMC3    C4 8657   3.507   4.559  17.363 -0.6320 -0.1763 -0.8157
  584TMC3    C5 8658   3.505   4.682  17.431  0.1712  0.0084  0.4063
  584TMC3    C6 8659   3.599   0.059  17.395 -0.5044 -0.5941  0.3718
  584TMC3     C 8660   3.651   4.403  17.281  0.1479 -0.5273 -0.3507
  584TMC3     O 8661   3.606   4.342  17.375 -0.0225 -0.1734  0.4191
  584TMC3     H 8662   3.769   4.601  17.160 -0.1059 -0.1745 -0.0799
  584TMC3    H1 8663   3.439   4.476  17.374  0.4085 -0.8681  0.3256
  584TMC3    H2 8664   3.596   0.156  17.444  0.3956 -1.6678  2.5799
  584TMC3    C7 8665   3.460   4.678  17.576 -0.0013 -0.0978  0.6942
  584TMC3    C8 8666   3.710   0.149  17.207 -0.6928 -0.2131 -0.1362
  584TMC3    O1 8667   3.513   0.033  17.655 -0.1682  0.7382 -0.3031
  584TMC3    O2 8668   3.705   0.114  17.089  0.0500  0.0489 -0.1263
  585MPD2     C 8669   3.664   3.352   0.748  0.3235 -0.3638 -0.3319
  585MPD2    C1 8670   3.612   3.469   0.689 -0.4262  0.0901  0.2177
  585MPD2    C2 8671   3.575   3.470   0.559  0.3095 -0.3469 -0.1694
  585MPD2    C3 8672   3.562   3.354   0.484  0.2489 -0.2094 -0.0175
  585MPD2    C4 8673   3.619   3.240   0.542  0.2228  0.3906  0.2779
  585MPD2    C5 8674   3.664   3.237   0.673 -0.8833  0.6166  0.1534
  585MPD2     H 8675   3.535   3.563   0.521  0.2364  0.0585  0.8924
  585MPD2    H1 8676   3.619   3.150   0.482  1.1816  1.0150 -0.6687
  585MPD2    H2 8677   3.696   3.352   0.851  0.6600 -0.8733 -0.4382
  585MPD2    H3 8678   3.701   3.145   0.717 -2.1248  0.2983  0.5332
  585MPD2     N 8679   3.507   3.348   0.358 -0.3093  0.2564 -0.1459
  585MPD2    H5 8680   3.516   3.266   0.299  0.8789 -0.3496  0.8711
  585MPD2    N1 8681   3.601   3.594   0.759  0.3411  0.0843  0.2733
  585MPD2    H7 8682   3.585   3.682   0.711  0.3662 -1.0266 -1.7783
  586TMC3    C1 8683   3.355   3.400   0.182  0.5927  0.5926 -0.3239
  586TMC3    C2 8684   3.431   3.329   0.092 -0.7287 -0.1092  0.0475
  586TMC3    C3 8685   3.364   3.240   0.012 -0.2330  0.6811  0.6935
  586TMC3    C4 8686   3.217   3.385   0.193  0.2619  0.7384  0.4032
  586TMC3    C5 8687   3.158   3.292   0.112 -0.4749  0.1030 -0.3470
  586TMC3    C6 8688   3.228   3.215   0.024  0.4753 -0.1842 -0.0685
  586TMC3     C 8689   3.415   3.442   0.311  0.3079 -0.4519 -0.5360
  586TMC3     O 8690   3.345   3.523   0.370 -0.1104 -0.5668  0.6253
  586TMC3     H 8691   3.539   3.340   0.096 -1.0501  3.1763 -0.9775
  586TMC3    H1 8692   3.172   3.443   0.272 -2.2510  0.8241 -1.1171
  586TMC3    H2 8693   3.168   3.163  17.635 -0.9911  0.6504  0.5235
  586TMC3    C7 8694   3.017   3.272   0.106 -0.4362  0.7160  0.3884
  586TMC3    C8 8695   3.443   3.154  17.613  0.5504  0.4457 -0.0725
  586TMC3    O1 8696   2.969   3.168   0.066 -0.2241 -0.7155  0.2204
  586TMC3    O2 8697   3.553   3.190  17.567 -0.2327 -0.0794 -0.2028
  587TMC3    C1 8698   1.240   2.317  16.497 -0.4212  0.0994 -0.2143
  587TMC3    C2 8699   1.145   2.412  16.515  0.1418  0.3235 -0.2234
  587TMC3    C3 8700   1.184   2.529  16.578  0.4096 -0.8664 -0.7895
  587TMC3    C4 8701   1.372   2.343  16.528 -0.1409  0.2415  0.6212
  587TMC3    C5 8702   1.412   2.464  16.589 -0.3943  0.9813  0.2124
  587TMC3    C6 8703   1.315   2.552  16.616 -0.0062 -0.1723  0.4389
  587TMC3     C 8704   1.207   2.170  16.504 -0.0049 -0.7480 -0.1437
  587TMC3     O 8705   1.301   2.086  16.492 -0.2719  0.2806  0.5901
  587TMC3     H 8706   1.048   2.403  16.467  0.1704  0.5568 -0.3257
  587TMC3    H1 8707   1.445   2.268  16.500 -1.4063 -0.5927 -0.4468
  587TMC3    H2 8708   1.338   2.650  16.655 -0.5839 -0.5279  1.6777
  587TMC3    C7 8709   1.544   2.513  16.616 -0.1638  0.4228  0.1397
  587TMC3    C8 8710   1.095   2.641  16.560 -0.2542  1.1619 -0.3133
  587TMC3    O1 8711   1.557   2.613  16.683 -0.6697  0.3578 -0.1679
  587TMC3    O2 8712   1.155   2.747  16.561 -0.5915 -0.6784 -0.1157
  588TMC3    C1 8713   2.648   4.045   9.646  0.6245  0.3110 -0.9832
  588TMC3    C2 8714   2.631   3.911   9.654  1.2212 -0.3354  0.7794
  588TMC3    C3 8715   2.739   3.839   9.619  0.3385  0.7287  0.9480
  588TMC3    C4 8716   2.772   4.106   9.625 -0.6027  0.0702 -0.0061
  588TMC3    C5 8717   2.873   4.020   9.591  0.0478 -0.1627 -0.3844
  588TMC3    C6 8718   2.865   3.886   9.573 -0.0477  0.1196 -0.3141
  588TMC3     C 8719   2.550   4.128   9.717  0.7525 -0.3992  0.9221
  588TMC3     O 8720   2.430   4.105   9.709  0.4273  0.3056  0.1044
  588TMC3     H 8721   2.539   3.864   9.685  0.9572 -1.3028 -1.4731
  588TMC3    H1 8722   2.772   4.213   9.604  1.0818  0.0081 -0.3534
  588TMC3    H2 8723   2.953   3.833   9.538 -0.1368 -0.0837 -0.2296
  588TMC3    C7 8724   3.008   4.081   9.577  0.1098 -0.0379 -0.9041
  588TMC3    C8 8725   2.712   3.695   9.633 -0.0250  0.6369  0.2810
  588TMC3    O1 8726   3.100   4.034   9.508 -0.4448  0.9110  0.4543
  588TMC3    O2 8727   2.593   3.660   9.621 -0.0303  0.4680  0.3012
  589TMC3    C1 8728   1.683   2.215   1.343 -1.2314 -0.2545  0.3472
  589TMC3    C2 8729   1.753   2.175   1.451  0.1106  0.2621 -0.3412
  589TMC3    C3 8730   1.833   2.063   1.431 -0.5318  0.0547 -0.2430
  589TMC3    C4 8731   1.692   2.151   1.221  0.0114 -0.1792  0.5634
  589TMC3    C5 8732   1.791   2.058   1.204  0.1210 -0.1668  0.0014
  589TMC3    C6 8733   1.864   2.008   1.305  0.0054 -0.2708  0.0670
  589TMC3     C 8734   1.582   2.311   1.359 -0.3112 -0.3239 -0.1571
  589TMC3     O 8735   1.547   2.367   1.253 -0.1905 -0.5586 -0.9720
  589TMC3     H 8736   1.745   2.213   1.552 -1.6146  2.6329 -1.3721
  589TMC3    H1 8737   1.633   2.185   1.137 -0.3544 -3.4905 -0.5202
  589TMC3    H2 8738   1.913   1.911   1.303  0.2533 -0.1477  0.1217
  589TMC3    C7 8739   1.792   1.992   1.075  0.1959 -0.4074 -0.5240
  589TMC3    C8 8740   1.916   2.020   1.542 -0.5709  0.1066 -0.4653
  589TMC3    O1 8741   1.695   2.013   1.001  0.4948 -0.6226  0.2056
  589TMC3    O2 8742   1.893   2.067   1.652 -1.0097 -0.7331  0.4171
  590MPD2     C 8743   1.672   0.213  16.669 -0.1956  0.1674  0.7668
  590MPD2    C1 8744   1.620   0.340  16.632 -0.7978  0.5623  0.0660
  590MPD2    C2 8745   1.701   0.435  16.573  0.5125 -0.9058  0.1958
  590MPD2    C3 8746   1.830   0.408  16.532 -1.5344 -0.1887 -0.3702
  590MPD2    C4 8747   1.877   0.283  16.565  0.3155 -0.2611 -0.0572
  590MPD2    C5 8748   1.807   0.183  16.638 -0.6803  0.4570 -0.1998
  590MPD2     H 8749   1.668   0.536  16.551  0.4651 -1.5103 -2.4502
  590MPD2    H1 8750   1.976   0.250  16.535  0.9780  0.1071  1.7218
  590MPD2    H2 8751   1.610   0.141  16.720 -1.8078  0.3009 -1.0254
  590MPD2    H3 8752   1.834   0.079  16.653 -0.0279  0.8172  1.1111
  590MPD2     N 8753   1.902   0.506  16.454  0.0363 -0.1940 -0.4106
  590MPD2    H5 8754   1.846   0.588  16.435  0.2697  0.3152  1.1045
  590MPD2    N1 8755   1.476   0.360  16.647  0.5690  0.6350 -0.1768
  590MPD2    H7 8756   1.420   0.283  16.682 -0.6004  1.1220 -0.9776
  591TMC3    C1 8757   2.040   0.599  16.292 -0.3211 -0.2353  0.6982
  591TMC3    C2 8758   2.063   0.561  16.159  0.7318  0.2233 -0.2709
  591TMC3    C3 8759   2.046   0.656  16.062  0.1114 -0.5030  0.1240
  591TMC3    C4 8760   1.978   0.723  16.322 -0.2752  0.6935  0.6098
  591TMC3    C5 8761   1.951   0.809  16.216  0.3188 -0.2306 -0.4866
  591TMC3    C6 8762   1.987   0.777  16.086 -0.1574 -0.1578 -0.1422
  591TMC3     C 8763   2.023   0.491  16.385  0.5728 -0.6605  0.0352
  591TMC3     O 8764   2.093   0.396  16.369  0.4237 -0.0173  0.3951
  591TMC3     H 8765   2.093   0.459  16.140  0.4506 -0.2086  1.6434
  591TMC3    H1 8766   1.968   0.760  16.423  0.5966  1.8046  0.2880
  591TMC3    H2 8767   1.959   0.842  16.004  0.1785  1.0654  0.6989
  591TMC3    C7 8768   1.889   0.941  16.243  0.0161  0.1611 -0.0985
  591TMC3    C8 8769   2.024   0.602  15.924 -0.2915  0.7002  0.4721
  591TMC3    O1 8770   1.826   0.954  16.349 -0.6913 -0.4891 -0.4693
  591TMC3    O2 8771   2.005   0.484  15.918  0.2646 -0.5044  0.5732
  592MPD2     C 8772   2.344   2.220  11.104 -0.2850  0.7179 -0.0607
  592MPD2    C1 8773   2.315   2.294  11.220  0.8339  0.8375  0.3651
  592MPD2    C2 8774   2.210   2.255  11.299 -0.2381  0.1046  0.3400
  592MPD2    C3 8775   2.144   2.136  11.277 -0.4131 -0.1789 -0.6809
  592MPD2    C4 8776   2.177   2.053  11.168  0.4663  1.0041  0.2479
  592MPD2    C5 8777   2.265   2.110  11.075  1.0896 -0.2035 -0.4242
  592MPD2     H 8778   2.174   2.314  11.382 -0.0775  1.7017 -0.7178
  592MPD2    H1 8779   2.127   1.960  11.146  2.2250 -0.2686  1.5844
  592MPD2    H2 8780   2.426   2.253  11.041 -1.2322  1.8728 -0.6800
  592MPD2    H3 8781   2.290   2.054  10.986 -1.1757 -1.2621 -0.4259
  592MPD2     N 8782   2.043   2.099  11.364 -0.0470 -0.1161 -0.3488
  592MPD2    H5 8783   2.028   2.161  11.443 -0.6575  0.3170 -0.8066
  592MPD2    N1 8784   2.391   2.410  11.250  0.2380 -0.3855 -0.1792
  592MPD2    H7 8785   2.475   2.428  11.196 -0.2057 -1.5488 -1.2511
  593TMC3    C1 8786   2.451   2.606  11.375 -0.6266  0.2922 -0.1157
  593TMC3    C2 8787   2.411   2.700  11.466 -0.5929 -0.1690 -1.2846
  593TMC3    C3 8788   2.487   2.819  11.459 -1.0600 -0.3961  0.1665
  593TMC3    C4 8789   2.538   2.634  11.276 -0.2014  0.2612 -0.7447
  593TMC3    C5 8790   2.608   2.752  11.278  0.9973 -0.2310 -0.6102
  593TMC3    C6 8791   2.578   2.852  11.363  0.2264 -0.4447 -0.2937
  593TMC3     C 8792   2.353   2.508  11.345 -0.0354 -0.6171 -0.0417
  593TMC3     O 8793   2.249   2.512  11.413 -0.0443  0.0434 -0.2483
  593TMC3     H 8794   2.349   2.668  11.549  3.0397 -1.4019  0.9445
  593TMC3    H1 8795   2.549   2.552  11.206  1.1973 -0.9480  0.8880
  593TMC3    H2 8796   2.643   2.938  11.373  0.6300 -0.7292 -0.4366
  593TMC3    C7 8797   2.708   2.781  11.178 -0.2106 -0.0545  0.1910
  593TMC3    C8 8798   2.487   2.899  11.579  0.9272  0.0696 -0.3997
  593TMC3    O1 8799   2.720   2.902  11.155  0.0714  0.3327 -0.1562
  593TMC3    O2 8800   2.382   2.895  11.644 -0.4860 -0.0828  0.7137
  594MPD2     C 8801   0.794   0.989  13.954  0.0450  0.5500  0.3435
  594MPD2    C1 8802   0.767   1.037  14.082 -0.4914 -0.4836  0.1717
  594MPD2    C2 8803   0.833   1.142  14.139  0.9040  0.5442 -0.5018
  594MPD2    C3 8804   0.927   1.202  14.062  0.2774  0.7574  1.0334
  594MPD2    C4 8805   0.954   1.162  13.930 -0.1575 -0.6174 -0.4533
  594MPD2    C5 8806   0.892   1.051  13.880  0.8991 -0.1338  0.2558
  594MPD2     H 8807   0.817   1.189  14.235 -1.4070  3.2889 -2.2553
  594MPD2    H1 8808   1.024   1.217  13.869 -0.0966 -0.7410 -0.4932
  594MPD2    H2 8809   0.727   0.915  13.913 -1.4821  3.3079 -2.1669
  594MPD2    H3 8810   0.909   1.030  13.775 -0.6721 -0.4724  0.0637
  594MPD2     N 8811   0.991   1.317  14.119 -0.2569  0.5258  0.3760
  594MPD2    H5 8812   0.967   1.348  14.212  2.4189 -1.1384  1.6135
  594MPD2    N1 8813   0.651   0.989  14.155 -0.1102  0.3400  0.0306
  594MPD2    H7 8814   0.585   0.928  14.108  1.8257 -1.1414 -0.7716
  595TMC3    C1 8815   1.311   1.656  14.191  0.3546  0.1572 -0.2419
  595TMC3    C2 8816   1.277   1.543  14.123 -0.4549 -0.2095  0.0087
  595TMC3    C3 8817   1.151   1.489  14.148  0.7843 -0.5474 -0.1187
  595TMC3    C4 8818   1.224   1.721  14.275 -0.4231 -0.7398 -0.0909
  595TMC3    C5 8819   1.109   1.657  14.306 -0.3084  0.1749 -0.2061
  595TMC3    C6 8820   1.069   1.543  14.244  0.1040  0.5436  0.0550
  595TMC3     C 8821   1.458   1.685  14.223  0.0544  0.2039 -0.5391
  595TMC3     O 8822   1.468   1.743  14.328  0.1860 -0.0529  0.3134
  595TMC3     H 8823   1.345   1.493  14.054 -1.2206  0.2839 -1.1052
  595TMC3    H1 8824   1.249   1.814  14.325  2.2966 -2.1458  1.1474
  595TMC3    H2 8825   0.964   1.518  14.259  0.1997 -0.1694 -0.4335
  595TMC3    C7 8826   1.035   1.718  14.412  0.7294 -0.7881  0.3334
  595TMC3    C8 8827   1.108   1.372  14.071 -0.3379  0.1234 -0.1766
  595TMC3    O1 8828   0.912   1.709  14.404  0.0500  0.3383 -0.5212
  595TMC3    O2 8829   1.170   1.358  13.966  0.5290 -0.2758 -0.2754
  596MPD2     C 8830   4.653   4.099  16.830  0.2598  0.8678 -0.3348
  596MPD2    C1 8831   4.646   4.219  16.758 -0.3181  0.3119  0.2250
  596MPD2    C2 8832   4.698   4.221  16.633  0.1617 -0.9590 -1.0871
  596MPD2    C3 8833   0.021   4.108  16.573 -0.3618  0.5830  0.7361
  596MPD2    C4 8834   0.037   3.992  16.640 -0.1152  0.2036 -0.4043
  596MPD2    C5 8835   4.716   3.989  16.771  0.6671 -0.6449  0.2696
  596MPD2     H 8836   4.694   4.309  16.570  1.4010 -0.6571 -0.7387
  596MPD2    H1 8837   0.078   3.902  16.595 -0.6645  1.0572 -2.5856
  596MPD2    H2 8838   4.624   4.088  16.933 -1.9908 -0.8420 -1.1523
  596MPD2    H3 8839   4.716   3.899  16.831  0.8625 -0.5795  0.3664
  596MPD2     N 8840   0.050   4.117  16.437  0.1377  0.4233 -0.2811
  596MPD2    H5 8841   0.008   4.202  16.400 -2.0662 -0.7281 -0.4356
  596MPD2    N1 8842   4.616   4.347  16.819  0.0728  1.1338  0.2290
  596MPD2    H7 8843   4.648   4.432  16.774  0.4727 -0.8715 -3.2198
  597TMC3    C1 8844   4.574   4.509  16.987 -1.1911  0.2223  0.4925
  597TMC3    C2 8845   4.665   4.592  16.945  0.1555  0.0925 -1.0493
  597TMC3    C3 8846   4.682   4.715  17.003 -0.1148 -0.4722  0.4011
  597TMC3    C4 8847   4.490   4.548  17.087  0.3462 -1.1317 -1.0813
  597TMC3    C5 8848   4.509   4.673  17.145  0.6654  0.1910  0.3498
  597TMC3    C6 8849   4.613   0.033  17.113  0.6025  0.5267  1.2545
  597TMC3     C 8850   4.566   4.367  16.946  0.4254  0.1620  0.6792
  597TMC3     O 8851   4.518   4.287  17.025 -0.3066  0.0138 -0.0168
  597TMC3     H 8852   0.021   4.561  16.876  0.9781  0.7083 -0.4243
  597TMC3    H1 8853   4.408   4.487  17.124 -0.3945  0.9135  0.6052
  597TMC3    H2 8854   4.629   0.123  17.171  2.2351  1.3302 -0.4536
  597TMC3    C7 8855   4.404   4.712  17.238 -0.0770  0.2394  0.1028
  597TMC3    C8 8856   0.052   0.091  16.935 -0.3372  0.9439 -0.2407
  597TMC3    O1 8857   4.360   4.621  17.306 -0.6164 -0.3982 -0.1268
  597TMC3    O2 8858   0.131   0.047  16.851  1.0060  0.4824  0.1980
  598TMC3    C1 8859   2.679   0.828  15.266  0.7982  0.0585  0.2107
  598TMC3    C2 8860   2.589   0.931  15.280 -0.3696  0.0302  0.3415
  598TMC3    C3 8861   2.600   1.030  15.187 -0.5955  0.1543 -0.8950
  598TMC3    C4 8862   2.779   0.827  15.174 -0.0681 -0.2303 -0.3470
  598TMC3    C5 8863   2.795   0.942  15.095  0.4071  0.3948 -0.4261
  598TMC3    C6 8864   2.706   1.044  15.104 -0.6638  0.2449 -0.2144
  598TMC3     C 8865   2.707   0.741  15.378 -0.6452 -0.0183 -0.2347
  598TMC3     O 8866   2.816   0.691  15.388  0.6352  0.3188 -0.1693
  598TMC3     H 8867   2.525   0.938  15.367 -0.0991 -0.8395  0.6119
  598TMC3    H1 8868   2.849   0.744  15.169  1.6055  1.2834 -2.1798
  598TMC3    H2 8869   2.706   1.122  15.030 -3.3470 -0.4168 -0.9202
  598TMC3    C7 8870   2.909   0.952  15.009  0.3737 -0.1827  0.3901
  598TMC3    C8 8871   2.480   1.101  15.149 -0.0657 -0.0466  0.4871
  598TMC3    O1 8872   2.942   0.851  14.947 -0.1390  0.1577 -0.2221
  598TMC3    O2 8873   2.494   1.218  15.105 -0.4653  0.2104  0.5879
  599MPD2     C 8874   2.978   2.945  15.468 -0.0944  0.2682 -0.3379
  599MPD2    C1 8875   3.044   2.921  15.586 -0.0176  0.1615 -0.3217
  599MPD2    C2 8876   2.991   2.988  15.693  0.2277  0.7483 -0.6529
  599MPD2    C3 8877   2.875   3.061  15.691  0.7410 -0.3075 -0.4888
  599MPD2    C4 8878   2.808   3.072  15.575  0.1629 -0.9622  0.5358
  599MPD2    C5 8879   2.860   3.011  15.464  0.1763 -0.4874  0.4527
  599MPD2     H 8880   3.048   2.977  15.785 -1.6133  1.8558  0.6079
  599MPD2    H1 8881   2.709   3.116  15.568  0.6755 -0.0731 -1.2351
  599MPD2    H2 8882   3.011   2.901  15.375  1.1348  1.2667 -0.3881
  599MPD2    H3 8883   2.813   3.021  15.367 -0.4969 -0.5016  0.7776
  599MPD2     N 8884   2.814   3.115  15.801  0.1125  0.4456  0.1677
  599MPD2    H5 8885   2.726   3.162  15.779 -0.6914 -0.6026  1.1357
  599MPD2    N1 8886   3.156   2.834  15.585 -0.4720 -0.3038 -0.6483
  599MPD2    H7 8887   3.187   2.798  15.495 -0.1660 -1.7400  0.0151
  600TMC3    C1 8888   2.768   3.187  16.023  0.4256 -0.1120 -0.0816
  600TMC3    C2 8889   2.651   3.119  16.022 -0.8649 -0.1165  0.1827
  600TMC3    C3 8890   2.560   3.141  16.129 -0.1751 -0.1059 -0.0561
  600TMC3    C4 8891   2.802   3.256  16.135  0.1281  0.6418  0.1467
  600TMC3    C5 8892   2.711   3.278  16.236 -0.6049  0.3240 -0.1455
  600TMC3    C6 8893   2.589   3.215  16.240  0.1114  0.4192 -0.4731
  600TMC3     C 8894   2.872   3.151  15.922  0.2436 -0.2793 -0.2589
  600TMC3     O 8895   2.991   3.157  15.953  0.0444 -0.3105  0.7524
  600TMC3     H 8896   2.627   3.048  15.943  0.4740 -0.9902  0.5718
  600TMC3    H1 8897   2.892   3.316  16.137 -0.9887  2.2030  2.4595
  600TMC3    H2 8898   2.519   3.227  16.323  0.2298 -3.2048  0.1783
  600TMC3    C7 8899   2.730   3.380  16.332 -0.0864 -0.6970 -1.0762
  600TMC3    C8 8900   2.424   3.083  16.124  0.1543  0.0588 -0.0633
  600TMC3    O1 8901   2.625   3.419  16.380  0.0510  0.2046 -0.1568
  600TMC3    O2 8902   2.365   3.099  16.018  0.0368 -0.2061  0.1939
  601MPD2     C 8903   0.183   1.913  17.475 -0.1850 -0.6778  0.1799
  601MPD2    C1 8904   0.068   1.849  17.511  0.3625 -0.2659  0.2927
  601MPD2    C2 8905   0.067   1.719  17.549  0.1596  0.1753  0.6929
  601MPD2    C3 8906   0.185   1.642  17.546  0.0827 -0.2956 -0.8481
  601MPD2    C4 8907   0.306   1.710  17.513 -0.6184  1.0617 -0.4169
  601MPD2    C5 8908   0.302   1.844  17.478 -0.6545  0.5155  0.3650
  601MPD2     H 8909   4.694   1.666  17.562  0.5599 -0.6179  0.4020
  601MPD2    H1 8910   0.400   1.657  17.504  0.2043  1.9085  2.9666
  601MPD2    H2 8911   0.178   2.018  17.450  0.0565 -1.3276 -2.5350
  601MPD2    H3 8912   0.394   1.899  17.466 -0.5461  0.6054  1.6111
  601MPD2     N 8913   0.190   1.507  17.580  0.1741 -0.3281  0.0929
  601MPD2    H5 8914   0.277   1.459  17.562  0.7255  1.1332 -1.1196
  601MPD2    N1 8915   4.667   1.915  17.504  0.5037 -0.1246 -0.4430
  601MPD2    H7 8916   4.586   1.859  17.529  1.3314 -0.8811  0.4899
  602TMC3    C1 8917   4.502   2.072  17.443 -0.0157  0.9604  0.3479
  602TMC3    C2 8918   4.458   2.199  17.439 -0.2064  0.0251  0.9202
  602TMC3    C3 8919   4.341   2.222  17.376 -0.4535 -1.0424 -0.2240
  602TMC3    C4 8920   4.444   1.974  17.365 -0.2591 -0.7097 -1.1550
  602TMC3    C5 8921   4.334   2.007  17.297 -0.5297  0.3264 -0.7622
  602TMC3    C6 8922   4.273   2.129  17.305  0.0271 -0.7019  0.0625
  602TMC3     C 8923   4.644   2.049  17.451 -0.4148 -0.1788  0.8577
  602TMC3     O 8924   4.720   2.145  17.427 -0.0801  0.4804 -0.0255
  602TMC3     H 8925   4.508   2.268  17.506  3.2950 -0.1880 -1.4566
  602TMC3    H1 8926   4.488   1.876  17.357  2.1784  0.2564  0.6007
  602TMC3    H2 8927   4.179   2.156  17.258  1.4812  0.5437 -2.1383
  602TMC3    C7 8928   4.311   1.922  17.184 -0.4234 -0.3563  0.3727
  602TMC3    C8 8929   4.286   2.353  17.380 -0.3401  0.7403 -0.2983
  602TMC3    O1 8930   4.339   1.807  17.188  0.2295 -0.6455  0.2513
  602TMC3    O2 8931   4.255   2.401  17.491  0.1657 -0.1567  0.2557
  603TMC3    C1 8932   3.115   0.999  10.490  1.0049 -0.0176  0.2421
  603TMC3    C2 8933   3.128   0.992  10.626  0.2631 -0.6928  0.3493
  603TMC3    C3 8934   3.203   1.087  10.687 -0.0761 -0.1831 -0.3552
  603TMC3    C4 8935   3.166   1.094  10.409 -0.2994  0.4331 -0.7902
  603TMC3    C5 8936   3.241   1.187  10.476  0.1215  0.0879  0.2309
  603TMC3    C6 8937   3.266   1.181  10.612  0.0124  0.6484  0.1428
  603TMC3     C 8938   3.012   0.910  10.438  0.3299 -0.1390 -0.4314
  603TMC3     O 8939   2.988   0.805  10.503  0.0499  0.1092 -0.4857
  603TMC3     H 8940   3.074   0.919  10.685  1.6819 -2.5166 -0.6299
  603TMC3    H1 8941   3.148   1.094  10.302  0.3958  0.5042 -0.9027
  603TMC3    H2 8942   3.313   1.262  10.667  0.2731  0.0374  0.8203
  603TMC3    C7 8943   3.299   1.300  10.415 -0.3489  0.1665  0.5329
  603TMC3    C8 8944   3.152   1.120  10.824 -0.4051 -1.1138 -0.1371
  603TMC3    O1 8945   3.384   1.352  10.484 -0.3774 -0.0719 -0.4917
  603TMC3    O2 8946   3.069   1.043  10.868 -0.1364 -0.2565  0.8415
  604MPD2     C 8947   3.330   0.505  16.327  0.5278 -0.0026 -0.3319
  604MPD2    C1 8948   3.298   0.575  16.215 -0.6120  0.2824  0.3950
  604MPD2    C2 8949   3.322   0.522  16.090 -0.1569 -0.1584 -0.4535
  604MPD2    C3 8950   3.392   0.403  16.076 -0.1532  0.7812 -0.7406
  604MPD2    C4 8951   3.440   0.342  16.191 -0.2676 -0.1513  0.0862
  604MPD2    C5 8952   3.404   0.393  16.313  0.4587  0.2106  0.4905
  604MPD2     H 8953   3.316   0.577  15.997 -0.3222 -0.5130 -0.6530
  604MPD2    H1 8954   3.498   0.251  16.204 -0.3309  0.0739  2.0455
  604MPD2    H2 8955   3.301   0.540  16.425  1.0982 -1.0094  0.1979
  604MPD2    H3 8956   3.428   0.330  16.398 -1.8893 -2.6257 -0.9380
  604MPD2     N 8957   3.425   0.354  15.948 -0.0471  0.3214  0.0371
  604MPD2    H5 8958   3.397   0.410  15.868 -1.9048 -0.3979  0.1691
  604MPD2    N1 8959   3.242   0.704  16.233  0.4077 -0.0419 -0.3248
  604MPD2    H7 8960   3.258   0.741  16.326 -0.3758 -2.2415  0.6685
  605TMC3    C1 8961   3.221   0.930  16.174 -0.0112  1.0855  0.0393
  605TMC3    C2 8962   3.292   0.958  16.292 -0.5136 -0.7473  0.2692
  605TMC3    C3 8963   3.343   1.078  16.320 -0.6941 -0.3560 -0.0205
  605TMC3    C4 8964   3.216   1.028  16.077  0.2881  0.7847  0.0628
  605TMC3    C5 8965   3.275   1.152  16.101 -0.3547 -0.6936 -0.3848
  605TMC3    C6 8966   3.338   1.179  16.223 -0.0716 -0.9101  0.2445
  605TMC3     C 8967   3.214   0.793  16.127 -0.3117 -1.4455  0.1321
  605TMC3     O 8968   3.195   0.770  16.006  0.4613  0.6879 -0.0515
  605TMC3     H 8969   3.297   0.884  16.371  1.6901 -1.4029 -0.4845
  605TMC3    H1 8970   3.160   1.011  15.986  1.1216 -0.4013 -0.2264
  605TMC3    H2 8971   3.385   1.277  16.233  1.0314 -0.9924 -3.7538
  605TMC3    C7 8972   3.223   1.250  16.017  0.4199  0.2270 -0.3847
  605TMC3    C8 8973   3.430   1.088  16.432 -0.6289 -0.3007 -0.7092
  605TMC3    O1 8974   3.195   1.213  15.904 -0.0115  0.2374  0.1891
  605TMC3    O2 8975   3.448   0.989  16.501 -0.3765 -0.9917 -0.1092
  606TMC3    C1 8976   0.430   4.164   0.303  0.3102  0.6847 -0.0927
  606TMC3    C2 8977   0.565   4.156   0.288 -1.0553  0.2225 -0.1811
  606TMC3    C3 8978   0.645   4.149   0.401  0.2129  0.0704 -0.4040
  606TMC3    C4 8979   0.367   4.162   0.425  0.1549  0.1610  0.4199
  606TMC3    C5 8980   0.451   4.164   0.534 -0.0285 -0.4767  0.3327
  606TMC3    C6 8981   0.587   4.166   0.526 -0.6435  0.5747 -0.1765
  606TMC3     C 8982   0.347   4.174   0.188 -0.0551  0.7182 -0.5037
  606TMC3     O 8983   0.416   4.181   0.088 -0.0961  0.1943  0.0112
  606TMC3     H 8984   0.607   4.122   0.194  0.1115  0.0537  0.4012
  606TMC3    H1 8985   0.260   4.149   0.440 -0.2708  0.8200 -2.0987
  606TMC3    H2 8986   0.643   4.145   0.617 -0.0381  0.3539 -0.6003
  606TMC3    C7 8987   0.401   4.153   0.667 -0.3287  0.2353  0.5179
  606TMC3    C8 8988   0.788   4.166   0.390 -0.0240 -0.5781  0.1541
  606TMC3    O1 8989   0.470   4.201   0.756 -0.5649 -0.0888 -0.3552
  606TMC3    O2 8990   0.840   4.192   0.494 -0.0620 -0.5210 -0.2103
  607MPD2     C 8991   2.343   1.898  11.398  0.3492 -0.5619 -0.3514
  607MPD2    C1 8992   2.408   1.982  11.482  0.8490 -0.5107 -0.2213
  607MPD2    C2 8993   2.356   1.996  11.607 -0.4632  0.4815  0.4301
  607MPD2    C3 8994   2.259   1.917  11.659  0.0770 -0.2063  0.6897
  607MPD2    C4 8995   2.197   1.828  11.573  0.0457  0.7003 -0.0115
  607MPD2    C5 8996   2.238   1.826  11.446  0.1146  0.8176  0.3975
  607MPD2     H 8997   2.407   2.059  11.680  2.8231 -1.8320  0.1458
  607MPD2    H1 8998   2.122   1.755  11.602  0.9015  0.1452  0.8178
  607MPD2    H2 8999   2.369   1.896  11.293  0.7686  0.5062 -0.2718
  607MPD2    H3 9000   2.187   1.758  11.379  0.2911 -0.6479  1.7473
  607MPD2     N 9001   2.235   1.935  11.797 -0.1731  0.8007  0.1043
  607MPD2    H5 9002   2.290   2.011  11.835 -1.3224  1.4361  0.5074
  607MPD2    N1 9003   2.523   2.055  11.447 -0.1496  0.1723  0.1985
  607MPD2    H7 9004   2.558   2.118  11.518  2.1964 -1.2813  0.3314
  608TMC3    C1 9005   2.725   2.098  11.347 -0.0755  0.0968  0.0504
  608TMC3    C2 9006   2.779   2.098  11.472  0.4565 -0.6401 -0.9424
  608TMC3    C3 9007   2.906   2.147  11.483 -0.3517 -0.3458 -0.0212
  608TMC3    C4 9008   2.786   2.143  11.238  0.3035  0.4911 -0.1078
  608TMC3    C5 9009   2.919   2.186  11.254  0.2418  0.1417  0.4665
  608TMC3    C6 9010   2.979   2.188  11.373 -0.1672  0.6561 -0.4229
  608TMC3     C 9011   2.590   2.045  11.333 -0.4043 -0.1623 -0.2414
  608TMC3     O 9012   2.570   1.973  11.238  0.1900 -0.1592  0.5254
  608TMC3     H 9013   2.736   2.057  11.563  0.1873 -0.0787 -0.8187
  608TMC3    H1 9014   2.728   2.143  11.147 -0.8466 -1.0521  0.6348
  608TMC3    H2 9015   3.086   2.201  11.381 -0.0859 -0.3032 -0.0313
  608TMC3    C7 9016   2.982   2.230  11.137 -0.7268  0.6496  0.2456
  608TMC3    C8 9017   2.956   2.195  11.613  0.0731 -0.3789  0.0297
  608TMC3    O1 9018   2.937   2.215  11.024 -0.3058  0.2775  0.5225
  608TMC3    O2 9019   3.079   2.216  11.615 -0.2589  0.2176  0.3822
  609TMC3    C1 9020   0.228   1.050   9.124 -1.2608 -0.3118 -0.2355
  609TMC3    C2 9021   0.274   1.175   9.102 -0.5082 -0.4992  0.4895
  609TMC3    C3 9022   0.396   1.214   9.141  0.0760  0.2632  0.5609
  609TMC3    C4 9023   0.306   0.969   9.208  0.2300 -0.2926 -0.0426
  609TMC3    C5 9024   0.422   1.018   9.255 -0.6533 -0.0307 -0.4937
  609TMC3    C6 9025   0.481   1.140   9.217  0.2756 -0.2779 -0.0417
  609TMC3     C 9026   0.086   1.024   9.144  0.0112  0.2700 -0.4313
  609TMC3     O 9027   0.042   0.952   9.232  0.1827 -0.3290  0.2277
  609TMC3     H 9028   0.210   1.258   9.076  0.2941 -0.0717 -0.0949
  609TMC3    H1 9029   0.265   0.879   9.253 -0.0160 -0.4413 -0.5639
  609TMC3    H2 9030   0.588   1.150   9.230  0.2383  2.9545 -2.4293
  609TMC3    C7 9031   0.496   0.919   9.331 -0.6280 -0.5307 -0.2199
  609TMC3    C8 9032   0.447   1.347   9.112 -0.4133 -0.1679 -0.5534
  609TMC3    O1 9033   0.448   0.807   9.339 -0.2248 -0.4482 -0.2428
  609TMC3    O2 9034   0.403   1.409   9.018 -0.0355 -0.2513  0.3826
  610TMC3    C1 9035   2.859   1.906  12.578 -0.7685  0.3127  0.5627
  610TMC3    C2 9036   2.971   1.956  12.509  0.0168  0.2265  0.2596
  610TMC3    C3 9037   3.087   1.959  12.585 -0.1361 -0.2505  0.4974
  610TMC3    C4 9038   2.866   1.858  12.709  0.5320  1.2808  0.4655
  610TMC3    C5 9039   2.990   1.850  12.766 -0.0168 -0.0625  0.9163
  610TMC3    C6 9040   3.105   1.903  12.704  0.4007 -0.6634  0.3814
  610TMC3     C 9041   2.734   1.941  12.522  0.7292  0.9811  0.0019
  610TMC3     O 9042   2.726   1.980  12.406  0.2157 -0.9189  0.5460
  610TMC3     H 9043   2.965   1.993  12.408 -1.7622  3.0247  1.3675
  610TMC3    H1 9044   2.782   1.819  12.765  1.6524 -1.0990  0.5086
  610TMC3    H2 9045   3.206   1.884  12.740  0.7428  0.0283 -0.2200
  610TMC3    C7 9046   3.013   1.771  12.885 -0.4388  0.2261  0.4075
  610TMC3    C8 9047   3.198   2.017  12.526  0.3142 -0.0729 -0.7523
  610TMC3    O1 9048   3.126   1.776  12.933 -0.3528 -0.2431  0.3337
  610TMC3    O2 9049   3.279   2.077  12.602 -1.1145 -0.1667  1.1574
  611MPD2     C 9050   2.430   1.331  10.283 -0.3767 -0.0124 -0.0125
  611MPD2    C1 9051   2.354   1.437  10.244  0.4065  0.0482  0.4567
  611MPD2    C2 9052   2.431   1.528  10.171 -0.2853 -0.4891 -0.9875
  611MPD2    C3 9053   2.559   1.509  10.133 -0.3486  0.1119  0.0119
  611MPD2    C4 9054   2.617   1.392  10.171  0.9459  0.3077 -0.2655
  611MPD2    C5 9055   2.553   1.304  10.249  0.0329 -0.3304  0.4705
  611MPD2     H 9056   2.392   1.621  10.132 -0.8581 -0.8644 -1.3093
  611MPD2    H1 9057   2.716   1.371  10.133  1.4333 -0.2767  1.3283
  611MPD2    H2 9058   2.377   1.266  10.351  2.1105 -4.0233 -1.9309
  611MPD2    H3 9059   2.601   1.216  10.290  0.1555  0.3764  1.8508
  611MPD2     N 9060   2.636   1.589  10.055  0.2132 -0.1992  0.5574
  611MPD2    H5 9061   2.730   1.557  10.033 -0.7706 -2.9719  0.3429
  611MPD2    N1 9062   2.221   1.448  10.276  0.8241  0.2982 -0.1775
  611MPD2    H7 9063   2.191   1.369  10.332  0.3435  1.0270  0.6018
  612TMC3    C1 9064   2.712   1.768   9.944  0.2244 -0.1690 -0.0889
  612TMC3    C2 9065   2.838   1.753  10.000 -0.4382 -0.3765 -0.3093
  612TMC3    C3 9066   2.939   1.840   9.955 -0.2741  0.5886 -0.3001
  612TMC3    C4 9067   2.694   1.885   9.869  0.1884 -0.5088  0.2329
  612TMC3    C5 9068   2.795   1.976   9.837  0.3842 -0.3086 -0.5697
  612TMC3    C6 9069   2.920   1.952   9.881  0.8935  0.0474 -0.3682
  612TMC3     C 9070   2.593   1.707   9.995  0.7016  0.1342  0.3444
  612TMC3     O 9071   2.486   1.763   9.984 -0.1440 -0.6596  0.1592
  612TMC3     H 9072   2.860   1.673  10.070  3.2279  0.6872 -0.2623
  612TMC3    H1 9073   2.598   1.915   9.829  0.0013 -0.2233  0.8896
  612TMC3    H2 9074   3.013   1.986   9.837 -0.2900 -1.3143 -3.9460
  612TMC3    C7 9075   2.781   2.058   9.722 -1.4462 -0.7408  0.1153
  612TMC3    C8 9076   3.075   1.818   9.988  0.0610 -0.3404 -0.5768
  612TMC3    O1 9077   2.691   2.029   9.643 -0.3719 -0.3403  0.4458
  612TMC3    O2 9078   3.143   1.919  10.001  0.2352  0.1249  0.0525
  613MPD2     C 9079   1.626   4.390  16.636 -0.7562  0.1937 -0.1492
  613MPD2    C1 9080   1.554   4.466  16.547 -0.1414  0.6526  0.2401
  613MPD2    C2 9081   1.534   4.406  16.423 -0.4220  0.1145 -0.4731
  613MPD2    C3 9082   1.578   4.281  16.385 -0.6941  0.7412 -0.0935
  613MPD2    C4 9083   1.643   4.206  16.483 -0.8840  0.3250  0.4356
  613MPD2    C5 9084   1.660   4.261  16.605 -0.3745 -0.1932  0.4410
  613MPD2     H 9085   1.485   4.467  16.348 -2.1288  0.2876  0.7730
  613MPD2    H1 9086   1.696   4.115  16.458  2.7370  2.4284  0.4648
  613MPD2    H2 9087   1.638   4.423  16.738 -1.6594  3.2593 -1.0134
  613MPD2    H3 9088   1.710   4.203  16.681 -2.1425 -2.5664 -0.1997
  613MPD2     N 9089   1.564   4.231  16.256 -0.5695 -0.9509  0.4192
  613MPD2    H5 9090   1.598   4.135  16.249 -1.5714 -1.2499 -0.4091
  613MPD2    N1 9091   1.503   4.595  16.588  0.1126  0.2180  0.8544
  613MPD2    H7 9092   1.511   4.608  16.688 -0.9125  1.1836  0.8039
  614TMC3    C1 9093   1.484   4.702  16.375  0.1276 -0.5136  0.2601
  614TMC3    C2 9094   1.614   4.685  16.332 -0.5893  0.2001  0.0280
  614TMC3    C3 9095   1.648   4.694  16.204  0.5041  0.0394  0.3068
  614TMC3    C4 9096   1.386   0.018  16.287  0.2088 -0.0346 -0.2713
  614TMC3    C5 9097   1.418   0.019  16.153  0.1509 -0.3125  0.5077
  614TMC3    C6 9098   1.549   4.707  16.109  0.5888  0.2089 -0.2520
  614TMC3     C 9099   1.452   4.702  16.515 -0.2256 -0.7262  0.2356
  614TMC3     O 9100   1.368   0.060  16.557 -0.3897 -0.2080  0.1885
  614TMC3     H 9101   1.686   4.663  16.410 -1.8542  0.7568  1.3596
  614TMC3    H1 9102   1.292   0.046  16.334  1.2020  2.9829 -0.1206
  614TMC3    H2 9103   1.583   0.010  16.008 -0.4621  0.5583 -0.5315
  614TMC3    C7 9104   1.324   0.095  16.067  0.0622  0.5660 -0.2851
  614TMC3    C8 9105   1.773   4.638  16.184  1.4653 -0.3824  0.0217
  614TMC3    O1 9106   1.234   0.150  16.126 -0.2621  0.1896 -0.2814
  614TMC3    O2 9107   1.862   4.656  16.271 -0.5552  0.4730  0.9948
  615MPD2     C 9108   0.829   0.946  16.365 -0.5604 -0.1921 -0.2471
  615MPD2    C1 9109   0.778   1.079  16.340 -0.1442  0.2777 -0.3066
  615MPD2    C2 9110   0.708   1.101  16.224  0.4576 -0.9198 -0.3014
  615MPD2    C3 9111   0.694   0.999  16.124  0.6163  0.1203  0.7969
  615MPD2    C4 9112   0.731   0.870  16.163 -0.2211 -0.2264  0.3123
  615MPD2    C5 9113   0.806   0.845  16.278 -0.0241  0.0227 -0.2468
  615MPD2     H 9114   0.666   1.200  16.207  1.2158 -0.5131  0.1684
  615MPD2    H1 9115   0.718   0.785  16.098  1.9558 -1.2185  1.2049
  615MPD2    H2 9116   0.874   0.917  16.460  0.9305 -0.1205 -0.9291
  615MPD2    H3 9117   0.839   0.744  16.302 -1.0001 -0.4645 -0.9527
  615MPD2     N 9118   0.622   1.018  16.001 -0.1330  0.1981  0.2644
  615MPD2    H5 9119   0.573   0.939  15.960 -0.8910 -0.1075  1.7402
  615MPD2    N1 9120   0.779   1.188  16.433 -0.0546  0.4195 -0.0232
  615MPD2    H7 9121   0.714   1.263  16.412 -2.0222 -1.3747 -0.4218
  616TMC3    C1 9122   0.829   1.288  16.634 -0.8451  0.4912  0.1289
  616TMC3    C2 9123   0.937   1.346  16.692  0.7622  0.5321 -0.2682
  616TMC3    C3 9124   0.912   1.451  16.773  0.1688  0.0208 -0.1500
  616TMC3    C4 9125   0.700   1.334  16.636  0.2883  0.1294 -0.2296
  616TMC3    C5 9126   0.686   1.441  16.723 -0.5542 -0.0553  0.1176
  616TMC3    C6 9127   0.788   1.494  16.793 -0.5017 -0.2085  0.3850
  616TMC3     C 9128   0.857   1.179  16.542 -0.1012 -0.1426 -0.8632
  616TMC3     O 9129   0.950   1.103  16.577  0.4691  0.8097  0.7320
  616TMC3     H 9130   1.031   1.294  16.681  0.7753  0.8319 -1.4769
  616TMC3    H1 9131   0.622   1.286  16.577  0.8108 -2.2876  1.0195
  616TMC3    H2 9132   0.763   1.579  16.856  3.0529 -0.9779  2.8269
  616TMC3    C7 9133   0.550   1.478  16.766 -0.8129 -0.0785 -0.3739
  616TMC3    C8 9134   1.011   1.507  16.866 -0.2361  0.0370 -0.3614
  616TMC3    O1 9135   0.536   1.570  16.845  0.1241 -0.4223 -0.4343
  616TMC3    O2 9136   0.976   1.558  16.969 -0.4605  0.5236 -0.8103
  617MPD2     C 9137   3.293   3.802  13.820  0.0926 -0.4409 -0.9759
  617MPD2    C1 9138   3.323   3.727  13.933  0.1888  0.9071 -0.5478
  617MPD2    C2 9139   3.217   3.668  14.000  0.1614 -0.5919  0.0595
  617MPD2    C3 9140   3.084   3.670  13.956 -0.6221  0.0374  0.0088
  617MPD2    C4 9141   3.055   3.738  13.838 -0.1504  0.0023 -0.0785
  617MPD2    C5 9142   3.158   3.812  13.781  0.4160  0.2225  0.3312
  617MPD2     H 9143   3.250   3.603  14.081 -0.2997  1.3433  1.7921
  617MPD2    H1 9144   2.960   3.720  13.789 -0.0129  0.7249 -0.6148
  617MPD2    H2 9145   3.364   3.862  13.764 -0.4054  0.6178 -0.4588
  617MPD2    H3 9146   3.130   3.879  13.700  1.6538 -2.2707 -2.1680
  617MPD2     N 9147   2.982   3.590  14.007  0.7681  0.0592 -0.5252
  617MPD2    H5 9148   2.887   3.616  13.984  0.7039 -1.0060 -1.4356
  617MPD2    N1 9149   3.457   3.715  13.975  0.2851 -0.2276 -0.2908
  617MPD2    H7 9150   3.530   3.750  13.916  1.0290  0.7322  1.2039
  618TMC3    C1 9151   3.649   3.646  14.077  0.2281  0.8100 -0.7680
  618TMC3    C2 9152   3.712   3.551  13.997  0.2119 -0.6113 -0.3282
  618TMC3    C3 9153   3.847   3.536  14.004 -0.0855  0.4898 -0.5263
  618TMC3    C4 9154   3.721   3.733  14.154  0.8078  0.9337  0.6412
  618TMC3    C5 9155   3.859   3.709  14.161 -0.3129 -0.0536 -0.2063
  618TMC3    C6 9156   3.924   3.603  14.100  0.1994 -0.0169  0.2884
  618TMC3     C 9157   3.502   3.657  14.088  0.7398  0.0158 -0.1760
  618TMC3     O 9158   3.448   3.625  14.194 -0.5059 -0.7191  0.1117
  618TMC3     H 9159   3.648   3.479  13.949 -0.3560  0.0061 -0.4990
  618TMC3    H1 9160   3.671   3.803  14.220 -0.3219  2.3984 -1.7765
  618TMC3    H2 9161   4.031   3.591  14.108  0.0520 -1.8946 -0.5621
  618TMC3    C7 9162   3.938   3.820  14.217 -0.0642  0.3621 -0.2131
  618TMC3    C8 9163   3.903   3.459  13.895  0.6861  1.3292  0.1132
  618TMC3    O1 9164   3.908   3.860  14.331  0.3116  0.2099 -0.5093
  618TMC3    O2 9165   3.828   3.374  13.846 -0.2992 -0.5126  0.8052
  619MPD2     C 9166   0.211   0.462  13.543 -0.5278 -0.2549  0.0929
  619MPD2    C1 9167   0.172   0.525  13.426  0.1054  0.2650  0.0161
  619MPD2    C2 9168   0.040   0.506  13.392 -0.0704 -0.0119  0.5638
  619MPD2    C3 9169   4.674   0.431  13.466  0.1403  0.3897 -0.7282
  619MPD2    C4 9170   4.717   0.363  13.575  0.3043 -0.5785 -0.0157
  619MPD2    C5 9171   0.122   0.381  13.612 -0.1605 -0.3913 -0.4600
  619MPD2     H 9172   4.720   0.572  13.316 -0.1350  0.9720  1.4615
  619MPD2    H1 9173   4.657   0.302  13.642 -1.0619  0.0519 -0.6553
  619MPD2    H2 9174   0.308   0.475  13.588  0.7586 -0.6298 -2.5890
  619MPD2    H3 9175   0.165   0.322  13.692 -0.5107 -1.9032 -1.3834
  619MPD2     N 9176   4.538   0.409  13.429  0.4745 -0.4761 -0.4701
  619MPD2    H5 9177   4.487   0.351  13.495  1.1978 -2.7171 -1.9035
  619MPD2    N1 9178   0.256   0.607  13.345  0.0728  0.1840  0.1146
  619MPD2    H7 9179   0.212   0.647  13.262 -1.4899 -1.0244  0.3709
  620TMC3    C1 9180   0.440   0.753  13.281  0.1839 -0.6313 -0.0963
  620TMC3    C2 9181   0.382   0.760  13.157 -0.2541  0.2098  0.3912
  620TMC3    C3 9182   0.390   0.878  13.089  0.1265 -0.0777  0.0192
  620TMC3    C4 9183   0.505   0.855  13.342  0.5735  0.4911  0.2268
  620TMC3    C5 9184   0.518   0.969  13.265  0.1547 -0.5175 -1.0710
  620TMC3    C6 9185   0.461   0.979  13.147 -0.0380  0.1008  0.2560
  620TMC3     C 9186   0.385   0.649  13.372 -0.2196  0.1897  0.1119
  620TMC3     O 9187   0.456   0.616  13.464 -0.1073 -0.9404 -0.1394
  620TMC3     H 9188   0.334   0.677  13.106 -0.8960  1.9613 -1.8638
  620TMC3    H1 9189   0.560   0.845  13.435 -1.1433  3.7716  1.5812
  620TMC3    H2 9190   0.480   1.073  13.095 -0.9407 -0.0892 -0.4162
  620TMC3    C7 9191   0.556   1.097  13.329 -0.5277  0.5065  0.1216
  620TMC3    C8 9192   0.257   0.931  13.087  0.3344 -0.0632 -0.1820
  620TMC3    O1 9193   0.568   1.191  13.256 -0.5590 -0.5734 -0.5452
  620TMC3    O2 9194   0.165   0.847  13.079  0.0302 -0.1145  0.4430
  621MPD2     C 9195   4.485   0.517  10.219 -0.5676  0.0914  0.0844
  621MPD2    C1 9196   4.604   0.478  10.158 -0.3252 -0.3161 -0.5371
  621MPD2    C2 9197   4.620   0.508  10.024  0.3923  0.0583  0.5473
  621MPD2    C3 9198   4.516   0.558   9.945  0.2838 -0.4639  0.5385
  621MPD2    C4 9199   4.400   0.590  10.000 -0.5584 -0.2185 -0.0795
  621MPD2    C5 9200   4.384   0.571  10.136 -0.7330 -0.5033  0.2396
  621MPD2     H 9201   4.714   0.474   9.982 -0.7633 -0.9775 -1.1582
  621MPD2    H1 9202   4.318   0.640   9.948  1.1794  1.1818 -1.4678
  621MPD2    H2 9203   4.453   0.489  10.318  1.9434  0.1145  0.8992
  621MPD2    H3 9204   4.291   0.592  10.187 -1.0838  0.2064 -0.6988
  621MPD2     N 9205   4.549   0.596   9.812 -0.0339  0.6880  0.1219
  621MPD2    H5 9206   4.643   0.579   9.780 -0.3889  0.8170 -0.9885
  621MPD2    N1 9207   4.699   0.389  10.217  0.4753 -0.2656  0.7690
  621MPD2    H7 9208   0.046   0.360  10.148  0.4188 -1.1572  1.0924
  622TMC3    C1 9209   0.062   0.243  10.372  0.2731  0.3761 -0.9674
  622TMC3    C2 9210   0.048   0.198  10.495  0.0587 -0.2781  0.7511
  622TMC3    C3 9211   0.062   0.067  10.519  0.3981 -0.0267 -0.2013
  622TMC3    C4 9212   0.081   0.152  10.270  1.1638 -0.6167 -0.4285
  622TMC3    C5 9213   0.109   0.022  10.294 -0.7583  0.4100 -0.4251
  622TMC3    C6 9214   0.104   4.696  10.425 -0.6013  0.0764  0.1536
  622TMC3     C 9215   4.680   0.338  10.336 -0.1918  0.2703 -0.1058
  622TMC3     O 9216   4.609   0.376  10.423  0.4052 -0.2754  1.0101
  622TMC3     H 9217   0.022   0.263  10.578  2.4069  0.9961  0.4987
  622TMC3    H1 9218   0.072   0.174  10.164  0.4074  0.7996 -0.0670
  622TMC3    H2 9219   0.121   4.591  10.445  0.8083  0.2108 -0.3113
  622TMC3    C7 9220   0.182   4.649  10.202 -0.2056  0.9270  0.5996
  622TMC3    C8 9221   4.690   0.005  10.605  0.5558 -0.8615  0.1163
  622TMC3    O1 9222   0.249   4.559  10.251  0.3437 -0.1769  0.0249
  622TMC3    O2 9223   4.689   4.601  10.600  0.2915  0.2662  0.0736
  623MPD2     C 9224   3.736   0.476  16.074 -0.9003  0.3127 -0.0557
  623MPD2    C1 9225   3.723   0.599  16.133  0.8016  0.5160  0.4914
  623MPD2    C2 9226   3.789   0.628  16.255  0.4462  0.2747 -0.3062
  623MPD2    C3 9227   3.859   0.527  16.319  0.1167 -0.2296 -0.3707
  623MPD2    C4 9228   3.857   0.402  16.260  0.3802 -0.3585  0.3997
  623MPD2    C5 9229   3.798   0.378  16.141 -0.3613  0.0781 -0.2323
  623MPD2     H 9230   3.784   0.723  16.307  0.7893 -0.1286  0.4703
  623MPD2    H1 9231   3.904   0.320  16.315  0.3876 -2.3106 -2.5459
  623MPD2    H2 9232   3.680   0.444  15.987  0.1809  3.9581 -2.0458
  623MPD2    H3 9233   3.792   0.278  16.098  0.7027 -0.3603  0.6356
  623MPD2     N 9234   3.920   0.561  16.441  0.1745 -0.3857  0.8684
  623MPD2    H5 9235   3.899   0.657  16.464  1.2225 -0.2394  1.1883
  623MPD2    N1 9236   3.646   0.702  16.066 -0.1683  0.2559 -0.1711
  623MPD2    H7 9237   3.614   0.689  15.971 -2.9240 -2.0471  1.0558
  624TMC3    C1 9238   4.215   0.724  16.681 -0.2804 -0.2538  1.4563
  624TMC3    C2 9239   4.124   0.825  16.700 -0.1864 -0.7179 -0.3826
  624TMC3    C3 9240   3.993   0.804  16.674 -0.2725 -0.4389  0.8457
  624TMC3    C4 9241   4.176   0.599  16.629 -0.8495 -0.0078  0.4318
  624TMC3    C5 9242   4.042   0.577  16.626  0.0064 -0.3899  0.1382
  624TMC3    C6 9243   3.952   0.677  16.655  0.2026 -0.2830  0.1381
  624TMC3     C 9244   4.354   0.760  16.705 -0.4308 -0.1855 -0.2846
  624TMC3     O 9245   4.372   0.859  16.777  0.3367  0.2222 -0.0799
  624TMC3     H 9246   4.170   0.923  16.705 -0.8013 -0.3762 -1.5083
  624TMC3    H1 9247   4.249   0.520  16.620 -0.0791  0.5211  1.9459
  624TMC3    H2 9248   3.847   0.653  16.663  0.3042 -0.2564  1.4358
  624TMC3    C7 9249   3.995   0.485  16.529  0.2698  0.5197 -0.0973
  624TMC3    C8 9250   3.907   0.902  16.600  0.7333  0.1610 -0.2737
  624TMC3    O1 9251   4.053   0.379  16.518  0.1924  0.0576  0.0105
  624TMC3    O2 9252   3.809   0.852  16.548  0.4577  0.2638 -0.0054
  625MPD2     C 9253   4.460   3.057   0.928 -0.6945 -0.2917 -0.2187
  625MPD2    C1 9254   4.515   3.000   0.818 -0.3593  0.8227  0.7009
  625MPD2    C2 9255   4.630   3.053   0.770  0.6190 -0.0291 -0.3169
  625MPD2    C3 9256   4.705   3.143   0.851  0.3380 -0.0160 -0.1978
  625MPD2    C4 9257   4.652   3.188   0.970 -0.4686  0.0706 -0.0071
  625MPD2    C5 9258   4.522   3.150   1.005 -0.4850  0.4045  0.5870
  625MPD2     H 9259   4.676   3.024   0.676  2.3278 -2.4378  1.2680
  625MPD2    H1 9260   4.699   3.272   1.021  1.4171 -1.6031  1.0077
  625MPD2    H2 9261   4.362   3.024   0.960 -0.0341 -0.4047  1.6866
  625MPD2    H3 9262   4.464   3.203   1.080 -2.3015  0.9352 -1.1973
  625MPD2     N 9263   0.119   3.157   0.817 -0.1822 -0.2889  0.5522
  625MPD2    H5 9264   0.159   3.109   0.737 -0.9586 -0.2991  0.1670
  625MPD2    N1 9265   4.455   2.900   0.742 -0.3650  0.7253  0.0392
  625MPD2    H7 9266   4.494   2.893   0.648 -0.3859  1.0554  0.0046
  626TMC3    C1 9267   4.324   2.707   0.706  0.4250  0.3733 -0.2338
  626TMC3    C2 9268   4.286   2.745   0.582  0.3796  0.0565  0.0109
  626TMC3    C3 9269   4.205   2.664   0.500 -0.0369  0.9696 -0.3704
  626TMC3    C4 9270   4.280   2.586   0.759  0.3780 -0.7214  0.5480
  626TMC3    C5 9271   4.192   2.513   0.676  1.0489 -0.7933  0.1434
  626TMC3    C6 9272   4.173   2.542   0.546 -0.0263 -0.5767  0.1868
  626TMC3     C 9273   4.365   2.807   0.799  0.2016  0.4664 -0.3992
  626TMC3     O 9274   4.321   2.792   0.911 -0.4321 -0.5268 -0.2554
  626TMC3     H 9275   4.290   2.849   0.553 -0.5686 -0.4223 -1.8182
  626TMC3    H1 9276   4.293   2.569   0.865 -0.6968  0.9068  0.9440
  626TMC3    H2 9277   4.116   2.476   0.482 -1.5737 -1.0497  2.0575
  626TMC3    C7 9278   4.139   2.389   0.737 -0.0519 -0.0584 -0.2530
  626TMC3    C8 9279   4.183   2.711   0.360  0.1812  0.7142  0.5987
  626TMC3    O1 9280   4.208   2.336   0.823 -0.3421  0.4118 -0.0178
  626TMC3    O2 9281   4.263   2.792   0.319  0.3313 -0.1845  0.5486
  627MPD2     C 9282   3.421   2.157  14.728 -0.0404 -0.1340 -0.2113
  627MPD2    C1 9283   3.349   2.243  14.645 -0.1115 -1.0592  0.8687
  627MPD2    C2 9284   3.256   2.190  14.555  0.2044  0.6242  0.5026
  627MPD2    C3 9285   3.239   2.055  14.552 -0.1077 -0.4080  0.2083
  627MPD2    C4 9286   3.314   1.970  14.628 -0.3697  0.1974 -0.1561
  627MPD2    C5 9287   3.404   2.019  14.713  0.6426 -0.3857  0.1947
  627MPD2     H 9288   3.185   2.243  14.494 -0.1684 -0.6127 -0.1402
  627MPD2    H1 9289   3.297   1.863  14.635  1.6992 -0.2204 -1.6750
  627MPD2    H2 9290   3.481   2.193  14.811  1.4597  0.1743 -1.4249
  627MPD2    H3 9291   3.449   1.948  14.782 -0.6007 -0.5438  0.8474
  627MPD2     N 9292   3.131   2.001  14.476  0.5384  0.3778  0.1226
  627MPD2    H5 9293   3.077   2.072  14.426  1.3451 -0.2788 -1.6482
  627MPD2    N1 9294   3.359   2.385  14.648  0.0956 -0.7424 -0.2534
  627MPD2    H7 9295   3.293   2.434  14.588  0.0106 -2.0605 -1.2199
  628TMC3    C1 9296   3.450   2.595  14.719  0.1020  0.4039 -0.1182
  628TMC3    C2 9297   3.537   2.665  14.793  0.0581 -0.0227  0.9303
  628TMC3    C3 9298   3.520   2.804  14.810 -0.3453  0.1612  0.1332
  628TMC3    C4 9299   3.339   2.656  14.662 -0.4634 -0.0825 -0.9579
  628TMC3    C5 9300   3.331   2.794  14.676  0.1822 -0.5627 -1.0231
  628TMC3    C6 9301   3.426   2.869  14.735 -0.6109  1.1433 -0.1306
  628TMC3     C 9302   3.468   2.454  14.699 -0.4995 -0.0344  0.5623
  628TMC3     O 9303   3.574   2.409  14.739 -0.4681 -0.2192  0.6075
  628TMC3     H 9304   3.611   2.601  14.840 -0.3110 -2.2874 -1.6099
  628TMC3    H1 9305   3.255   2.597  14.628  1.0711 -2.0581 -1.3204
  628TMC3    H2 9306   3.421   2.977  14.739 -0.7230  1.1565 -0.6434
  628TMC3    C7 9307   3.225   2.869  14.608 -0.0034  0.4372  0.0003
  628TMC3    C8 9308   3.584   2.882  14.913 -0.0152 -0.7225 -0.8671
  628TMC3    O1 9309   3.211   2.990  14.627 -0.2961  0.0003  0.5862
  628TMC3    O2 9310   3.524   2.974  14.964 -0.1750 -0.1392  0.4702
  629MPD2     C 9311   1.483   1.583  17.042 -0.3529  0.2045  0.1625
  629MPD2    C1 9312   1.493   1.527  16.912  0.0573 -0.7286 -0.3125
  629MPD2    C2 9313   1.375   1.499  16.848 -0.4271 -0.2340 -0.1546
  629MPD2    C3 9314   1.256   1.511  16.910  0.2160  0.2813  0.4770
  629MPD2    C4 9315   1.248   1.534  17.046  0.4676  0.5727  0.4866
  629MPD2    C5 9316   1.364   1.577  17.116  0.4102  0.2770  0.3595
  629MPD2     H 9317   1.380   1.464  16.746 -0.6329 -0.8986  0.0691
  629MPD2    H1 9318   1.154   1.538  17.099  0.2080  0.2098  0.0554
  629MPD2    H2 9319   1.574   1.618  17.089  0.5590  1.6368 -2.6508
  629MPD2    H3 9320   1.360   1.602  17.221 -3.5253  3.5458 -0.5609
  629MPD2     N 9321   1.142   1.483  16.827 -0.5573 -0.1880 -0.6966
  629MPD2    H5 9322   1.155   1.459  16.730 -1.4281  0.3541 -0.9545
  629MPD2    N1 9323   1.616   1.524  16.841  0.2041 -1.0704 -0.3467
  629MPD2    H7 9324   1.698   1.542  16.898 -1.3203  1.6002  0.9649
  630TMC3    C1 9325   1.766   1.485  16.664  0.4243  0.8333 -0.1334
  630TMC3    C2 9326   1.801   1.526  16.542 -0.4044  0.2761 -0.1337
  630TMC3    C3 9327   1.934   1.504  16.502 -0.1905  0.4318  0.3054
  630TMC3    C4 9328   1.851   1.418  16.753  0.7324 -0.6734 -0.3461
  630TMC3    C5 9329   1.971   1.382  16.707  0.4211  0.1569  0.1782
  630TMC3    C6 9330   2.014   1.427  16.581  0.5975  0.2483 -0.2339
  630TMC3     C 9331   1.633   1.513  16.703  0.7041  0.4372 -0.1459
  630TMC3     O 9332   1.558   1.541  16.610 -0.1784  0.0764  0.3689
  630TMC3     H 9333   1.732   1.579  16.477 -2.7366  0.1738  2.2776
  630TMC3    H1 9334   1.811   1.360  16.836  0.0707  0.7805  0.3589
  630TMC3    H2 9335   2.107   1.387  16.542 -0.3973  0.3746 -2.7434
  630TMC3    C7 9336   2.047   1.289  16.777 -0.5104 -0.4685  1.1264
  630TMC3    C8 9337   1.994   1.574  16.393 -0.0887 -0.3193  0.0102
  630TMC3    O1 9338   1.982   1.219  16.859  0.9633 -0.3114 -0.7223
  630TMC3    O2 9339   2.113   1.543  16.374 -0.1572 -0.2847  0.3464
  631MPD2     C 9340   4.710   0.624  15.388  0.0979  0.2352 -0.5850
  631MPD2    C1 9341   0.020   0.737  15.311 -0.4542  0.9039  0.5868
  631MPD2    C2 9342   0.114   0.826  15.361 -0.2495  0.0825 -0.3204
  631MPD2    C3 9343   0.168   0.809  15.488  0.1781 -1.2840  0.3267
  631MPD2    C4 9344   0.137   0.698  15.558  0.4120  0.2428 -0.4237
  631MPD2    C5 9345   0.042   0.611  15.511  0.7240  0.0859  0.3535
  631MPD2     H 9346   0.130   0.919  15.309  2.5961 -0.3385 -0.2107
  631MPD2    H1 9347   0.165   0.695  15.662  0.9247 -0.7771 -0.5863
  631MPD2    H2 9348   4.644   0.546  15.352  0.3843 -0.5082  0.4662
  631MPD2    H3 9349   0.010   0.528  15.574 -0.3751 -0.8155 -1.3855
  631MPD2     N 9350   0.251   0.913  15.536  0.8246  0.0956 -0.2186
  631MPD2    H5 9351   0.242   1.007  15.499 -0.2471  0.7769  1.7985
  631MPD2    N1 9352   4.682   0.749  15.185 -0.3285 -0.6284  0.4120
  631MPD2    H7 9353   4.592   0.702  15.175 -0.4905 -0.0182 -1.0049
  632TMC3    C1 9354   4.637   0.874  14.975 -0.3266 -0.8103  0.3474
  632TMC3    C2 9355   4.514   0.921  15.022 -1.1395  0.0292 -0.3063
  632TMC3    C3 9356   4.449   1.035  14.971  0.1835  0.3279  0.4581
  632TMC3    C4 9357   4.695   0.942  14.873 -0.1530 -0.2634  0.3473
  632TMC3    C5 9358   4.624   1.048  14.820  0.2178  0.0132  0.0647
  632TMC3    C6 9359   4.509   1.102  14.870  0.5215  0.0818  0.0824
  632TMC3     C 9360   0.009   0.835  15.082 -0.2304 -0.1368 -0.6582
  632TMC3     O 9361   0.114   0.901  15.084 -0.4257 -0.3117 -0.1832
  632TMC3     H 9362   4.489   0.888  15.123  1.2778  1.8241  0.8717
  632TMC3    H1 9363   0.078   0.926  14.848 -0.6562 -0.5960 -1.5830
  632TMC3    H2 9364   4.478   1.200  14.836  1.4233  0.1964 -0.3945
  632TMC3    C7 9365   4.688   1.134  14.721 -0.2972 -0.3371 -0.8488
  632TMC3    C8 9366   4.362   1.103  15.059 -0.7430  0.4065 -0.1197
  632TMC3    O1 9367   4.615   1.197  14.642  0.3766 -0.6960  0.1771
  632TMC3    O2 9368   4.383   1.223  15.071 -0.4472 -0.4035  0.1202
  633MPD2     C 9369   4.147   4.579   0.170 -0.1415 -0.2179  0.6399
  633MPD2    C1 9370   4.138   4.445   0.133 -0.0439  0.0572 -0.0742
  633MPD2    C2 9371   4.135   4.349   0.234 -0.3061  0.0931 -0.6550
  633MPD2    C3 9372   4.142   4.381   0.368  0.3635  0.6057 -0.0742
  633MPD2    C4 9373   4.148   4.515   0.403  0.0564  0.4718 -0.2042
  633MPD2    C5 9374   4.144   4.614   0.304  0.1154  0.1467  0.6117
  633MPD2     H 9375   4.116   4.247   0.202 -1.5594  0.6985 -1.8799
  633MPD2    H1 9376   4.152   4.549   0.505  2.8769  0.8899 -0.4552
  633MPD2    H2 9377   4.131   4.664   0.105  0.3158  0.5350  1.5276
  633MPD2    H3 9378   4.144   4.720   0.326 -2.8654  0.4992 -1.0019
  633MPD2     N 9379   4.144   4.289   0.472 -0.1748 -0.3165  0.6586
  633MPD2    H5 9380   4.129   4.332   0.562  1.5045 -0.8597  1.1975
  633MPD2    N1 9381   4.104   4.391   0.003 -1.0228 -0.4700  0.2564
  633MPD2    H7 9382   4.095   4.289   0.001  0.5907 -0.6418  1.9128
  634TMC3    C1 9383   4.130   4.387  17.459  0.0810 -0.4762 -0.4751
  634TMC3    C2 9384   4.217   4.285  17.461 -0.4623 -0.1515 -0.2057
  634TMC3    C3 9385   4.275   4.236  17.344 -0.1854  0.1593 -0.1333
  634TMC3    C4 9386   4.101   4.452  17.339  0.1744 -0.4686  0.3821
  634TMC3    C5 9387   4.170   4.411  17.227 -0.3992  0.3447  0.2389
  634TMC3    C6 9388   4.258   4.301  17.225  0.2489  0.8340  0.0676
  634TMC3     C 9389   4.097   4.462  17.578  0.4103  0.1986 -0.3730
  634TMC3     O 9390   4.065   4.576  17.568  0.8270  0.6666  0.0685
  634TMC3     H 9391   4.258   4.245  17.554 -0.0816 -3.2443 -1.7028
  634TMC3    H1 9392   4.016   4.517  17.326  0.2451 -0.4818 -0.1824
  634TMC3    H2 9393   4.297   4.267  17.129  1.1555  0.6809  0.4921
  634TMC3    C7 9394   4.148   4.487  17.100  0.2819 -0.0285  0.0343
  634TMC3    C8 9395   4.384   4.136  17.355 -0.1042 -0.2579 -0.3740
  634TMC3    O1 9396   4.209   4.440  17.003 -0.2098  0.3615 -0.3201
  634TMC3    O2 9397   4.367   4.055  17.450 -0.6829 -0.7601 -0.2332
  635TMC3    C1 9398   0.573   0.538  17.053  0.4282  0.0539  0.4507
  635TMC3    C2 9399   0.708   0.497  17.069  0.0210 -0.1396  0.4143
  635TMC3    C3 9400   0.727   0.360  17.062 -0.1125 -0.4274  0.5968
  635TMC3    C4 9401   0.471   0.445  17.068  0.5356  0.5889 -0.2070
  635TMC3    C5 9402   0.495   0.314  17.071 -1.4358  0.1213 -0.1996
  635TMC3    C6 9403   0.624   0.268  17.062 -0.3283  0.0965  0.3924
  635TMC3     C 9404   0.530   0.676  17.090  0.6129 -0.3050  0.3900
  635TMC3     O 9405   0.410   0.694  17.102  1.0920  0.3816  0.7305
  635TMC3     H 9406   0.789   0.560  17.033 -0.3039 -0.0106 -0.1000
  635TMC3    H1 9407   0.368   0.470  17.045  0.8101  0.3406 -1.7186
  635TMC3    H2 9408   0.648   0.163  17.049  0.0149  0.2073  0.1232
  635TMC3    C7 9409   0.395   0.226  17.120  0.2781  0.3077  0.3114
  635TMC3    C8 9410   0.856   0.314  17.021  0.3538 -0.4961  0.1772
  635TMC3    O1 9411   0.288   0.267  17.155  0.0327 -0.2538 -0.2387
  635TMC3    O2 9412   0.853   0.200  16.976 -0.3450  0.1727  0.1497
  636MPD2     C 9413   0.880   4.517  15.571 -0.4704 -0.4056 -0.4985
  636MPD2    C1 9414   0.896   4.536  15.701  0.0522 -0.1224 -0.0227
  636MPD2    C2 9415   1.011   4.485  15.761  0.0776 -0.3833  0.4172
  636MPD2    C3 9416   1.100   4.407  15.695 -0.0955 -0.8202 -0.6416
  636MPD2    C4 9417   1.073   4.381  15.564  0.5319  0.3152  0.2653
  636MPD2    C5 9418   0.962   4.439  15.503 -0.2888  0.1103 -0.4350
  636MPD2     H 9419   1.020   4.519  15.864  1.3012 -0.1594  0.2323
  636MPD2    H1 9420   1.138   4.327  15.495  1.2180  0.9878  0.3768
  636MPD2    H2 9421   0.800   4.565  15.514 -1.5860  0.4071  1.7344
  636MPD2    H3 9422   0.948   4.424  15.397  1.2913 -1.6903 -0.3887
  636MPD2     N 9423   1.218   4.357  15.766 -0.0988  0.4695 -0.2978
  636MPD2    H5 9424   1.235   4.386  15.861 -1.9839 -0.1373  0.2215
  636MPD2    N1 9425   0.804   4.610  15.782  0.2913 -0.4065  0.3739
  636MPD2    H7 9426   0.828   4.605  15.880  0.2505 -0.1869  0.3964
  637TMC3    C1 9427   1.415   4.228  15.818  0.2386 -0.0707  0.1710
  637TMC3    C2 9428   1.390   4.234  15.950 -0.3773 -0.3264 -0.1802
  637TMC3    C3 9429   1.490   4.198  16.033 -0.7454  0.2621  0.2332
  637TMC3    C4 9430   1.534   4.182  15.767  0.3707  0.2657  0.5064
  637TMC3    C5 9431   1.631   4.137  15.861 -0.2955  0.7880  0.1804
  637TMC3    C6 9432   1.612   4.148  15.992 -0.6429  0.3444 -0.2180
  637TMC3     C 9433   1.319   4.279  15.719 -0.6400 -0.5177  0.1842
  637TMC3     O 9434   1.347   4.252  15.600 -0.0727 -0.4730  0.4820
  637TMC3     H 9435   1.296   4.277  15.983  1.3298  1.1819  2.6760
  637TMC3    H1 9436   1.568   4.187  15.664 -2.6406 -0.7953 -0.5338
  637TMC3    H2 9437   1.685   4.129  16.070 -2.2077 -1.4953  0.8101
  637TMC3    C7 9438   1.760   4.102  15.806  0.4631  0.1245 -0.2663
  637TMC3    C8 9439   1.494   4.287  16.150 -0.3642  0.3310  0.3195
  637TMC3    O1 9440   1.748   4.030  15.712 -0.2451 -0.9607  0.3368
  637TMC3    O2 9441   1.421   4.387  16.150  0.0659  0.1367  0.1755
  638MPD2     C 9442   0.861   3.118  14.588  0.4528  0.0238  0.5583
  638MPD2    C1 9443   0.784   3.013  14.546  0.0862 -0.8325 -0.0237
  638MPD2    C2 9444   0.702   2.957  14.639  0.7843  0.4738 -0.1105
  638MPD2    C3 9445   0.696   2.988  14.774  0.4445  0.4179 -0.6754
  638MPD2    C4 9446   0.784   3.088  14.812  0.9852 -0.4039 -0.7442
  638MPD2    C5 9447   0.857   3.158  14.722  0.2561 -0.2983  0.1946
  638MPD2     H 9448   0.642   2.870  14.614  2.4322 -0.4184 -0.9215
  638MPD2    H1 9449   0.796   3.136  14.909  1.6180 -0.4470 -0.8042
  638MPD2    H2 9450   0.922   3.175  14.518 -0.7558 -1.8818 -2.0332
  638MPD2    H3 9451   0.920   3.244  14.743  1.3915 -1.0404 -0.2312
  638MPD2     N 9452   0.619   2.910  14.861  0.3718  0.6959 -0.0702
  638MPD2    H5 9453   0.559   2.836  14.828 -0.2837  1.5098 -0.6964
  638MPD2    N1 9454   0.801   2.971  14.413  0.4382 -0.5676  0.2699
  638MPD2    H7 9455   0.868   3.025  14.359  0.3153  0.3300  1.0097
  639TMC3    C1 9456   0.531   2.833  15.079  0.3366  0.1373 -0.2029
  639TMC3    C2 9457   0.427   2.774  15.027  0.5691 -0.3175 -0.5850
  639TMC3    C3 9458   0.360   2.683  15.108  0.4030 -0.1121  0.5259
  639TMC3    C4 9459   0.589   2.789  15.196 -0.7555  0.0249 -0.7200
  639TMC3    C5 9460   0.540   2.683  15.259  0.5338 -0.2678 -0.0347
  639TMC3    C6 9461   0.419   2.631  15.217  0.5144  0.1832  0.5360
  639TMC3     C 9462   0.618   2.930  15.002 -0.2003 -0.5624  0.3609
  639TMC3     O 9463   0.674   3.019  15.067 -0.4477 -0.2442 -0.9624
  639TMC3     H 9464   0.390   2.812  14.932  0.0967  1.8548  0.4756
  639TMC3    H1 9465   0.677   2.846  15.227 -0.5533 -0.0474 -1.1647
  639TMC3    H2 9466   0.386   2.537  15.260  0.9604 -1.1551 -2.0636
  639TMC3    C7 9467   0.623   2.589  15.323  0.8695  0.5468  0.0490
  639TMC3    C8 9468   0.268   2.591  15.037 -0.3720  0.2962 -0.3009
  639TMC3    O1 9469   0.573   2.510  15.399 -0.5062 -0.3758 -0.3856
  639TMC3    O2 9470   0.276   2.582  14.918  0.4570 -0.4106  0.4150
  640MPD2     C 9471   0.423   2.102   9.132  0.3445  0.5930 -0.2376
  640MPD2    C1 9472   0.463   2.144   9.259  0.1697 -0.3812 -0.0358
  640MPD2    C2 9473   0.510   2.282   9.271  0.0924 -0.1507 -0.6417
  640MPD2    C3 9474   0.518   2.362   9.157  0.2836  0.5456 -0.8647
  640MPD2    C4 9475   0.479   2.313   9.037 -0.0157  0.4322  0.3896
  640MPD2    C5 9476   0.432   2.183   9.021  0.5074 -0.5705  0.5065
  640MPD2     H 9477   0.536   2.320   9.369  1.4206 -2.9363  0.1016
  640MPD2    H1 9478   0.496   2.375   8.950 -0.5676 -1.4036 -1.0039
  640MPD2    H2 9479   0.405   1.998   9.110 -0.9108  0.8438 -0.3824
  640MPD2    H3 9480   0.434   2.145   8.919  0.2013 -1.5045  0.8522
  640MPD2     N 9481   0.571   2.492   9.160  0.1749  0.2157 -0.0350
  640MPD2    H5 9482   0.595   2.547   9.079 -2.5519  1.1445 -0.2145
  640MPD2    N1 9483   0.454   2.049   9.373 -0.0127  0.1015 -0.1613
  640MPD2    H7 9484   0.400   1.965   9.352 -1.6586  1.4626 -1.3730
  641TMC3    C1 9485   0.477   1.944   9.582 -0.6021  0.3391  0.7025
  641TMC3    C2 9486   0.570   1.916   9.683  0.5541 -0.1779  0.5353
  641TMC3    C3 9487   0.539   1.810   9.769  0.2856  0.9598 -0.2644
  641TMC3    C4 9488   0.366   1.869   9.556  1.1868  0.0472  0.1816
  641TMC3    C5 9489   0.343   1.766   9.643 -0.3361  0.5552 -0.1671
  641TMC3    C6 9490   0.425   1.732   9.750 -0.2267  0.0802 -0.1341
  641TMC3     C 9491   0.509   2.058   9.496  0.3822  0.1312  0.1936
  641TMC3     O 9492   0.582   2.151   9.539  0.0512 -0.1353 -0.0948
  641TMC3     H 9493   0.659   1.977   9.686  1.0334 -0.9695  2.0716
  641TMC3    H1 9494   0.278   1.898   9.500  0.3644  1.7577  2.3423
  641TMC3    H2 9495   0.391   1.669   9.832 -0.0969  1.7353  1.1994
  641TMC3    C7 9496   0.236   1.673   9.616  0.7753 -0.3343 -0.1791
  641TMC3    C8 9497   0.637   1.747   9.855  0.5639 -0.6375  0.4514
  641TMC3    O1 9498   0.189   1.619   9.714  0.2039  0.3752  0.2972
  641TMC3    O2 9499   0.605   1.648   9.919  0.0979  0.3053  0.0121
  642TMC3    C1 9500   2.220   2.914  11.965 -1.3561 -0.3921 -0.3011
  642TMC3    C2 9501   2.334   2.896  12.035 -0.5410  0.2414  0.3091
  642TMC3    C3 9502   2.371   2.777  12.085  0.0638 -0.3576  0.1697
  642TMC3    C4 9503   2.126   2.810  11.959  0.5732 -0.3255 -0.4531
  642TMC3    C5 9504   2.167   2.687  12.012  0.1211 -0.2212  0.2590
  642TMC3    C6 9505   2.289   2.669  12.061 -0.1045 -0.1886  0.2331
  642TMC3     C 9506   2.174   3.050  11.949 -0.5984  0.3394 -0.3887
  642TMC3     O 9507   2.257   3.118  11.895 -0.0143  0.0241  0.0166
  642TMC3     H 9508   2.395   2.982  12.060  0.0661  0.3715 -1.5727
  642TMC3    H1 9509   2.030   2.829  11.913  0.9073  0.6186 -0.7482
  642TMC3    H2 9510   2.329   2.571  12.085  0.5296 -0.0789 -0.3701
  642TMC3    C7 9511   2.082   2.572  11.986 -0.7399  0.3460  0.8163
  642TMC3    C8 9512   2.458   2.767  12.199 -0.3291 -0.0699  0.3684
  642TMC3    O1 9513   1.992   2.571  11.901  0.2724  0.1810 -0.3441
  642TMC3    O2 9514   2.450   2.663  12.264 -0.1505  0.2098 -0.3626
  643TMC3    C1 9515   1.125   2.581   0.374  0.2040 -0.4777  0.1120
  643TMC3    C2 9516   0.995   2.623   0.359 -0.6575  0.2647  0.1285
  643TMC3    C3 9517   0.961   2.647   0.229  0.2181  0.4247 -0.0226
  643TMC3    C4 9518   1.210   2.563   0.269  1.1044 -0.4089 -0.8370
  643TMC3    C5 9519   1.159   2.569   0.138 -0.4914 -0.7265  0.0638
  643TMC3    C6 9520   1.033   2.620   0.122  0.3720  0.2259 -0.5146
  643TMC3     C 9521   1.151   2.540   0.512  0.1724 -0.2737 -0.1502
  643TMC3     O 9522   1.064   2.556   0.598 -0.0091 -0.0635 -0.3484
  643TMC3     H 9523   0.924   2.655   0.434 -0.2945 -1.7914  1.3176
  643TMC3    H1 9524   1.310   2.523   0.287  0.8260  0.4922  2.7332
  643TMC3    H2 9525   0.983   2.634   0.027 -0.4996 -1.9845 -0.3716
  643TMC3    C7 9526   1.261   2.590   0.039 -0.4430 -0.1265 -0.3006
  643TMC3    C8 9527   0.862   2.746   0.200  0.1609  0.4027 -0.1937
  643TMC3    O1 9528   1.377   2.598   0.082  0.1586  0.1782 -0.1133
  643TMC3    O2 9529   0.742   2.730   0.191  0.0380  0.4477  0.4318
  644MPD2     C 9530   1.979   1.224  10.006 -0.0130 -0.3615  0.2187
  644MPD2    C1 9531   1.942   1.328   9.929  0.0859  0.4854  0.5064
  644MPD2    C2 9532   2.043   1.398   9.866  0.1689 -0.5597  0.4038
  644MPD2    C3 9533   2.175   1.359   9.881 -0.3066 -0.2606 -1.0628
  644MPD2    C4 9534   2.212   1.263   9.972 -1.1220 -0.7627  0.0434
  644MPD2    C5 9535   2.113   1.194  10.028  0.4098  0.4947 -0.1412
  644MPD2     H 9536   2.016   1.472   9.792  1.2638 -1.5487 -0.9813
  644MPD2    H1 9537   2.312   1.239  10.006 -0.6022  2.6219  0.9641
  644MPD2    H2 9538   1.908   1.154  10.046 -0.0571 -0.0135  0.7495
  644MPD2    H3 9539   2.131   1.123  10.108 -0.5541 -0.6195 -0.9088
  644MPD2     N 9540   2.263   1.431   9.787  0.5795 -0.4597 -0.5255
  644MPD2    H5 9541   2.207   1.483   9.721  1.0722 -1.8427 -2.0441
  644MPD2    N1 9542   1.805   1.360   9.916  0.1118  0.1582 -0.2303
  644MPD2    H7 9543   1.738   1.294   9.955  0.7854 -0.3984 -0.0157
  645TMC3    C1 9544   2.456   1.535   9.711  0.5841 -0.6405  0.6208
  645TMC3    C2 9545   2.377   1.639   9.653 -0.5992 -0.3189 -0.0934
  645TMC3    C3 9546   2.438   1.742   9.581 -0.1169 -0.8399 -0.1986
  645TMC3    C4 9547   2.591   1.538   9.687  0.3767  0.0917  0.0580
  645TMC3    C5 9548   2.640   1.630   9.599 -0.2439 -0.0068 -0.2498
  645TMC3    C6 9549   2.567   1.737   9.547  0.5847  0.0882  0.3264
  645TMC3     C 9550   2.397   1.434   9.798  0.1129  0.3389  0.4979
  645TMC3     O 9551   2.476   1.361   9.857  0.1660  0.3800 -0.2894
  645TMC3     H 9552   2.272   1.649   9.678 -0.6304 -1.4483  0.2019
  645TMC3    H1 9553   2.653   1.466   9.739  0.8089  1.1074  0.9507
  645TMC3    H2 9554   2.600   1.820   9.485  1.8667 -0.6077  0.0839
  645TMC3    C7 9555   2.777   1.621   9.564 -0.1750 -0.4739 -0.6165
  645TMC3    C8 9556   2.352   1.858   9.557  0.4214 -0.1682 -0.6470
  645TMC3    O1 9557   2.837   1.520   9.604  0.5918 -0.3240 -0.0758
  645TMC3    O2 9558   2.232   1.839   9.534 -0.3355 -1.1370  1.1568
  646MPD2     C 9559   0.660   1.638  14.613  0.2396 -0.1969 -0.4618
  646MPD2    C1 9560   0.598   1.663  14.735 -0.3777  0.1566  0.0675
  646MPD2    C2 9561   0.470   1.719  14.735  0.4677 -0.2704 -0.2024
  646MPD2    C3 9562   0.398   1.747  14.617  0.1690  1.0613  0.4146
  646MPD2    C4 9563   0.453   1.695  14.498 -0.0516 -0.0910  0.1988
  646MPD2    C5 9564   0.576   1.645  14.499  0.2476 -0.3890  0.3492
  646MPD2     H 9565   0.420   1.757  14.824  4.0299  1.5784  1.0447
  646MPD2    H1 9566   0.406   1.705  14.401  1.8820 -0.5965 -0.7785
  646MPD2    H2 9567   0.765   1.619  14.594 -0.6549 -1.7362 -3.7349
  646MPD2    H3 9568   0.616   1.630  14.399 -0.4059  0.7619 -0.0767
  646MPD2     N 9569   0.276   1.819  14.622 -0.0089 -0.1302 -0.5065
  646MPD2    H5 9570   0.245   1.853  14.712 -1.6127 -0.8711 -0.7781
  646MPD2    N1 9571   0.670   1.650  14.858 -0.0126  0.6444  0.2090
  646MPD2    H7 9572   0.766   1.618  14.856 -0.3716 -0.4045  0.1771
  647TMC3    C1 9573   0.702   1.651  15.098 -0.6742  1.1214 -0.0543
  647TMC3    C2 9574   0.635   1.612  15.214  0.0674 -0.0656  0.1057
  647TMC3    C3 9575   0.713   1.569  15.317 -0.1274  0.2506  0.2300
  647TMC3    C4 9576   0.837   1.648  15.088 -0.0619  0.5007 -0.6158
  647TMC3    C5 9577   0.913   1.615  15.198  0.0201  1.0851 -0.0657
  647TMC3    C6 9578   0.854   1.577  15.313 -0.5645  0.3507 -1.0734
  647TMC3     C 9579   0.617   1.649  14.980 -0.3698  0.2558 -0.0911
  647TMC3     O 9580   0.493   1.660  15.010 -0.4250 -0.4538  0.1347
  647TMC3     H 9581   0.528   1.592  15.212  0.0150  0.1270  0.8133
  647TMC3    H1 9582   0.886   1.687  15.000  0.5390 -2.6460 -1.6696
  647TMC3    H2 9583   0.918   1.543  15.394 -0.4898 -1.0672 -1.7090
  647TMC3    C7 9584   1.059   1.600  15.203 -0.0964  0.3366  0.5404
  647TMC3    C8 9585   0.680   1.445  15.387 -0.7122 -0.1759 -0.6567
  647TMC3    O1 9586   1.124   1.597  15.307  0.2836  0.0274  0.4227
  647TMC3    O2 9587   0.727   1.429  15.500  0.5910 -0.3323 -0.4329
  648TMC3    C1 9588   0.129   4.041  16.217 -0.1939  0.7800 -0.0231
  648TMC3    C2 9589   0.231   4.008  16.137 -0.1661 -0.4286 -0.2033
  648TMC3    C3 9590   0.226   4.047  16.005 -0.3183  1.1057  0.2116
  648TMC3    C4 9591   0.027   4.118  16.164  0.6079 -0.5969  0.3826
  648TMC3    C5 9592   0.030   4.159  16.035  0.5037 -0.5045  0.1783
  648TMC3    C6 9593   0.121   4.111  15.943  1.2001 -0.0259 -0.8581
  648TMC3     C 9594   0.130   4.025  16.363  0.9242  0.2881  1.1820
  648TMC3     O 9595   0.201   3.934  16.407  0.1677 -0.0762  0.1191
  648TMC3     H 9596   0.308   3.939  16.170  0.1931 -0.0756 -0.2951
  648TMC3    H1 9597   4.655   4.117  16.221  1.4526 -0.5317  1.7623
  648TMC3    H2 9598   0.116   4.141  15.839  3.5331  3.0964 -0.0536
  648TMC3    C7 9599   4.621   4.182  15.963 -1.0157  0.9129 -0.0150
  648TMC3    C8 9600   0.309   3.962  15.911 -0.5692 -0.0489 -0.6444
  648TMC3    O1 9601   4.618   4.175  15.842 -0.0194 -0.2389 -0.2869
  648TMC3    O2 9602   0.427   3.943  15.942 -0.6165  0.0101 -0.2948
  649TMC3    C1 9603   3.908   0.715  12.467 -0.6488  0.1001  0.6316
  649TMC3    C2 9604   4.034   0.766  12.467  0.4847  0.6800  0.6357
  649TMC3    C3 9605   4.110   0.753  12.581  0.6959  0.3349 -0.3068
  649TMC3    C4 9606   3.858   0.639  12.567  0.4471  0.3350 -0.6300
  649TMC3    C5 9607   3.941   0.616  12.675 -0.1288 -0.2138 -1.5699
  649TMC3    C6 9608   4.063   0.675  12.686 -0.1541  0.1186 -0.8089
  649TMC3     C 9609   3.827   0.719  12.346 -0.1384  0.7607 -0.2696
  649TMC3     O 9610   3.725   0.655  12.338  0.4660 -0.8647  0.2369
  649TMC3     H 9611   4.076   0.810  12.378  0.0433  1.1059  0.6432
  649TMC3    H1 9612   3.763   0.587  12.566 -0.1396  1.3437  1.7395
  649TMC3    H2 9613   4.123   0.656  12.773  3.6750  2.8108 -2.8762
  649TMC3    C7 9614   3.886   0.531  12.781  0.5851  0.7121  0.2157
  649TMC3    C8 9615   4.238   0.813  12.604  0.3082 -0.8563 -0.0622
  649TMC3    O1 9616   3.770   0.546  12.805 -0.4069 -0.4599 -0.1780
  649TMC3    O2 9617   4.284   0.794  12.716 -0.5270  0.7281  0.0630
  650TMC3    C1 9618   1.499   2.170  12.155 -0.1290  0.0726 -0.9217
  650TMC3    C2 9619   1.419   2.282  12.177  0.4676 -0.3101  0.1776
  650TMC3    C3 9620   1.375   2.356  12.070  0.2979 -0.1205  0.2575
  650TMC3    C4 9621   1.509   2.117  12.032  0.5509  0.2150  0.1696
  650TMC3    C5 9622   1.437   2.185  11.935 -0.5395 -0.2534 -0.5482
  650TMC3    C6 9623   1.367   2.299  11.945  0.4673  0.3057 -0.0434
  650TMC3     C 9624   1.587   2.129  12.263  0.1126 -0.0578  1.1054
  650TMC3     O 9625   1.588   2.200  12.363  0.6170 -0.6377 -0.2141
  650TMC3     H 9626   1.431   2.335  12.271  3.0826  0.1728 -0.4198
  650TMC3    H1 9627   1.573   2.037  11.998 -0.6603  0.0161 -1.6589
  650TMC3    H2 9628   1.349   2.369  11.865  1.0264 -1.0510 -1.3480
  650TMC3    C7 9629   1.459   2.141  11.796 -0.6616  0.4113 -0.4483
  650TMC3    C8 9630   1.315   2.493  12.095  0.2255  0.2004 -1.0351
  650TMC3    O1 9631   1.562   2.081  11.776 -0.2958  0.4751 -0.0193
  650TMC3    O2 9632   1.354   2.556  12.194 -0.7901  0.9083  0.7047
  651MPD2     C 9633   0.389   3.496  10.976  0.3568 -0.0354 -0.5421
  651MPD2    C1 9634   0.328   3.615  10.946  0.5405  0.5703  0.1857
  651MPD2    C2 9635   0.402   3.724  10.929 -0.2984 -0.3340 -0.3440
  651MPD2    C3 9636   0.534   3.724  10.969  0.2326 -0.9631 -0.7092
  651MPD2    C4 9637   0.592   3.607  11.010 -0.2481  0.6997 -0.5619
  651MPD2    C5 9638   0.516   3.500  11.024  0.1548 -0.3206 -0.6047
  651MPD2     H 9639   0.357   3.821  10.912 -1.6354 -0.9765 -0.4011
  651MPD2    H1 9640   0.694   3.595  11.046 -0.6440 -0.7901  0.0647
  651MPD2    H2 9641   0.333   3.409  11.009 -2.6564  2.1624  0.1102
  651MPD2    H3 9642   0.565   3.411  11.063 -0.2925 -0.1184  0.4261
  651MPD2     N 9643   0.615   3.842  10.949 -0.0768  0.4269 -0.2984
  651MPD2    H5 9644   0.573   3.933  10.933 -0.3027 -0.0209 -2.2096
  651MPD2    N1 9645   0.194   3.625  10.916 -0.6915  0.2043  0.7044
  651MPD2    H7 9646   0.158   3.717  10.891  1.8692  1.0693  0.2564
  652TMC3    C1 9647   0.969   4.094  10.776  0.5064 -0.5307  0.6326
  652TMC3    C2 9648   0.921   3.980  10.838  0.4645  0.3626 -0.0471
  652TMC3    C3 9649   0.799   3.985  10.892  0.1481 -0.4013  0.3659
  652TMC3    C4 9650   0.906   4.218  10.782  0.1650  0.5224 -0.0992
  652TMC3    C5 9651   0.783   4.212  10.839  0.0770  0.1965  0.0052
  652TMC3    C6 9652   0.720   4.099  10.895 -0.5760  0.5747  0.2042
  652TMC3     C 9653   1.105   4.087  10.730  0.1430  0.0661 -1.4671
  652TMC3     O 9654   1.167   3.979  10.735  0.0405 -0.3021  0.0429
  652TMC3     H 9655   0.988   3.896  10.850  0.0424  0.2337  1.3952
  652TMC3    H1 9656   0.934   4.296  10.712 -0.3829  0.2449 -0.6287
  652TMC3    H2 9657   0.626   4.103  10.949 -1.2721 -0.8988 -0.9184
  652TMC3    C7 9658   0.692   4.331  10.832  0.2304  0.5056 -0.2886
  652TMC3    C8 9659   0.749   3.847  10.933 -0.0414  0.3611  0.3176
  652TMC3    O1 9660   0.593   4.319  10.901  0.3646  0.3468 -0.2379
  652TMC3    O2 9661   0.831   3.757  10.944 -0.2745 -0.6422 -0.0767
  653MPD2     C 9662   3.811   4.248   0.212 -0.5606 -0.1935 -1.1387
  653MPD2    C1 9663   3.762   4.336   0.116 -0.0534 -0.0891  0.6769
  653MPD2    C2 9664   3.696   4.278   0.014 -0.3064  0.2189 -0.1416
  653MPD2    C3 9665   3.683   4.146  17.686  0.2107  0.0139  0.0618
  653MPD2    C4 9666   3.723   4.063   0.098  0.2609  0.1361  0.1678
  653MPD2    C5 9667   3.788   4.115   0.207 -0.4345 -0.4962  0.3725
  653MPD2     H 9668   3.658   4.352  17.632  0.5832  0.5855 -0.2443
  653MPD2    H1 9669   3.704   3.956   0.100  2.7920 -0.2634  2.0712
  653MPD2    H2 9670   3.863   4.277   0.303 -2.9239  0.5034 -0.0209
  653MPD2    H3 9671   3.838   4.060   0.285  2.3521  1.1177 -0.2960
  653MPD2     N 9672   3.637   4.106  17.559  0.1422  0.0750  0.4060
  653MPD2    H5 9673   3.600   4.177  17.497 -2.4791 -0.6714  1.1236
  653MPD2    N1 9674   3.766   4.478   0.123 -0.4852  0.4248  0.2329
  653MPD2    H7 9675   3.737   4.525   0.038  0.8504  0.8881  0.0333
  654TMC3    C1 9676   3.597   3.979  17.370 -0.4293 -0.5805 -0.2316
  654TMC3    C2 9677   3.497   4.057  17.330 -0.7040  0.0378 -0.2004
  654TMC3    C3 9678   3.464   4.056  17.192 -0.7097  0.8355 -0.0638
  654TMC3    C4 9679   3.659   3.895  17.280  0.3835 -0.0604 -0.3491
  654TMC3    C5 9680   3.609   3.878  17.155 -0.1331  0.7034  0.1527
  654TMC3    C6 9681   3.512   3.961  17.108  0.0364 -0.1927  1.4712
  654TMC3     C 9682   3.646   3.980  17.506  0.2959  0.2742 -0.6073
  654TMC3     O 9683   3.700   3.878  17.550  0.0514  0.2658 -0.5941
  654TMC3     H 9684   3.441   4.125  17.394 -0.2960  0.8460 -0.7022
  654TMC3    H1 9685   3.747   3.843  17.317 -0.8272 -1.0491  1.1109
  654TMC3    H2 9686   3.451   3.953  17.019  1.3770 -0.6418  0.5980
  654TMC3    C7 9687   3.676   3.799  17.060 -0.1325 -0.5786  0.1720
  654TMC3    C8 9688   3.391   4.175  17.141 -0.6138  0.0377 -0.0758
  654TMC3    O1 9689   3.650   3.821  16.941  0.2008  0.0325  0.3098
  654TMC3    O2 9690   3.320   4.237  17.220 -0.7970 -0.1770 -0.5232
  655MPD2     C 9691   0.396   4.425  15.961 -0.1474 -0.5103  0.2495
  655MPD2    C1 9692   0.285   4.426  15.878  0.0441  0.5616 -0.1843
  655MPD2    C2 9693   0.290   4.359  15.757 -0.2269 -0.4509 -0.0312
  655MPD2    C3 9694   0.404   4.285  15.725 -1.1574 -0.0742  0.3547
  655MPD2    C4 9695   0.524   4.288  15.800 -0.0997 -0.1380  0.4501
  655MPD2    C5 9696   0.515   4.362  15.920  0.0300  0.2144  0.1306
  655MPD2     H 9697   0.203   4.347  15.694 -1.0778 -0.7775  1.1982
  655MPD2    H1 9698   0.618   4.241  15.776  0.6800  0.8370  1.5324
  655MPD2    H2 9699   0.393   4.471  16.060 -0.9548  1.1298 -0.5325
  655MPD2    H3 9700   0.605   4.364  15.980 -0.5392  3.0647  0.8737
  655MPD2     N 9701   0.404   4.224  15.595 -0.3941 -0.1254 -0.5234
  655MPD2    H5 9702   0.326   4.231  15.530  0.3345 -0.1253 -1.3934
  655MPD2    N1 9703   0.161   4.484  15.903 -0.2437 -0.0978 -0.8836
  655MPD2    H7 9704   0.092   4.488  15.829 -0.1676 -0.1288 -0.9568
  656TMC3    C1 9705   4.715   4.631  15.997  1.2668  0.6935 -0.0598
  656TMC3    C2 9706   4.655   4.671  16.115  0.2774  0.0413  0.3125
  656TMC3    C3 9707   4.517   4.679  16.127 -0.3306 -0.1777 -0.4772
  656TMC3    C4 9708   4.634   4.599  15.893  0.0563 -0.3424 -0.5164
  656TMC3    C5 9709   4.502   4.598  15.912 -0.8972  0.2821  0.0893
  656TMC3    C6 9710   4.436   4.635  16.024 -0.3169  0.1285  0.7602
  656TMC3     C 9711   0.127   4.571  16.003 -0.1438  0.0519  0.2776
  656TMC3     O 9712   0.188   4.580  16.111  0.5934  0.2904  0.4315
  656TMC3     H 9713   4.719   4.694  16.200 -1.0177  1.1865  0.9750
  656TMC3    H1 9714   4.672   4.576  15.794 -0.0687  2.0052 -1.0991
  656TMC3    H2 9715   4.328   4.636  16.032 -0.4909 -0.2451 -1.5885
  656TMC3    C7 9716   4.434   4.563  15.788 -0.2750 -0.3362 -0.5024
  656TMC3    C8 9717   4.446   4.670  16.258  0.0199 -0.1113  0.4757
  656TMC3    O1 9718   4.487   4.489  15.701  0.1827 -0.3502  0.3795
  656TMC3    O2 9719   4.344   4.607  16.255  0.1301 -0.2650  0.9266
  657TMC3    C1 9720   3.912   3.464  15.133  0.2356  0.3186 -0.4465
  657TMC3    C2 9721   4.038   3.510  15.139  0.1387  0.2095 -0.2659
  657TMC3    C3 9722   4.063   3.615  15.223 -0.3967  0.2168 -0.5708
  657TMC3    C4 9723   3.813   3.524  15.203 -0.2842  0.3999 -0.6036
  657TMC3    C5 9724   3.842   3.639  15.274 -0.4224 -0.3427 -0.1727
  657TMC3    C6 9725   3.969   3.679  15.294 -0.1437  0.0625 -0.8700
  657TMC3     C 9726   3.876   3.383  15.028  0.3485 -0.3072  0.0138
  657TMC3     O 9727   3.764   3.408  14.975  0.2319  0.9054  0.5002
  657TMC3     H 9728   4.113   3.482  15.066 -0.8191 -0.2591 -1.0795
  657TMC3    H1 9729   3.711   3.497  15.176  0.2195 -1.0358 -1.0793
  657TMC3    H2 9730   3.990   3.771  15.347 -0.7974 -0.8056  0.8896
  657TMC3    C7 9731   3.740   3.700  15.351  0.0932 -0.3112 -0.1394
  657TMC3    C8 9732   4.197   3.661  15.242 -0.0631 -1.0747 -0.4702
  657TMC3    O1 9733   3.764   3.794  15.429  0.0338  0.8713  0.2837
  657TMC3    O2 9734   4.213   3.771  15.288  0.2975 -0.3590 -0.0162
  658MPD2     C 9735   0.715   4.068  14.824  0.5003 -0.5119  0.1208
  658MPD2    C1 9736   0.590   4.114  14.858 -0.8207  0.0655  0.1006
  658MPD2    C2 9737   0.507   4.163  14.757  0.7852  0.1743  0.1077
  658MPD2    C3 9738   0.555   4.195  14.634 -0.1409  1.1096  0.1235
  658MPD2    C4 9739   0.687   4.163  14.603 -0.2436  0.1812  0.0791
  658MPD2    C5 9740   0.762   4.089  14.696  0.2948 -0.5030  0.4480
  658MPD2     H 9741   0.403   4.188  14.777  0.2789 -1.3548 -0.6152
  658MPD2    H1 9742   0.733   4.169  14.505 -0.2419  0.0032  0.0682
  658MPD2    H2 9743   0.781   4.020  14.895  0.2015 -3.4939 -1.5946
  658MPD2    H3 9744   0.863   4.058  14.672  0.1549 -1.2410  0.8146
  658MPD2     N 9745   0.467   4.246  14.540 -0.5512  0.0802  0.9418
  658MPD2    H5 9746   0.372   4.262  14.571 -1.7519 -3.2793 -0.9946
  658MPD2    N1 9747   0.532   4.103  14.990  0.1568 -0.3756 -0.5671
  658MPD2    H7 9748   0.438   4.137  15.002  0.4519 -0.7873  3.1231
  659TMC3    C1 9749   0.502   4.044  15.212 -0.2084 -0.2914 -0.4424
  659TMC3    C2 9750   0.548   4.060  15.334  0.5711 -0.6423 -0.6174
  659TMC3    C3 9751   0.461   4.073  15.429 -0.2649  0.3896 -0.2997
  659TMC3    C4 9752   0.372   4.024  15.182  0.6657  0.8111 -0.6411
  659TMC3    C5 9753   0.287   4.037  15.282 -0.6817 -0.1277  0.2496
  659TMC3    C6 9754   0.326   4.062  15.409  0.1091 -0.2214  0.3744
  659TMC3     C 9755   0.596   4.056  15.102 -0.4943  0.3690  0.3809
  659TMC3     O 9756   0.716   4.041  15.125 -0.4465  0.4383 -0.5362
  659TMC3     H 9757   0.651   4.090  15.351 -0.2978  1.5423  0.7974
  659TMC3    H1 9758   0.340   3.999  15.081  0.4719 -3.9648  0.6268
  659TMC3    H2 9759   0.245   4.073  15.480 -1.7896 -0.5761 -1.7403
  659TMC3    C7 9760   0.145   4.032  15.233 -0.2068 -0.1656  0.1446
  659TMC3    C8 9761   0.507   4.147  15.547 -0.4739  0.1634  0.7073
  659TMC3    O1 9762   0.126   3.969  15.132 -0.0985  0.1131 -0.1128
  659TMC3    O2 9763   0.622   4.133  15.586  0.5605 -0.4038 -0.0114
  660MPD2     C 9764   3.442   2.681  12.600  0.5014 -0.0425 -0.2939
  660MPD2    C1 9765   3.310   2.692  12.554 -0.9759 -0.5420 -0.3753
  660MPD2    C2 9766   3.202   2.651  12.628  0.2233 -0.0185 -0.0931
  660MPD2    C3 9767   3.228   2.601  12.753  0.4899  0.0488  0.2028
  660MPD2    C4 9768   3.359   2.591  12.795  1.1041  0.5769 -0.0385
  660MPD2    C5 9769   3.466   2.620  12.718  0.4461 -0.0438  0.0476
  660MPD2     H 9770   3.104   2.677  12.591  0.4442  0.0259 -0.6449
  660MPD2    H1 9771   3.383   2.544  12.890  2.7350  1.6824  0.0941
  660MPD2    H2 9772   3.528   2.712  12.542  0.7663 -1.2275 -0.5445
  660MPD2    H3 9773   3.571   2.622  12.748  0.2623  0.9628  0.6094
  660MPD2     N 9774   3.125   2.570  12.845  0.3155  0.4255  0.0309
  660MPD2    H5 9775   3.136   2.560  12.946  0.7792 -0.1266 -0.0720
  660MPD2    N1 9776   3.301   2.762  12.435 -0.3429  0.0646  0.5212
  660MPD2    H7 9777   3.379   2.819  12.404 -1.6023  1.3321 -0.3073
  661TMC3    C1 9778   3.214   2.851  12.241  0.5781  0.4046  0.0789
  661TMC3    C2 9779   3.305   2.806  12.147 -0.0450 -0.0616  0.0849
  661TMC3    C3 9780   3.310   2.875  12.029  0.1487 -0.0221 -0.2728
  661TMC3    C4 9781   3.121   2.954  12.207 -0.4791 -0.2259 -0.6423
  661TMC3    C5 9782   3.129   3.012  12.079 -0.6791  0.0315 -0.2932
  661TMC3    C6 9783   3.225   2.973  11.993 -0.6295  0.1239 -0.1922
  661TMC3     C 9784   3.187   2.773  12.362 -0.6702  0.3753 -0.0249
  661TMC3     O 9785   3.072   2.738  12.384 -0.1950 -0.3347  0.0830
  661TMC3     H 9786   3.367   2.718  12.164 -1.9115 -1.7718 -2.0070
  661TMC3    H1 9787   3.032   2.977  12.265 -0.9233 -4.0620  0.1751
  661TMC3    H2 9788   3.221   3.002  11.889  2.0041  0.8170 -0.0975
  661TMC3    C7 9789   3.003   3.075  12.049  0.7036 -0.2245 -0.3581
  661TMC3    C8 9790   3.405   2.849  11.933  0.7962 -0.0882  0.0309
  661TMC3    O1 9791   2.951   3.142  12.136 -0.7305  0.0908 -0.1200
  661TMC3    O2 9792   3.441   2.736  11.909  0.0754  0.2963  0.0434
  662MPD2     C 9793   3.513   2.691  17.415  0.0033 -0.3002 -0.2432
  662MPD2    C1 9794   3.381   2.702  17.461  0.5664 -0.5083  0.3694
  662MPD2    C2 9795   3.345   2.822  17.515 -0.0919 -0.5792  0.1903
  662MPD2    C3 9796   3.431   2.926  17.520  0.9273  0.1420  0.0326
  662MPD2    C4 9797   3.564   2.917  17.469  0.1000  0.4890 -0.3801
  662MPD2    C5 9798   3.600   2.797  17.419 -0.7150 -0.2302  0.5784
  662MPD2     H 9799   3.246   2.837  17.556  1.1918  0.9853  2.6718
  662MPD2    H1 9800   3.637   2.996  17.482 -0.3107  0.9805 -1.0225
  662MPD2    H2 9801   3.551   2.599  17.372  0.8341  0.5664 -1.3457
  662MPD2    H3 9802   3.702   2.776  17.388 -1.1672 -2.6738  0.7905
  662MPD2     N 9803   3.377   3.037  17.591  0.0607  0.0871 -0.5355
  662MPD2    H5 9804   3.279   3.027  17.615  0.6292 -1.8457  0.9437
  662MPD2    N1 9805   3.281   2.597  17.453  0.7165  0.5277 -0.2969
  662MPD2    H7 9806   3.187   2.603  17.491  0.0880  1.8985 -2.0717
  663TMC3    C1 9807   3.178   2.395  17.422  0.3536  0.0923  0.7870
  663TMC3    C2 9808   3.076   2.479  17.441  0.2289  0.5475  0.3552
  663TMC3    C3 9809   2.983   2.445  17.536 -0.0788 -0.0100 -0.4340
  663TMC3    C4 9810   3.192   2.279  17.495  0.5748 -0.2913  0.6417
  663TMC3    C5 9811   3.102   2.257  17.594 -0.2861  0.2270 -0.3397
  663TMC3    C6 9812   2.999   2.340  17.622 -0.4029  0.4596  1.1635
  663TMC3     C 9813   3.298   2.471  17.391  0.1741  0.4141  0.0302
  663TMC3     O 9814   3.405   2.419  17.355  0.1240  0.3667 -0.3094
  663TMC3     H 9815   3.055   2.550  17.361  1.0812  0.1167 -0.2555
  663TMC3    H1 9816   3.280   2.217  17.484 -0.5762 -1.4628 -1.8640
  663TMC3    H2 9817   2.918   2.300  17.683  0.3166  1.5734  2.8580
  663TMC3    C7 9818   3.109   2.143  17.678  0.0809  0.6634 -0.5704
  663TMC3    C8 9819   2.947   2.570  17.604  0.1399  0.4580  0.1038
  663TMC3    O1 9820   3.051   2.146   0.101  0.3327 -0.2352  0.4616
  663TMC3    O2 9821   2.985   2.672  17.545  0.4963  0.0768 -0.0285
  664MPD2     C 9822   1.554   1.238  17.193  0.1036  0.4094  0.8189
  664MPD2    C1 9823   1.635   1.294  17.297  0.5861 -0.5764 -0.5198
  664MPD2    C2 9824   1.572   1.364  17.400  0.4107 -0.1380  0.3557
  664MPD2    C3 9825   1.434   1.383  17.406 -0.5154 -0.2237 -0.2789
  664MPD2    C4 9826   1.359   1.323  17.303  0.0903 -0.9225 -0.1296
  664MPD2    C5 9827   1.419   1.250  17.197 -0.1926 -0.3682 -0.6671
  664MPD2     H 9828   1.626   1.409  17.483  0.2105 -2.1663  1.5776
  664MPD2    H1 9829   1.251   1.321  17.313  0.0575  2.2208  0.1206
  664MPD2    H2 9830   1.594   1.188  17.105 -1.1973  1.2572 -0.2624
  664MPD2    H3 9831   1.359   1.202  17.120  0.1621 -1.4400 -0.2738
  664MPD2     N 9832   1.382   1.462  17.521 -0.5227  0.1419  0.1315
  664MPD2    H5 9833   1.446   1.495  17.591  0.2400 -0.4474 -0.2868
  664MPD2    N1 9834   1.777   1.282  17.298  0.0647  0.1137  0.0369
  664MPD2    H7 9835   1.823   1.346  17.362  0.9377 -1.2234  0.7512
  665TMC3    C1 9836   1.230   1.532  17.672 -0.0880  0.1415  0.5713
  665TMC3    C2 9837   1.102   1.516   0.045  0.2464  0.7305 -0.8425
  665TMC3    C3 9838   1.095   1.569   0.174 -0.7393 -1.3582  0.1283
  665TMC3    C4 9839   1.333   1.586   0.061  0.2376 -0.2420 -0.8485
  665TMC3    C5 9840   1.318   1.620   0.191 -0.7838 -0.8736  0.1581
  665TMC3    C6 9841   1.195   1.612   0.246  0.0612 -0.0365 -0.0544
  665TMC3     C 9842   1.250   1.472  17.548 -1.2707 -0.0003 -0.6376
  665TMC3     O 9843   1.157   1.421  17.485  0.0497  0.1856 -0.2444
  665TMC3     H 9844   1.020   1.475  17.672 -0.7951  0.0272  1.0916
  665TMC3    H1 9845   1.434   1.595   0.024  0.3716  0.0951 -0.4000
  665TMC3    H2 9846   1.186   1.625   0.354 -2.0613  1.4447 -0.4191
  665TMC3    C7 9847   1.426   1.690   0.257  0.3145 -0.5961 -0.1142
  665TMC3    C8 9848   0.966   1.574   0.234 -0.2934 -0.4942 -0.3320
  665TMC3    O1 9849   1.525   1.708   0.194 -0.1304 -0.5268  0.6911
  665TMC3    O2 9850   0.971   1.591   0.355 -0.1674  0.3491  0.7911
  666TMC3    C1 9851   4.527   0.650   9.596 -0.4476 -0.2028  0.2043
  666TMC3    C2 9852   4.631   0.564   9.559  0.4652  0.1335  0.5988
  666TMC3    C3 9853   0.026   0.607   9.508 -0.0522 -0.2899 -0.2592
  666TMC3    C4 9854   4.532   0.782   9.565  0.7766  0.0677 -0.5507
  666TMC3    C5 9855   4.648   0.829   9.509 -0.1318  0.0028 -0.1991
  666TMC3    C6 9856   0.030   0.748   9.483 -0.1143 -0.6265 -0.1742
  666TMC3     C 9857   4.459   0.641   9.721  0.9231  0.3668  0.8329
  666TMC3     O 9858   4.338   0.674   9.721  0.1272  0.7085 -0.4926
  666TMC3     H 9859   4.619   0.460   9.585  1.6398  0.2395  1.5399
  666TMC3    H1 9860   4.458   0.851   9.605  0.1826 -1.8932  1.7451
  666TMC3    H2 9861   0.122   0.784   9.439  0.8262 -0.9062  1.5617
  666TMC3    C7 9862   4.680   0.961   9.562 -0.3906  0.0744  0.8140
  666TMC3    C8 9863   0.145   0.545   9.560 -0.2062 -0.7743  0.4215
  666TMC3    O1 9864   4.629   0.991   9.672 -0.7626 -0.0962 -0.4689
  666TMC3    O2 9865   0.121   0.500   9.671  0.7846 -0.7170  0.2290
  667MPD2     C 9866   2.615   0.796  14.598 -0.3717  0.2803 -0.2208
  667MPD2    C1 9867   2.498   0.853  14.634 -0.0943 -0.6082 -0.0880
  667MPD2    C2 9868   2.375   0.796  14.611  1.0228 -0.6822 -0.0697
  667MPD2    C3 9869   2.378   0.679  14.542 -0.0885 -0.6513  0.4727
  667MPD2    C4 9870   2.502   0.620  14.509  0.3167 -0.6347  0.2485
  667MPD2    C5 9871   2.617   0.677  14.539  0.0115  0.0567  0.1433
  667MPD2     H 9872   2.285   0.850  14.636  2.0052  0.5114  0.9007
  667MPD2    H1 9873   2.512   0.531  14.448 -3.2953 -0.6351 -0.3586
  667MPD2    H2 9874   2.710   0.846  14.613  0.0838 -0.4913 -0.5362
  667MPD2    H3 9875   2.713   0.637  14.508  0.2431  0.3851  0.4413
  667MPD2     N 9876   2.260   0.616  14.506  0.0059 -0.0285 -0.4554
  667MPD2    H5 9877   2.268   0.530  14.453  0.0772 -0.1443 -0.2570
  667MPD2    N1 9878   2.490   0.987  14.693  0.1019  0.3254  0.8380
  667MPD2    H7 9879   2.393   1.004  14.721  0.7986  0.2062  3.3244
  668TMC3    C1 9880   2.555   1.200  14.770 -0.0606 -0.6327 -0.6482
  668TMC3    C2 9881   2.651   1.279  14.834  0.7720  0.6571 -0.3003
  668TMC3    C3 9882   2.615   1.395  14.897  0.3464  0.4657 -0.3297
  668TMC3    C4 9883   2.427   1.241  14.767 -0.3649 -0.1869 -0.4231
  668TMC3    C5 9884   2.398   1.367  14.818 -0.2213  0.5067  0.4171
  668TMC3    C6 9885   2.495   1.448  14.880 -0.2891 -0.4960  0.3204
  668TMC3     C 9886   2.593   1.072  14.717  0.1232 -0.8659  0.0925
  668TMC3     O 9887   2.715   1.061  14.705 -0.1798  0.4664  0.0798
  668TMC3     H 9888   2.751   1.239  14.847  1.4165  3.0807  2.3304
  668TMC3    H1 9889   2.345   1.181  14.728  0.2890 -0.4423 -1.4062
  668TMC3    H2 9890   2.469   1.542  14.928  2.1994 -0.0619  0.8030
  668TMC3    C7 9891   2.269   1.425  14.804  0.0995 -0.6159  0.1035
  668TMC3    C8 9892   2.714   1.483  14.955  0.2370  0.2029 -0.2723
  668TMC3    O1 9893   2.241   1.519  14.877 -0.2257 -0.1691 -0.1559
  668TMC3    O2 9894   2.676   1.595  14.991  0.0271 -0.0886 -0.2203
  669TMC3    C1 9895   0.318   0.905  14.456 -0.6583 -0.4186 -0.0012
  669TMC3    C2 9896   0.220   0.947  14.364  0.4725  0.3959 -0.5725
  669TMC3    C3 9897   0.259   0.990  14.239 -0.1501  0.1660  0.6485
  669TMC3    C4 9898   0.450   0.929  14.430  0.0085  0.3516  0.2398
  669TMC3    C5 9899   0.484   0.970  14.306 -0.0994 -0.2315  0.4646
  669TMC3    C6 9900   0.389   0.998  14.208 -1.1387  0.3921 -0.7736
  669TMC3     C 9901   0.273   0.835  14.573 -0.2745  0.0747  0.4115
  669TMC3     O 9902   0.164   0.782  14.579 -0.2917 -0.5711 -0.6404
  669TMC3     H 9903   0.113   0.938  14.378  0.5707 -1.4681 -1.0033
  669TMC3    H1 9904   0.528   0.884  14.491 -0.1081 -1.3740 -0.8822
  669TMC3    H2 9905   0.417   1.029  14.108 -2.6397  0.0562 -1.2933
  669TMC3    C7 9906   0.626   1.006  14.286  0.1347  0.5209 -0.0811
  669TMC3    C8 9907   0.162   1.006  14.123 -0.2563 -0.7328  0.3417
  669TMC3    O1 9908   0.708   1.005  14.380 -0.1151 -0.1094  0.0584
  669TMC3    O2 9909   0.078   0.914  14.118  0.0448 -0.6375 -0.2838
  670MPD2     C 9910   3.128   3.498  13.533  0.0917  0.5354  0.3918
  670MPD2    C1 9911   3.244   3.489  13.612  0.2657 -0.3679 -0.1680
  670MPD2    C2 9912   3.234   3.425  13.738  0.1786  0.2533  1.0555
  670MPD2    C3 9913   3.118   3.350  13.761  0.1093 -0.0381 -0.2456
  670MPD2    C4 9914   2.998   3.365  13.686 -0.1427 -0.0569 -0.0096
  670MPD2    C5 9915   3.012   3.439  13.573  0.0371  0.0023 -0.4506
  670MPD2     H 9916   3.328   3.405  13.788 -0.4029  1.9792  2.8553
  670MPD2    H1 9917   2.902   3.315  13.701 -0.6625  0.8947 -0.1767
  670MPD2    H2 9918   3.115   3.565  13.449 -1.3799  1.0690  1.0246
  670MPD2    H3 9919   2.925   3.448  13.509 -1.2854 -0.4813  1.2902
  670MPD2     N 9920   3.122   3.266  13.873 -0.6944 -0.0150  0.2667
  670MPD2    H5 9921   3.193   3.281  13.944  0.2715  0.7394 -0.8399
  670MPD2    N1 9922   3.369   3.531  13.562  0.0498  0.0675  0.7284
  670MPD2    H7 9923   3.457   3.517  13.611  0.2600 -0.8866  0.0908
  671TMC3    C1 9924   3.045   3.100  14.032 -0.2894  0.0919 -0.7629
  671TMC3    C2 9925   3.171   3.080  14.073 -0.4639  0.2030 -0.4093
  671TMC3    C3 9926   3.191   2.970  14.147  0.0847  0.4788  0.3437
  671TMC3    C4 9927   2.947   3.011  14.051  0.2055 -0.1283  0.4903
  671TMC3    C5 9928   2.972   2.895  14.113  0.8469 -0.3211  0.5281
  671TMC3    C6 9929   3.100   2.869  14.158  0.2885  0.3544 -0.1318
  671TMC3     C 9930   3.029   3.169  13.903 -0.2536 -0.0733  0.3440
  671TMC3     O 9931   2.942   3.119  13.830  0.4291  0.7565 -0.6581
  671TMC3     H 9932   3.243   3.161  14.072 -0.6234  0.3414 -0.8097
  671TMC3    H1 9933   2.847   3.036  14.015 -0.5529 -1.4715  1.7059
  671TMC3    H2 9934   3.110   2.772  14.205 -0.4852  0.6255  0.5918
  671TMC3    C7 9935   2.897   2.783  14.059  0.4470  0.2345  0.0550
  671TMC3    C8 9936   3.317   2.968  14.230 -0.2244 -0.6749  0.5123
  671TMC3    O1 9937   2.962   2.684  14.030 -0.2491  0.1205 -0.5054
  671TMC3    O2 9938   3.364   3.077  14.262 -0.7235 -0.3391 -0.2428
  672MPD2     C 9939   3.846   4.392   1.904 -0.9382 -0.2212 -0.4259
  672MPD2    C1 9940   3.793   4.437   1.786 -0.3594  0.4986 -1.2240
  672MPD2    C2 9941   3.855   4.540   1.711  0.7349 -0.3843 -0.6418
  672MPD2    C3 9942   3.976   4.586   1.752  0.1421 -0.2337  0.4918
  672MPD2    C4 9943   4.028   4.543   1.874  0.3164  0.4626 -0.3279
  672MPD2    C5 9944   3.966   4.449   1.946 -0.4565  0.1166 -0.0413
  672MPD2     H 9945   3.813   4.568   1.616  0.6797 -2.8770 -1.3495
  672MPD2    H1 9946   4.123   4.578   1.914  0.0365  0.6597  0.1732
  672MPD2    H2 9947   3.815   4.303   1.958  1.3191 -0.6905  0.1090
  672MPD2    H3 9948   4.020   4.416   2.034 -1.6582  0.4960  0.8525
  672MPD2     N 9949   4.049   4.673   1.670 -0.2811 -0.7672  0.1237
  672MPD2    H5 9950   4.148   4.679   1.693 -0.0078  2.4471 -1.9657
  672MPD2    N1 9951   3.676   4.376   1.736 -0.3806  0.0795  0.2558
  672MPD2    H7 9952   3.639   4.398   1.644 -0.9976  0.8797  0.6931
  673TMC3    C1 9953   3.507   4.217   1.709  0.0100 -0.0536  0.0475
  673TMC3    C2 9954   3.470   4.093   1.749  0.5108 -0.2504  0.0117
  673TMC3    C3 9955   3.482   3.992   1.670  0.4195  0.1315  0.1925
  673TMC3    C4 9956   3.535   4.237   1.575 -0.4248  0.1629  0.4405
  673TMC3    C5 9957   3.535   4.133   1.491 -0.6651  0.3108 -0.3983
  673TMC3    C6 9958   3.509   4.005   1.533 -0.6310 -0.2039  0.0524
  673TMC3     C 9959   3.609   4.270   1.795 -0.1893 -0.3646 -0.1084
  673TMC3     O 9960   3.625   4.203   1.896  0.3030 -0.2377 -0.7980
  673TMC3     H 9961   3.445   4.068   1.851 -0.5955  2.3870  0.3789
  673TMC3    H1 9962   3.559   4.335   1.535 -0.7011 -0.0075 -0.1370
  673TMC3    H2 9963   3.524   3.911   1.483 -1.0577  0.0440 -0.5422
  673TMC3    C7 9964   3.620   4.136   1.373  0.6206  0.0130  0.2744
  673TMC3    C8 9965   3.548   3.884   1.736 -0.4854  0.2280  0.2681
  673TMC3    O1 9966   3.698   4.039   1.371 -0.1183  0.3513  0.4755
  673TMC3    O2 9967   3.490   3.824   1.829  0.0262  0.5247 -0.5254
  674MPD2     C 9968   3.921   3.582   0.176 -0.1613  0.3475  0.8743
  674MPD2    C1 9969   3.889   3.502   0.288 -0.2787  0.2808 -0.5527
  674MPD2    C2 9970   3.870   3.555   0.407 -0.1967  0.0541  0.3638
  674MPD2    C3 9971   3.869   3.694   0.420  0.0426 -0.1967 -0.1175
  674MPD2    C4 9972   3.897   3.774   0.310 -0.6292 -0.4417 -0.1016
  674MPD2    C5 9973   3.934   3.716   0.192 -0.3724 -0.5411 -0.5444
  674MPD2     H 9974   3.850   3.496   0.496  0.9274 -0.4436  0.2856
  674MPD2    H1 9975   3.913   3.881   0.312 -0.6413 -0.4876  2.5073
  674MPD2    H2 9976   3.956   3.542   0.082  0.4635 -1.2554  1.7896
  674MPD2    H3 9977   3.966   3.776   0.108 -0.7352 -0.1852 -0.4282
  674MPD2     N 9978   3.848   3.735   0.555 -0.1207 -0.1266  0.3460
  674MPD2    H5 9979   3.868   3.658   0.618  1.8682 -1.4794 -1.9244
  674MPD2    N1 9980   3.902   3.362   0.256  0.0891 -0.4313  0.6625
  674MPD2    H7 9981   3.885   3.333   0.160  1.2361 -0.6654  0.5394
  675TMC3    C1 9982   3.922   3.131   0.303 -0.5130 -0.4787  0.5998
  675TMC3    C2 9983   3.801   3.109   0.244 -0.5747  0.6187 -0.2349
  675TMC3    C3 9984   3.733   2.997   0.280 -0.4034 -1.0656  0.3919
  675TMC3    C4 9985   3.971   3.044   0.396 -0.5672  0.1254  0.2829
  675TMC3    C5 9986   3.887   2.951   0.444 -0.0612 -0.5829 -0.6013
  675TMC3    C6 9987   3.778   2.913   0.375 -1.2849  0.0336 -0.6180
  675TMC3     C 9988   3.932   3.265   0.349 -0.3835 -0.2058 -0.5751
  675TMC3     O 9989   3.961   3.274   0.470  0.6853 -0.0452 -0.0843
  675TMC3     H 9990   3.760   3.171   0.165  1.1175  1.9394 -0.0801
  675TMC3    H1 9991   4.061   3.071   0.450 -0.3549 -0.6933  0.3373
  675TMC3    H2 9992   3.729   2.823   0.409  0.5692  0.0259  2.0035
  675TMC3    C7 9993   3.930   2.891   0.572 -0.1042  0.1676  0.1553
  675TMC3    C8 9994   3.589   2.990   0.245  0.2336 -0.6267 -0.2078
  675TMC3    O1 9995   4.046   2.925   0.599 -0.2026  0.1122  0.5092
  675TMC3    O2 9996   3.537   3.094   0.213  0.5561  0.1983 -0.3438
  676MPD2     C 9997   1.463   1.574  10.625 -0.0779 -0.1103  0.3679
  676MPD2    C1 9998   1.357   1.556  10.711 -0.0337  0.0986 -0.4574
  676MPD2    C2 9999   1.336   1.426  10.760  0.2536 -0.5221  0.1074
  676MPD2    C310000   1.408   1.317  10.705 -0.1755  0.9473 -0.3704
  676MPD2    C410001   1.512   1.341  10.613 -0.3411  0.4110 -1.1618
  676MPD2    C510002   1.541   1.472  10.582 -0.3773  0.1550  0.9796
  676MPD2     H10003   1.256   1.403  10.829  1.6677 -0.3553  1.8042
  676MPD2    H110004   1.569   1.269  10.555 -1.0350 -0.5213 -0.6788
  676MPD2    H210005   1.491   1.673  10.592  1.6385  0.1512  2.5431
  676MPD2    H310006   1.612   1.494  10.503  1.1148  1.3748  2.6784
  676MPD2     N10007   1.384   1.184  10.737  0.0363  0.1770  0.4363
  676MPD2    H510008   1.445   1.113  10.697  1.0962  1.3069  0.0471
  676MPD2    N110009   1.274   1.663  10.756  0.4955 -0.7622  0.0910
  676MPD2    H710010   1.217   1.644  10.838  2.1869 -2.0435  0.9940
  677TMC3    C110011   1.188   1.869  10.788  0.5359  0.2793  0.1122
  677TMC3    C210012   1.138   1.821  10.904 -0.4137 -0.0195  0.5327
  677TMC3    C310013   1.101   1.908  10.996 -0.1217 -0.4668 -0.6126
  677TMC3    C410014   1.198   2.006  10.768  0.1594  0.2942 -0.0541
  677TMC3    C510015   1.175   2.096  10.873 -0.9307 -0.7406 -0.1685
  677TMC3    C610016   1.117   2.043  10.978 -0.0132  0.0415 -0.0222
  677TMC3     C10017   1.283   1.793  10.719 -0.7898  0.6588  0.3469
  677TMC3     O10018   1.369   1.849  10.659 -0.4628  0.2485 -0.2191
  677TMC3     H10019   1.128   1.715  10.922 -0.6008 -0.0077  0.4919
  677TMC3    H110020   1.245   2.041  10.677  0.3126 -0.6587 -0.3424
  677TMC3    H210021   1.103   2.111  11.061 -1.8968 -1.6779  1.0588
  677TMC3    C710022   1.304   2.158  10.911 -0.2868  0.1958 -0.2493
  677TMC3    C810023   1.141   1.862  11.121  0.3181 -0.1668  0.5752
  677TMC3    O110024   1.309   2.262  10.977  0.1361 -0.4363  0.2360
  677TMC3    O210025   1.243   1.797  11.115  0.0019 -0.1014 -0.6447
  678MPD2     C10026   2.378   1.888   1.717  0.0453 -0.4100 -0.0195
  678MPD2    C110027   2.377   1.875   1.580  0.3579  0.9069 -0.0669
  678MPD2    C210028   2.256   1.887   1.516  1.0104  0.1912 -0.0733
  678MPD2    C310029   2.146   1.934   1.583 -0.0640 -0.4211 -0.0172
  678MPD2    C410030   2.151   1.964   1.717  0.2429  0.6131  0.2096
  678MPD2    C510031   2.264   1.934   1.787  0.5837 -0.0758 -0.3003
  678MPD2     H10032   2.253   1.872   1.409  0.6449  2.3100 -0.3601
  678MPD2    H110033   2.073   2.008   1.779  0.1808  0.4759  0.2285
  678MPD2    H210034   2.470   1.872   1.772 -1.2460 -1.6680  1.7374
  678MPD2    H310035   2.273   1.954   1.894 -1.1902 -0.7767 -0.0313
  678MPD2     N10036   2.031   1.956   1.504 -0.6222 -0.0126 -0.1805
  678MPD2    H510037   2.038   1.944   1.404 -1.1269 -0.1213 -0.2027
  678MPD2    N110038   2.487   1.832   1.505  0.3378 -0.6932 -0.3084
  678MPD2    H710039   2.475   1.838   1.404  0.3112 -3.3991 -0.4642
  679TMC3    C110040   2.910   1.685   1.383 -0.8471 -0.0055  0.3749
  679TMC3    C210041   2.813   1.703   1.477 -0.2339  0.1985 -0.2096
  679TMC3    C310042   2.711   1.786   1.447 -0.0572  0.0086  0.2255
  679TMC3    C410043   2.907   1.755   1.265 -0.9524 -0.0664  0.4451
  679TMC3    C510044   2.792   1.824   1.234  0.0280  0.8410  0.1339
  679TMC3    C610045   2.694   1.846   1.331 -0.0198  0.1848  0.5121
  679TMC3     C10046   3.037   1.619   1.421 -0.0470 -0.4492 -0.7487
  679TMC3     O10047   3.135   1.636   1.349 -0.2686  0.0825  0.7992
  679TMC3     H10048   2.813   1.641   1.566  2.4740  0.3270 -0.1296
  679TMC3    H110049   2.982   1.723   1.194 -0.8195  1.7167 -0.1874
  679TMC3    H210050   2.608   1.907   1.306 -1.4168 -1.1817  2.0527
  679TMC3    C710051   2.766   1.895   1.108 -0.3018  0.1076  0.0325
  679TMC3    C810052   2.611   1.790   1.554  0.0560 -0.2082 -0.9229
  679TMC3    O110053   2.647   1.910   1.071 -0.0571 -0.6467 -0.1986
  679TMC3    O210054   2.638   1.761   1.669 -0.2401  0.3223  0.0231
  680MPD2     C10055   3.213   0.557  13.405  0.4417 -0.9201  0.6648
  680MPD2    C110056   3.303   0.466  13.453 -0.8182 -0.0439 -0.1068
  680MPD2    C210057   3.377   0.500  13.560 -1.0850 -0.1156  0.6940
  680MPD2    C310058   3.363   0.624  13.621  0.1767  0.1975 -0.6310
  680MPD2    C410059   3.265   0.707  13.572  0.3838  0.0554  0.9763
  680MPD2    C510060   3.189   0.681  13.463  0.0206 -0.2999  0.7117
  680MPD2     H10061   3.470   0.450  13.582 -0.4350  1.2628  1.0718
  680MPD2    H110062   3.261   0.809  13.608  2.1952  0.3148  0.4429
  680MPD2    H210063   3.156   0.538  13.315  2.8899 -0.5416 -0.9514
  680MPD2    H310064   3.126   0.760  13.424  1.5311  0.8440  0.5844
  680MPD2     N10065   3.458   0.662  13.718  0.2857 -0.1804  0.3367
  680MPD2    H510066   3.465   0.759  13.748 -1.6775 -0.1474  0.6968
  680MPD2    N110067   3.323   0.344  13.380  0.2240 -0.3200 -0.2586
  680MPD2    H710068   3.398   0.282  13.408 -0.3622 -0.3847  1.1689
  681TMC3    C110069   3.310   0.167  13.220 -0.4418  0.3146  0.1334
  681TMC3    C210070   3.241   0.046  13.206 -0.8251  0.4978 -0.1646
  681TMC3    C310071   3.312   4.646  13.190 -0.0633  0.5330  0.8282
  681TMC3    C410072   3.446   0.165  13.207  0.7208 -0.6511 -0.7297
  681TMC3    C510073   3.510   0.051  13.184  0.4210 -0.1248 -0.6815
  681TMC3    C610074   3.449   4.647  13.188 -0.4560 -0.3820 -0.0639
  681TMC3     C10075   3.244   0.284  13.284 -0.1608 -0.0416  0.6660
  681TMC3     O10076   3.126   0.306  13.255  0.2506 -0.2288 -0.2193
  681TMC3     H10077   3.137   0.038  13.237 -0.7913  0.0804 -0.1572
  681TMC3    H110078   3.506   0.255  13.213 -0.5117  0.1417 -0.3111
  681TMC3    H210079   3.514   4.560  13.193 -1.1315 -1.0563 -2.8433
  681TMC3    C710080   3.653   0.053  13.153 -1.8187  0.5084  0.3294
  681TMC3    C810081   3.249   4.543  13.257 -0.2106 -0.9409  0.0181
  681TMC3    O110082   3.714   4.688  13.211  0.2070 -0.4077 -0.2725
  681TMC3    O210083   3.225   4.446  13.185  0.6603 -0.3413  0.2068
  682MPD2     C10084   0.172   1.545  10.706 -0.0273 -0.0224  0.6765
  682MPD2    C110085   0.265   1.442  10.709 -0.3499  1.5903  0.3906
  682MPD2    C210086   0.315   1.412  10.835 -0.1572 -0.4345 -0.3485
  682MPD2    C310087   0.274   1.482  10.952 -0.2073 -0.2934 -0.4372
  682MPD2    C410088   0.165   1.566  10.943 -0.4010 -0.3153  0.1401
  682MPD2    C510089   0.121   1.600  10.822  0.8354 -0.0075 -0.7484
  682MPD2     H10090   0.407   1.354  10.841  0.4211  0.3379 -1.8792
  682MPD2    H110091   0.131   1.621  11.030 -1.2666  1.2492 -1.1844
  682MPD2    H210092   0.134   1.584  10.613 -0.8421  1.1389  1.4889
  682MPD2    H310093   0.044   1.676  10.808 -0.9870 -1.8165 -0.5445
  682MPD2     N10094   0.345   1.470  11.075 -0.1066 -0.1954 -0.4170
  682MPD2    H510095   0.297   1.504  11.158 -0.0735 -0.4263 -0.3025
  682MPD2    N110096   0.314   1.368  10.593  0.2407  0.4230  0.0665
  682MPD2    H710097   0.354   1.276  10.609  0.5832  0.3396 -1.2484
  683TMC3    C110098   0.542   1.523  11.420 -0.4601 -0.4036  0.2279
  683TMC3    C210099   0.648   1.451  11.462 -0.3713 -0.1365 -0.1375
  683TMC3    C310100   0.672   1.332  11.390 -0.1858  0.1447  1.0741
  683TMC3    C410101   0.472   1.501  11.310 -0.4203 -0.2795 -0.6526
  683TMC3    C510102   0.507   1.397  11.233  0.0195 -0.4171  0.0831
  683TMC3    C610103   0.610   1.312  11.267  0.7171  0.1489 -0.4679
  683TMC3     C10104   0.482   1.608  11.521 -0.2405  0.0220 -0.3417
  683TMC3     O10105   0.432   1.714  11.487 -0.6300 -0.1698  0.3290
  683TMC3     H10106   0.692   1.466  11.560 -0.7435 -0.5893  0.0982
  683TMC3    H110107   0.391   1.571  11.294 -1.1327 -0.1872  3.2241
  683TMC3    H210108   0.644   1.221  11.221  0.0937 -0.2998 -0.0473
  683TMC3    C710109   0.460   1.396  11.094  0.0133 -0.1293  0.1591
  683TMC3    C810110   0.795   1.244  11.423  0.1705 -0.2246 -0.1115
  683TMC3    O110111   0.508   1.310  11.020  0.1752  0.0616 -0.1975
  683TMC3    O210112   0.826   1.158  11.339 -0.1184  0.2087 -0.0460
  684MPD2     C10113   3.702   1.473  16.185  0.0380 -0.0702 -0.3998
  684MPD2    C110114   3.707   1.431  16.053  0.3304  0.3971  0.2870
  684MPD2    C210115   3.785   1.506  15.962 -0.0754 -0.5939 -0.8291
  684MPD2    C310116   3.840   1.629  15.998  0.6330  0.2460 -0.0735
  684MPD2    C410117   3.809   1.675  16.127 -0.5210 -0.2682 -0.0972
  684MPD2    C510118   3.742   1.596  16.222 -0.5067  0.0769 -0.2477
  684MPD2     H10119   3.801   1.467  15.862 -3.9463  1.0262 -2.1225
  684MPD2    H110120   3.859   1.769  16.150  0.6610 -0.5195 -1.6486
  684MPD2    H210121   3.641   1.423  16.258  2.5277  1.2119  2.5338
  684MPD2    H310122   3.728   1.623  16.326  0.9431 -1.4722  0.3400
  684MPD2     N10123   3.944   1.703  15.932 -0.6306 -0.5646 -0.2260
  684MPD2    H510124   3.974   1.788  15.980 -1.0803 -1.0238  0.8584
  684MPD2    N110125   3.651   1.305  16.021 -0.2029  0.1304 -0.0446
  684MPD2    H710126   3.608   1.254  16.098 -0.4316  0.0643 -0.2145
  685TMC3    C110127   3.596   1.113  15.887  0.3765 -0.0470  0.2223
  685TMC3    C210128   3.533   1.068  15.779  0.5098 -0.2126  0.6762
  685TMC3    C310129   3.468   0.950  15.792 -0.0513  0.6173  0.9540
  685TMC3    C410130   3.617   1.034  16.000 -0.2848  1.1195  0.2111
  685TMC3    C510131   3.569   0.909  16.001 -0.6981  0.8989  0.1174
  685TMC3    C610132   3.491   0.867  15.898  0.6857  0.1628  0.7290
  685TMC3     C10133   3.650   1.249  15.892 -0.4184 -0.4717 -0.4891
  685TMC3     O10134   3.675   1.308  15.787  0.1845  0.2503 -0.3166
  685TMC3     H10135   3.514   1.125  15.688  3.2191  2.0494  1.4969
  685TMC3    H110136   3.677   1.072  16.082  1.5283 -2.0153  0.3359
  685TMC3    H210137   3.439   0.772  15.906 -0.4471  0.9826  3.0840
  685TMC3    C710138   3.627   0.830  16.110 -0.1374 -0.7417  0.6268
  685TMC3    C810139   3.360   0.913  15.705 -0.4617  0.3699 -1.0151
  685TMC3    O110140   3.665   0.893  16.206  0.3610 -0.5971  1.2289
  685TMC3    O210141   3.340   0.797  15.672  0.6233 -0.0428  0.6478
  686MPD2     C10142   4.674   1.524  16.198  0.2000  0.0936  0.1625
  686MPD2    C110143   4.641   1.414  16.131 -0.2838 -0.7196 -0.5819
  686MPD2    C210144   4.718   1.375  16.023  0.3238  1.3903  0.1836
  686MPD2    C310145   0.110   1.441  15.982  0.3184  0.1912 -0.1362
  686MPD2    C410146   0.147   1.552  16.054  0.0622 -0.5310  0.0172
  686MPD2    C510147   0.063   1.596  16.151 -0.6627 -1.0393 -0.3344
  686MPD2     H10148   4.684   1.283  15.975 -0.3239  2.3242 -1.1560
  686MPD2    H110149   0.230   1.614  16.024 -0.7393  0.3902 -0.3141
  686MPD2    H210150   4.617   1.562  16.282  0.6771 -1.8291  1.3603
  686MPD2    H310151   0.093   1.682  16.209 -2.1171  0.2629 -1.5058
  686MPD2     N10152   0.203   1.400  15.886  0.2503  0.0592  0.4818
  686MPD2    H510153   0.286   1.456  15.874  0.3563  0.2775  2.3582
  686MPD2    N110154   4.540   1.337  16.185 -0.0081  0.2609  0.2990
  686MPD2    H710155   4.508   1.365  16.276  1.2321 -3.3587  1.8354
  687TMC3    C110156   0.326   1.250  15.749  0.1547  0.7502  0.2868
  687TMC3    C210157   0.305   1.142  15.663  0.1755 -0.5861 -0.0069
  687TMC3    C310158   0.383   1.029  15.680 -0.7599 -0.0531  0.6249
  687TMC3    C410159   0.430   1.256  15.836 -0.7074  0.3647  0.6315
  687TMC3    C510160   0.505   1.142  15.848  0.0822  0.5127 -0.1525
  687TMC3    C610161   0.487   1.026  15.772  0.3346 -0.7481  0.0947
  687TMC3     C10162   0.197   1.284  15.808  0.0010  0.3368  0.0679
  687TMC3     O10163   0.107   1.205  15.809 -0.0873  0.2172 -0.3884
  687TMC3     H10164   0.208   1.147  15.614  0.8918 -1.5857 -1.5287
  687TMC3    H110165   0.441   1.340  15.903 -0.9520  0.7014  0.2459
  687TMC3    H210166   0.549   0.938  15.774  0.1539 -0.8441  1.4064
  687TMC3    C710167   0.605   1.142  15.950 -0.2752 -0.1177  0.7198
  687TMC3    C810168   0.331   0.901  15.649  0.9092  0.3071  0.1899
  687TMC3    O110169   0.643   1.251  15.991  0.6493 -0.5138  0.3510
  687TMC3    O210170   0.377   0.798  15.694 -0.5735 -0.1499  0.2526
  688MPD2     C10171   4.059   0.316  17.450  0.5702  0.2531  0.0347
  688MPD2    C110172   4.071   0.179  17.457  0.3797  0.0346  0.1415
  688MPD2    C210173   4.173   0.114  17.390 -0.2192  0.1385  0.3013
  688MPD2    C310174   4.262   0.184  17.302  0.2398 -0.1535  0.3085
  688MPD2    C410175   4.234   0.320  17.291  0.0555  0.3058  0.7678
  688MPD2    C510176   4.136   0.388  17.357 -0.2286 -0.1690 -0.0392
  688MPD2     H10177   4.190   0.010  17.416  0.6837  0.0771 -0.5571
  688MPD2    H110178   4.298   0.384  17.231  0.5516 -0.7791  0.1369
  688MPD2    H210179   4.002   0.375  17.520  1.7458 -0.5198  1.6361
  688MPD2    H310180   4.127   0.496  17.354 -0.8000 -0.1332  2.4986
  688MPD2     N10181   4.375   0.129  17.240  0.0970 -0.6621 -0.4489
  688MPD2    H510182   4.421   0.188  17.171  3.0515 -3.3574 -0.8009
  688MPD2    N110183   3.987   0.106  17.546  0.2005  0.4406  0.5566
  688MPD2    H710184   4.005   0.011  17.575 -1.4012 -0.1976 -0.5472
  689TMC3    C110185   3.830   0.129   0.037 -0.3873 -0.8317 -0.6306
  689TMC3    C210186   3.753   0.207   0.117 -0.7585  0.6511  0.0155
  689TMC3    C310187   3.704   0.167   0.233 -0.2504  0.3649 -0.6283
  689TMC3    C410188   3.845   0.003   0.078  0.1967  0.7538 -0.4644
  689TMC3    C510189   3.808   4.684   0.204  0.5758  0.5078  0.1806
  689TMC3    C610190   3.744   0.046   0.295 -0.3182  0.3570  0.0833
  689TMC3     C10191   3.867   0.165  17.589 -0.0585 -0.4734 -0.3022
  689TMC3     O10192   3.806   0.255  17.528 -0.6784 -0.2118 -0.1270
  689TMC3     H10193   3.720   0.302   0.077 -0.2598  0.5150 -0.7222
  689TMC3    H110194   3.891   4.647   0.016  0.8258  0.3560  0.4899
  689TMC3    H210195   3.727   0.008   0.396 -1.6318  0.5613 -0.0593
  689TMC3    C710196   3.803   4.543   0.238  0.6385  0.2157 -0.0622
  689TMC3    C810197   3.633   0.258   0.325 -0.6268 -0.0674  0.5724
  689TMC3    O110198   3.796   4.505   0.353  0.1809 -0.9364 -0.3450
  689TMC3    O210199   3.656   0.247   0.444  0.1974  0.2258 -0.1126
  690MPD2     C10200   1.809   2.048  15.751  0.8320  0.4702  0.6723
  690MPD2    C110201   1.711   2.057  15.647 -0.0032  0.0358 -0.3808
  690MPD2    C210202   1.739   2.093  15.517  0.3804  0.0820  0.6167
  690MPD2    C310203   1.867   2.130  15.484 -0.0516  0.2616 -0.2307
  690MPD2    C410204   1.964   2.114  15.579 -0.1100  0.3972  0.2576
  690MPD2    C510205   1.935   2.083  15.709 -0.2044 -0.3660  0.2114
  690MPD2     H10206   1.659   2.088  15.444 -0.5197  2.0678  1.4847
  690MPD2    H110207   2.066   2.149  15.570  0.6081 -1.8186 -0.3335
  690MPD2    H210208   1.790   2.020  15.853 -0.1303 -0.4590  0.2389
  690MPD2    H310209   2.013   2.088  15.785 -1.0005 -0.2870  1.0222
  690MPD2     N10210   1.891   2.181  15.351 -0.1279  0.3309 -0.0762
  690MPD2    H510211   1.813   2.189  15.287 -0.3801  0.7125  0.2815
  690MPD2    N110212   1.578   2.029  15.682  0.3428  0.6580 -0.2665
  690MPD2    H710213   1.521   1.995  15.606 -2.6578  0.8629  1.9027
  691TMC3    C110214   1.418   1.905  15.798 -0.2687 -0.2242  1.2282
  691TMC3    C210215   1.297   1.929  15.853  0.7173  0.5426  0.4437
  691TMC3    C310216   1.215   1.824  15.889 -0.4276  0.3348  0.2630
  691TMC3    C410217   1.453   1.773  15.776 -0.7849 -0.2095 -0.0597
  691TMC3    C510218   1.363   1.671  15.797 -0.0102  0.6708 -0.8904
  691TMC3    C610219   1.240   1.694  15.854 -0.0451  0.1925  1.0815
  691TMC3     C10220   1.529   2.001  15.809  0.5767  0.3904  0.0266
  691TMC3     O10221   1.533   2.083  15.899 -0.6194  0.2225 -0.0192
  691TMC3     H10222   1.291   2.028  15.895 -0.5695 -0.1326  1.8416
  691TMC3    H110223   1.550   1.750  15.732  0.0186  0.5502  1.3455
  691TMC3    H210224   1.177   1.610  15.880 -1.0249  0.3639 -0.7275
  691TMC3    C710225   1.408   1.538  15.792  0.6469  0.0540 -0.7616
  691TMC3    C810226   1.107   1.856  15.978  0.1103  0.1091 -0.3860
  691TMC3    O110227   1.530   1.517  15.784  0.0100  0.0136 -0.0790
  691TMC3    O210228   1.074   1.768  16.057  0.1500  0.0585  0.5336
  692TMC3    C110229   3.352   2.724  15.660  0.9586 -0.4194 -0.6201
  692TMC3    C210230   3.446   2.740  15.757 -0.1473 -0.4593  0.3521
  692TMC3    C310231   3.552   2.657  15.763 -0.4061 -0.8539  0.7821
  692TMC3    C410232   3.362   2.617  15.563 -0.1958 -0.2970 -0.1546
  692TMC3    C510233   3.464   2.528  15.591 -0.0514 -0.6054  0.2328
  692TMC3    C610234   3.558   2.543  15.690 -0.1234  0.1281 -0.4936
  692TMC3     C10235   3.237   2.808  15.690 -0.1194  0.0016  0.0554
  692TMC3     O10236   3.236   2.858  15.801  0.1445 -0.1429 -0.1111
  692TMC3     H10237   3.454   2.830  15.817  0.6176  2.2135 -3.7907
  692TMC3    H110238   3.291   2.604  15.482  0.0947 -0.7401 -0.3354
  692TMC3    H210239   3.623   2.461  15.718 -1.6033 -0.4731  1.1912
  692TMC3    C710240   3.485   2.417  15.501 -0.1677 -0.1120 -0.4112
  692TMC3    C810241   3.611   2.628  15.891  0.1553 -0.5265  0.2187
  692TMC3    O110242   3.389   2.376  15.436  0.4726 -0.6579  0.7732
  692TMC3    O210243   3.728   2.581  15.888  0.0858 -0.1307 -0.1126
  693MPD2     C10244   2.513   0.125  10.562 -0.1613 -0.3830 -0.1912
  693MPD2    C110245   2.543   0.174  10.689  0.0089 -0.2280  0.0131
  693MPD2    C210246   2.674   0.177  10.738  0.0220  0.2467 -0.5716
  693MPD2    C310247   2.770   0.141  10.642  0.2784  0.4477  0.1009
  693MPD2    C410248   2.738   0.113  10.513 -0.5476  0.1318  0.0516
  693MPD2    C510249   2.614   0.097  10.475  0.7315  0.2779 -0.5435
  693MPD2     H10250   2.702   0.208  10.837  1.1151  3.1257 -1.7808
  693MPD2    H110251   2.813   0.079  10.443 -2.7625 -1.7844 -1.3772
  693MPD2    H210252   2.414   0.136  10.520 -0.4741 -1.8182  0.1600
  693MPD2    H310253   2.610   0.067  10.371 -1.1094  0.2128 -0.4429
  693MPD2     N10254   2.908   0.122  10.679 -0.6711 -0.5734  0.0027
  693MPD2    H510255   2.972   0.116  10.601 -1.5533  0.8575 -0.8320
  693MPD2    N110256   2.435   0.215  10.771  0.1080  0.0195 -0.1130
  693MPD2    H710257   2.339   0.191  10.749 -0.5958  1.1780  1.6703
  694TMC3    C110258   2.322   0.339  10.944  0.5538  0.0709  0.4996
  694TMC3    C210259   2.198   0.311  10.892  0.4529 -0.1128 -0.6279
  694TMC3    C310260   2.086   0.306  10.981  0.3947 -0.4852 -0.0686
  694TMC3    C410261   2.335   0.365  11.083 -0.3515 -0.3059  0.7026
  694TMC3    C510262   2.227   0.353  11.168 -0.2957  0.0060  0.0124
  694TMC3    C610263   2.101   0.326  11.117  0.4425  0.0027 -0.2308
  694TMC3     C10264   2.450   0.300  10.879  0.1340  0.3255 -0.3768
  694TMC3     O10265   2.554   0.345  10.921 -0.1951 -0.1808 -0.0739
  694TMC3     H10266   2.184   0.289  10.787 -0.8614 -1.6415 -0.1234
  694TMC3    H110267   2.430   0.377  11.134  0.1032 -0.2511 -0.1561
  694TMC3    H210268   2.013   0.327  11.179 -0.4777  4.1046 -1.6142
  694TMC3    C710269   2.244   0.371  11.312  0.0282 -0.6642 -0.2205
  694TMC3    C810270   1.955   0.268  10.937  1.4510  0.8478 -0.0092
  694TMC3    O110271   2.321   0.460  11.346 -0.2238 -0.3125  1.1133
  694TMC3    O210272   1.890   0.194  11.012  0.6084 -0.2352 -0.1819
  695MPD2     C10273   3.596   2.317  13.776  0.4326 -0.0619  0.1384
  695MPD2    C110274   3.503   2.305  13.875  0.5976 -0.3102 -0.8999
  695MPD2    C210275   3.379   2.367  13.857  0.2039  0.4968  0.0585
  695MPD2    C310276   3.350   2.442  13.747  0.0535 -1.0092  0.5227
  695MPD2    C410277   3.455   2.468  13.660  0.0074 -0.3584 -0.5846
  695MPD2    C510278   3.566   2.394  13.670 -0.2678 -0.3134  0.4061
  695MPD2     H10279   3.296   2.346  13.924  0.2941  0.0808  0.0429
  695MPD2    H110280   3.446   2.544  13.583 -1.3471  1.2870  1.1950
  695MPD2    H210281   3.696   2.276  13.770  0.0729 -1.2453  2.2077
  695MPD2    H310282   3.644   2.422  13.600 -1.5485 -1.4037 -1.4703
  695MPD2     N10283   3.220   2.485  13.730  0.1902 -0.2147  0.2106
  695MPD2    H510284   3.158   2.450  13.801  0.0766 -0.1172  0.1592
  695MPD2    N110285   3.524   2.228  13.988  0.7265  0.0553  0.0821
  695MPD2    H710286   3.456   2.235  14.063  0.5420 -0.2933 -0.0532
  696TMC3    C110287   3.025   2.560  13.620 -0.0101 -0.2632  0.1428
  696TMC3    C210288   2.950   2.468  13.697 -0.8154 -0.2758 -1.1559
  696TMC3    C310289   2.813   2.485  13.691  0.0166  0.5743 -0.4475
  696TMC3    C410290   2.974   2.661  13.543 -0.2979 -0.1687  0.3546
  696TMC3    C510291   2.840   2.674  13.546 -0.5464 -0.2427  0.2118
  696TMC3    C610292   2.754   2.582  13.618 -0.3926  0.2346 -0.0260
  696TMC3     C10293   3.169   2.552  13.619 -0.4547  0.5361  0.6224
  696TMC3     O10294   3.221   2.608  13.527  0.5380 -0.3596  0.3155
  696TMC3     H10295   2.987   2.391  13.763  1.5757  2.0824  0.2443
  696TMC3    H110296   3.041   2.722  13.484  0.0145 -2.8343 -2.0433
  696TMC3    H210297   2.645   2.581  13.619 -0.3889  1.1311  0.9224
  696TMC3    C710298   2.786   2.786  13.474  0.0956  0.3110  0.1784
  696TMC3    C810299   2.729   2.375  13.731  0.4619 -0.4173  0.0856
  696TMC3    O110300   2.818   2.803  13.360  0.2025 -0.2650 -0.6611
  696TMC3    O210301   2.758   2.257  13.707  0.5990 -0.1657  0.1469
  697MPD2     C10302   2.456   0.131  15.476 -0.4943  0.4495  0.3744
  697MPD2    C110303   2.402   0.053  15.376 -0.0201  0.0613 -0.2514
  697MPD2    C210304   2.362   0.117  15.257 -0.2323  0.2843  1.0643
  697MPD2    C310305   2.344   0.254  15.247  0.4795  0.2263 -0.2021
  697MPD2    C410306   2.396   0.326  15.355  0.0957  0.7389  0.3197
  697MPD2    C510307   2.447   0.267  15.469 -0.5274  0.0404 -0.1074
  697MPD2     H10308   2.325   0.052  15.179 -0.1230 -0.5043  1.6755
  697MPD2    H110309   2.416   0.432  15.347  0.8181  0.4557 -1.5314
  697MPD2    H210310   2.516   0.089  15.556 -0.7503 -0.6212 -0.0012
  697MPD2    H310311   2.480   0.332  15.549  0.9529 -0.0394 -0.6554
  697MPD2     N10312   2.309   0.318  15.119  1.0904 -0.1821  0.1453
  697MPD2    H510313   2.287   0.252  15.044 -3.1281  0.4210  0.8361
  697MPD2    N110314   2.419   4.631  15.362 -0.1263 -0.0720 -0.4965
  697MPD2    H710315   2.397   4.595  15.270 -0.5076  2.9035 -1.5580
  698TMC3    C110316   2.323   0.484  14.955 -0.3534 -0.1419 -0.1254
  698TMC3    C210317   2.427   0.570  14.932  0.6117 -0.2718 -0.0636
  698TMC3    C310318   2.518   0.536  14.835 -0.7246  0.3948  0.2560
  698TMC3    C410319   2.290   0.382  14.866 -0.0430  0.3285 -0.0872
  698TMC3    C510320   2.382   0.354  14.768 -0.5019  0.1942  0.1955
  698TMC3    C610321   2.492   0.431  14.744  0.3375  0.5421 -0.1118
  698TMC3     C10322   2.319   0.452  15.094  0.1283  0.3834 -0.6076
  698TMC3     O10323   2.337   0.541  15.171  0.4714 -0.4861  0.0967
  698TMC3     H10324   2.458   0.651  14.998 -2.1211  0.4490  0.3431
  698TMC3    H110325   2.197   0.329  14.882 -0.0718  0.5460  0.4693
  698TMC3    H210326   2.563   0.402  14.668 -0.0309 -2.6356  0.7563
  698TMC3    C710327   2.346   0.265  14.664  0.8642  0.1336 -0.3461
  698TMC3    C810328   2.654   0.539  14.878 -0.2540 -0.8139  0.4631
  698TMC3    O110329   2.424   0.268  14.570 -0.2513  0.0873  0.1875
  698TMC3    O210330   2.743   0.555  14.792 -0.0240  0.0253  1.0253
  699TMC3    C110331   2.906   2.559  12.932  0.4052 -0.2997 -0.7961
  699TMC3    C210332   2.956   2.507  13.048 -0.4923  0.8618 -0.4303
  699TMC3    C310333   2.868   2.492  13.148 -1.1341 -0.0110 -0.0827
  699TMC3    C410334   2.778   2.592  12.914 -0.6988 -0.4193 -0.2517
  699TMC3    C510335   2.701   2.593  13.026  0.3204 -0.3984 -0.1537
  699TMC3    C610336   2.745   2.541  13.145 -0.5489 -0.2497 -0.1596
  699TMC3     C10337   2.994   2.581  12.815 -0.1871 -0.0048 -0.3223
  699TMC3     O10338   2.940   2.598  12.709  0.0172 -0.3206 -0.5835
  699TMC3     H10339   3.048   2.449  13.050 -0.0318  1.6190  0.2985
  699TMC3    H110340   2.749   2.648  12.826 -1.2823  1.4316  1.1122
  699TMC3    H210341   2.679   2.518  13.229 -1.3480  1.2518 -0.3747
  699TMC3    C710342   2.566   2.636  13.013  0.4901 -0.3755 -0.1756
  699TMC3    C810343   2.898   2.397  13.262 -0.0987 -0.4770 -0.0032
  699TMC3    O110344   2.510   2.681  13.113  0.1922  0.0477 -0.1689
  699TMC3    O210345   2.810   2.352  13.326  0.1371 -0.0764 -0.0237
  700TMC3    C110346   2.018   0.683  17.302  0.4668  0.4848 -0.0763
  700TMC3    C210347   2.102   0.578  17.282 -0.0253 -0.4318 -0.1059
  700TMC3    C310348   2.209   0.567  17.368 -1.0546  0.9009 -0.1166
  700TMC3    C410349   2.029   0.768  17.407  1.0553 -0.6144  0.4072
  700TMC3    C510350   2.152   0.769  17.480  0.3844 -0.0803 -1.1255
  700TMC3    C610351   2.245   0.664  17.458  0.2058  0.0445  0.4780
  700TMC3     C10352   1.957   0.725  17.180  0.0925 -0.4832  1.1397
  700TMC3     O10353   1.833   0.715  17.178 -0.4807  0.0388  0.4539
  700TMC3     H10354   2.086   0.507  17.201  0.3706  0.5248 -1.0130
  700TMC3    H110355   1.956   0.848  17.418  0.5222 -1.1526  0.8097
  700TMC3    H210356   2.339   0.673  17.513 -1.4913  0.1709  3.3724
  700TMC3    C710357   2.198   0.891  17.546 -0.3579  0.1466  0.0969
  700TMC3    C810358   2.307   0.477  17.326  0.3070 -0.3763 -0.3368
  700TMC3    O110359   2.317   0.883  17.574  0.3922 -0.0195  0.3267
  700TMC3    O210360   2.303   0.444  17.208 -0.0883 -0.2310 -0.2166
  701TMC3    C110361   2.043   3.677  15.484  0.5847 -0.1692 -0.3694
  701TMC3    C210362   2.123   3.605  15.397 -0.4126  0.3747 -0.4508
  701TMC3    C310363   2.172   3.662  15.287  0.2643  0.3406 -0.1715
  701TMC3    C410364   2.028   3.811  15.467 -0.1561  0.1445  0.0132
  701TMC3    C510365   2.089   3.866  15.359 -0.3323  0.2311  0.1612
  701TMC3    C610366   2.158   3.797  15.265 -0.0727 -0.2280 -0.3719
  701TMC3     C10367   1.954   3.611  15.590  0.4724  0.9917 -0.3308
  701TMC3     O10368   1.878   3.691  15.646 -0.1653 -0.2520 -0.2549
  701TMC3     H10369   2.133   3.500  15.424 -0.9366  1.1219  2.6950
  701TMC3    H110370   1.960   3.870  15.527  2.6261  2.6761  0.6581
  701TMC3    H210371   2.216   3.851  15.191  1.9951 -0.2689  1.1961
  701TMC3    C710372   2.106   4.008  15.359  0.4509  0.2257 -0.6601
  701TMC3    C810373   2.247   3.581  15.188 -0.1912 -0.9415  0.0019
  701TMC3    O110374   2.099   4.070  15.253 -0.1592 -0.4119  0.2466
  701TMC3    O210375   2.318   3.484  15.218 -0.4927  0.1385  0.4585
  702MPD2     C10376   1.776   0.746  10.528 -0.4139 -0.0193 -0.2153
  702MPD2    C110377   1.676   0.844  10.524 -0.5389  0.0552 -1.2045
  702MPD2    C210378   1.698   0.971  10.473 -0.5029 -0.3043 -0.1858
  702MPD2    C310379   1.824   1.006  10.433  0.0505 -0.0140  0.1834
  702MPD2    C410380   1.918   0.904  10.440 -0.3821 -0.3470  0.1549
  702MPD2    C510381   1.899   0.777  10.487  0.0754 -0.6739  0.3577
  702MPD2     H10382   1.622   1.047  10.484 -0.5231 -0.4918  0.9168
  702MPD2    H110383   2.021   0.933  10.425 -0.6393  1.3275  1.5958
  702MPD2    H210384   1.768   0.647  10.572  0.6828 -0.2935 -0.6038
  702MPD2    H310385   1.978   0.705  10.503 -1.3979 -1.6943  2.9340
  702MPD2     N10386   1.864   1.135  10.388 -0.1148 -0.9089  1.3841
  702MPD2    H510387   1.963   1.155  10.405  0.0522  0.8244 -1.7086
  702MPD2    N110388   1.551   0.830  10.587 -0.2667  0.9747 -0.1723
  702MPD2    H710389   1.500   0.918  10.580  0.4718  1.2849 -1.7284
  703TMC3    C110390   1.822   1.350  10.284  0.3572  0.3643  0.9898
  703TMC3    C210391   1.729   1.452  10.253  0.1020  0.0300 -0.0340
  703TMC3    C310392   1.773   1.581  10.226 -0.4113 -0.1785 -0.5729
  703TMC3    C410393   1.957   1.380  10.285 -0.2018 -0.2137 -0.0673
  703TMC3    C510394   1.994   1.511  10.249 -0.1395 -0.0180  0.0928
  703TMC3    C610395   1.907   1.611  10.227 -0.3246 -0.9480  0.1958
  703TMC3     C10396   1.778   1.224  10.336  0.0984  0.7435  0.3317
  703TMC3     O10397   1.655   1.223  10.338  0.3837  0.2981 -0.0244
  703TMC3     H10398   1.623   1.428  10.249  0.1082 -0.0519  0.2624
  703TMC3    H110399   2.029   1.301  10.302 -0.4884  0.0430  2.2620
  703TMC3    H210400   1.948   1.709  10.201 -2.3800 -0.2396 -0.3972
  703TMC3    C710401   2.134   1.537  10.217 -0.0580 -0.0517  0.5943
  703TMC3    C810402   1.683   1.689  10.200  0.2497  0.3339 -0.4535
  703TMC3    O110403   2.155   1.623  10.128 -0.4678  0.0158 -0.4874
  703TMC3    O210404   1.743   1.785  10.166  0.2362 -0.1478  0.0336
  704TMC3    C110405   3.784   4.602  12.070  0.1292  0.3691 -0.0848
  704TMC3    C210406   3.919   4.622  12.041 -0.4624  0.3966 -0.5620
  704TMC3    C310407   4.004   4.618  12.153  0.2098 -0.1676 -0.1648
  704TMC3    C410408   3.734   4.582  12.198  0.3189  0.2592 -0.1448
  704TMC3    C510409   3.824   4.569  12.300 -0.5124  0.6526  0.1049
  704TMC3    C610410   3.957   4.586  12.277  0.6779  0.0822 -0.1879
  704TMC3     C10411   3.709   4.519  11.985  0.6995  0.3898 -0.2345
  704TMC3     O10412   3.585   4.507  12.010  0.1099 -0.4190 -0.6559
  704TMC3     H10413   3.955   4.634  11.939 -0.3991  2.6963 -0.2772
  704TMC3    H110414   3.630   4.560  12.218  0.3831  1.1876  1.2533
  704TMC3    H210415   4.026   4.555  12.356  2.4178  1.2277 -1.2567
  704TMC3    C710416   3.791   4.472  12.392  0.0045 -0.0364  0.1122
  704TMC3    C810417   4.134   4.584  12.117  0.1697 -0.1614 -0.0401
  704TMC3    O110418   3.776   4.504  12.510  0.0596  0.1952 -0.0447
  704TMC3    O210419   4.139   4.518  12.014 -0.0354 -0.4716 -0.1218
  705MPD2     C10420   3.768   2.998  16.989  0.5220  0.0777  0.0669
  705MPD2    C110421   3.669   2.964  16.895 -0.5632  0.4847 -0.5879
  705MPD2    C210422   3.537   2.997  16.918  0.5285 -0.7308 -0.4331
  705MPD2    C310423   3.503   3.057  17.037 -0.2880  0.1072 -0.1511
  705MPD2    C410424   3.604   3.083  17.125  0.0308  0.1295 -0.0096
  705MPD2    C510425   3.737   3.050  17.111 -0.0140  0.8180 -0.3172
  705MPD2     H10426   3.459   2.970  16.847 -2.2254  1.4874  1.7573
  705MPD2    H110427   3.580   3.120  17.224  1.2001 -1.8936  1.0110
  705MPD2    H210428   3.873   2.975  16.970 -0.1141  1.2813 -5.0017
  705MPD2    H310429   3.809   3.075  17.188 -1.1306  0.4835  0.8367
  705MPD2     N10430   3.375   3.094  17.082  0.3701  0.0354 -0.0763
  705MPD2    H510431   3.379   3.160  17.159 -1.0589  2.2969 -1.9279
  705MPD2    N110432   3.698   2.909  16.764 -0.0129  0.0897  0.5755
  705MPD2    H710433   3.622   2.914  16.697 -0.5088 -0.9995  1.0573
  706TMC3    C110434   3.947   2.814  16.386  0.3252  0.4341 -0.2507
  706TMC3    C210435   3.869   2.901  16.314  0.0956 -0.5569  0.4634
  706TMC3    C310436   3.778   2.984  16.376  0.0584  0.1551  0.3720
  706TMC3    C410437   3.923   2.791  16.515  0.0005  0.0861 -0.0828
  706TMC3    C510438   3.828   2.869  16.572  0.2493  0.6332 -0.0400
  706TMC3    C610439   3.762   2.972  16.507 -0.5170 -0.1982 -0.5643
  706TMC3     C10440   4.044   2.721  16.318  0.1941  0.6242 -0.0049
  706TMC3     O10441   4.081   2.629  16.391 -0.1125  0.5746 -0.1544
  706TMC3     H10442   3.889   2.931  16.212  0.8598 -0.6907  0.5786
  706TMC3    H110443   3.985   2.715  16.563 -0.5982  1.4176  2.8280
  706TMC3    H210444   3.689   3.036  16.556  0.6001  0.8708 -0.3064
  706TMC3    C710445   3.811   2.855  16.719  0.0222  0.2276 -0.2500
  706TMC3    C810446   3.669   3.057  16.308  0.4124  0.0402 -0.1852
  706TMC3    O110447   3.904   2.803  16.785  0.0055  0.4330 -0.4747
  706TMC3    O210448   3.630   3.011  16.203  0.1056 -0.1108 -0.4322
  707TMC3    C110449   0.091   2.644   0.850 -0.2164  0.3462  0.0002
  707TMC3    C210450   4.709   2.568   0.801 -0.4701  0.2005 -0.0160
  707TMC3    C310451   4.664   2.587   0.671  0.1293 -0.3371  0.2781
  707TMC3    C410452   0.150   2.748   0.779 -0.3531 -0.3825 -0.1951
  707TMC3    C510453   0.104   2.754   0.648 -0.3648 -0.0235 -0.7208
  707TMC3    C610454   0.006   2.678   0.589  0.5977 -0.0525 -0.1962
  707TMC3     C10455   0.165   2.603   0.969 -0.2545 -0.0478  0.1219
  707TMC3     O10456   0.288   2.603   0.958  0.1919  0.4869  0.0042
  707TMC3     H10457   4.661   2.505   0.875 -1.6482  0.2930 -0.7057
  707TMC3    H110458   0.233   2.802   0.822 -0.0732 -0.1988 -0.9684
  707TMC3    H210459   4.704   2.686   0.484  0.6074 -0.4161 -0.2225
  707TMC3    C710460   0.152   2.867   0.566  0.5341 -0.1634 -0.3009
  707TMC3    C810461   4.596   2.474   0.608 -0.3937  0.0569 -0.1605
  707TMC3    O110462   0.199   2.969   0.616 -0.4916  0.1483  0.1300
  707TMC3    O210463   4.517   2.488   0.513 -0.1486 -0.2535  0.0473
  708MPD2     C10464   2.258   1.030  13.538 -0.1586  0.0739  1.0082
  708MPD2    C110465   2.186   1.091  13.636  0.9261 -0.1494  0.0890
  708MPD2    C210466   2.231   1.089  13.766 -0.6294 -0.1510  0.3425
  708MPD2    C310467   2.351   1.028  13.799  0.1000  0.0088 -0.0734
  708MPD2    C410468   2.419   0.966  13.695  0.3421  0.0306 -0.6600
  708MPD2    C510469   2.374   0.963  13.563 -0.5270  0.3228  0.6126
  708MPD2     H10470   2.173   1.127  13.850 -0.1933  1.4795 -0.1149
  708MPD2    H110471   2.516   0.920  13.714 -0.3711 -0.6397  1.4435
  708MPD2    H210472   2.221   1.028  13.436  0.1546 -1.3728  0.9262
  708MPD2    H310473   2.438   0.919  13.488 -0.3925  0.7557  0.4729
  708MPD2     N10474   2.398   1.031  13.936 -0.3074 -0.8463  0.0937
  708MPD2    H510475   2.351   1.086  14.008 -1.1601 -2.4838  0.8075
  708MPD2    N110476   2.067   1.152  13.603 -0.6148  0.1604  0.6374
  708MPD2    H710477   2.037   1.131  13.509  1.4586  0.2414 -0.0276
  709TMC3    C110478   1.858   1.233  13.645  0.0853  0.7058 -0.2100
  709TMC3    C210479   1.816   1.175  13.528  0.0983  0.1216  0.5640
  709TMC3    C310480   1.705   1.102  13.541  0.1828  0.5829  0.1963
  709TMC3    C410481   1.792   1.218  13.769  0.0681  0.0114  0.1987
  709TMC3    C510482   1.704   1.112  13.780  0.2327 -0.6575  0.1313
  709TMC3    C610483   1.660   1.054  13.664 -0.0534 -0.3579  0.2231
  709TMC3     C10484   1.995   1.242  13.675  0.3419  0.3460 -0.1991
  709TMC3     O10485   2.021   1.305  13.776  0.2814  0.0333  0.0078
  709TMC3     H10486   1.863   1.214  13.439  0.1572 -1.7854 -0.2472
  709TMC3    H110487   1.832   1.254  13.863  2.4366  0.7135 -1.0528
  709TMC3    H210488   1.584   0.977  13.669 -0.2228 -0.1094  1.5140
  709TMC3    C710489   1.732   1.028  13.900  0.3262 -0.0697 -0.0318
  709TMC3    C810490   1.665   1.021  13.431  0.4326  0.3066  0.1435
  709TMC3    O110491   1.754   1.099  14.003 -0.6360 -0.4081  0.6991
  709TMC3    O210492   1.617   0.909  13.458 -0.1981  0.5468  0.5462
  710TMC3    C110493   2.314   2.555   0.770 -0.0494 -0.0205 -0.2078
  710TMC3    C210494   2.376   2.632   0.678 -0.1638  0.3884 -0.6900
  710TMC3    C310495   2.498   2.597   0.625  0.3757 -0.0572  0.6930
  710TMC3    C410496   2.379   2.436   0.801  0.5217  0.0613  0.4788
  710TMC3    C510497   2.498   2.402   0.735  0.2506 -0.5642 -0.2958
  710TMC3    C610498   2.561   2.475   0.646  0.4189  0.2394  0.4168
  710TMC3     C10499   2.234   2.623   0.871  0.1054  0.0326  0.1746
  710TMC3     O10500   2.171   2.718   0.833 -0.6388 -0.1033  0.6743
  710TMC3     H10501   2.337   2.728   0.644  0.0333  0.7269  0.0486
  710TMC3    H110502   2.349   2.373   0.884  2.3859 -1.6116 -0.1238
  710TMC3    H210503   2.662   2.459   0.613  0.2814 -0.4024  0.2899
  710TMC3    C710504   2.571   2.287   0.788  0.2304 -0.1070 -0.1863
  710TMC3    C810505   2.558   2.688   0.528  0.0508  0.6807 -0.0685
  710TMC3    O110506   2.524   2.232   0.883 -0.0696 -0.6120  0.8108
  710TMC3    O210507   2.557   2.807   0.553 -0.0244 -0.5406  0.0956
  711TMC3    C110508   2.576   2.906  14.737  0.8273  0.0182  0.0760
  711TMC3    C210509   2.543   3.010  14.830 -0.0221  0.4402  0.6161
  711TMC3    C310510   2.641   3.050  14.908  0.2928  0.6595 -0.0017
  711TMC3    C410511   2.702   2.844  14.739  0.4321  0.0843  0.6332
  711TMC3    C510512   2.783   2.871  14.844  0.1960  0.3734  0.0458
  711TMC3    C610513   2.760   2.978  14.926 -0.0257  0.5415  0.1740
  711TMC3     C10514   2.500   2.896  14.615 -0.0282 -0.8007 -0.0955
  711TMC3     O10515   2.492   2.792  14.556  0.4807 -0.2510 -0.3636
  711TMC3     H10516   2.443   3.052  14.831 -0.3102 -0.2274 -0.8873
  711TMC3    H110517   2.727   2.767  14.667  0.8897  1.0280 -0.2214
  711TMC3    H210518   2.832   2.999  15.004 -0.5632  2.9337  0.0376
  711TMC3    C710519   2.885   2.777  14.882 -0.0261  0.0470  0.2959
  711TMC3    C810520   2.619   3.166  14.990  0.5769 -0.0227  0.1467
  711TMC3    O110521   2.978   2.819  14.952  0.7671  0.4363 -0.0271
  711TMC3    O210522   2.500   3.195  15.009 -0.0331  0.3819 -0.4794
  712MPD2     C10523   4.207   4.475  13.720  0.0423  0.1738 -0.1963
  712MPD2    C110524   4.125   4.493  13.607 -0.0647  0.4745 -0.7574
  712MPD2    C210525   4.125   4.614  13.542  1.0520  0.0996 -0.3229
  712MPD2    C310526   4.202   4.718  13.593 -0.5980 -0.1136 -0.2172
  712MPD2    C410527   4.276   4.699  13.707  0.2593  0.2885  0.0279
  712MPD2    C510528   4.290   4.572  13.761 -0.0738 -0.5561 -0.4208
  712MPD2     H10529   4.072   4.627  13.448  1.1822  1.0315 -0.2614
  712MPD2    H110530   4.322   0.061  13.760  2.4328  0.1509 -1.6589
  712MPD2    H210531   4.209   4.383  13.776  1.9864 -0.5402 -1.4292
  712MPD2    H310532   4.362   4.560  13.841 -0.1159  1.4190 -0.0933
  712MPD2     N10533   4.198   0.127  13.532 -0.0996  0.0009 -1.1433
  712MPD2    H510534   4.258   0.197  13.575  1.5585 -1.2686 -1.3868
  712MPD2    N110535   4.041   4.395  13.559  0.0488 -0.6017  0.3680
  712MPD2    H710536   3.984   4.419  13.479  0.2846  1.1095  0.7210
  713TMC3    C110537   4.161   0.297  13.387  0.2152 -0.5028  0.0921
  713TMC3    C210538   4.297   0.315  13.371 -0.8647  0.0011  0.3529
  713TMC3    C310539   4.346   0.416  13.304  0.0319 -0.5748 -0.3195
  713TMC3    C410540   4.067   0.388  13.346 -0.1600 -0.2856  0.5034
  713TMC3    C510541   4.122   0.493  13.277  0.0750  0.0976  0.8023
  713TMC3    C610542   4.259   0.521  13.266  0.4255 -0.0866  0.0308
  713TMC3     C10543   4.120   0.165  13.425  0.0934 -0.3254 -0.3455
  713TMC3     O10544   4.027   0.105  13.375 -0.5672 -0.0923  0.0290
  713TMC3     H10545   4.365   0.235  13.400 -1.6861 -1.7531 -2.5577
  713TMC3    H110546   3.960   0.381  13.367 -0.6533  0.3980 -1.8805
  713TMC3    H210547   4.293   0.614  13.222 -1.6665 -0.3322 -2.0782
  713TMC3    C710548   4.036   0.595  13.231  0.4850 -0.1820  0.2560
  713TMC3    C810549   4.480   0.455  13.317  0.8963  0.6114  0.6579
  713TMC3    O110550   4.086   0.708  13.232  0.1229  0.5186  0.0407
  713TMC3    O210551   4.532   0.511  13.223  0.3013  0.1067  0.0885
  714MPD2     C10552   1.843   3.230   1.780  0.4606 -0.1323 -0.0825
  714MPD2    C110553   1.741   3.207   1.695 -0.6464  0.4150  0.1390
  714MPD2    C210554   1.703   3.311   1.612  0.4514  0.0703  0.6332
  714MPD2    C310555   1.763   3.435   1.623  0.4746 -0.7569 -0.5202
  714MPD2    C410556   1.858   3.461   1.722  0.3371 -1.2013  0.7409
  714MPD2    C510557   1.894   3.353   1.804 -0.4364 -0.8852  0.3565
  714MPD2     H10558   1.630   3.285   1.536  2.7089  1.0938 -1.8682
  714MPD2    H110559   1.899   3.560   1.742 -2.4325  0.3022 -1.1019
  714MPD2    H210560   1.885   3.147   1.836 -1.4607 -0.4219  0.9206
  714MPD2    H310561   1.980   3.368   1.869 -0.0475 -3.2667  0.3892
  714MPD2     N10562   1.722   3.534   1.534  0.3097 -0.1051 -0.3702
  714MPD2    H510563   1.642   3.509   1.478  0.9574 -0.1997 -1.2510
  714MPD2    N110564   1.680   3.080   1.687  0.0428 -0.3574 -0.3458
  714MPD2    H710565   1.620   3.062   1.607 -1.4138 -1.1699  0.9212
  715TMC3    C110566   1.633   2.866   1.756 -0.1361  0.8388 -0.3110
  715TMC3    C210567   1.684   2.816   1.641 -0.1725 -0.4472  0.0687
  715TMC3    C310568   1.698   2.678   1.629  0.4668  0.4543  0.6497
  715TMC3    C410569   1.592   2.782   1.857  0.0574  0.1396  0.9752
  715TMC3    C510570   1.606   2.645   1.845  0.0416 -0.2218 -0.1641
  715TMC3    C610571   1.661   2.593   1.736  0.3022  0.6877  0.1883
  715TMC3     C10572   1.660   3.003   1.795  0.0076 -0.3667  0.2778
  715TMC3     O10573   1.695   3.018   1.912 -0.1142  0.0399  0.1293
  715TMC3     H10574   1.713   2.876   1.555 -0.0090  0.6361  0.8760
  715TMC3    H110575   1.557   2.829   1.949 -0.5342  0.1387  0.7522
  715TMC3    H210576   1.668   2.487   1.712  1.0019  0.8833 -0.4873
  715TMC3    C710577   1.576   2.546   1.950 -0.1226  0.8763  0.0668
  715TMC3    C810578   1.786   2.632   1.526 -0.3832 -0.3861 -0.0375
  715TMC3    O110579   1.613   2.429   1.931 -0.2682 -0.6612 -0.2209
  715TMC3    O210580   1.762   2.690   1.417  0.3683 -0.1306 -0.3255
  716MPD2     C10581   0.950   1.871   9.990  0.3061 -0.3897  0.0317
  716MPD2    C110582   0.857   1.777   9.944  0.0677 -1.0359  0.0573
  716MPD2    C210583   0.876   1.640   9.979 -0.1929 -0.2493  0.2236
  716MPD2    C310584   0.976   1.598  10.067  0.1183 -0.1977 -0.1256
  716MPD2    C410585   1.067   1.691  10.112 -0.0981  0.4070  0.8181
  716MPD2    C510586   1.053   1.825  10.074 -0.0398  0.5972 -0.3315
  716MPD2     H10587   0.802   1.566   9.950 -2.4278  1.6182  1.1338
  716MPD2    H110588   1.147   1.667  10.181  0.3633  0.5848  0.3387
  716MPD2    H210589   0.937   1.976   9.968  1.2154 -0.0132  1.3429
  716MPD2    H310590   1.139   1.888  10.091  0.6997 -0.3348 -0.5920
  716MPD2     N10591   0.973   1.458  10.096  0.9133 -0.5045 -0.0100
  716MPD2    H510592   0.891   1.410  10.061  2.0179 -0.8986 -2.0590
  716MPD2    N110593   0.752   1.829   9.869 -0.1713 -0.2845  0.3945
  716MPD2    H710594   0.759   1.921   9.825  0.2591 -0.0196  1.0134
  717TMC3    C110595   1.057   1.245  10.122 -0.0301 -0.6389  0.0190
  717TMC3    C210596   0.966   1.207  10.026 -0.4868  0.7430  0.0787
  717TMC3    C310597   0.962   1.076   9.982  0.4117  0.1096  0.0760
  717TMC3    C410598   1.126   1.149  10.183  0.0036  0.6938 -0.5389
  717TMC3    C510599   1.108   1.019  10.147  0.0357 -0.3589 -0.3701
  717TMC3    C610600   1.029   0.975  10.047  0.1014 -0.2396  0.0278
  717TMC3     C10601   1.067   1.381  10.157 -0.3480 -0.5003  0.1827
  717TMC3     O10602   1.176   1.412  10.202 -0.6124  0.2012 -0.2817
  717TMC3     H10603   0.928   1.277   9.952 -0.3416  1.1343  0.3767
  717TMC3    H110604   1.187   1.184  10.266 -0.0602  0.3274 -0.3365
  717TMC3    H210605   1.043   0.879  10.000 -0.5007  1.0328 -2.7147
  717TMC3    C710606   1.211   0.926  10.189 -0.3752  0.2451  0.2413
  717TMC3    C810607   0.887   1.046   9.851  0.3196 -0.1520 -0.1649
  717TMC3    O110608   1.314   0.980  10.226 -0.1373  0.4104 -0.0481
  717TMC3    O210609   0.839   1.144   9.798 -0.4126 -0.0516  0.0667
  718MPD2     C10610   0.723   4.273  13.019 -0.4834 -0.4284  0.2742
  718MPD2    C110611   0.640   4.380  12.984  0.7047 -0.5785  0.4936
  718MPD2    C210612   0.525   4.358  12.918  1.0924 -0.5127  0.4838
  718MPD2    C310613   0.485   4.222  12.890  0.3473 -0.0596  0.0689
  718MPD2    C410614   0.562   4.112  12.929  0.2579 -0.3731  0.2840
  718MPD2    C510615   0.683   4.144  12.995  0.2951  0.0475 -0.0004
  718MPD2     H10616   0.463   4.441  12.886  0.5647 -0.6494  1.1646
  718MPD2    H110617   0.555   4.008  12.897 -0.0551  0.1784 -1.4088
  718MPD2    H210618   0.821   4.279  13.065 -0.9135  0.6742  1.0601
  718MPD2    H310619   0.749   4.061  13.015  0.3688  0.3959  1.1731
  718MPD2     N10620   0.367   4.214  12.812 -0.3152  0.0487  0.1235
  718MPD2    H510621   0.322   4.304  12.794  2.1529  1.0543 -0.9786
  718MPD2    N110622   0.686   4.514  13.015  0.2301 -0.3109 -1.1319
  718MPD2    H710623   0.786   4.523  13.028 -0.0195  0.6379  0.1377
  719TMC3    C110624   0.678   0.035  12.988 -0.8540  0.1514 -0.3567
  719TMC3    C210625   0.582   0.131  12.957  0.0741 -0.1186 -0.2499
  719TMC3    C310626   0.590   0.196  12.840  0.3462  0.8006 -0.3431
  719TMC3    C410627   0.801   0.037  12.931  0.3374  0.0305  0.3569
  719TMC3    C510628   0.814   0.120  12.819  0.6680  0.0548 -0.0166
  719TMC3    C610629   0.710   0.188  12.767  0.9730 -0.7128 -0.6619
  719TMC3     C10630   0.608   4.621  13.002 -0.2689  0.1589 -0.4091
  719TMC3     O10631   0.486   4.632  12.998 -0.8389 -0.2575 -0.1048
  719TMC3     H10632   0.486   0.135  13.008  0.0257  0.0370 -0.3510
  719TMC3    H110633   0.883   4.692  12.958  1.1287  0.8409 -0.0648
  719TMC3    H210634   0.732   0.254  12.684  0.5081 -0.5493 -0.6575
  719TMC3    C710635   0.951   0.153  12.767  0.3228  0.1280 -0.1781
  719TMC3    C810636   0.474   0.174  12.759  0.2129 -0.1884 -0.1813
  719TMC3    O110637   0.954   0.225  12.671 -0.3442  0.0434 -0.0547
  719TMC3    O210638   0.365   0.146  12.816  0.3060  0.2879 -0.2333
  720MPD2     C10639   4.107   1.468  13.788  0.3731  0.1618 -0.1751
  720MPD2    C110640   4.142   1.599  13.793  0.1086  0.0922 -0.0597
  720MPD2    C210641   4.266   1.637  13.840  0.9176  0.4446  0.2861
  720MPD2    C310642   4.353   1.539  13.892  0.1418 -0.0621 -0.0204
  720MPD2    C410643   4.313   1.407  13.887  0.0271  0.2117 -0.0986
  720MPD2    C510644   4.191   1.373  13.846  0.0453  1.0239 -0.5645
  720MPD2     H10645   4.297   1.738  13.865 -1.8402  1.1088  1.0319
  720MPD2    H110646   4.374   1.324  13.921  0.2557  0.4149 -0.0099
  720MPD2    H210647   4.004   1.435  13.782  1.0022 -1.3263 -2.7754
  720MPD2    H310648   4.165   1.267  13.844  0.0918  1.0151 -0.7217
  720MPD2     N10649   4.475   1.578  13.956 -0.5442 -0.0178  0.4351
  720MPD2    H510650   4.504   1.673  13.934 -0.7040 -0.1039 -0.1449
  720MPD2    N110651   4.048   1.699  13.753 -0.5955 -1.0499 -0.1689
  720MPD2    H710652   3.967   1.666  13.700 -1.5776  1.5143 -0.3147
  721TMC3    C110653   4.699   1.539  14.024  0.2393  0.0302 -0.3480
  721TMC3    C210654   0.056   1.473  14.111 -0.8766  0.7920  0.7267
  721TMC3    C310655   0.185   1.517  14.128 -0.1654  0.0057 -0.0922
  721TMC3    C410656   0.023   1.631  13.929  0.2292  0.0287 -0.1460
  721TMC3    C510657   0.155   1.652  13.941 -0.6862  0.0894  0.4855
  721TMC3    C610658   0.241   1.604  14.038 -0.2989  0.4418 -0.0946
  721TMC3     C10659   4.559   1.491  14.015  0.1874 -0.8009  0.2385
  721TMC3     O10660   4.531   1.382  14.061  0.9738  0.4645 -0.4948
  721TMC3     H10661   0.003   1.412  14.183 -0.9622  0.1059  0.0877
  721TMC3    H110662   4.679   1.671  13.852  0.6326  1.4503  0.2409
  721TMC3    H210663   0.343   1.637  14.050 -0.1233  0.3063 -1.2220
  721TMC3    C710664   0.220   1.742  13.846 -0.1808  0.0739 -0.4869
  721TMC3    C810665   0.260   1.476  14.245 -0.0082 -0.0002  0.5579
  721TMC3    O110666   0.337   1.727  13.828  0.5310  0.8696  0.5629
  721TMC3    O210667   0.383   1.479  14.233 -0.1315  0.9487 -0.0443
  722MPD2     C10668   3.025   0.061  12.926  0.5592  0.4785 -0.6218
  722MPD2    C110669   2.951   0.162  12.876  1.0602 -0.4947 -0.5384
  722MPD2    C210670   2.814   0.141  12.839  0.5481  0.0152  0.9502
  722MPD2    C310671   2.751   0.017  12.869 -0.8172  0.0383  0.0214
  722MPD2    C410672   2.831   4.645  12.930  0.0324 -0.1741 -0.2097
  722MPD2    C510673   2.964   4.669  12.958 -0.2620 -0.5150  0.4703
  722MPD2     H10674   2.742   0.217  12.812  1.2836  0.4439  0.2148
  722MPD2    H110675   2.785   4.550  12.954 -0.6754 -0.3336 -2.2123
  722MPD2    H210676   3.132   0.065  12.945  0.7621 -0.9884 -1.5240
  722MPD2    H310677   3.017   4.592  13.013 -0.5521 -0.9439  0.1569
  722MPD2     N10678   2.609   0.009  12.856  0.0889 -0.0447 -0.2939
  722MPD2    H510679   2.574   0.097  12.821 -0.4983  0.1999  0.9189
  722MPD2    N110680   3.000   0.295  12.864  0.0172  0.5553  0.3150
  722MPD2    H710681   2.933   0.370  12.848 -1.3615  0.0601  3.7547
  723TMC3    C110682   2.388   4.665  12.887  0.2065  0.3542  0.3642
  723TMC3    C210683   2.285   4.574  12.882 -1.2393 -1.1285  0.4053
  723TMC3    C310684   2.153   4.612  12.899  0.1874  0.3144 -0.1613
  723TMC3    C410685   2.354   0.076  12.906 -0.5012 -0.1256  0.2504
  723TMC3    C510686   2.222   0.113  12.903  0.0254 -0.6827  0.5082
  723TMC3    C610687   2.117   0.021  12.894 -0.5330 -0.5861 -0.2157
  723TMC3     C10688   2.524   4.626  12.893  0.3046  0.0521 -0.6416
  723TMC3     O10689   2.547   4.510  12.929 -0.3017 -0.0814 -0.1840
  723TMC3     H10690   2.292   4.467  12.867 -1.4735 -1.0414 -0.3224
  723TMC3    H110691   2.426   0.155  12.922  2.0073 -2.0878 -1.3207
  723TMC3    H210692   2.017   0.059  12.909 -0.7694 -1.7487  1.1178
  723TMC3    C710693   2.201   0.256  12.895 -0.3153 -0.5972 -0.3974
  723TMC3    C810694   2.041   4.522  12.902  0.4265  0.6357  0.0930
  723TMC3    O110695   2.301   0.326  12.902 -0.1291  0.1801 -0.5108
  723TMC3    O210696   1.936   4.579  12.923  0.0872  0.4567 -0.0267
  724TMC3    C110697   3.603   2.554   9.322  0.3806  0.5808 -0.7052
  724TMC3    C210698   3.515   2.656   9.361  0.5025 -0.9064 -0.1036
  724TMC3    C310699   3.528   2.781   9.305 -0.1210  0.4027  0.0748
  724TMC3    C410700   3.697   2.569   9.231  0.3737  0.1767 -0.8688
  724TMC3    C510701   3.707   2.695   9.169 -0.5025 -0.5777 -0.4381
  724TMC3    C610702   3.630   2.802   9.214  0.8439 -0.0844  0.1760
  724TMC3     C10703   3.568   2.420   9.360 -0.1488 -0.8757 -1.0631
  724TMC3     O10704   3.605   2.333   9.281  0.5108 -0.2230  0.4791
  724TMC3     H10705   3.420   2.631   9.406  0.7156  0.7119  1.2465
  724TMC3    H110706   3.763   2.484   9.216 -0.0860 -0.5458  1.1219
  724TMC3    H210707   3.625   2.895   9.158 -0.1817 -0.7343 -0.8143
  724TMC3    C710708   3.815   2.714   9.080 -1.1687 -0.0037  0.2611
  724TMC3    C810709   3.416   2.876   9.326  0.0973  0.2707 -0.4129
  724TMC3    O110710   3.867   2.823   9.085  1.0843  0.1859  0.1653
  724TMC3    O210711   3.309   2.826   9.346  0.5169  0.6022  0.1640
  725TMC3    C110712   4.584   2.138  13.010 -0.1608 -0.6256 -0.0181
  725TMC3    C210713   4.521   2.150  12.892  0.4958  0.6061 -0.5659
  725TMC3    C310714   4.396   2.097  12.873 -0.4304 -0.2903  0.3729
  725TMC3    C410715   4.546   2.049  13.106  0.4483  0.1045  0.0931
  725TMC3    C510716   4.424   1.985  13.082  0.0596 -0.0098  0.3366
  725TMC3    C610717   4.352   2.008  12.965 -0.5459  0.2379 -0.1659
  725TMC3     C10718   4.716   2.205  13.013 -0.2792 -0.1199 -0.2998
  725TMC3     O10719   4.706   2.325  12.997  0.7466 -0.5913  0.0925
  725TMC3     H10720   4.551   2.229  12.824 -0.0849  0.4789 -0.9721
  725TMC3    H110721   4.604   2.033  13.196  0.7993  3.9018  0.5361
  725TMC3    H210722   4.259   1.956  12.945 -0.2274 -0.6154  0.5665
  725TMC3    C710723   4.392   1.876  13.177 -0.0485 -0.6872 -0.6462
  725TMC3    C810724   4.363   2.054  12.740 -0.2351  0.3281 -1.2321
  725TMC3    O110725   4.423   1.901  13.290 -0.0101  0.2510  0.0951
  725TMC3    O210726   4.271   1.978  12.728  0.1865 -0.1527  0.1645
  726MPD2     C10727   2.770   3.378  10.032  0.1613 -0.3258  0.3001
  726MPD2    C110728   2.776   3.427  10.162 -0.0109  0.6724  0.3332
  726MPD2    C210729   2.728   3.346  10.266  0.1176 -0.2490  0.0592
  726MPD2    C310730   2.695   3.217  10.246  0.5128 -0.7049 -0.1555
  726MPD2    C410731   2.706   3.170  10.118  0.5780 -0.2346  0.2319
  726MPD2    C510732   2.736   3.249  10.012  0.6948 -0.2280 -0.8373
  726MPD2     H10733   2.732   3.389  10.365 -0.9852 -1.6446  0.6916
  726MPD2    H110734   2.680   3.069  10.087 -0.8099 -0.6561  2.7593
  726MPD2    H210735   2.798   3.436   9.944  0.5133  0.8542  1.1826
  726MPD2    H310736   2.735   3.195   9.918  1.3270 -1.6918 -0.0120
  726MPD2     N10737   2.664   3.124  10.344  0.1175 -0.2467  0.0753
  726MPD2    H510738   2.646   3.029  10.313 -1.4996  0.4972 -1.2643
  726MPD2    N110739   2.832   3.549  10.201 -0.4956 -0.3053  0.1289
  726MPD2    H710740   2.845   3.566  10.300  2.2918 -0.4340 -0.2287
  727TMC3    C110741   2.944   3.749  10.200  1.0995  0.3002 -0.3921
  727TMC3    C210742   3.076   3.785  10.195 -0.3680 -0.1172 -1.2139
  727TMC3    C310743   3.122   3.879  10.282  1.0039  0.2471  0.0081
  727TMC3    C410744   2.862   3.807  10.293  0.2804  0.0201 -0.6728
  727TMC3    C510745   2.911   3.902  10.378 -0.2157 -0.4025 -0.0318
  727TMC3    C610746   3.041   3.945  10.365  0.0745  0.0128  0.1992
  727TMC3     C10747   2.891   3.640  10.121  0.3860  0.5981 -0.0504
  727TMC3     O10748   2.913   3.639  10.002 -0.0431 -0.6506 -0.1320
  727TMC3     H10749   3.134   3.729  10.122  2.0176 -2.2710  2.3829
  727TMC3    H110750   2.766   3.762  10.315  1.1769 -1.3593  0.4216
  727TMC3    H210751   3.067   4.033  10.422  0.7975  0.4505 -0.7996
  727TMC3    C710752   2.821   3.984  10.457  0.0701 -0.2093  0.4945
  727TMC3    C810753   3.260   3.900  10.294 -0.5216 -0.9908 -0.1580
  727TMC3    O110754   2.874   4.051  10.543  0.0932 -0.6328  0.1997
  727TMC3    O210755   3.325   3.837  10.213  0.1122 -0.2159 -0.0577
  728TMC3    C110756   2.011   2.236  15.144 -0.1847  0.4938  0.7012
  728TMC3    C210757   2.133   2.226  15.086 -0.0152 -0.1631 -0.3794
  728TMC3    C310758   2.136   2.240  14.950  0.4486  0.4102  0.4010
  728TMC3    C410759   1.894   2.252  15.075 -0.3199  0.0926 -0.3529
  728TMC3    C510760   1.900   2.273  14.940  0.5218 -0.1799  0.6057
  728TMC3    C610761   2.018   2.266  14.875  0.5610 -0.1369 -0.3832
  728TMC3     C10762   2.009   2.196  15.289 -0.2873 -0.3545  0.3156
  728TMC3     O10763   2.120   2.176  15.341  0.1327  0.1398  0.2251
  728TMC3     H10764   2.219   2.193  15.144 -0.7147 -0.7607  0.3253
  728TMC3    H110765   1.799   2.283  15.118 -1.5694 -1.8620 -1.7332
  728TMC3    H210766   2.025   2.291  14.769 -0.5479 -0.1259 -0.4462
  728TMC3    C710767   1.788   2.333  14.866  0.2424 -0.1049 -1.2263
  728TMC3    C810768   2.261   2.192  14.888  0.3015 -0.5418  1.1248
  728TMC3    O110769   1.700   2.388  14.931  0.2645  0.0074 -0.3029
  728TMC3    O210770   2.252   2.118  14.790  0.3650  0.1698  0.7598
  729MPD2     C10771   4.434   3.435   0.210 -0.1270 -0.2900  0.3382
  729MPD2    C110772   4.512   3.531   0.267 -0.3972  0.7551 -0.4681
  729MPD2    C210773   4.459   3.615   0.364  0.0234 -1.0156 -0.0228
  729MPD2    C310774   4.335   3.596   0.414 -0.1142  0.5921  0.3323
  729MPD2    C410775   4.256   3.495   0.364  0.1543 -0.2709 -0.2323
  729MPD2    C510776   4.313   3.413   0.269 -0.1081  0.7191  0.4403
  729MPD2     H10777   4.513   3.694   0.414 -0.5224 -0.3029 -0.5667
  729MPD2    H110778   4.156   3.472   0.400 -0.8054  0.3889 -2.5301
  729MPD2    H210779   4.477   3.369   0.136 -1.0008  0.3182 -0.7198
  729MPD2    H310780   4.248   3.333   0.237  0.6055  0.8525 -1.3298
  729MPD2     N10781   4.277   3.691   0.515  0.0760  0.2759 -0.1355
  729MPD2    H510782   4.180   3.671   0.539 -0.3312  2.5943  0.1942
  729MPD2    N110783   4.651   3.541   0.229 -0.1051 -0.4156  0.5477
  729MPD2    H710784   4.675   3.479   0.152 -1.4344 -0.7418  0.3987
  730TMC3    C110785   4.256   3.874   0.650  0.2452  0.0466  0.0416
  730TMC3    C210786   4.330   3.931   0.753 -0.9928 -0.5343 -0.4761
  730TMC3    C310787   4.326   4.067   0.759  0.3024  0.0447 -0.2550
  730TMC3    C410788   4.170   3.937   0.575  0.2131 -0.4616 -0.4980
  730TMC3    C510789   4.190   4.076   0.570 -0.0915  0.4098 -0.3260
  730TMC3    C610790   4.263   4.142   0.663 -0.5262 -0.4412 -0.4430
  730TMC3     C10791   4.346   3.792   0.578 -0.0259 -0.3307 -0.3858
  730TMC3     O10792   4.468   3.796   0.601  0.8481 -0.2594 -0.4462
  730TMC3     H10793   4.395   3.881   0.823  2.1613  1.3699 -2.0341
  730TMC3    H110794   4.106   3.885   0.504  0.6485 -1.6826  0.0033
  730TMC3    H210795   4.297   4.244   0.653 -3.4823  0.7179  1.1857
  730TMC3    C710796   4.145   4.151   0.457  0.6108  0.0567 -0.3013
  730TMC3    C810797   4.437   4.135   0.824  0.0076 -0.0805  0.1938
  730TMC3    O110798   4.123   4.085   0.358 -0.3075  0.4188 -0.3119
  730TMC3    O210799   4.421   4.245   0.868 -0.2291  0.4992  0.4871
  731MPD2     C10800   3.933   1.139  12.258 -0.2040  0.0301 -0.1071
  731MPD2    C110801   4.063   1.162  12.224  0.3049  0.0871  0.1661
  731MPD2    C210802   4.160   1.166  12.321  0.2790 -0.0994 -0.0234
  731MPD2    C310803   4.128   1.154  12.453  0.1154 -0.2864 -0.3245
  731MPD2    C410804   3.997   1.112  12.489  0.8389  0.0303  0.6258
  731MPD2    C510805   3.904   1.122  12.390  0.5328 -0.5711 -0.0385
  731MPD2     H10806   4.265   1.186  12.302  0.1693 -0.1286 -0.6643
  731MPD2    H110807   3.969   1.099  12.593 -0.3830  0.9304  0.4074
  731MPD2    H210808   3.858   1.126  12.181 -0.2902  0.7874 -0.1551
  731MPD2    H310809   3.799   1.111  12.411  0.0510  3.5893 -0.2397
  731MPD2     N10810   4.228   1.176  12.553 -0.4359 -0.3285  0.4539
  731MPD2    H510811   4.321   1.192  12.517 -0.8323  3.7307  1.2042
  731MPD2    N110812   4.095   1.171  12.087  0.6917  0.7432 -0.3440
  731MPD2    H710813   4.017   1.198  12.028  1.8684 -0.1076 -2.2799
  732TMC3    C110814   4.222   1.235  11.902 -0.2301 -0.8454 -0.3283
  732TMC3    C210815   4.108   1.224  11.815  0.5597  0.0925  0.0264
  732TMC3    C310816   4.103   1.303  11.705 -0.0539 -0.4207 -0.5432
  732TMC3    C410817   4.330   1.317  11.869  0.4401  0.6534 -0.3685
  732TMC3    C510818   4.314   1.393  11.757  0.6118  0.8277 -0.9504
  732TMC3    C610819   4.210   1.382  11.669 -0.8776  0.4116  0.2228
  732TMC3     C10820   4.224   1.189  12.035 -0.0436  0.6437  0.6890
  732TMC3     O10821   4.331   1.163  12.086  0.0551 -0.0983 -0.3162
  732TMC3     H10822   4.038   1.142  11.827  3.1968 -1.8785  2.2582
  732TMC3    H110823   4.414   1.325  11.936  0.4715  1.8207 -0.5424
  732TMC3    H210824   4.199   1.441  11.579  1.5397  0.8423  0.2173
  732TMC3    C710825   4.406   1.502  11.728 -0.1810 -0.2410  0.0014
  732TMC3    C810826   3.998   1.285  11.609  0.5113 -0.1725 -0.6775
  732TMC3    O110827   4.404   1.554  11.620  0.2540  0.4072  0.5212
  732TMC3    O210828   4.015   1.255  11.490 -0.1589 -0.3081 -0.0242
  733TMC3    C110829   0.091   4.103  12.462 -1.0677  0.5093 -0.1776
  733TMC3    C210830   0.141   4.067  12.582  0.8100  1.1569 -0.4009
  733TMC3    C310831   0.236   4.149  12.641 -0.2033 -1.1871  0.1828
  733TMC3    C410832   0.134   4.207  12.385 -0.1798  0.2760 -0.0932
  733TMC3    C510833   0.235   4.280  12.443  0.1875 -0.0478  0.3726
  733TMC3    C610834   0.288   4.255  12.571  0.6324 -0.1425  0.5102
  733TMC3     C10835   4.666   4.083  12.437  0.5357  0.2147 -0.4748
  733TMC3     O10836   4.610   4.167  12.363 -0.0706 -0.0869 -0.4434
  733TMC3     H10837   0.094   3.988  12.639  2.3205  0.2740 -0.3758
  733TMC3    H110838   0.093   4.228  12.287  1.6724 -1.4001 -1.2331
  733TMC3    H210839   0.373   4.315  12.600  0.1451  0.2288  1.1880
  733TMC3    C710840   0.261   4.410  12.378 -0.2102  0.9510  0.1234
  733TMC3    C810841   0.315   4.102  12.749 -0.6639 -0.2480 -0.3407
  733TMC3    O110842   0.234   4.418  12.258  0.4224  0.5241 -0.5866
  733TMC3    O210843   0.332   3.983  12.781 -0.3438 -0.9534 -0.0067
  734MPD2     C10844   2.875   2.028  12.090 -0.1468  0.3840  0.2090
  734MPD2    C110845   2.749   2.059  12.036 -1.2761  0.6681  0.2788
  734MPD2    C210846   2.745   2.127  11.915  0.3854 -0.4269 -0.5932
  734MPD2    C310847   2.867   2.148  11.848 -0.7137  0.0061 -0.1101
  734MPD2    C410848   2.989   2.115  11.905  0.6250  0.1818 -0.1852
  734MPD2    C510849   2.987   2.060  12.030 -0.2059 -0.1729  0.6063
  734MPD2     H10850   2.656   2.163  11.863  0.6682 -0.2274 -0.9395
  734MPD2    H110851   3.078   2.154  11.855  1.5816 -2.3473 -0.4625
  734MPD2    H210852   2.882   1.981  12.187  1.8277  1.5909  0.6517
  734MPD2    H310853   3.078   2.035  12.083 -0.4221 -0.4757  0.8346
  734MPD2     N10854   2.862   2.200  11.711 -0.3552  0.4274  0.0353
  734MPD2    H510855   2.769   2.221  11.675 -0.5089  1.4758  1.0333
  734MPD2    N110856   2.627   2.023  12.104  0.2701  0.2697 -0.3224
  734MPD2    H710857   2.633   1.991  12.201 -2.6003 -1.2120 -0.6373
  735TMC3    C110858   2.402   1.943  12.126 -0.1526 -1.0583  0.0212
  735TMC3    C210859   2.279   1.964  12.059  0.4256 -0.8174 -0.2831
  735TMC3    C310860   2.200   1.857  12.020  0.7951 -0.0382 -1.3664
  735TMC3    C410861   2.424   1.816  12.172  0.0052 -0.4549 -0.0023
  735TMC3    C510862   2.344   1.711  12.138 -0.0451  0.2358 -0.7377
  735TMC3    C610863   2.225   1.733  12.069  0.0923 -0.5839  0.3436
  735TMC3     C10864   2.506   2.014  12.042 -0.3029 -0.0698  0.0561
  735TMC3     O10865   2.474   2.043  11.928  0.2168 -0.3130 -0.0711
  735TMC3     H10866   2.255   2.058  12.011  3.1305  1.1487  2.1610
  735TMC3    H110867   2.512   1.775  12.220 -1.2076 -2.3528  0.6204
  735TMC3    H210868   2.166   1.647  12.042  2.2241 -1.0645 -2.7442
  735TMC3    C710869   2.407   1.585  12.124  0.1959  0.4980  0.4725
  735TMC3    C810870   2.162   1.855  11.880 -0.1378  0.6057 -0.0372
  735TMC3    O110871   2.518   1.584  12.076 -0.0062  0.2540 -0.0307
  735TMC3    O210872   2.079   1.771  11.853 -0.2815  0.7317  0.3418
  736MPD2     C10873   2.251   1.252  12.147  0.0606 -0.3466 -0.2265
  736MPD2    C110874   2.335   1.350  12.099 -0.1804 -0.9139  0.3812
  736MPD2    C210875   2.422   1.324  11.990 -0.0027 -0.2341  0.6677
  736MPD2    C310876   2.427   1.198  11.930  1.0264  0.4089  0.2518
  736MPD2    C410877   2.358   1.099  11.997  0.2290  0.4270  0.3723
  736MPD2    C510878   2.271   1.127  12.098  0.3962  0.0335 -0.2190
  736MPD2     H10879   2.473   1.406  11.941 -0.6531 -0.4689 -0.4177
  736MPD2    H110880   2.352   0.997  11.960 -0.3047  0.6698 -0.1989
  736MPD2    H210881   2.169   1.272  12.215  1.2424 -0.4999  1.2591
  736MPD2    H310882   2.210   1.044  12.134  0.9206 -0.8374 -1.3449
  736MPD2     N10883   2.494   1.168  11.813 -0.3699 -0.0979  0.7897
  736MPD2    H510884   2.500   1.074  11.777  0.8182  0.0520  0.5847
  736MPD2    N110885   2.317   1.482  12.145  0.7627 -0.1562  0.3368
  736MPD2    H710886   2.232   1.511  12.193  0.2448 -0.9672 -0.0834
  737TMC3    C110887   2.624   1.209  11.614  0.1202 -0.7601 -1.1929
  737TMC3    C210888   2.692   1.298  11.540 -0.2818  0.3432 -0.4395
  737TMC3    C310889   2.716   1.275  11.408  0.7250 -0.0057 -0.0908
  737TMC3    C410890   2.600   1.085  11.570  0.8609 -0.2000  0.6646
  737TMC3    C510891   2.624   1.052  11.443  0.4818  0.2770  0.4951
  737TMC3    C610892   2.689   1.148  11.361  0.0122 -0.6924 -0.0690
  737TMC3     C10893   2.566   1.262  11.737  0.1189 -0.1730  0.0492
  737TMC3     O10894   2.595   1.378  11.759 -0.5529 -0.3541 -0.3380
  737TMC3     H10895   2.727   1.390  11.587 -2.8775  0.4751  1.1964
  737TMC3    H110896   2.546   1.009  11.625 -1.0941 -1.4107 -2.8822
  737TMC3    H210897   2.711   1.132  11.256 -1.7304  0.6082 -0.6279
  737TMC3    C710898   2.624   0.912  11.416  0.4090 -0.5913 -0.6483
  737TMC3    C810899   2.822   1.360  11.342 -0.0724  0.2588  0.6347
  737TMC3    O110900   2.542   0.838  11.476 -0.3020  0.7647  0.9766
  737TMC3    O210901   2.862   1.450  11.412 -0.0223  0.0940 -0.1835
  738MPD2     C10902   2.735   0.419  15.199 -0.6249 -0.2341 -0.7178
  738MPD2    C110903   2.767   0.479  15.081 -0.7538  0.1333 -0.4507
  738MPD2    C210904   2.897   0.519  15.052 -0.4346  1.1296  0.3660
  738MPD2    C310905   2.998   0.492  15.146 -0.5401  0.4021  0.2904
  738MPD2    C410906   2.970   0.433  15.268 -0.3753 -0.2376 -0.4165
  738MPD2    C510907   2.838   0.398  15.290  0.1016  0.4472  0.1659
  738MPD2     H10908   2.918   0.564  14.956  0.6623  1.5026  0.7746
  738MPD2    H110909   3.040   0.399  15.343 -0.0749 -1.6220 -1.3210
  738MPD2    H210910   2.634   0.387  15.222 -0.8096  1.1720  0.3890
  738MPD2    H310911   2.805   0.348  15.379 -0.5520 -0.0759 -0.3720
  738MPD2     N10912   3.139   0.514  15.118 -0.3272  1.1565  0.5193
  738MPD2    H510913   3.199   0.509  15.199  1.2020 -1.6366 -0.7821
  738MPD2    N110914   2.656   0.491  15.005 -0.3304  0.2726  0.3182
  738MPD2    H710915   2.564   0.467  15.042  0.2530 -1.7618  0.4109
  739TMC3    C110916   3.335   0.542  15.005  0.2999 -0.4019  0.3188
  739TMC3    C210917   3.398   0.552  14.880 -0.2197 -0.0031 -0.0882
  739TMC3    C310918   3.534   0.544  14.871 -0.0277 -0.6712  0.4933
  739TMC3    C410919   3.409   0.507  15.115  0.2312  0.4938 -0.0483
  739TMC3    C510920   3.546   0.496  15.099 -0.1245 -0.2921  0.7394
  739TMC3    C610921   3.612   0.514  14.980 -0.0875 -0.1784  0.5720
  739TMC3     C10922   3.190   0.534  14.995 -0.1588 -1.1190  0.0607
  739TMC3     O10923   3.135   0.547  14.888 -0.2379 -0.3295  0.1635
  739TMC3     H10924   3.335   0.552  14.792  1.4640  0.6138 -1.2856
  739TMC3    H110925   3.361   0.474  15.206 -1.3929 -0.2451 -1.1699
  739TMC3    H210926   3.719   0.497  14.977  0.1367  1.6230 -1.5208
  739TMC3    C710927   3.628   0.511  15.216 -0.1031 -0.2720 -0.3514
  739TMC3    C810928   3.594   0.583  14.747 -0.6235 -0.0753  0.5454
  739TMC3    O110929   3.741   0.547  15.202  0.0285  0.2380 -0.1162
  739TMC3    O210930   3.520   0.595  14.649  0.3663 -0.1826 -0.4737
  740TMC3    C110931   4.216   1.862  14.269 -0.3426 -1.2189  0.4495
  740TMC3    C210932   4.295   1.783  14.356  0.1175 -0.0507  0.1067
  740TMC3    C310933   4.432   1.768  14.317 -0.1059 -0.1836 -0.1842
  740TMC3    C410934   4.268   1.928  14.160 -0.4368  0.5034  0.1666
  740TMC3    C510935   4.399   1.900  14.121 -1.8276  0.1939 -0.3579
  740TMC3    C610936   4.480   1.824  14.201  0.3389  0.1665  0.2056
  740TMC3     C10937   4.073   1.863  14.273  0.7176  0.2051  0.1428
  740TMC3     O10938   4.009   1.890  14.168  0.1325 -0.8558  0.4672
  740TMC3     H10939   4.245   1.718  14.427  0.0465 -0.0269  0.0784
  740TMC3    H110940   4.193   1.977  14.098 -1.8633 -1.3501  0.4134
  740TMC3    H210941   4.586   1.816  14.179  0.3744  0.2458  0.3455
  740TMC3    C710942   4.452   1.943  14.001  0.0221 -0.8701 -0.5734
  740TMC3    C810943   4.532   1.727  14.420  0.5195 -0.3740 -1.1884
  740TMC3    O110944   4.538   1.869  13.953  0.5306  0.1986  0.4642
  740TMC3    O210945   4.648   1.708  14.382  0.4743  0.0244  0.0463
  741TMC3    C110946   3.972   1.004  14.695 -0.0291 -0.0167 -0.0080
  741TMC3    C210947   3.893   1.010  14.580  0.1166 -0.2229  0.2318
  741TMC3    C310948   3.757   1.026  14.583 -0.6108 -0.4788 -0.0774
  741TMC3    C410949   3.905   1.008  14.813 -0.3651 -0.6556  0.2048
  741TMC3    C510950   3.765   1.024  14.817 -0.2594  0.3441  0.4026
  741TMC3    C610951   3.695   1.041  14.705  1.1061 -0.0679 -0.6091
  741TMC3     C10952   4.114   0.951  14.704 -0.1489  0.1989 -0.8004
  741TMC3     O10953   4.160   0.911  14.809  0.1383 -0.2134  0.2759
  741TMC3     H10954   3.943   0.966  14.494 -0.3246  2.3465 -1.3684
  741TMC3    H110955   3.949   0.981  14.908 -0.0086 -2.7210 -0.5597
  741TMC3    H210956   3.588   1.051  14.700  1.0256 -1.4059 -1.3565
  741TMC3    C710957   3.701   0.996  14.946 -0.4358  0.3315 -0.1264
  741TMC3    C810958   3.677   1.033  14.460  0.3657 -0.1115  0.1322
  741TMC3    O110959   3.767   0.996  15.051 -0.4900 -0.2245 -0.8857
  741TMC3    O210960   3.556   1.028  14.461  0.3687  0.0717 -0.0477
  742TMC3    C110961   3.376   4.497  15.081  0.1143  0.8716 -0.2649
  742TMC3    C210962   3.315   4.553  14.970  0.1484  0.0744 -0.3828
  742TMC3    C310963   3.386   4.556  14.855 -0.5462 -0.8670  0.8477
  742TMC3    C410964   3.497   4.437  15.078  0.2753  0.2673 -0.3860
  742TMC3    C510965   3.552   4.420  14.958  0.1379 -0.0449 -0.1512
  742TMC3    C610966   3.503   4.479  14.844 -0.0704 -0.2270 -0.0676
  742TMC3     C10967   3.309   4.527  15.211  0.7342 -1.0632 -0.1098
  742TMC3     O10968   3.187   4.557  15.197  0.2391  0.5306 -0.2044
  742TMC3     H10969   3.240   4.631  14.981  2.2646  2.0035  0.2562
  742TMC3    H110970   3.544   4.403  15.170  1.3403  0.3922 -0.8804
  742TMC3    H210971   3.541   4.451  14.747 -1.8510 -1.9471 -0.2680
  742TMC3    C710972   3.636   4.300  14.932 -0.1707 -0.0763  0.5468
  742TMC3    C810973   3.298   4.533  14.749 -0.3982  0.6372  0.3359
  742TMC3    O110974   3.700   4.285  14.831  0.2239 -0.1132  0.5012
  742TMC3    O210975   3.303   4.420  14.704 -0.4096 -0.6088 -0.1737
  743MPD2     C10976   0.408   1.975   1.350 -0.0576  0.2143  0.2571
  743MPD2    C110977   0.493   1.900   1.279 -0.4014  0.6289  0.3784
  743MPD2    C210978   0.581   1.819   1.343 -0.0579  0.3774 -0.3733
  743MPD2    C310979   0.567   1.807   1.483  0.8157 -0.5455  0.1627
  743MPD2    C410980   0.479   1.887   1.559 -0.0292  1.0744  0.3758
  743MPD2    C510981   0.404   1.973   1.486  0.2735  0.0732  0.3858
  743MPD2     H10982   0.659   1.763   1.294  0.3340  0.2454  0.4040
  743MPD2    H110983   0.476   1.878   1.667 -0.0446  1.6645  0.4225
  743MPD2    H210984   0.337   2.038   1.298  1.6053  2.2963  0.5124
  743MPD2    H310985   0.338   2.040   1.540  0.4296 -0.9814  1.8922
  743MPD2     N10986   0.655   1.710   1.541  0.6074  0.1155  0.5462
  743MPD2    H510987   0.728   1.675   1.480 -1.4350  0.3316 -2.0671
  743MPD2    N110988   0.477   1.898   1.138  0.1994 -0.2177 -0.1265
  743MPD2    H710989   0.401   1.953   1.099  1.9857  1.5824 -1.0787
  744TMC3    C110990   0.497   1.831   0.916  0.4625 -0.0344  0.0198
  744TMC3    C210991   0.377   1.883   0.897 -1.1268 -0.3396  0.1332
  744TMC3    C310992   0.316   1.860   0.778  0.0769 -0.8584  0.2776
  744TMC3    C410993   0.559   1.759   0.821  0.2127 -0.5625 -0.2290
  744TMC3    C510994   0.504   1.750   0.698  0.7335  0.1836 -0.3665
  744TMC3    C610995   0.370   1.791   0.675  0.1775 -0.1507 -0.4460
  744TMC3     C10996   0.548   1.827   1.049  0.0878  0.3762 -0.0440
  744TMC3     O10997   0.650   1.764   1.067  0.0363 -0.4092 -0.0642
  744TMC3     H10998   0.317   1.934   0.972  0.2874  1.8528 -0.2413
  744TMC3    H110999   0.660   1.727   0.841  0.6142  0.3099 -0.8713
  744TMC3    H211000   0.318   1.775   0.582 -1.5154 -1.3001  0.7004
  744TMC3    C711001   0.582   1.697   0.589 -0.7806 -0.2221  0.0661
  744TMC3    C811002   0.185   1.929   0.763  0.2104  0.0403  0.0935
  744TMC3    O111003   0.699   1.668   0.604  0.0725 -0.3574  0.0744
  744TMC3    O211004   0.135   1.999   0.853 -0.7042 -0.1297 -0.1961
  745TMC3    C111005   3.917   4.199  13.575  0.0873  0.3591  0.6211
  745TMC3    C211006   3.855   4.148  13.687  0.1290 -0.4848 -0.5740
  745TMC3    C311007   3.722   4.130  13.678 -0.2565  0.3623  0.8069
  745TMC3    C411008   3.847   4.243  13.459  0.5027 -1.1504  0.0862
  745TMC3    C511009   3.710   4.212  13.449  0.2162  0.3834  0.3692
  745TMC3    C611010   3.651   4.151  13.560  0.5545  0.7155  0.3516
  745TMC3     C11011   4.039   4.264  13.603 -0.1748  0.2150  0.0630
  745TMC3     O11012   4.099   4.210  13.692 -0.5426  0.6317 -0.0476
  745TMC3     H11013   3.909   4.129  13.779 -1.0990 -2.2681 -0.2150
  745TMC3    H111014   3.912   4.285  13.383 -0.7029  0.3702 -0.0984
  745TMC3    H211015   3.545   4.130  13.556  0.7660 -0.0750 -1.0140
  745TMC3    C711016   3.630   4.225  13.331 -0.2057 -0.3663  0.1525
  745TMC3    C811017   3.642   4.099  13.795  0.3920 -0.1915  0.3458
  745TMC3    O111018   3.528   4.156  13.322 -0.2155 -0.0861  0.3302
  745TMC3    O211019   3.526   4.065  13.771 -0.5440  0.6901 -0.0936
  746TMC3    C111020   1.311   0.999  10.840 -0.4506  0.4659 -0.1467
  746TMC3    C211021   1.419   0.930  10.778  0.5775  0.2706  0.2224
  746TMC3    C311022   1.406   0.793  10.755 -0.3539 -0.0272 -0.2305
  746TMC3    C411023   1.201   0.931  10.884  0.4566  0.3293  0.2165
  746TMC3    C511024   1.202   0.795  10.869  0.7533  0.3120  0.4845
  746TMC3    C611025   1.299   0.725  10.803 -0.0717  0.2170  0.0180
  746TMC3     C11026   1.297   1.138  10.830 -0.6876 -0.0270 -0.0903
  746TMC3     O11027   1.218   1.196  10.903  0.7811 -0.1715 -0.4570
  746TMC3     H11028   1.507   0.985  10.746  0.5181 -0.5209 -1.3280
  746TMC3    H111029   1.124   0.981  10.942  0.4624 -1.8709  2.1152
  746TMC3    H211030   1.281   0.623  10.772  0.9674 -0.2600  0.9865
  746TMC3    C711031   1.070   0.728  10.884  0.1301 -0.2639  0.0591
  746TMC3    C811032   1.508   0.732  10.670 -0.2582  0.0508  0.0873
  746TMC3    O111033   1.012   0.699  10.778 -0.3524 -0.1300  0.1724
  746TMC3    O211034   1.538   0.616  10.684 -0.1331 -0.3484  0.0321
  747TMC3    C111035   3.262   0.640  10.608 -0.1802 -0.0437 -0.2167
  747TMC3    C211036   3.137   0.598  10.664  0.5907 -0.1216  0.1362
  747TMC3    C311037   3.108   0.644  10.792 -0.4871  0.2285  0.7568
  747TMC3    C411038   3.349   0.732  10.668 -0.2568  0.4346 -0.2171
  747TMC3    C511039   3.309   0.766  10.799  0.3424 -0.2386  0.2646
  747TMC3    C611040   3.191   0.727  10.858  0.1406 -0.5152  0.5592
  747TMC3     C11041   3.307   0.599  10.475 -0.5171  0.1605 -0.6664
  747TMC3     O11042   3.427   0.572  10.462  0.1133  0.7793 -0.0314
  747TMC3     H11043   3.070   0.528  10.616 -0.6280  1.3630 -0.3207
  747TMC3    H111044   3.426   0.779  10.608  0.5719 -2.2127 -1.2109
  747TMC3    H211045   3.171   0.759  10.960  0.3465 -0.7718  0.6790
  747TMC3    C711046   3.386   0.858  10.881  0.7385  0.3308  0.8975
  747TMC3    C811047   2.993   0.586  10.867 -0.2052  0.0274  0.3974
  747TMC3    O111048   3.352   0.861  10.997  0.0689  0.0396  0.1556
  747TMC3    O211049   2.959   0.470  10.853 -0.1246 -0.3986  0.3946
  748MPD2     C11050   4.569   2.759   1.299  0.0447  0.1595  0.6204
  748MPD2    C111051   4.649   2.699   1.384 -0.2598 -0.4559  0.7222
  748MPD2    C211052   0.066   2.723   1.389  0.7478 -0.5078  0.1240
  748MPD2    C311053   0.129   2.815   1.305  0.3637  0.4160 -1.4425
  748MPD2    C411054   0.040   2.880   1.222  0.2717 -0.1401 -0.4535
  748MPD2    C511055   4.626   2.856   1.221  0.6229 -0.4283  1.1774
  748MPD2     H11056   0.133   2.663   1.451  0.4247  0.6107  1.5458
  748MPD2    H111057   0.071   2.957   1.153  0.3296 -1.5352 -1.9698
  748MPD2    H211058   4.464   2.735   1.297  0.1294 -0.0800 -0.4729
  748MPD2    H311059   4.577   2.910   1.142  1.4822 -0.5870  0.5314
  748MPD2     N11060   0.263   2.829   1.293  0.1487  0.2345  0.6693
  748MPD2    H511061   0.320   2.771   1.353 -0.6903  0.5205  1.7308
  748MPD2    N111062   4.582   2.616   1.474  0.0970  0.2385 -0.3483
  748MPD2    H711063   4.486   2.598   1.448 -0.3654  2.2663 -0.0394
  749TMC3    C111064   0.473   2.906   1.212 -0.1813  0.2409  0.0009
  749TMC3    C211065   0.535   2.821   1.309  0.7723  0.4701  0.9528
  749TMC3    C311066   0.671   2.809   1.302 -0.1492 -0.3230 -0.2496
  749TMC3    C411067   0.550   2.985   1.135  0.7080  0.1300  0.0567
  749TMC3    C511068   0.680   2.975   1.137  0.4823 -0.0469  0.3812
  749TMC3    C611069   0.747   2.884   1.222  0.2719 -0.3747 -0.2967
  749TMC3     C11070   0.328   2.917   1.204 -0.3285  0.7047 -0.5694
  749TMC3     O11071   0.282   3.005   1.127 -0.8227 -0.2020  0.0749
  749TMC3     H11072   0.477   2.761   1.378  0.2392  0.0244  0.1236
  749TMC3    H111073   0.499   3.030   1.050  0.0083 -0.4371  0.1675
  749TMC3    H211074   0.856   2.882   1.220  0.2953 -1.0889  2.9228
  749TMC3    C711075   0.764   3.094   1.101 -0.2535 -0.5675  0.1874
  749TMC3    C811076   0.753   2.734   1.396 -0.2135 -0.3907 -0.0841
  749TMC3    O111077   0.886   3.079   1.105 -0.0368  0.2073 -0.1381
  749TMC3    O211078   0.702   2.748   1.507  0.3521 -0.1452 -0.7273
  750MPD2     C11079   1.803   3.101  11.136 -0.5355 -0.1459 -0.3773
  750MPD2    C111080   1.677   3.074  11.090  0.1689  0.3361 -0.5205
  750MPD2    C211081   1.644   2.951  11.027  0.1801 -0.2859 -0.4285
  750MPD2    C311082   1.743   2.859  11.005 -0.2102 -0.0026  0.1693
  750MPD2    C411083   1.868   2.897  11.043  0.4033  0.2503  0.3298
  750MPD2    C511084   1.902   3.014  11.104 -0.4395 -0.3725 -0.3639
  750MPD2     H11085   1.542   2.922  11.005  0.1951 -0.5428 -0.1540
  750MPD2    H111086   1.944   2.822  11.029  1.0143  0.1075  4.5084
  750MPD2    H211087   1.841   3.192  11.183 -1.0118 -1.2512  2.1219
  750MPD2    H311088   2.005   3.028  11.132 -0.3934 -2.6638  0.5575
  750MPD2     N11089   1.725   2.734  10.940 -0.0086  0.5082 -0.1523
  750MPD2    H511090   1.805   2.674  10.924 -0.3740  0.3100 -1.3144
  750MPD2    N111091   1.581   3.173  11.109  0.4441 -0.3175  0.2703
  750MPD2    H711092   1.614   3.259  11.151  0.1218 -0.1198  0.1171
  751TMC3    C111093   1.601   2.550  10.847 -0.3187  0.0926 -0.4575
  751TMC3    C211094   1.476   2.507  10.817 -0.0062 -0.3189 -0.5361
  751TMC3    C311095   1.459   2.423  10.718 -0.2880  0.2694 -0.1883
  751TMC3    C411096   1.712   2.490  10.783 -0.7534  0.8637  0.3794
  751TMC3    C511097   1.688   2.402  10.681 -0.4002 -0.5157 -0.1383
  751TMC3    C611098   1.560   2.374  10.638 -0.1917 -0.4259 -0.3453
  751TMC3     C11099   1.598   2.688  10.904 -0.0910  0.3338 -0.7747
  751TMC3     O11100   1.490   2.739  10.911 -0.5932  0.0595  0.3066
  751TMC3     H11101   1.391   2.540  10.875 -0.3787 -0.9895 -0.7088
  751TMC3    H111102   1.817   2.501  10.809 -0.7164  1.7046 -0.0999
  751TMC3    H211103   1.548   2.309  10.552  1.2402 -3.3087  1.6617
  751TMC3    C711104   1.788   2.298  10.660  0.0351  0.2159 -0.0217
  751TMC3    C811105   1.330   2.388  10.670  0.8470 -0.4832  0.1275
  751TMC3    O111106   1.909   2.320  10.664 -0.0298  0.6378 -0.0537
  751TMC3    O211107   1.320   2.286  10.604 -0.4812 -0.4526 -0.2033
  752TMC3    C111108   0.510   3.881   1.107 -0.5641  0.3484 -0.5959
  752TMC3    C211109   0.371   3.894   1.104 -0.5176 -0.0707 -0.3505
  752TMC3    C311110   0.298   3.907   1.219  0.3425 -0.6811  0.3186
  752TMC3    C411111   0.575   3.863   1.229  0.4588 -0.5016 -0.6033
  752TMC3    C511112   0.498   3.870   1.340  0.9972  0.4631 -0.4355
  752TMC3    C611113   0.364   3.904   1.339  0.1928  0.6110 -0.0460
  752TMC3     C11114   0.595   3.897   0.993  0.2485 -0.0862  0.8425
  752TMC3     O11115   0.716   3.924   1.011  0.2535 -0.8555  0.4598
  752TMC3     H11116   0.308   3.915   1.017  1.5645  0.2125 -1.7806
  752TMC3    H111117   0.682   3.851   1.234  0.5503  0.0616 -1.1987
  752TMC3    H211118   0.299   3.895   1.425  1.8406 -2.0189  0.9104
  752TMC3    C711119   0.563   3.905   1.468  0.6262 -0.9154  0.4172
  752TMC3    C811120   0.155   3.939   1.227 -0.4402 -0.5646 -0.2248
  752TMC3    O111121   0.497   3.961   1.554 -0.0727  0.6108  0.0053
  752TMC3    O211122   0.112   4.030   1.302  0.3008 -0.0448  0.2155
  753TMC3    C111123   1.748   3.882  13.470 -0.3499 -0.1667  0.1802
  753TMC3    C211124   1.849   3.908  13.556  0.1703 -0.7426  0.2849
  753TMC3    C311125   1.929   3.799  13.606 -0.8625  0.3599 -0.0941
  753TMC3    C411126   1.721   3.750  13.431 -0.1660 -0.1354 -0.0526
  753TMC3    C511127   1.806   3.649  13.477  0.0954 -0.4457  0.6156
  753TMC3    C611128   1.918   3.670  13.556  0.4884  0.2564 -0.5419
  753TMC3     C11129   1.690   3.993  13.393  0.5281  0.1364  0.0595
  753TMC3     O11130   1.581   3.978  13.342  0.0164  0.6563 -0.1176
  753TMC3     H11131   1.865   4.006  13.598 -0.5987 -0.5555  0.1451
  753TMC3    H111132   1.644   3.729  13.358 -1.9487 -0.4650  1.9171
  753TMC3    H211133   1.986   3.596  13.596  1.2151  1.1289 -0.1710
  753TMC3    C711134   1.779   3.508  13.431 -0.2734 -0.8386 -0.9267
  753TMC3    C811135   2.055   3.827  13.682 -0.1210  0.0292 -0.3424
  753TMC3    O111136   1.713   3.503  13.329 -1.1460  0.6292  0.0650
  753TMC3    O211137   2.146   3.747  13.678  0.0992 -0.3251  0.2599
  754MPD2     C11138   0.832   2.723  12.269 -0.6567  0.0857 -0.7371
  754MPD2    C111139   0.900   2.785  12.368  0.2371  0.6388  0.6160
  754MPD2    C211140   0.854   2.775  12.497  0.1139  0.5836  0.7679
  754MPD2    C311141   0.753   2.693  12.534 -0.1326  0.1227  0.1490
  754MPD2    C411142   0.688   2.627  12.433 -0.4486 -0.6734 -0.1218
  754MPD2    C511143   0.723   2.648  12.303  0.2860 -0.0421  0.1735
  754MPD2     H11144   0.908   2.825  12.577  1.4535  1.1480 -0.5076
  754MPD2    H111145   0.600   2.568  12.457 -1.8272 -0.5868 -4.9599
  754MPD2    H211146   0.863   2.735  12.166  1.0254  2.4309  0.0430
  754MPD2    H311147   0.659   2.610  12.225 -0.2383  2.1855 -0.4932
  754MPD2     N11148   0.700   2.689  12.669  0.3587  0.1272 -0.3150
  754MPD2    H511149   0.639   2.612  12.695 -1.0661  0.8118 -1.6750
  754MPD2    N111150   1.009   2.872  12.338 -0.2217 -0.3240 -0.1572
  754MPD2    H711151   1.033   2.880  12.240  1.0401 -0.2729  0.1600
  755MPD2     C11152   0.191   3.403  13.043 -0.3469  0.2397  0.1994
  755MPD2    C111153   0.225   3.338  13.162  0.4158 -0.0656  0.9952
  755MPD2    C211154   0.308   3.227  13.165  0.4780  0.5152 -0.2989
  755MPD2    C311155   0.354   3.170  13.043  0.4077  0.5225 -0.1452
  755MPD2    C411156   0.312   3.233  12.929 -0.0650  0.2522 -0.7883
  755MPD2    C511157   0.242   3.351  12.928  0.6190 -0.3350 -0.1706
  755MPD2     H11158   0.344   3.197  13.263 -2.6942 -0.4983  0.5309
  755MPD2    H111159   0.329   3.188  12.832 -0.3481 -0.8574 -0.3138
  755MPD2    H211160   0.140   3.498  13.048  1.1876  1.0562  0.5806
  755MPD2    H311161   0.215   3.392  12.832 -4.4095  1.3398  1.9844
  755MPD2     N11162   0.438   3.055  13.028  0.5982  0.5554 -0.1480
  755MPD2    H511163   0.460   3.030  12.932  0.1974  1.8482 -0.5694
  755MPD2    N111164   0.196   3.393  13.287 -0.0604 -0.6247 -0.5820
  755MPD2    H711165   0.244   3.348  13.364  0.5082  1.7361  0.4584
  756MPD2     C11166   1.119   3.626   9.190 -1.1091 -0.5577  0.2995
  756MPD2    C111167   1.073   3.511   9.264  0.1059  0.3015  0.2076
  756MPD2    C211168   0.942   3.476   9.258 -0.1810  0.2112 -0.5545
  756MPD2    C311169   0.853   3.533   9.175 -0.7975  0.2751 -0.5595
  756MPD2    C411170   0.895   3.638   9.102  0.0694 -0.0381  0.1659
  756MPD2    C511171   1.026   3.673   9.103  0.2696  0.6736  0.5617
  756MPD2     H11172   0.910   3.389   9.314  2.0330  1.3198  2.4188
  756MPD2    H111173   0.831   3.703   9.043 -0.7814 -1.8954 -0.9662
  756MPD2    H211174   1.215   3.676   9.201 -1.5982  0.3651  0.3519
  756MPD2    H311175   1.045   3.761   9.043  0.2168 -2.2422 -3.6930
  756MPD2     N11176   0.727   3.482   9.167  0.7054  0.0569  0.8492
  756MPD2    H511177   0.705   3.410   9.235 -1.9794  0.4971  0.4536
  756MPD2    N111178   1.164   3.439   9.354 -0.7878  0.5116 -0.1703
  756MPD2    H711179   1.115   3.363   9.400  1.3221 -0.1560  0.9504
  757MPD2     C11180   0.001   2.797   8.745 -0.1039  0.2949  0.1944
  757MPD2    C111181   4.675   2.827   8.871 -0.3944  0.2155 -0.3281
  757MPD2    C211182   0.012   2.940   8.933 -0.3119  0.1961  0.3463
  757MPD2    C311183   0.105   3.025   8.872  0.3224 -1.0432  0.7937
  757MPD2    C411184   0.136   3.005   8.739 -0.2991  0.2052 -0.3263
  757MPD2    C511185   0.082   2.891   8.679 -0.1408  0.0394  0.2196
  757MPD2     H11186   4.705   2.964   9.034 -0.8632 -0.4366  0.3444
  757MPD2    H111187   0.202   3.069   8.682  1.1563 -1.4724 -0.5318
  757MPD2    H211188   4.691   2.707   8.694  1.8534  0.8488 -1.9637
  757MPD2    H311189   0.101   2.870   8.575 -0.3653  0.6720  0.0512
  757MPD2     N11190   0.163   3.125   8.950  0.5814  0.0597  0.4192
  757MPD2    H511191   0.124   3.127   9.044 -0.1306 -1.5795  0.1562
  757MPD2    N111192   4.598   2.729   8.934  0.3752 -0.6771  0.0396
  757MPD2    H711193   4.581   2.644   8.883  0.9494 -1.0267  0.4340
  758MPD2     C11194   1.314   2.287  16.080 -0.2822  0.1554 -0.3739
  758MPD2    C111195   1.428   2.337  16.143 -0.0579  0.0889  0.3997
  758MPD2    C211196   1.428   2.466  16.198  0.3309  0.0269  0.2981
  758MPD2    C311197   1.317   2.546  16.211  0.6593 -0.5361 -0.6994
  758MPD2    C411198   1.201   2.490  16.152  0.3399  0.0705 -0.0995
  758MPD2    C511199   1.199   2.367  16.082 -0.7665 -0.3500 -0.0271
  758MPD2     H11200   1.519   2.498  16.248  1.4543 -2.0971 -0.3702
  758MPD2    H111201   1.104   2.538  16.155  1.4234  2.1179  1.4057
  758MPD2    H211202   1.306   2.189  16.034  1.0312  0.5000 -1.3365
  758MPD2    H311203   1.110   2.336  16.028  0.5051  0.0716 -2.3368
  758MPD2     N11204   1.310   2.673  16.269  0.1921 -0.3572  0.7362
  758MPD2    H511205   1.218   2.714  16.280 -1.0224 -3.2137  1.3632
  758MPD2    N111206   1.541   2.256  16.135  0.0205 -0.5983 -0.4305
  758MPD2    H711207   1.544   2.192  16.056 -3.5480 -0.2381 -0.8579
  759MPD2     C11208   4.209   0.850  10.359  0.2919  0.3699  0.3145
  759MPD2    C111209   4.128   0.767  10.285  0.2205 -0.0198  0.0114
  759MPD2    C211210   4.121   0.777  10.148  0.5257 -0.5183 -0.8962
  759MPD2    C311211   4.199   0.869  10.088  0.0198 -0.4502 -0.0275
  759MPD2    C411212   4.280   0.958  10.155 -0.4321  0.3143  0.2808
  759MPD2    C511213   4.288   0.943  10.289  0.2169  0.5368 -0.5701
  759MPD2     H11214   4.068   0.707  10.084 -0.8183  1.7106 -2.2183
  759MPD2    H111215   4.334   1.037  10.103 -4.1391  1.1692 -2.2708
  759MPD2    H211216   4.222   0.852  10.466 -1.5785 -0.4608  0.5511
  759MPD2    H311217   4.342   1.016  10.348  1.3762  0.2850 -1.3434
  759MPD2     N11218   4.178   0.883   9.944 -0.0062  0.0103 -0.2976
  759MPD2    H511219   4.110   0.824   9.899 -0.6256 -0.6579  1.5026
  759MPD2    N111220   4.037   0.673  10.339  0.6383  0.2759  0.0689
  759MPD2    H711221   3.983   0.620  10.270  1.5568  0.2024 -0.5934
  760MPD2     C11222   4.230   3.061  11.947 -0.1172 -0.2411  0.4576
  760MPD2    C111223   4.344   3.046  11.862 -0.9715 -0.0363 -0.2350
  760MPD2    C211224   4.389   2.917  11.854  0.0307 -0.5178 -0.3514
  760MPD2    C311225   4.369   2.818  11.954  0.2577 -0.1339  0.1418
  760MPD2    C411226   4.258   2.842  12.041 -0.9918 -0.3128 -0.5918
  760MPD2    C511227   4.195   2.967  12.038  0.0078  0.0435 -0.6720
  760MPD2     H11228   4.452   2.897  11.768  1.9979 -1.1738  1.2334
  760MPD2    H111229   4.219   2.768  12.109 -0.2223 -0.5408 -0.3954
  760MPD2    H211230   4.170   3.150  11.940  0.6345  0.2494  0.2195
  760MPD2    H311231   4.109   2.969  12.104 -1.3461 -1.9865 -2.3847
  760MPD2     N11232   4.446   2.696  11.954  0.1441 -1.1578 -0.2990
  760MPD2    H511233   4.454   2.645  12.041 -0.9248 -0.0907  0.4100
  760MPD2    N111234   4.398   3.147  11.771 -0.0297  0.2305  0.1225
  760MPD2    H711235   4.472   3.114  11.710 -0.5942  0.3116 -0.6160
  761MPD2     C11236   0.818   2.454  10.654  0.1668 -0.9974  0.6033
  761MPD2    C111237   0.898   2.348  10.612  0.7788  0.1592  0.7817
  761MPD2    C211238   1.037   2.353  10.626  0.4441 -0.9427 -0.9096
  761MPD2    C311239   1.097   2.475  10.664  0.1974  0.5831  0.2870
  761MPD2    C411240   1.019   2.583  10.685 -0.3693  0.0834  1.1132
  761MPD2    C511241   0.879   2.571  10.681 -0.8353  0.5770  0.7656
  761MPD2     H11242   1.095   2.266  10.596  1.7136 -0.5819  0.4471
  761MPD2    H111243   1.068   2.674  10.717 -2.7455  1.9215 -0.4913
  761MPD2    H211244   0.711   2.463  10.662  0.2793 -0.1628  1.1564
  761MPD2    H311245   0.817   2.655  10.708 -0.3875  1.1034  0.1586
  761MPD2     N11246   1.239   2.488  10.690  1.0417  0.1486  0.3388
  761MPD2    H511247   1.268   2.580  10.721  3.2854  0.3867 -2.4767
  761MPD2    N111248   0.826   2.230  10.573  0.5485 -0.4657 -0.0062
  761MPD2    H711249   0.725   2.230  10.581  0.4343 -2.3004 -1.4105
  762MPD2     C11250   1.292   2.004  10.301  0.4520  0.5019 -0.5909
  762MPD2    C111251   1.260   1.879  10.345 -0.0156 -0.4101 -0.1995
  762MPD2    C211252   1.350   1.770  10.344 -0.0682 -0.3355 -0.8687
  762MPD2    C311253   1.475   1.788  10.285  0.1270 -0.4906 -0.2024
  762MPD2    C411254   1.507   1.920  10.255  0.4138  0.3621  0.1894
  762MPD2    C511255   1.419   2.022  10.258  0.2779  0.0769 -0.0143
  762MPD2     H11256   1.320   1.670  10.374 -0.8771 -0.0949 -0.8648
  762MPD2    H111257   1.600   1.945  10.205  0.1024 -1.0865 -1.1080
  762MPD2    H211258   1.220   2.084  10.311  0.0021 -0.2839  2.8007
  762MPD2    H311259   1.443   2.121  10.222 -0.2027  0.4368  0.6484
  762MPD2     N11260   1.561   1.675  10.255  0.3985 -0.0654 -0.0686
  762MPD2    H511261   1.521   1.585  10.281 -1.0077  0.5201 -0.1990
  762MPD2    N111262   1.130   1.875  10.385  0.7997  0.4014 -0.5119
  762MPD2    H711263   1.074   1.960  10.382 -1.0704 -0.7952 -0.0387
  763MPD2     C11264   2.742   2.671  15.999  0.9812 -0.0096  0.8377
  763MPD2    C111265   2.879   2.685  15.975 -0.0303  0.2716 -0.0092
  763MPD2    C211266   2.958   2.749  16.073  0.1037  0.5710 -0.2985
  763MPD2    C311267   2.893   2.806  16.184  0.0869 -0.7730 -0.0332
  763MPD2    C411268   2.754   2.787  16.203 -0.8646  0.7152 -0.0740
  763MPD2    C511269   2.677   2.724  16.109  0.7289  0.3104  0.0324
  763MPD2     H11270   3.063   2.772  16.062  0.4876 -1.5743 -1.1596
  763MPD2    H111271   2.706   2.825  16.293  0.7213 -0.3445  1.2246
  763MPD2    H211272   2.675   2.626  15.927 -0.4883  2.2066  0.8090
  763MPD2    H311273   2.575   2.694  16.129  0.1807  1.3603 -1.2068
  763MPD2     N11274   2.970   2.864  16.287 -0.1978 -0.2225 -0.1836
  763MPD2    H511275   3.071   2.855  16.287 -0.0804  1.0543  0.5915
  763MPD2    N111276   2.933   2.622  15.860  0.3408  0.2784  0.3173
  763MPD2    H711277   3.034   2.625  15.858  0.2859  1.2888 -0.6570
  764MPD2     C11278   1.679   0.059  17.543  0.0241  0.1469  0.5654
  764MPD2    C111279   1.557   0.096  17.591  0.1064  0.6480  0.8487
  764MPD2    C211280   1.536   0.089   0.039 -0.5232 -0.3984 -0.1096
  764MPD2    C311281   1.621   0.019   0.124  0.0989 -0.2517 -0.6233
  764MPD2    C411282   1.746   4.706   0.079 -0.2064 -0.2425  0.2275
  764MPD2    C511283   1.772   0.011  17.631  0.1300  0.1741 -0.5670
  764MPD2     H11284   1.437   0.107   0.078 -1.0572 -0.4045 -1.4726
  764MPD2    H111285   1.826   4.660   0.135 -0.2782 -0.1420  0.4118
  764MPD2    H211286   1.726   0.077  17.447 -3.1351  0.4077 -0.9341
  764MPD2    H311287   1.871   4.713  17.591  0.4416 -1.3640  0.8828
  764MPD2     N11288   1.571   4.699   0.248  0.6247  0.3911 -0.0574
  764MPD2    H511289   1.475   0.000   0.271 -0.2690 -1.1946 -2.2819
  764MPD2    N111290   1.444   0.123  17.506  0.7673 -0.0054  0.0194
  764MPD2    H711291   1.360   0.151  17.556  1.9214 -2.0255  3.1019
  765MPD2     C11292   0.718   2.161  16.124 -0.6307 -0.0137  0.0610
  765MPD2    C111293   0.785   2.230  16.024 -0.7133 -0.2377  0.0776
  765MPD2    C211294   0.889   2.159  15.956  0.0836  0.0701  0.3755
  765MPD2    C311295   0.938   2.032  16.004  0.1038 -0.2373  0.2809
  765MPD2    C411296   0.866   1.970  16.103  0.1601  0.2357  0.1311
  765MPD2    C511297   0.753   2.035  16.156  0.6437  0.1112  0.5310
  765MPD2     H11298   0.939   2.202  15.870 -1.0390 -1.0795 -0.8739
  765MPD2    H111299   0.881   1.866  16.130  1.4524  0.6992  1.2207
  765MPD2    H211300   0.637   2.211  16.176 -2.3124 -1.0442 -1.5802
  765MPD2    H311301   0.689   1.974  16.218 -0.9500  1.7612  0.5265
  765MPD2     N11302   1.059   1.978  15.952  1.0080  0.3308  0.1125
  765MPD2    H511303   1.114   2.014  15.875  1.5472  0.7514  0.6929
  765MPD2    N111304   0.731   2.354  15.986  0.0354 -0.1026  0.4989
  765MPD2    H711305   0.637   2.369  16.022 -0.2800 -1.4292  0.2448
  766MPD2     C11306   0.160   2.305  15.596 -0.0399  0.1055  0.0702
  766MPD2    C111307   0.275   2.360  15.535  0.5274 -0.3336  0.5736
  766MPD2    C211308   0.311   2.320  15.408 -0.2688  0.1443  0.3656
  766MPD2    C311309   0.232   2.229  15.334  0.1774  0.0944 -0.2913
  766MPD2    C411310   0.121   2.169  15.403  0.1874 -0.1708  0.1393
  766MPD2    C511311   0.090   2.208  15.529 -0.1059 -0.3488  0.3470
  766MPD2     H11312   0.400   2.365  15.367 -0.5118 -1.0606 -1.4686
  766MPD2    H111313   0.056   2.105  15.346  0.4936 -0.6075  0.2850
  766MPD2    H211314   0.109   2.338  15.686 -2.1819  0.5236 -1.2971
  766MPD2    H311315   0.001   2.169  15.578 -0.2514  2.3969  2.3024
  766MPD2     N11316   0.276   2.169  15.212  0.7601  0.3782  0.0132
  766MPD2    H511317   0.212   2.096  15.180  2.3444 -1.0607  0.1390
  766MPD2    N111318   0.356   2.468  15.587  0.3329  0.4335  0.0088
  766MPD2    H711319   0.429   2.493  15.521  1.3539  0.9948  1.3739
  767MPD2     C11320   0.002   2.399  15.199 -0.1414  0.8944 -0.0244
  767MPD2    C111321   0.077   2.443  15.093  0.1798  0.6706  0.4367
  767MPD2    C211322   0.054   2.400  14.967  0.2870  0.5374  1.0220
  767MPD2    C311323   4.690   2.289  14.951 -0.7056  0.0044  0.0184
  767MPD2    C411324   4.616   2.244  15.061  0.0484 -0.0747 -0.1858
  767MPD2    C511325   4.632   2.301  15.181  0.0744  0.3523  0.6901
  767MPD2     H11326   0.117   2.421  14.881 -2.5824  0.9521 -0.9913
  767MPD2    H111327   4.550   2.158  15.056 -0.7523  0.4306  1.6734
  767MPD2    H211328   0.014   2.432  15.302 -0.9491  1.7302 -0.1966
  767MPD2    H311329   4.585   2.247  15.263  0.3406 -1.1965 -0.1645
  767MPD2     N11330   4.692   2.215  14.828  0.0348  0.4836  0.2517
  767MPD2    H511331   0.011   2.261  14.746 -0.6641 -1.9256 -1.4579
  767MPD2    N111332   0.179   2.541  15.129 -0.2469 -0.8294 -0.3708
  767MPD2    H711333   0.185   2.569  15.226  0.1911  0.0081 -0.6407
  768MPD2     C11334   1.089   0.331  10.583 -0.4180  0.1569  0.0467
  768MPD2    C111335   1.027   0.298  10.705  0.3176  0.1676 -0.7869
  768MPD2    C211336   1.093   0.311  10.827 -0.1651 -0.0348  0.0508
  768MPD2    C311337   1.229   0.338  10.824  0.3210 -0.4344 -0.6775
  768MPD2    C411338   1.292   0.374  10.706 -0.5992 -0.2114  0.3667
  768MPD2    C511339   1.222   0.370  10.589 -0.3776 -0.7645 -0.9309
  768MPD2     H11340   1.037   0.290  10.917  0.3644 -0.7444  0.2169
  768MPD2    H111341   1.398   0.398  10.701 -0.5656 -0.4521 -0.0439
  768MPD2    H211342   1.036   0.331  10.488  0.9027 -0.7299 -0.6829
  768MPD2    H311343   1.275   0.399  10.499 -0.9314 -0.1794 -1.0640
  768MPD2     N11344   1.310   0.338  10.939  0.0432  0.0391  0.4046
  768MPD2    H511345   1.410   0.350  10.926 -0.3147  0.1963 -2.3628
  768MPD2    N111346   0.900   0.241  10.718  0.3973 -0.6059 -0.6408
  768MPD2    H711347   0.868   0.226  10.813  1.5979 -3.7130 -0.7327
  769MPD2     C11348   2.191   3.394  14.713  0.1409 -0.4607  0.5829
  769MPD2    C111349   2.080   3.472  14.746 -0.6559 -0.2907  0.2419
  769MPD2    C211350   2.089   3.556  14.853  0.7867 -0.1500 -0.5121
  769MPD2    C311351   2.201   3.545  14.941  0.2958  0.4084 -0.6109
  769MPD2    C411352   2.298   3.448  14.918  1.0149  0.7839  0.5356
  769MPD2    C511353   2.289   3.377  14.801 -0.1567  0.8068 -0.0275
  769MPD2     H11354   2.024   3.639  14.879  0.2392 -1.0313  0.9655
  769MPD2    H111355   2.388   3.434  14.976  0.1657 -0.1158  1.6243
  769MPD2    H211356   2.198   3.337  14.622 -1.0790  2.0654 -1.0907
  769MPD2    H311357   2.375   3.317  14.777 -2.4429 -2.4111 -0.1506
  769MPD2     N11358   2.195   3.622  15.061  0.2787  0.0994 -0.0853
  769MPD2    H511359   2.130   3.700  15.065  1.6779  1.1875  1.2720
  769MPD2    N111360   1.971   3.470  14.656 -0.7786 -0.3670 -0.1649
  769MPD2    H711361   1.984   3.427  14.565 -3.5524 -2.3876  0.4038
  770MPD2     C11362   1.199   3.114  15.067 -0.6386  0.3855 -0.1301
  770MPD2    C111363   1.320   3.063  15.018 -0.4914  0.0618  0.4396
  770MPD2    C211364   1.391   3.142  14.929 -0.0033  0.1208  0.3889
  770MPD2    C311365   1.349   3.263  14.876 -0.2189  0.2016 -0.4074
  770MPD2    C411366   1.227   3.313  14.923  0.2453 -0.7573 -0.6065
  770MPD2    C511367   1.168   3.243  15.027  0.4343  0.4054 -0.0553
  770MPD2     H11368   1.488   3.111  14.891 -0.7542 -1.4051 -0.2733
  770MPD2    H111369   1.199   3.414  14.893 -1.6338 -1.2147 -0.4000
  770MPD2    H211370   1.147   3.078  15.155  0.2510  0.8393  0.5718
  770MPD2    H311371   1.087   3.285  15.087  0.6272  1.1670 -0.3271
  770MPD2     N11372   1.432   3.328  14.782  0.0909 -0.3387 -0.0032
  770MPD2    H511373   1.522   3.283  14.771  0.5214 -0.0619  2.3290
  770MPD2    N111374   1.373   2.943  15.072  1.3710  0.5679 -0.7559
  770MPD2    H711375   1.303   2.894  15.127  2.8385 -1.5501 -0.7737
  771MPD2     C11376   2.749   1.195  13.518  0.0145 -0.7129 -0.0235
  771MPD2    C111377   2.664   1.302  13.493  0.1359 -0.6144  0.7263
  771MPD2    C211378   2.573   1.285  13.392 -0.5531  0.0510  0.2258
  771MPD2    C311379   2.573   1.171  13.314 -0.9188  0.1085 -0.6403
  771MPD2    C411380   2.659   1.063  13.335  0.0116 -0.1861 -0.3529
  771MPD2    C511381   2.747   1.080  13.443 -0.6004 -0.7117 -0.4778
  771MPD2     H11382   2.493   1.357  13.376 -1.0304 -0.2452  1.2584
  771MPD2    H111383   2.654   0.964  13.291  1.0351 -0.3754 -0.0552
  771MPD2    H211384   2.826   1.197  13.594 -0.6329 -1.3273  0.6472
  771MPD2    H311385   2.816   1.002  13.470  1.1685  0.8854 -0.3953
  771MPD2     N11386   2.484   1.166  13.204 -0.2425  1.2239  0.8113
  771MPD2    H511387   2.422   1.246  13.201  0.9983  2.0716 -2.2592
  771MPD2    N111388   2.674   1.427  13.558 -0.4337 -0.2161  0.4431
  771MPD2    H711389   2.620   1.502  13.518 -2.7762 -0.9140  2.2535
  772MPD2     C11390   2.272   1.910  13.912  0.0041 -0.1881 -0.7747
  772MPD2    C111391   2.289   1.825  13.809  0.1482  0.3851 -0.2094
  772MPD2    C211392   2.180   1.766  13.751 -0.5239 -0.1182 -0.9129
  772MPD2    C311393   2.057   1.788  13.809  0.0089  0.2903 -0.5529
  772MPD2    C411394   2.034   1.866  13.916 -0.0414  0.0221  0.3957
  772MPD2    C511395   2.145   1.925  13.966  0.3554  0.0013 -0.4195
  772MPD2     H11396   2.192   1.703  13.664  0.3580  0.5823 -1.3047
  772MPD2    H111397   1.939   1.870  13.967  0.3142  1.7625  0.9086
  772MPD2    H211398   2.355   1.956  13.965 -0.9792  1.0243 -0.2928
  772MPD2    H311399   2.142   1.984  14.057 -1.7383  1.3914 -1.3962
  772MPD2     N11400   1.942   1.718  13.759 -0.2924 -0.7680 -0.0993
  772MPD2    H511401   1.858   1.744  13.809 -0.3116 -0.1988 -0.4328
  772MPD2    N111402   2.415   1.801  13.744  0.3863  0.2667 -0.0331
  772MPD2    H711403   2.418   1.713  13.693 -1.2101 -0.0068  0.3220
  773MPD2     C11404   1.755   3.630   0.269 -0.1785  0.7838  0.0087
  773MPD2    C111405   1.632   3.576   0.303 -0.5541 -0.1179  0.3258
  773MPD2    C211406   1.618   3.505   0.425 -0.0407 -0.4261  0.4311
  773MPD2    C311407   1.726   3.484   0.513 -0.1630  0.8143 -0.1284
  773MPD2    C411408   1.848   3.544   0.480 -0.0816 -0.0464 -0.3031
  773MPD2    C511409   1.858   3.610   0.359 -0.9132  0.0686 -0.6715
  773MPD2     H11410   1.524   3.456   0.451  0.4806 -1.3979  0.4996
  773MPD2    H111411   1.930   3.537   0.550  0.4533 -2.0789 -1.1061
  773MPD2    H211412   1.776   3.686   0.178 -3.3079 -1.0870 -1.8820
  773MPD2    H311413   1.951   3.662   0.337 -1.7209  0.9285 -2.0741
  773MPD2     N11414   1.707   3.403   0.623 -0.4369 -0.4600  0.1880
  773MPD2    H511415   1.622   3.349   0.623 -0.6727 -0.0965 -2.3608
  773MPD2    N111416   1.536   3.590   0.207 -0.5005 -0.2442 -0.3220
  773MPD2    H711417   1.566   3.632   0.119  1.9007  1.1435  1.1437
  774MPD2     C11418   0.920   2.108  12.810  0.1318  0.8529  0.1604
  774MPD2    C111419   0.903   2.210  12.901  0.8227  1.2131 -0.6390
  774MPD2    C211420   0.947   2.338  12.874 -0.0521  0.9542  0.2672
  774MPD2    C311421   0.999   2.365  12.750  0.7791  0.2367 -0.1092
  774MPD2    C411422   1.007   2.263  12.662  0.1173  0.2167 -0.5844
  774MPD2    C511423   0.972   2.132  12.685 -1.2708 -0.6911  0.8098
  774MPD2     H11424   0.930   2.427  12.933 -1.4820  0.2505  0.9150
  774MPD2    H111425   1.052   2.270  12.564 -1.2643  3.0134 -1.0341
  774MPD2    H211426   0.893   2.006  12.832 -0.3070  1.1125  0.8205
  774MPD2    H311427   0.986   2.050  12.614 -1.0313  0.3014 -0.2990
  774MPD2     N11428   1.068   2.485  12.736 -0.0398 -0.0716  0.1520
  774MPD2    H511429   1.047   2.560  12.801  1.7061 -0.5255  1.2315
  774MPD2    N111430   0.853   2.181  13.030 -0.2633 -0.4664  0.3593
  774MPD2    H711431   0.843   2.084  13.059  2.6108 -1.4168 -1.7962
  775MPD2     C11432   2.331   3.591  15.671 -0.2503 -0.2500 -0.1599
  775MPD2    C111433   2.274   3.709  15.719  0.1188 -0.4103  0.6810
  775MPD2    C211434   2.321   3.825  15.665 -0.2710 -0.0599  0.0223
  775MPD2    C311435   2.423   3.837  15.572 -0.2269 -0.4680  0.0710
  775MPD2    C411436   2.471   3.719  15.522  0.4950 -0.1227  0.3122
  775MPD2    C511437   2.428   3.597  15.576  0.5436 -0.1776 -0.0188
  775MPD2     H11438   2.290   3.916  15.714  0.2153  0.3617 -0.4620
  775MPD2    H111439   2.543   3.719  15.440 -0.0772 -1.3532 -0.1813
  775MPD2    H211440   2.309   3.491  15.706 -0.8012  0.2441  0.9114
  775MPD2    H311441   2.473   3.503  15.545 -0.7102 -0.1979 -1.7592
  775MPD2     N11442   2.468   3.958  15.517 -0.2732 -0.5606 -0.5403
  775MPD2    H511443   2.521   3.946  15.431 -0.2596 -1.2460 -0.4337
  775MPD2    N111444   2.178   3.702  15.823 -0.3235  0.1732  0.5108
  775MPD2    H711445   2.175   3.606  15.855  1.3950 -0.2397 -0.5250
  776MPD2     C11446   1.138   3.898  11.102 -0.5753 -0.3470 -0.4121
  776MPD2    C111447   1.247   3.846  11.164 -0.7453 -0.3512  0.4547
  776MPD2    C211448   1.338   3.939  11.213  0.6330 -0.4623 -0.3817
  776MPD2    C311449   1.331   4.073  11.198 -0.5092  0.0890 -0.1889
  776MPD2    C411450   1.218   4.122  11.131 -0.7237  0.2182 -0.1131
  776MPD2    C511451   1.132   4.030  11.087 -0.2401  0.6708  0.1296
  776MPD2     H11452   1.427   3.897  11.260 -0.0777 -0.6727  0.7674
  776MPD2    H111453   1.194   4.228  11.124  2.4336  1.0032  0.6297
  776MPD2    H211454   1.062   3.837  11.054  0.2546 -2.3043  0.7706
  776MPD2    H311455   1.047   4.077  11.038 -0.4197  0.0241 -0.1819
  776MPD2     N11456   1.421   4.169  11.254 -0.6646  0.3236 -0.1970
  776MPD2    H511457   1.398   4.265  11.233 -0.6921  0.8699  2.3335
  776MPD2    N111458   1.262   3.706  11.165 -0.0379  0.6312  0.5165
  776MPD2    H711459   1.188   3.654  11.119  0.7212  0.4323 -0.4840
  777MPD2     C11460   1.662   1.919   0.644 -0.4720  0.3788  0.1462
  777MPD2    C111461   1.530   1.921   0.673  0.5230  0.3616 -0.0269
  777MPD2    C211462   1.443   1.856   0.591 -0.5839  0.1288  0.2543
  777MPD2    C311463   1.492   1.802   0.469  0.1386 -0.1183 -0.4467
  777MPD2    C411464   1.628   1.816   0.437 -0.7097  0.4973  0.1407
  777MPD2    C511465   1.715   1.862   0.531  0.4932 -0.2845 -0.2227
  777MPD2     H11466   1.336   1.863   0.608 -0.6989  1.1345 -0.9260
  777MPD2    H111467   1.674   1.778   0.346 -1.0767  1.4655 -0.4410
  777MPD2    H211468   1.732   1.974   0.705 -0.0492  0.1949 -0.1705
  777MPD2    H311469   1.817   1.878   0.498  1.0136  2.3092  2.6392
  777MPD2     N11470   1.394   1.744   0.378  0.4483  0.7267 -0.1446
  777MPD2    H511471   1.298   1.755   0.410 -0.2586 -1.2002 -1.6431
  777MPD2    N111472   1.492   1.981   0.797 -0.1175  0.6052 -0.6079
  777MPD2    H711473   1.556   2.005   0.872 -1.9273  1.9370  0.5094
  778MPD2     C11474   2.959   1.652  14.964  0.0969 -0.2966  0.2496
  778MPD2    C111475   2.949   1.532  14.902  0.1065 -0.5384  0.3077
  778MPD2    C211476   3.047   1.495  14.811 -0.0003 -0.1054  0.2669
  778MPD2    C311477   3.150   1.577  14.786  0.5120 -0.5404 -0.0026
  778MPD2    C411478   3.160   1.703  14.844 -0.2960 -0.2797  0.9602
  778MPD2    C511479   3.064   1.737  14.940  0.3199  0.4388  0.1534
  778MPD2     H11480   3.043   1.396  14.766 -2.0026 -0.5848  1.5218
  778MPD2    H111481   3.248   1.765  14.831  0.3974 -1.5888 -0.5821
  778MPD2    H211482   2.881   1.686  15.031  0.7245  0.4472  0.6016
  778MPD2    H311483   3.063   1.837  14.982  0.9483  0.4183  0.2121
  778MPD2     N11484   3.241   1.531  14.683  0.2042  0.3512 -0.8675
  778MPD2    H511485   3.225   1.445  14.632 -0.2625 -0.1372  0.1141
  778MPD2    N111486   2.839   1.442  14.920  0.0951 -0.2397 -0.0355
  778MPD2    H711487   2.853   1.348  14.887 -0.2333 -0.3563  0.1467
  779MPD2     C11488   2.864   0.097  13.746 -0.1514  0.2686  0.3909
  779MPD2    C111489   2.771   0.184  13.804  0.6163 -0.6870 -0.1425
  779MPD2    C211490   2.807   0.318  13.823  0.3579 -0.5093 -0.3002
  779MPD2    C311491   2.935   0.363  13.799 -0.3655  0.1910  0.2521
  779MPD2    C411492   3.022   0.274  13.744  0.0797  0.6391 -1.0150
  779MPD2    C511493   2.985   0.145  13.716  0.3974 -0.1549 -0.8699
  779MPD2     H11494   2.730   0.372  13.877  0.8967 -0.0593  0.0199
  779MPD2    H111495   3.124   0.306  13.725  0.9242 -0.6592  1.3778
  779MPD2    H211496   2.843   4.715  13.719 -1.7605  0.8990 -0.8059
  779MPD2    H311497   3.062   0.077  13.682 -0.1388 -0.9241 -0.5470
  779MPD2     N11498   2.962   0.502  13.826 -0.2307 -0.2446 -0.1122
  779MPD2    H511499   2.886   0.564  13.856 -0.0595 -0.3248  0.4870
  779MPD2    N111500   2.639   0.145  13.843 -0.0678  0.2657  0.9317
  779MPD2    H711501   2.581   0.207  13.897  0.4566  1.9931 -0.4689
  780MPD2     C11502   1.603   0.073   0.873 -0.4167  0.0679  0.3090
  780MPD2    C111503   1.721   0.078   0.797 -0.0377  0.1973 -0.5010
  780MPD2    C211504   1.710   0.153   0.678  0.0337  0.3173  0.0063
  780MPD2    C311505   1.593   0.213   0.636 -0.4817  0.6016  0.4709
  780MPD2    C411506   1.486   0.208   0.714 -0.0371 -0.0736 -0.0094
  780MPD2    C511507   1.490   0.139   0.833  0.2102 -1.1084  0.3960
  780MPD2     H11508   1.794   0.173   0.614 -0.8638  0.0371 -1.2466
  780MPD2    H111509   1.389   0.243   0.681 -0.6371  1.6704  3.5059
  780MPD2    H211510   1.595   0.019   0.967  0.9119 -0.5635  0.0527
  780MPD2    H311511   1.397   0.128   0.886 -0.5598 -1.2409 -0.9903
  780MPD2     N11512   1.613   0.285   0.519  0.0227  0.1503  0.1674
  780MPD2    H511513   1.694   0.269   0.460 -0.5748 -0.4636 -0.4937
  780MPD2    N111514   1.844   0.021   0.838 -0.5204 -0.3892 -0.1244
  780MPD2    H711515   1.842   4.691   0.926  0.3246 -1.8087 -0.9140
  781MPD2     C11516   3.916   1.901  11.979  0.5000 -0.0022  0.2618
  781MPD2    C111517   3.831   1.813  12.040  0.6967  0.1521  0.1593
  781MPD2    C211518   3.755   1.739  11.955 -0.2135  0.2609  0.7891
  781MPD2    C311519   3.785   1.725  11.815  0.7508  0.0105 -0.3013
  781MPD2    C411520   3.866   1.813  11.753 -0.0769  0.0064  0.1737
  781MPD2    C511521   3.933   1.901  11.842 -0.3860 -0.0610  0.5796
  781MPD2     H11522   3.690   1.667  12.003 -0.2249 -0.5472 -0.4215
  781MPD2    H111523   3.881   1.826  11.647 -1.0770  1.7299  0.2360
  781MPD2    H211524   3.965   1.979  12.037 -2.0174  1.4327  0.4320
  781MPD2    H311525   3.992   1.983  11.802  2.7215 -2.2737  0.6556
  781MPD2     N11526   3.703   1.628  11.748  0.2600  0.0394 -0.1012
  781MPD2    H511527   3.634   1.579  11.804 -0.2054 -1.0540 -1.6543
  781MPD2    N111528   3.819   1.803  12.184 -0.2264  0.0126 -0.4556
  781MPD2    H711529   3.738   1.753  12.219  1.0909 -2.6260 -1.2385
  782MPD2     C11530   2.866   2.192  10.522 -0.2202 -0.4256  0.1894
  782MPD2    C111531   2.738   2.214  10.472  0.0407 -0.4948 -0.2631
  782MPD2    C211532   2.695   2.345  10.472 -1.0110 -0.0331  0.6563
  782MPD2    C311533   2.780   2.449  10.511 -0.2334  0.1360  1.0345
  782MPD2    C411534   2.907   2.424  10.557  0.6303 -0.3433  0.0862
  782MPD2    C511535   2.948   2.293  10.554  0.8099 -0.3887  0.5207
  782MPD2     H11536   2.596   2.372  10.437  0.3044  2.7384 -0.9304
  782MPD2    H111537   2.966   2.502  10.603  3.4136 -1.4677 -1.5669
  782MPD2    H211538   2.892   2.089  10.541  0.9761 -0.1193  0.1987
  782MPD2    H311539   3.050   2.273  10.584  1.0825  1.9408  1.1688
  782MPD2     N11540   2.722   2.578  10.520  0.3028 -0.7200  0.1244
  782MPD2    H511541   2.621   2.576  10.510  0.1195 -0.7256  1.9523
  782MPD2    N111542   2.663   2.102  10.436 -0.1558 -0.3354  0.1357
  782MPD2    H711543   2.699   2.007  10.426  1.1199  0.1225  0.3925
  783MPD2     C11544   1.701   1.939  10.589 -0.1266  0.3370 -0.1199
  783MPD2    C111545   1.782   2.052  10.597 -0.2372 -0.0141  0.0198
  783MPD2    C211546   1.915   2.043  10.567  0.1251  0.0897  0.1820
  783MPD2    C311547   1.969   1.923  10.530 -0.0734  0.4667  0.2197
  783MPD2    C411548   1.888   1.809  10.523  0.2296  0.1114 -0.1332
  783MPD2    C511549   1.756   1.818  10.550  0.1835  0.1452  0.5694
  783MPD2     H11550   1.981   2.128  10.570  0.5196 -0.1425 -2.4100
  783MPD2    H111551   1.934   1.713  10.501 -0.6144 -0.0122 -1.3178
  783MPD2    H211552   1.593   1.941  10.598  0.0772 -0.8164  2.5004
  783MPD2    H311553   1.691   1.732  10.538  0.1034  0.8747 -4.2968
  783MPD2     N11554   2.106   1.925  10.504  0.5034  0.4130 -0.6395
  783MPD2    H511555   2.154   2.014  10.503  1.2597 -0.0269 -2.6178
  783MPD2    N111556   1.724   2.180  10.632 -0.0258  0.1480 -0.1840
  783MPD2    H711557   1.624   2.174  10.652  0.6184 -1.5280  2.5315
  784MPD2     C11558   4.010   3.689   1.857 -0.2940  0.0414 -0.4758
  784MPD2    C111559   4.019   3.761   1.742  0.4800 -0.1182 -0.4928
  784MPD2    C211560   3.908   3.828   1.688 -0.1921  0.0240 -0.1938
  784MPD2    C311561   3.787   3.816   1.748 -0.2137 -0.0471 -0.6099
  784MPD2    C411562   3.775   3.740   1.863  0.6874 -0.8099  0.0472
  784MPD2    C511563   3.890   3.676   1.916 -0.1977  0.9010  0.2169
  784MPD2     H11564   3.930   3.884   1.598  0.6601  1.5137  0.9371
  784MPD2    H111565   3.682   3.724   1.916  0.5081 -1.4666 -0.4634
  784MPD2    H211566   4.093   3.632   1.895 -0.1255  0.8075  0.2934
  784MPD2    H311567   3.887   3.608   2.000  1.8013  0.3490 -0.1513
  784MPD2     N11568   3.675   3.875   1.684  0.2709  0.0424  0.1458
  784MPD2    H511569   3.696   3.931   1.602  1.2571 -1.3837 -0.5850
  784MPD2    N111570   4.140   3.774   1.668 -0.0358 -1.0336  0.6648
  784MPD2    H711571   4.125   3.833   1.587 -1.2679 -2.5238 -0.1856
  785MPD2     C11572   3.360   0.880   9.892 -0.0401 -0.8569 -0.5049
  785MPD2    C111573   3.482   0.927   9.867 -1.0138  0.2464  0.4163
  785MPD2    C211574   3.557   0.969   9.975 -0.4441 -0.5198 -0.0099
  785MPD2    C311575   3.515   0.963  10.103 -0.4649 -0.1439 -0.8165
  785MPD2    C411576   3.392   0.913  10.133  0.3078 -0.0090 -0.5651
  785MPD2    C511577   3.316   0.874  10.022  0.1948 -1.2914 -0.0459
  785MPD2     H11578   3.659   1.001   9.957 -1.1918  2.2268  0.6477
  785MPD2    H111579   3.340   0.928  10.227  0.3890  0.1426 -0.5445
  785MPD2    H211580   3.297   0.844   9.812 -1.2500  1.3792 -0.5703
  785MPD2    H311581   3.215   0.836  10.034 -0.5400  0.2001 -1.4894
  785MPD2     N11582   3.602   1.018  10.207  0.2286  0.8712  0.0961
  785MPD2    H511583   3.694   1.046  10.176 -0.2050  0.1729 -1.8265
  785MPD2    N111584   3.525   0.931   9.732  0.2660 -0.1846 -0.0803
  785MPD2    H711585   3.459   0.899   9.661  1.6517  0.1005 -1.4978
  786MPD2     C11586   2.879   4.634  14.476  0.2171 -0.6958  0.6583
  786MPD2    C111587   2.959   4.520  14.488  0.3535  0.1614  0.0550
  786MPD2    C211588   3.064   4.517  14.574 -0.8602 -0.0431  0.3205
  786MPD2    C311589   3.097   4.635  14.643 -0.6199 -0.4403  0.3663
  786MPD2    C411590   3.009   0.020  14.641  0.5692  0.0720 -0.0311
  786MPD2    C511591   2.902   0.021  14.561  0.2048 -0.6699  0.4934
  786MPD2     H11592   3.126   4.428  14.575 -1.2347 -0.3025  0.5629
  786MPD2    H111593   3.018   0.111  14.699  0.0543  1.9108 -2.7932
  786MPD2    H211594   2.809   4.650  14.395  0.0276 -2.4026  0.4882
  786MPD2    H311595   2.836   0.107  14.550  0.3711 -0.3241  2.2116
  786MPD2     N11596   3.214   4.638  14.726  0.5658  0.2487  0.2236
  786MPD2    H511597   3.235   0.006  14.770  3.4570 -1.0826  1.5286
  786MPD2    N111598   2.940   4.404  14.406  0.0018 -0.6595 -0.0387
  786MPD2    H711599   3.006   4.330  14.430 -1.7331 -1.7795  1.3016
  787MPD2     C11600   3.224   3.968  14.649  0.1945 -0.4756 -0.1471
  787MPD2    C111601   3.220   3.930  14.515  0.9552  0.5785 -0.3896
  787MPD2    C211602   3.312   3.852  14.458  0.6724  0.2046  0.4897
  787MPD2    C311603   3.416   3.814  14.535  0.9235  0.0761  0.1076
  787MPD2    C411604   3.417   3.846  14.674  0.3714 -0.0352  0.1843
  787MPD2    C511605   3.325   3.930  14.728  0.3930 -0.3983 -0.9467
  787MPD2     H11606   3.305   3.821  14.354 -0.3518  0.3025  0.5333
  787MPD2    H111607   3.504   3.815  14.731  1.0451  0.0582 -0.8122
  787MPD2    H211608   3.147   4.029  14.695 -0.2872  1.0648 -3.0150
  787MPD2    H311609   3.339   3.967  14.829  3.0902  0.5560 -1.6822
  787MPD2     N11610   3.516   3.728  14.483  0.3022 -0.0400 -0.2279
  787MPD2    H511611   3.500   3.687  14.391  1.1806  1.4688 -1.0689
  787MPD2    N111612   3.106   3.974  14.446  0.5506  0.0446 -0.5205
  787MPD2    H711613   3.049   4.037  14.501 -0.1261 -0.8004 -0.2499
  788MPD2     C11614   0.804   3.495   0.395 -0.2517 -0.2684  0.2030
  788MPD2    C111615   0.677   3.444   0.374  0.3286  0.4828  0.0726
  788MPD2    C211616   0.613   3.452   0.255 -0.8100  1.0216 -0.0693
  788MPD2    C311617   0.680   3.513   0.153 -1.2103  0.1572 -0.0186
  788MPD2    C411618   0.807   3.560   0.172  0.0988 -0.2463  0.6049
  788MPD2    C511619   0.876   3.550   0.289 -0.3953  0.0284  0.2174
  788MPD2     H11620   0.508   3.425   0.248 -0.3639 -0.9979  1.0422
  788MPD2    H111621   0.848   3.610   0.085 -0.1540  0.0709  0.6696
  788MPD2    H211622   0.861   3.500   0.487 -0.0261  0.5699  0.0180
  788MPD2    H311623   0.973   3.594   0.309 -0.2771  0.2840 -0.8812
  788MPD2     N11624   0.616   3.531   0.027 -0.0255  0.6219 -0.0312
  788MPD2    H511625   0.661   3.583  17.638 -0.8399  0.5336 -0.5856
  788MPD2    N111626   0.625   3.377   0.488  0.7696  0.0267 -0.8683
  788MPD2    H711627   0.699   3.357   0.556  0.8167 -1.8177 -1.4637
  789MPD2     C11628   0.889   2.847  16.581 -0.6928 -0.0660 -0.0945
  789MPD2    C111629   0.863   2.712  16.593 -0.2761  0.3254 -0.4044
  789MPD2    C211630   0.732   2.670  16.608 -0.9211  0.4965 -0.6006
  789MPD2    C311631   0.629   2.756  16.622  0.8548  0.3072 -0.0661
  789MPD2    C411632   0.656   2.891  16.616  0.3899 -0.1252  0.1793
  789MPD2    C511633   0.781   2.929  16.594 -0.8133  0.2098 -0.7650
  789MPD2     H11634   0.717   2.563  16.604  0.3809  0.2868  0.1621
  789MPD2    H111635   0.578   2.965  16.624  2.5401  2.1625 -0.0116
  789MPD2    H211636   0.987   2.892  16.568 -0.4458 -0.7422 -0.5794
  789MPD2    H311637   0.788   3.037  16.586  1.2786  0.2647  1.8138
  789MPD2     N11638   0.491   2.705  16.635  0.4248  0.7250  0.4053
  789MPD2    H511639   0.421   2.779  16.638 -0.2723  0.1162 -0.8830
  789MPD2    N111640   0.963   2.614  16.581  0.4524 -0.6772  0.5912
  789MPD2    H711641   0.928   2.519  16.581  2.7401 -1.4928 -2.2536
  790MPD2     C11642   1.122   3.365  13.751  0.2728  0.0450 -0.5202
  790MPD2    C111643   1.246   3.354  13.698  0.2453 -0.2542 -0.2284
  790MPD2    C211644   1.253   3.353  13.563  0.3411 -0.4763  0.0357
  790MPD2    C311645   1.139   3.361  13.485 -0.0194  0.4830  0.1182
  790MPD2    C411646   1.013   3.391  13.541  0.3718  0.0062  0.2405
  790MPD2    C511647   1.013   3.394  13.677  0.8721  0.0668  0.2306
  790MPD2     H11648   1.346   3.338  13.510  0.4947  1.9295 -0.3562
  790MPD2    H111649   0.928   3.421  13.481  0.4249 -2.0718 -0.8459
  790MPD2    H211650   1.111   3.385  13.857 -0.9540 -1.8959 -0.2869
  790MPD2    H311651   0.915   3.400  13.722  1.8484  0.9732  2.2496
  790MPD2     N11652   1.168   3.363  13.344 -0.2848  0.1579 -0.4321
  790MPD2    H511653   1.265   3.342  13.322 -0.2713  2.0709 -2.2717
  790MPD2    N111654   1.352   3.384  13.788  0.0980 -0.5324  0.0183
  790MPD2    H711655   1.326   3.393  13.885  1.4859 -0.7244  0.4146
  791MPD2     C11656   0.916   3.816  12.803  0.0543 -0.1089 -0.1301
  791MPD2    C111657   0.917   3.695  12.743  0.4158 -0.0492  0.0590
  791MPD2    C211658   0.849   3.672  12.625  0.0030 -0.6624  0.2682
  791MPD2    C311659   0.769   3.764  12.580  1.1780 -0.1301 -0.4951
  791MPD2    C411660   0.756   3.881  12.651  0.1736 -0.0069  0.2226
  791MPD2    C511661   0.831   3.908  12.757  0.5027  0.2522  0.0639
  791MPD2     H11662   0.867   3.586  12.562  1.3767 -0.8801  0.9574
  791MPD2    H111663   0.701   3.966  12.613 -0.6869 -1.1970 -1.2125
  791MPD2    H211664   0.968   3.840  12.895  0.7845  2.0014 -1.1064
  791MPD2    H311665   0.828   4.008  12.799 -0.8859  0.3124 -0.1765
  791MPD2     N11666   0.698   3.743  12.462 -0.1815 -0.5186 -0.0189
  791MPD2    H511667   0.715   3.655  12.414  2.6085  0.3756 -0.7035
  791MPD2    N111668   0.990   3.597  12.808  0.2490 -0.5359 -0.0542
  791MPD2    H711669   1.027   3.616  12.900 -0.7346  0.4201  0.1320
  792MPD2     C11670   2.066   3.527  11.095  0.2415  0.9002  0.3190
  792MPD2    C111671   1.933   3.569  11.077 -0.3795 -0.2713 -0.8256
  792MPD2    C211672   1.852   3.488  10.999  0.6463  0.0955  0.4974
  792MPD2    C311673   1.904   3.379  10.936 -0.4637  0.4502  0.9643
  792MPD2    C411674   2.035   3.347  10.948 -0.6281  0.3588 -0.8425
  792MPD2    C511675   2.115   3.417  11.038 -0.0445  0.5525  0.3785
  792MPD2     H11676   1.752   3.525  10.978  0.8664  0.2662 -0.2547
  792MPD2    H111677   2.077   3.263  10.894  0.6235 -0.1002  0.8407
  792MPD2    H211678   2.130   3.582  11.163 -0.6637  1.5385  0.6532
  792MPD2    H311679   2.218   3.389  11.058 -0.2264  0.9773  1.9361
  792MPD2     N11680   1.823   3.304  10.846  0.3636 -0.7260 -0.2742
  792MPD2    H511681   1.864   3.226  10.795  0.1462 -1.6774  1.0219
  792MPD2    N111682   1.902   3.694  11.129 -0.0911 -0.5289 -0.2014
  792MPD2    H711683   1.970   3.729  11.195 -1.0014 -0.5400  0.7370
  793MPD2     C11684   1.152   3.320  10.080  0.5410  0.4462  0.1254
  793MPD2    C111685   1.279   3.275  10.060 -0.2653 -0.0774 -0.5404
  793MPD2    C211686   1.350   3.216  10.167  0.6565 -0.2580  0.4449
  793MPD2    C311687   1.298   3.221  10.298 -0.3144 -0.4108  0.0925
  793MPD2    C411688   1.173   3.262  10.318 -0.2789 -0.7743 -0.4923
  793MPD2    C511689   1.100   3.301  10.207 -0.4073  0.2344  0.8001
  793MPD2     H11690   1.453   3.184  10.155  0.4328  0.0580 -2.2795
  793MPD2    H111691   1.123   3.269  10.414  1.8369 -1.6280  0.6825
  793MPD2    H211692   1.099   3.372  10.001  0.4914  1.5057  0.8631
  793MPD2    H311693   1.000   3.327  10.240 -1.3465 -2.1381 -0.2369
  793MPD2     N11694   1.374   3.172  10.406 -0.0333 -0.5330  1.0501
  793MPD2    H511695   1.465   3.137  10.381 -0.3949 -0.7036 -0.0177
  793MPD2    N111696   1.341   3.286   9.937  0.7459 -0.1069 -0.8708
  793MPD2    H711697   1.433   3.244   9.929  2.0171  2.6799 -0.7057
  794MPD2     C11698   1.666   3.776  17.336 -0.3818  0.0814 -0.3670
  794MPD2    C111699   1.552   3.710  17.310 -0.4937 -0.3830  0.5126
  794MPD2    C211700   1.498   3.719  17.182 -0.5148  0.0415 -0.2886
  794MPD2    C311701   1.560   3.802  17.085 -0.7212 -0.4070 -0.3086
  794MPD2    C411702   1.679   3.862  17.113 -1.1540  0.2630  0.0121
  794MPD2    C511703   1.738   3.839  17.232 -0.4853  0.5620  0.1593
  794MPD2     H11704   1.396   3.687  17.162 -1.3591  2.5486 -0.1022
  794MPD2    H111705   1.726   3.928  17.041  0.4454 -1.4482 -0.5095
  794MPD2    H211706   1.715   3.758  17.431  1.3602 -2.7175 -1.8167
  794MPD2    H311707   1.831   3.888  17.258  1.0613 -1.3833 -1.7055
  794MPD2     N11708   1.496   3.833  16.961 -0.1057  0.3234  0.0556
  794MPD2    H511709   1.534   3.911  16.909  2.0954 -1.0792 -0.4440
  794MPD2    N111710   1.493   3.650  17.424 -0.3455 -0.2774  0.2277
  794MPD2    H711711   1.525   3.669  17.519  2.0333 -3.9491  0.1830
  795MPD2     C11712   3.575   0.817  13.237 -0.6161 -0.1591  0.1581
  795MPD2    C111713   3.557   0.683  13.182  0.5419  0.0345  0.8822
  795MPD2    C211714   3.667   0.594  13.185 -0.3925 -0.2270  0.0276
  795MPD2    C311715   3.790   0.645  13.236  0.5180  0.0045 -0.5977
  795MPD2    C411716   3.802   0.768  13.294  0.4414  0.6734  0.1199
  795MPD2    C511717   3.691   0.845  13.310  0.2531 -0.1076 -0.5196
  795MPD2     H11718   3.663   0.494  13.143  0.4470 -0.4271  0.4168
  795MPD2    H111719   3.892   0.799  13.345  0.8030  0.5997 -0.4771
  795MPD2    H211720   3.499   0.895  13.241 -0.7433 -0.1799 -1.8765
  795MPD2    H311721   3.707   0.939  13.361  0.7775 -0.2864 -0.3643
  795MPD2     N11722   3.902   0.556  13.219 -0.6190 -0.1031  0.0765
  795MPD2    H511723   3.885   0.467  13.174 -0.2868  0.7164 -1.6627
  795MPD2    N111724   3.436   0.638  13.116  0.4370 -0.9357  0.2135
  795MPD2    H711725   3.436   0.551  13.063 -1.1977 -0.2609 -0.8967
  796MPD2     C11726   3.738   1.990  15.361  0.6357 -0.1593  0.5553
  796MPD2    C111727   3.820   2.071  15.433 -0.7455  0.2823 -0.8684
  796MPD2    C211728   3.778   2.194  15.477  0.0018 -0.5892 -0.3144
  796MPD2    C311729   3.646   2.238  15.450 -0.5413 -0.6707  0.3761
  796MPD2    C411730   3.573   2.168  15.359 -0.6417 -0.1093  0.5407
  796MPD2    C511731   3.613   2.040  15.323  0.1595  0.2180  0.4342
  796MPD2     H11732   3.831   2.256  15.550  1.6410  0.6907 -2.5797
  796MPD2    H111733   3.476   2.196  15.318  0.1710  1.2333 -0.4503
  796MPD2    H211734   3.764   1.889  15.332  0.6747 -0.6750  2.4344
  796MPD2    H311735   3.544   1.992  15.255 -0.3277  1.8557 -0.2023
  796MPD2     N11736   3.611   2.365  15.501  0.0632  0.2223 -0.1146
  796MPD2    H511737   3.678   2.419  15.554  0.7535 -1.1314  0.4131
  796MPD2    N111738   3.937   2.001  15.474  0.4328 -0.2337  0.3012
  796MPD2    H711739   3.968   1.916  15.427 -1.0022  0.6270 -2.1959
  797MPD2     C11740   4.215   1.842  16.915 -0.5958 -0.0433 -0.5219
  797MPD2    C111741   4.214   1.966  16.961 -0.5669  0.4656  0.6339
  797MPD2    C211742   4.182   2.075  16.885 -0.4405 -0.4077  0.6422
  797MPD2    C311743   4.147   2.060  16.754 -0.5338  0.4378  0.1759
  797MPD2    C411744   4.150   1.930  16.704 -0.0069 -0.2117 -0.1088
  797MPD2    C511745   4.183   1.820  16.782 -0.2200 -0.3082  0.6832
  797MPD2     H11746   4.183   2.169  16.939 -0.3331  0.1302 -0.2910
  797MPD2    H111747   4.131   1.902  16.601  0.3940 -0.7878 -0.0261
  797MPD2    H211748   4.233   1.758  16.982 -1.4028  0.3366  0.1720
  797MPD2    H311749   4.180   1.721  16.738 -1.1138  0.2697 -0.5729
  797MPD2     N11750   4.111   2.172  16.671 -0.0647 -0.0060  0.3594
  797MPD2    H511751   4.086   2.149  16.575  1.1401  0.8573 -0.1566
  797MPD2    N111752   4.255   2.000  17.093 -0.3171 -0.6518  0.0362
  797MPD2    H711753   4.265   2.099  17.112  1.6442 -1.0566  1.0244
  798MPD2     C11754   4.042   2.709  17.100 -0.0181 -0.9376  0.2773
  798MPD2    C111755   4.137   2.656  17.024 -0.9138  0.2173  0.0003
  798MPD2    C211756   4.216   2.553  17.076 -0.0877  0.8227  0.4769
  798MPD2    C311757   4.200   2.514  17.209 -0.2535  0.1235 -0.2665
  798MPD2    C411758   4.097   2.569  17.287 -0.1210 -0.6459  0.2606
  798MPD2    C511759   4.019   2.670  17.231  0.6118  0.0623 -0.3142
  798MPD2     H11760   4.284   2.496  17.013 -1.1462 -1.4190  1.3790
  798MPD2    H111761   4.076   2.542  17.390 -0.0624  0.3174  0.5196
  798MPD2    H211762   3.977   2.782  17.054 -0.2354 -1.1294  0.2820
  798MPD2    H311763   3.935   2.715  17.282 -0.5783  1.6780 -3.6598
  798MPD2     N11764   4.276   2.404  17.252 -0.0130  0.2426 -0.8605
  798MPD2    H511765   4.330   2.360  17.178 -1.1830 -1.2896 -0.8145
  798MPD2    N111766   4.140   2.687  16.890 -0.9990 -0.1432 -0.4399
  798MPD2    H711767   4.059   2.733  16.850 -0.4716 -0.0251 -1.3808
  799MPD2     C11768   2.928   2.713  14.467 -0.9228 -0.5332  0.2829
  799MPD2    C111769   3.018   2.819  14.485 -0.2917  0.0263  0.3833
  799MPD2    C211770   2.977   2.947  14.462  0.0670  0.3557 -0.2681
  799MPD2    C311771   2.851   2.965  14.404  0.0688  0.2836 -0.1367
  799MPD2    C411772   2.761   2.859  14.383 -0.2313 -0.3131 -0.0711
  799MPD2    C511773   2.805   2.735  14.418  0.5909 -0.5097  0.9349
  799MPD2     H11774   3.049   3.024  14.486  0.3005  0.4069 -1.1124
  799MPD2    H111775   2.657   2.868  14.354 -0.3284  0.0308  0.3900
  799MPD2    H211776   2.951   2.608  14.480 -3.7588 -1.5023 -2.5887
  799MPD2    H311777   2.734   2.654  14.409 -1.0948  1.3191 -2.2102
  799MPD2     N11778   2.820   3.096  14.353 -0.1993 -0.2540  0.1890
  799MPD2    H511779   2.898   3.160  14.355 -0.9029  0.5500  1.2810
  799MPD2    N111780   3.145   2.787  14.534  0.3217  0.0704 -0.1004
  799MPD2    H711781   3.177   2.691  14.525  0.9441  0.5116 -2.6104
  800MPD2     C11782   3.551   4.085  14.308 -0.2687 -0.0958  0.2361
  800MPD2    C111783   3.683   4.125  14.285 -0.6095  0.0045 -0.2353
  800MPD2    C211784   3.732   4.128  14.153  0.1957 -0.1093 -0.1282
  800MPD2    C311785   3.650   4.101  14.046 -0.7307 -0.2680 -0.1654
  800MPD2    C411786   3.521   4.060  14.074 -1.4194  0.0639 -0.1393
  800MPD2    C511787   3.477   4.053  14.200  1.2784  0.8445 -0.1998
  800MPD2     H11788   3.833   4.158  14.127 -0.0522 -0.3881 -1.4111
  800MPD2    H111789   3.450   4.038  13.995 -0.7415 -1.2802 -0.3849
  800MPD2    H211790   3.506   4.074  14.406  0.0971 -0.1355  0.3991
  800MPD2    H311791   3.371   4.042  14.217  1.7307 -2.9135  0.1766
  800MPD2     N11792   3.706   4.114  13.919  0.2820  0.0634  0.6733
  800MPD2    H511793   3.802   4.146  13.915  0.5812 -1.0869 -1.4367
  800MPD2    N111794   3.756   4.164  14.399  0.0753  0.1713  0.7965
  800MPD2    H711795   3.707   4.156  14.487  0.5194  0.0565  1.0348
  801MPD2     C11796   3.603   0.107  14.643  0.3911  0.1786 -0.0144
  801MPD2    C111797   3.587   0.002  14.560  0.0969  0.5221 -0.2966
  801MPD2    C211798   3.480   4.714  14.473 -0.7825 -0.0225 -0.5414
  801MPD2    C311799   3.389   0.099  14.464 -0.2418  0.2831 -0.1011
  801MPD2    C411800   3.411   0.206  14.547 -0.3284  0.2060  0.1839
  801MPD2    C511801   3.515   0.212  14.632  0.4821  0.0237  0.3390
  801MPD2     H11802   3.477   4.629  14.405  0.5554 -0.7478  0.2956
  801MPD2    H111803   3.340   0.287  14.547  0.2854  0.7564  1.0505
  801MPD2    H211804   3.681   0.126  14.716  2.2702 -1.8068 -1.5055
  801MPD2    H311805   3.532   0.301  14.691  0.2060  0.5143 -0.3223
  801MPD2     N11806   3.278   0.099  14.377  0.2744  0.3232  0.0397
  801MPD2    H511807   3.224   0.182  14.356  0.5963  0.4061 -0.4504
  801MPD2    N111808   3.681   4.617  14.562 -0.0473  0.2994  0.6808
  801MPD2    H711809   3.659   4.537  14.504  0.3871  0.7042 -0.0463
  802MPD2     C11810   2.938   0.456   0.158 -0.6245 -0.3130  0.2048
  802MPD2    C111811   2.908   0.538   0.052 -0.1582 -0.2398 -0.2727
  802MPD2    C211812   2.965   0.513  17.619  0.1845  0.9678  0.7521
  802MPD2    C311813   3.046   0.405  17.603 -0.7802 -0.2245  0.1823
  802MPD2    C411814   3.051   0.309   0.016 -0.6182  0.2238 -0.9583
  802MPD2    C511815   2.997   0.335   0.137  0.1879 -0.1301  0.3654
  802MPD2     H11816   2.944   0.577  17.533  0.7008  0.4985  0.2828
  802MPD2    H111817   3.113   0.221   0.004 -0.4001  0.0826  1.2025
  802MPD2    H211818   2.890   0.472   0.254  0.8187 -0.9306  1.0194
  802MPD2    H311819   2.995   0.273   0.226  0.1922 -1.1840 -0.3745
  802MPD2     N11820   3.100   0.393  17.475 -0.0698 -0.1840 -0.6848
  802MPD2    H511821   3.088   0.474  17.414  0.9302  0.9623  0.6384
  802MPD2    N111822   2.819   0.649   0.072 -0.5111  0.5619  0.4206
  802MPD2    H711823   2.814   0.716  17.682  1.9047  0.7297  0.4256
  803MPD2     C11824   4.250   3.971  11.601  0.6748  0.1499 -0.2164
  803MPD2    C111825   4.328   3.958  11.713  0.4332  0.6238  0.2102
  803MPD2    C211826   4.281   3.893  11.827  0.1897  0.6629 -0.1168
  803MPD2    C311827   4.159   3.827  11.828  0.2686  0.1651 -0.2187
  803MPD2    C411828   4.072   3.857  11.730  0.7198  0.5247  0.0097
  803MPD2    C511829   4.116   3.929  11.618 -0.1948 -0.2260  0.6304
  803MPD2     H11830   4.347   3.907  11.912 -0.8028  1.1729  0.5708
  803MPD2    H111831   3.972   3.816  11.725 -0.1048  2.5255  0.3602
  803MPD2    H211832   4.277   4.022  11.510 -2.3815  2.4810  0.1743
  803MPD2    H311833   4.054   3.942  11.530  2.0088 -1.5103 -1.0715
  803MPD2     N11834   4.116   3.752  11.941  0.9609  0.2522 -0.1514
  803MPD2    H511835   4.019   3.722  11.950  0.7435  0.7341 -0.9033
  803MPD2    N111836   4.462   4.007  11.720  0.0134  0.6036  0.1255
  803MPD2    H711837   4.508   4.011  11.811  1.1529  1.2131 -0.4827
  804MPD2     C11838   3.755   0.413  17.051 -0.2351  0.8471  0.7133
  804MPD2    C111839   3.768   0.393  17.188  0.2822  0.2740  0.6594
  804MPD2    C211840   3.816   0.489  17.269 -0.2142 -0.3079 -0.6765
  804MPD2    C311841   3.861   0.605  17.220  0.0317 -0.9226 -0.0084
  804MPD2    C411842   3.840   0.634  17.085  0.0615  0.0689  0.3248
  804MPD2    C511843   3.778   0.542  17.001  0.9841  0.3367 -0.7428
  804MPD2     H11844   3.838   0.473  17.374 -2.4286 -2.1126 -0.4892
  804MPD2    H111845   3.868   0.732  17.049 -1.4597  0.0297 -0.9376
  804MPD2    H211846   3.703   0.338  16.994  1.8915  0.3116 -0.5340
  804MPD2    H311847   3.752   0.574  16.901  1.1301  0.8828 -0.6038
  804MPD2     N11848   3.926   0.697  17.309 -0.5431  0.3407  0.7918
  804MPD2    H511849   3.907   0.690  17.408 -0.5404  2.8112  0.9634
  804MPD2    N111850   3.739   0.270  17.266 -0.6100 -0.1513 -0.2789
  804MPD2    H711851   3.750   0.271  17.367 -2.1109  2.0430 -0.1241
  805MPD2     C11852   2.626   3.366  15.207  0.4278  0.5279  0.6482
  805MPD2    C111853   2.736   3.303  15.158 -0.2873  0.7482 -0.1853
  805MPD2    C211854   2.860   3.312  15.225 -0.5305 -0.7554 -0.7143
  805MPD2    C311855   2.865   3.368  15.356 -0.4161  0.3122 -0.4354
  805MPD2    C411856   2.747   3.425  15.403  0.5811 -0.0138 -0.1892
  805MPD2    C511857   2.637   3.430  15.323  0.0292  0.6989 -0.1365
  805MPD2     H11858   2.948   3.279  15.171 -0.2836  0.4146 -1.0219
  805MPD2    H111859   2.734   3.474  15.499 -2.0000  1.1419 -1.1453
  805MPD2    H211860   2.528   3.373  15.162  1.3291 -0.4127 -1.4644
  805MPD2    H311861   2.550   3.482  15.360  1.2969  1.5492  1.6763
  805MPD2     N11862   2.993   3.361  15.423  0.7481  0.4346 -0.0952
  805MPD2    H511863   3.066   3.303  15.383  0.0083 -0.7499  0.2484
  805MPD2    N111864   2.735   3.213  15.046 -0.1633  0.5440 -0.5484
  805MPD2    H711865   2.827   3.186  15.011  0.6119  0.5562  1.4677
  806MPD2     C11866   3.132   2.814   0.382  0.4262 -0.8078 -0.4191
  806MPD2    C111867   3.230   2.733   0.433  0.6945 -0.1997 -0.1453
  806MPD2    C211868   3.359   2.754   0.388  0.2247  0.0016 -0.1717
  806MPD2    C311869   3.399   2.846   0.292  0.1774  0.2931  0.8436
  806MPD2    C411870   3.297   2.925   0.248 -0.0515 -0.5335 -0.8006
  806MPD2    C511871   3.169   2.903   0.286  0.0889  0.0423  0.1223
  806MPD2     H11872   3.434   2.695   0.440  0.2578 -0.3586 -0.6258
  806MPD2    H111873   3.318   3.006   0.179 -0.4234  1.8527  1.9328
  806MPD2    H211874   3.032   2.805   0.421  0.5544 -0.2424  0.0521
  806MPD2    H311875   3.087   2.958   0.242  0.1617  0.1849  0.1645
  806MPD2     N11876   3.536   2.869   0.266 -0.7123 -0.2444 -0.0991
  806MPD2    H511877   3.593   2.784   0.270 -2.0654 -1.0647  2.0473
  806MPD2    N111878   3.199   2.636   0.534 -0.1822  0.0879 -0.3986
  806MPD2    H711879   3.102   2.636   0.562  0.2765 -2.8884  1.1572
  807MPD2     C11880   2.824   2.350   1.168 -0.5073 -0.2862  0.5499
  807MPD2    C111881   2.942   2.276   1.161 -0.6070 -0.0618 -0.0943
  807MPD2    C211882   2.983   2.198   1.266  0.4429 -0.2349 -0.2509
  807MPD2    C311883   2.915   2.184   1.378  0.1762  0.0406  0.3801
  807MPD2    C411884   2.797   2.252   1.385 -0.5036  0.3530 -0.5549
  807MPD2    C511885   2.755   2.337   1.285  0.5235 -0.3388  0.0721
  807MPD2     H11886   3.078   2.145   1.265 -1.1639 -3.1126  0.8320
  807MPD2    H111887   2.739   2.253   1.477 -0.9754 -2.6984 -0.8179
  807MPD2    H211888   2.788   2.417   1.091  0.5250 -1.1321 -0.6765
  807MPD2    H311889   2.665   2.395   1.303  0.9371 -0.2436  1.7700
  807MPD2     N11890   2.971   2.107   1.487  0.5617  0.7486  0.1271
  807MPD2    H511891   3.065   2.073   1.473 -0.1939  0.1851 -3.5806
  807MPD2    N111892   3.025   2.279   1.049  0.7014 -0.4826  0.6056
  807MPD2    H711893   3.096   2.207   1.059  0.5407 -0.7952 -0.5171
  808MPD2     C11894   4.056   4.020   9.387 -0.1933 -0.1320 -0.0156
  808MPD2    C111895   3.965   4.056   9.488  0.1200 -0.0941 -0.4636
  808MPD2    C211896   3.956   4.184   9.527  0.5923  1.1968 -0.9369
  808MPD2    C311897   4.027   4.286   9.477 -0.7725  0.7924  0.4335
  808MPD2    C411898   4.122   4.250   9.382 -0.3179  0.0895  0.1713
  808MPD2    C511899   4.133   4.116   9.337  0.8388  0.0590 -0.3894
  808MPD2     H11900   3.886   4.218   9.602  0.3592 -2.0111  0.2982
  808MPD2    H111901   4.196   4.318   9.342 -1.4845  1.0874 -0.2671
  808MPD2    H211902   4.090   3.920   9.362  0.5593  0.2936 -0.6682
  808MPD2    H311903   4.218   4.088   9.275 -0.2993  0.4131 -2.1007
  808MPD2     N11904   4.028   4.422   9.513 -0.6846 -0.2004  0.8343
  808MPD2    H511905   4.084   4.483   9.454 -1.1004  1.2950  1.9935
  808MPD2    N111906   3.882   3.959   9.556  0.2604  0.2174  0.5079
  808MPD2    H711907   3.815   3.995   9.623 -1.0928  0.6484 -1.0826
  809MPD2     C11908   4.471   0.501   9.247 -0.1738 -0.2645  0.0026
  809MPD2    C111909   4.496   0.370   9.272  0.1220 -0.8958 -0.3193
  809MPD2    C211910   4.381   0.299   9.313  0.5711  0.6113  0.0394
  809MPD2    C311911   4.257   0.358   9.346  0.3806 -0.2191 -0.7909
  809MPD2    C411912   4.251   0.495   9.333  0.2547 -0.6670 -0.9247
  809MPD2    C511913   4.358   0.565   9.287 -0.4978 -0.4048  0.4568
  809MPD2     H11914   4.392   0.191   9.312  0.2364  0.5859 -0.6448
  809MPD2    H111915   4.166   0.554   9.364  1.1307 -0.2443  0.6572
  809MPD2    H211916   4.544   0.565   9.198 -0.6414 -0.3832 -0.8545
  809MPD2    H311917   4.354   0.672   9.269  0.4497 -0.7815 -1.9642
  809MPD2     N11918   4.150   0.293   9.393  0.1704 -0.5183 -0.3605
  809MPD2    H511919   4.082   0.361   9.428  1.4187  0.5682 -0.0704
  809MPD2    N111920   4.621   0.301   9.263  0.0680  0.1356 -0.0310
  809MPD2    H711921   4.621   0.205   9.295  4.2384  0.3635  0.7009
  810MPD2     C11922   3.859   3.354   9.718  0.5819 -0.1792  0.1395
  810MPD2    C111923   3.792   3.341   9.836  0.4041 -0.0778  0.0166
  810MPD2    C211924   3.855   3.391   9.949 -0.9468  0.4903 -0.3036
  810MPD2    C311925   3.967   3.472   9.942 -0.2912 -0.0191  0.9901
  810MPD2    C411926   4.028   3.491   9.820  0.2366 -0.1726  0.1305
  810MPD2    C511927   3.974   3.428   9.711 -0.4113 -0.2237  0.2138
  810MPD2     H11928   3.812   3.375  10.047  0.6454  1.9862  0.6322
  810MPD2    H111929   4.101   3.571   9.809  0.1039  0.0772  1.0593
  810MPD2    H211930   3.815   3.319   9.625  1.1977  2.6469 -1.2075
  810MPD2    H311931   4.003   3.457   9.611  1.6199 -0.7042  0.6635
  810MPD2     N11932   4.040   3.535  10.051 -0.1039  0.1586 -0.7426
  810MPD2    H511933   4.128   3.577  10.024 -0.2621  0.9323 -0.0813
  810MPD2    N111934   3.682   3.254   9.839  0.0044  0.3049 -0.0754
  810MPD2    H711935   3.657   3.217   9.748 -0.6911 -3.1259  1.5378
  811MPD2     C11936   2.853   3.199   9.667  1.1036  0.4499 -0.1335
  811MPD2    C111937   2.953   3.275   9.720 -0.7798  1.0039 -0.1481
  811MPD2    C211938   2.942   3.414   9.701  0.2397  0.1943  0.0728
  811MPD2    C311939   2.827   3.474   9.656 -0.3724  0.3270 -0.3308
  811MPD2    C411940   2.725   3.399   9.614 -0.6548 -0.2984  0.1042
  811MPD2    C511941   2.743   3.267   9.613  0.8515 -0.2139  0.3848
  811MPD2     H11942   3.018   3.487   9.727  0.1091  0.3527  0.0136
  811MPD2    H111943   2.639   3.439   9.562 -0.8924  1.2843  1.7053
  811MPD2    H211944   2.859   3.091   9.661 -0.6673  0.1837  2.7154
  811MPD2    H311945   2.678   3.206   9.550  0.2786 -0.1592  0.9204
  811MPD2     N11946   2.822   3.616   9.657 -0.2407  0.5245  0.5960
  811MPD2    H511947   2.902   3.670   9.687  0.1803  0.6719 -0.7840
  811MPD2    N111948   3.063   3.211   9.779  0.2720 -0.1972  0.7934
  811MPD2    H711949   3.069   3.109   9.782 -0.1334 -0.2942 -1.5544
  812MPD2     C11950   2.243   3.249  12.242 -0.1659 -0.0346  0.5073
  812MPD2    C111951   2.135   3.280  12.316 -0.8997 -0.7251 -0.2964
  812MPD2    C211952   2.105   3.204  12.424 -0.3149 -0.6120 -0.1046
  812MPD2    C311953   2.184   3.095  12.461 -0.0967  0.8284  0.2660
  812MPD2    C411954   2.305   3.076  12.396  0.7198  0.3875  0.2250
  812MPD2    C511955   2.331   3.149  12.282 -0.2710 -0.1786  0.2473
  812MPD2     H11956   2.005   3.217  12.465 -0.1477  1.4231 -0.3097
  812MPD2    H111957   2.377   2.999  12.421  1.5491  0.8599 -0.7072
  812MPD2    H211958   2.260   3.297  12.146 -0.2321  0.9550  0.9904
  812MPD2    H311959   2.421   3.131  12.224 -0.8444  0.2696 -0.7741
  812MPD2     N11960   2.147   3.023  12.574  0.4692 -0.4546  0.6147
  812MPD2    H511961   2.048   3.031  12.597  0.9274  0.7001  2.1688
  812MPD2    N111962   2.064   3.398  12.271 -0.1434 -0.1100  0.3560
  812MPD2    H711963   2.119   3.458  12.211 -2.5476 -2.2761 -4.0970
  813MPD2     C11964   1.727   0.698  12.547 -0.0181 -0.1752  0.2099
  813MPD2    C111965   1.665   0.810  12.504 -0.3999 -0.3523 -0.4395
  813MPD2    C211966   1.533   0.833  12.543 -1.1315  0.6843  0.3428
  813MPD2    C311967   1.468   0.735  12.622  0.0987  0.0925  0.9260
  813MPD2    C411968   1.529   0.615  12.643 -0.2182  0.2630  0.1204
  813MPD2    C511969   1.657   0.590  12.597 -0.0285 -0.0223  0.6248
  813MPD2     H11970   1.496   0.934  12.528  0.9679  1.4742  0.5436
  813MPD2    H111971   1.486   0.540  12.709 -0.3774 -1.8435 -2.3816
  813MPD2    H211972   1.833   0.685  12.531  0.0207  1.3856 -0.8102
  813MPD2    H311973   1.714   0.506  12.635 -0.7465 -1.5188 -1.5934
  813MPD2     N11974   1.349   0.781  12.686 -0.0232 -0.1079  0.0046
  813MPD2    H511975   1.328   0.879  12.669 -2.7455 -0.9926 -1.7186
  813MPD2    N111976   1.750   0.913  12.463 -0.2347 -0.2055 -0.5920
  813MPD2    H711977   1.848   0.901  12.486 -0.8361 -1.0842  1.4885
  814MPD2     C11978   1.976   2.077  12.058 -0.2787 -0.2264 -0.3617
  814MPD2    C111979   1.967   2.157  11.950  0.7791  0.1471 -0.0834
  814MPD2    C211980   2.020   2.287  11.950  0.2469 -0.1430  0.1514
  814MPD2    C311981   2.071   2.342  12.066  0.4604 -0.4377  0.2394
  814MPD2    C411982   2.091   2.257  12.171  0.2152 -0.2215  0.0880
  814MPD2    C511983   2.044   2.128  12.166 -0.1444  0.3949 -0.0066
  814MPD2     H11984   2.005   2.340  11.857  1.6108 -0.5098 -0.2791
  814MPD2    H111985   2.137   2.289  12.264  0.3453  1.5719 -0.5846
  814MPD2    H211986   1.930   1.981  12.081 -0.6354  0.2758  0.9957
  814MPD2    H311987   2.040   2.069  12.257  0.7230 -0.5013 -0.5459
  814MPD2     N11988   2.103   2.476  12.077  0.7119 -0.3828  0.0269
  814MPD2    H511989   2.162   2.504  12.155  0.3196  2.1716 -0.5987
  814MPD2    N111990   1.915   2.109  11.828  0.7530 -0.2893 -1.1258
  814MPD2    H711991   1.926   2.161  11.742  0.0141 -0.1726 -1.1535
  815MPD2     C11992   2.296   0.636  12.064  0.6450  0.0132  0.4052
  815MPD2    C111993   2.263   0.502  12.064  0.1450 -0.1410  0.2343
  815MPD2    C211994   2.134   0.468  12.112  0.7343  0.1454  0.4594
  815MPD2    C311995   2.042   0.566  12.148  0.1277 -0.1199  0.9413
  815MPD2    C411996   2.070   0.700  12.147  0.6746  0.1687 -0.4786
  815MPD2    C511997   2.194   0.732  12.091  0.2033 -0.8229 -0.3299
  815MPD2     H11998   2.093   0.368  12.124  0.2119  0.3027 -0.0092
  815MPD2    H111999   2.002   0.771  12.195  0.8204 -0.3542  0.4981
  815MPD2    H212000   2.392   0.668  12.026  0.7132  1.5937  1.8629
  815MPD2    H312001   2.217   0.837  12.077  0.9568 -1.0390 -0.7248
  815MPD2     N12002   1.924   0.509  12.211  0.5772 -0.1041 -0.6292
  815MPD2    H512003   1.937   0.409  12.224  0.3337 -0.2650 -1.6695
  815MPD2    N112004   2.351   0.411  11.998  0.7405 -0.1040  0.0633
  815MPD2    H712005   2.421   0.441  11.931  1.7527 -0.0054  1.1804
  816MPD2     C12006   2.582   0.348  17.531 -0.4877  0.3457  0.1116
  816MPD2    C112007   2.509   0.374  17.412 -0.0816 -0.5415 -0.1895
  816MPD2    C212008   2.547   0.307  17.300 -0.2867 -0.0744 -0.2493
  816MPD2    C312009   2.657   0.214  17.297  0.3039 -0.2368  0.2521
  816MPD2    C412010   2.729   0.202  17.416  0.9740  0.2385  0.1033
  816MPD2    C512011   2.690   0.266  17.527 -0.7501 -0.2969 -0.2204
  816MPD2     H12012   2.498   0.339  17.208 -0.6095  1.4516  0.4592
  816MPD2    H112013   2.803   0.124  17.426  0.6091 -0.1840 -0.5041
  816MPD2    H212014   2.542   0.385  17.624  0.1151  0.6023  0.2707
  816MPD2    H312015   2.754   0.260  17.614 -1.6482  0.6554  0.5052
  816MPD2     N12016   2.690   0.157  17.173  0.5152  0.7025 -0.9202
  816MPD2    H512017   2.627   0.181  17.097 -2.5448 -0.2882  1.2971
  816MPD2    N112018   2.405   0.464  17.424  0.6610 -0.2876  0.6885
  816MPD2    H712019   2.384   0.508  17.513 -0.1149 -0.5215  0.6259
  817MPD2     C12020   1.181   0.830   9.707 -0.2365 -0.2981  0.0612
  817MPD2    C112021   1.284   0.815   9.794  0.7463  0.1468  0.3567
  817MPD2    C212022   1.334   0.931   9.851 -0.1849 -0.0481 -0.2218
  817MPD2    C312023   1.288   1.061   9.818 -0.1977 -0.3353  0.5390
  817MPD2    C412024   1.196   1.068   9.706 -0.9806  0.1585 -0.1556
  817MPD2    C512025   1.140   0.953   9.661  0.3190  0.4133 -0.1891
  817MPD2     H12026   1.407   0.933   9.932 -0.1921  4.3588 -0.3316
  817MPD2    H112027   1.149   1.156   9.665  2.0209  1.8397  0.0482
  817MPD2    H212028   1.142   0.746   9.650 -2.6260  0.0036  1.2600
  817MPD2    H312029   1.072   0.967   9.578 -0.6247  0.0332  0.5120
  817MPD2     N12030   1.348   1.173   9.888 -0.3875 -0.1743 -0.5916
  817MPD2    H512031   1.432   1.156   9.942 -1.0359  1.7540  0.9912
  817MPD2    N112032   1.337   0.690   9.830  0.2847 -0.1859 -0.1904
  817MPD2    H712033   1.423   0.692   9.885  0.7399 -0.3507 -0.9037
  818MPD2     C12034   0.296   1.288   9.709  0.1945  0.0746  0.1979
  818MPD2    C112035   0.242   1.189   9.776 -0.0034  0.0650  0.2399
  818MPD2    C212036   0.177   1.097   9.698  0.5937  0.1653 -0.2611
  818MPD2    C312037   0.158   1.100   9.559  0.5997  0.9627 -0.8928
  818MPD2    C412038   0.224   1.201   9.488 -0.2517 -0.0669 -0.0419
  818MPD2    C512039   0.289   1.292   9.574  0.2057 -0.6421 -0.3803
  818MPD2     H12040   0.129   1.012   9.745  0.3422  0.3772 -0.1271
  818MPD2    H112041   0.217   1.226   9.383  1.9380 -0.3736 -0.2608
  818MPD2    H212042   0.360   1.362   9.758 -0.9541  0.8790  0.4749
  818MPD2    H312043   0.337   1.372   9.519 -2.8618  0.8837 -0.8510
  818MPD2     N12044   0.066   1.016   9.498  0.7313  0.1065  0.4330
  818MPD2    H512045   0.067   1.004   9.398  0.3440  2.3016  0.1671
  818MPD2    N112046   0.248   1.167   9.919  0.1980  0.6449 -0.1177
  818MPD2    H712047   0.214   1.083   9.965 -0.3528  0.4491 -0.8800
  819MPD2     C12048   3.625   2.953  15.517 -0.0313  0.4982 -0.2289
  819MPD2    C112049   3.701   2.846  15.475  0.1765  0.1422  0.0794
  819MPD2    C212050   3.820   2.834  15.547 -0.4116  0.4102 -0.3779
  819MPD2    C312051   3.861   2.916  15.649  0.7660  0.3202 -0.1752
  819MPD2    C412052   3.785   3.023  15.683 -0.6847 -0.2335 -0.0996
  819MPD2    C512053   3.668   3.039  15.615  0.1119  0.0804  0.2353
  819MPD2     H12054   3.887   2.756  15.514 -0.1891 -0.6227  2.4738
  819MPD2    H112055   3.814   3.097  15.757  0.6112 -1.4978  0.6632
  819MPD2    H212056   3.527   2.954  15.471 -1.8537  1.3212  3.6948
  819MPD2    H312057   3.603   3.119  15.650  0.9439  1.6920 -1.8993
  819MPD2     N12058   3.983   2.895  15.716  0.4502 -0.7179 -0.4339
  819MPD2    H512059   4.042   2.820  15.682  1.3231 -0.9507  1.6489
  819MPD2    N112060   3.661   2.767  15.373  0.1760 -0.3966 -0.1621
  819MPD2    H712061   3.582   2.795  15.316 -0.2537 -2.6537 -0.6463
  820MPD2     C12062   2.937   2.426  14.754  0.2876  0.4184  0.3852
  820MPD2    C112063   2.964   2.535  14.829 -0.1515 -0.5644  0.3820
  820MPD2    C212064   3.060   2.538  14.926  0.3993  0.4604 -0.3531
  820MPD2    C312065   3.147   2.430  14.926 -0.0614  0.0977 -0.1473
  820MPD2    C412066   3.114   2.316  14.863  0.1077 -0.1504 -0.5744
  820MPD2    C512067   3.016   2.316  14.769  0.1902 -0.1342 -0.0750
  820MPD2     H12068   3.071   2.628  14.986 -1.2152 -0.6818  1.6660
  820MPD2    H112069   3.173   2.225  14.863 -0.2502 -0.3994  2.9681
  820MPD2    H212070   2.851   2.413  14.689 -1.3668 -0.9372  2.8475
  820MPD2    H312071   2.988   2.230  14.710 -0.7290 -0.2168  0.4679
  820MPD2     N12072   3.267   2.426  15.003  0.1396 -0.7142 -1.1743
  820MPD2    H512073   3.309   2.334  15.015  1.0174 -0.3145 -1.1798
  820MPD2    N112074   2.880   2.650  14.821 -0.7348  0.0182 -0.5646
  820MPD2    H712075   2.792   2.626  14.777 -0.9583  0.0809 -0.1505
  821MPD2     C12076   3.523   4.272  13.045 -0.1809 -0.0584 -0.9104
  821MPD2    C112077   3.639   4.329  13.104  0.2295  0.4598  0.0082
  821MPD2    C212078   3.718   4.398  13.019  0.5758  0.0666 -0.8957
  821MPD2    C312079   3.700   4.412  12.881 -0.2184  0.4702 -0.1680
  821MPD2    C412080   3.586   4.355  12.825  0.1578  0.5643 -0.3582
  821MPD2    C512081   3.500   4.287  12.905 -0.0587 -0.3544 -0.2534
  821MPD2     H12082   3.808   4.443  13.059 -0.2748  1.4995 -0.5965
  821MPD2    H112083   3.567   4.362  12.719  0.2179 -0.7031 -0.4531
  821MPD2    H212084   3.460   4.208  13.106 -0.9503 -0.6820 -2.3423
  821MPD2    H312085   3.409   4.244  12.862  0.0057  0.8883 -1.6306
  821MPD2     N12086   3.799   4.473  12.798 -0.7065 -0.3738  0.3473
  821MPD2    H512087   3.788   4.460  12.697 -0.3638 -2.3408  0.5716
  821MPD2    N112088   3.694   4.302  13.237 -0.1539  0.0892  0.5407
  821MPD2    H712089   3.779   4.347  13.269 -0.1468 -0.4993  1.3341
  822MPD2     C12090   4.330   4.216  15.904 -0.1985  0.9482  0.2801
  822MPD2    C112091   4.391   4.256  16.021  0.1053 -0.2642  0.4635
  822MPD2    C212092   4.319   4.334  16.117  0.5132 -0.4317  0.1211
  822MPD2    C312093   4.193   4.378  16.080 -0.3956  0.3874 -0.5202
  822MPD2    C412094   4.138   4.342  15.953  0.0301  0.0043 -0.4456
  822MPD2    C512095   4.209   4.260  15.872 -0.6199 -0.7210  0.0737
  822MPD2     H12096   4.360   4.367  16.212  0.0918 -0.3151  0.2621
  822MPD2    H112097   4.039   4.369  15.919 -0.3404  1.6414  1.9301
  822MPD2    H212098   4.383   4.151  15.834  1.6046  2.1907  0.4791
  822MPD2    H312099   4.159   4.225  15.783 -0.7594  0.8839 -0.4894
  822MPD2     N12100   4.124   4.460  16.172 -0.4304  0.2673 -0.3788
  822MPD2    H512101   4.169   4.493  16.257  0.5711 -2.0548 -0.0001
  822MPD2    N112102   4.527   4.237  16.048 -0.8243  0.0118  0.1597
  822MPD2    H712103   4.557   4.268  16.140  1.9787  1.9805 -1.3955
  823MPD2     C12104   4.008   0.201  16.829 -0.7699  0.0122 -0.4095
  823MPD2    C112105   4.042   0.080  16.781  0.2147  0.1685  0.6763
  823MPD2    C212106   4.070   4.692  16.871  0.5145 -0.2961 -0.9777
  823MPD2    C312107   4.067   4.715  17.009 -0.3107 -0.1630 -0.3806
  823MPD2    C412108   4.035   0.115  17.056  0.4410  0.4779  0.1297
  823MPD2    C512109   4.017   0.219  16.970  0.1967  0.6007  0.6278
  823MPD2     H12110   4.094   4.592  16.837 -2.2866 -0.6572 -1.8978
  823MPD2    H112111   4.035   0.140  17.161  0.9022  1.8998 -0.2079
  823MPD2    H212112   3.995   0.284  16.761 -1.4254 -0.3289 -0.7033
  823MPD2    H312113   3.996   0.315  17.015 -1.3668  0.8766 -0.6718
  823MPD2     N12114   4.085   4.618  17.108  0.1359 -0.0384  0.8390
  823MPD2    H512115   4.043   4.637  17.199 -1.0525 -0.7918  0.4480
  823MPD2    N112116   4.049   0.073  16.641  0.0305 -0.7389 -0.5729
  823MPD2    H712117   4.039   0.160  16.588  2.0798  0.1496  0.4854
  824MPD2     C12118   0.178   3.788  15.606 -0.4387 -0.2911 -0.1138
  824MPD2    C112119   0.275   3.836  15.698  1.2166 -0.8127 -0.2330
  824MPD2    C212120   0.410   3.811  15.672 -1.0884  0.7285  0.2172
  824MPD2    C312121   0.441   3.736  15.555  0.3068  0.4698  0.2761
  824MPD2    C412122   0.338   3.693  15.469 -0.7948 -0.5621  0.3812
  824MPD2    C512123   0.209   3.716  15.498  0.1194 -0.8310 -0.5113
  824MPD2     H12124   0.493   3.841  15.736 -0.6627 -1.0376  0.4978
  824MPD2    H112125   0.354   3.663  15.366  0.5689 -0.1222  0.4514
  824MPD2    H212126   0.074   3.811  15.628 -0.6694  0.0256 -1.4965
  824MPD2    H312127   0.133   3.683  15.428 -0.5557 -0.4359  0.0364
  824MPD2     N12128   0.573   3.725  15.518  0.6409 -0.8517 -0.3825
  824MPD2    H512129   0.641   3.783  15.567 -1.2760  1.5673 -0.5991
  824MPD2    N112130   0.228   3.908  15.811 -0.1581  0.7745  0.4805
  824MPD2    H712131   0.129   3.913  15.831 -0.4531  0.7617 -0.9405
  825MPD2     C12132   1.394   3.859  15.219 -0.1760 -0.3632  0.3326
  825MPD2    C112133   1.271   3.907  15.254 -0.0240  0.2904 -0.2585
  825MPD2    C212134   1.246   4.039  15.266 -0.2357 -0.3548  0.4221
  825MPD2    C312135   1.349   4.129  15.241  0.4500  0.2965  0.3492
  825MPD2    C412136   1.479   4.082  15.215 -0.2620 -0.6440 -0.4116
  825MPD2    C512137   1.498   3.947  15.202  0.7284  0.0261 -0.0135
  825MPD2     H12138   1.146   4.076  15.287 -0.2023 -0.1495  0.2144
  825MPD2    H112139   1.564   4.148  15.203 -1.6653  0.7516 -2.8150
  825MPD2    H212140   1.416   3.755  15.198  0.8864  0.1776 -1.2526
  825MPD2    H312141   1.595   3.917  15.166  1.1323  1.7351 -0.3637
  825MPD2     N12142   1.334   4.270  15.232  0.0881 -0.2748  0.2262
  825MPD2    H512143   1.416   4.329  15.230 -0.8560  1.0269  0.2310
  825MPD2    N112144   1.171   3.814  15.269 -0.4195 -0.5860 -0.6713
  825MPD2    H712145   1.201   3.718  15.259 -0.1787 -0.3100 -2.5373
  826MPD2     C12146   0.503   3.676  13.494  0.2874  0.3850  0.3592
  826MPD2    C112147   0.424   3.717  13.390  0.7955  0.4112  0.7059
  826MPD2    C212148   0.309   3.787  13.414  0.0072 -0.1958 -0.5213
  826MPD2    C312149   0.269   3.815  13.545  0.7074  0.8555  0.5498
  826MPD2    C412150   0.361   3.791  13.643 -0.3850  0.6867 -0.5096
  826MPD2    C512151   0.476   3.722  13.621 -0.6429  0.3004 -0.3327
  826MPD2     H12152   0.238   3.816  13.338  1.7489 -0.0608 -2.0881
  826MPD2    H112153   0.331   3.826  13.742 -0.7426 -1.3302  0.0973
  826MPD2    H212154   0.588   3.614  13.471  0.6688  0.5920  1.2051
  826MPD2    H312155   0.555   3.697  13.692  0.8320 -2.3786 -2.8754
  826MPD2     N12156   0.155   3.887  13.569  0.0532 -0.5041 -0.1768
  826MPD2    H512157   0.145   3.929  13.661 -2.4481  2.3897 -1.7718
  826MPD2    N112158   0.458   3.678  13.262  0.7348  0.2281 -0.3551
  826MPD2    H712159   0.527   3.604  13.257  0.8693  0.2785  0.6898
  827MPD2     C12160   1.042   0.055  10.367  0.2223  0.3031 -0.7264
  827MPD2    C112161   1.020   4.670  10.451 -0.1609  0.0675  0.3947
  827MPD2    C212162   0.954   4.562  10.398 -0.0826  0.6063  0.1664
  827MPD2    C312163   0.891   4.563  10.275 -0.0106  0.2145 -0.2101
  827MPD2    C412164   0.916   4.677  10.197 -0.1128  0.2110  0.4938
  827MPD2    C512165   0.999   0.053  10.240  0.0608 -0.0242 -0.6952
  827MPD2     H12166   0.933   4.476  10.460  1.5298  0.7013  0.8457
  827MPD2    H112167   0.889   4.692  10.093  1.0917 -0.5242  0.0702
  827MPD2    H212168   1.106   0.140  10.387  0.0394  0.1713  0.3953
  827MPD2    H312169   1.039   0.133  10.178  2.0267 -0.4371  0.0460
  827MPD2     N12170   0.822   4.454  10.234 -0.5166  0.4446  0.0691
  827MPD2    H512171   0.809   4.379  10.300 -0.1111  0.3750  0.0675
  827MPD2    N112172   1.066   4.692  10.580 -0.3300  0.8952  0.1647
  827MPD2    H712173   1.120   0.055  10.597  0.7675 -0.2565  2.2889
  828MPD2     C12174   4.419   0.222  12.174 -0.7100 -0.5387  0.6453
  828MPD2    C112175   4.346   0.268  12.067 -0.9852 -0.1429  0.3811
  828MPD2    C212176   4.413   0.311  11.956  0.2660 -0.4899 -0.1862
  828MPD2    C312177   4.556   0.304  11.952  0.2259  0.7396 -0.1755
  828MPD2    C412178   4.624   0.259  12.066 -0.7676  0.3089  0.5092
  828MPD2    C512179   4.558   0.215  12.173  0.2613 -0.7518 -0.1635
  828MPD2     H12180   4.355   0.351  11.874 -0.9186  0.5247  1.1459
  828MPD2    H112181   0.010   0.240  12.065 -0.8684 -0.1364 -1.7322
  828MPD2    H212182   4.371   0.183  12.264 -0.4460 -0.8361  0.6602
  828MPD2    H312183   4.602   0.172  12.263 -0.0213 -1.6527 -0.4569
  828MPD2     N12184   4.628   0.328  11.832 -0.1029  0.7195  0.2041
  828MPD2    H512185   0.002   0.296  11.814  1.0109  3.9620  0.3699
  828MPD2    N112186   4.202   0.288  12.064 -0.0392 -0.3012 -1.1017
  828MPD2    H712187   4.163   0.342  11.987  1.1151  0.5394 -1.1012
  829MPD2     C12188   3.715   0.364  11.397  0.2521  0.0600 -0.0374
  829MPD2    C112189   3.844   0.331  11.432  0.0988  0.0572 -0.0921
  829MPD2    C212190   3.879   0.361  11.566 -0.6783 -0.0677  0.5922
  829MPD2    C312191   3.784   0.406  11.662  0.5682  0.3027 -0.2776
  829MPD2    C412192   3.654   0.436  11.616  0.3794  0.2332 -0.3618
  829MPD2    C512193   3.627   0.425  11.480 -0.4224  0.6260  0.4993
  829MPD2     H12194   3.977   0.331  11.601  0.6485 -0.4161 -3.4336
  829MPD2    H112195   3.576   0.466  11.685 -0.6441 -1.0739 -0.9681
  829MPD2    H212196   3.682   0.354  11.294  0.3970  1.3811 -0.2061
  829MPD2    H312197   3.525   0.442  11.448  0.1363  1.5714 -0.7894
  829MPD2     N12198   3.827   0.401  11.798  0.0862  0.3189  0.5041
  829MPD2    H512199   3.925   0.376  11.806  0.4729  1.0990 -1.6228
  829MPD2    N112200   3.938   0.276  11.339  0.3457  0.2811  0.0453
  829MPD2    H712201   3.903   0.276  11.244 -1.3506  0.6360  0.6732
  830MPD2     C12202   0.062   3.000  15.467  0.3466 -0.1099 -0.5262
  830MPD2    C112203   4.666   2.937  15.477 -0.3879 -0.0695  0.5172
  830MPD2    C212204   4.627   2.860  15.363  0.1423  0.4396  0.7631
  830MPD2    C312205   4.698   2.857  15.244  0.2800  0.4708 -0.6762
  830MPD2    C412206   0.092   2.936  15.233 -0.0163 -0.2365 -0.4105
  830MPD2    C512207   0.127   3.003  15.348  0.3440  0.1329  0.1898
  830MPD2     H12208   4.528   2.817  15.358  0.4497 -0.2776  0.8157
  830MPD2    H112209   0.157   2.947  15.147  0.1270  1.7913 -0.0389
  830MPD2    H212210   0.090   3.061  15.552  1.7109 -2.1136  0.4572
  830MPD2    H312211   0.215   3.067  15.344 -0.0876  0.6467 -0.8937
  830MPD2     N12212   4.658   2.789  15.128 -0.2994 -0.5521  0.5102
  830MPD2    H512213   4.714   2.805  15.045  0.0091  0.9359  1.0070
  830MPD2    N112214   4.583   2.942  15.594  0.1868  0.4732  0.0594
  830MPD2    H712215   4.625   2.990  15.672 -0.4971  1.6708 -0.3070
  831MPD2     C12216   4.515   0.042  16.602 -0.0738 -0.1960  0.4607
  831MPD2    C112217   4.480   4.684  16.496 -0.0348  0.8274  0.6484
  831MPD2    C212218   4.410   4.569  16.525  0.2904 -0.5485 -0.0683
  831MPD2    C312219   4.380   4.528  16.653  0.4265 -0.5396 -0.2063
  831MPD2    C412220   4.392   4.619  16.757 -0.2654  0.4804  0.4441
  831MPD2    C512221   4.463   0.017  16.727 -0.5242  0.3206 -0.0815
  831MPD2     H12222   4.379   4.499  16.448  1.4740 -1.5315  0.3510
  831MPD2    H112223   4.347   4.588  16.851 -1.5700 -2.1447 -1.0436
  831MPD2    H212224   4.572   0.132  16.581  2.2298 -1.1784  2.5626
  831MPD2    H312225   4.487   0.094  16.799  2.3145 -0.8599  0.2360
  831MPD2     N12226   4.324   4.406  16.688  0.0641 -0.3699  0.2465
  831MPD2    H512227   4.304   4.379  16.783 -0.9451  1.4831  0.5715
  831MPD2    N112228   4.515   4.719  16.365  0.4218  0.1499 -0.0179
  831MPD2    H712229   4.580   0.074  16.346 -0.1021  1.1347  2.1288
  832MPD2     C12230   3.188   0.859  17.028 -0.8068  0.0025 -0.9715
  832MPD2    C112231   3.146   0.988  17.021  0.4873 -0.1311 -0.9729
  832MPD2    C212232   3.036   1.020  16.946  0.0143  0.0935  0.2658
  832MPD2    C312233   2.965   0.924  16.880  0.4857 -0.2592 -0.0527
  832MPD2    C412234   3.010   0.795  16.889  0.1903  0.4511 -0.0448
  832MPD2    C512235   3.113   0.760  16.974  0.2732  0.4711  0.2026
  832MPD2     H12236   2.999   1.120  16.964 -0.3111 -0.1087  0.7496
  832MPD2    H112237   2.953   0.717  16.840  1.2205 -1.0585  1.1634
  832MPD2    H212238   3.271   0.839  17.095 -0.2815 -0.3322 -1.7160
  832MPD2    H312239   3.136   0.656  16.996  0.6106 -0.2463 -3.6634
  832MPD2     N12240   2.857   0.954  16.800  0.2686  0.0705 -0.1808
  832MPD2    H512241   2.798   0.878  16.769  1.3813 -0.9545  0.2460
  832MPD2    N112242   3.204   1.075  17.125 -0.0811 -0.6458 -0.2542
  832MPD2    H712243   3.281   1.032  17.175 -0.8537 -1.2033  0.4765
  833MPD2     C12244   0.218   2.658  12.683 -0.1509 -0.4255  0.2667
  833MPD2    C112245   0.228   2.701  12.552 -0.2552  0.2640 -0.3568
  833MPD2    C212246   0.274   2.607  12.459  0.0945  0.6183  0.0035
  833MPD2    C312247   0.330   2.485  12.497 -0.0416  0.3746  0.5019
  833MPD2    C412248   0.342   2.455  12.632 -0.9777  0.0599 -0.9803
  833MPD2    C512249   0.277   2.538  12.719 -0.2192 -0.3824 -0.2400
  833MPD2     H12250   0.282   2.632  12.354 -0.8080 -0.2864 -0.2783
  833MPD2    H112251   0.391   2.363  12.662 -0.3573  0.0860 -1.9039
  833MPD2    H212252   0.179   2.717  12.765  2.8144 -0.1947  1.5437
  833MPD2    H312253   0.272   2.511  12.824 -0.0082  3.3173  0.7271
  833MPD2     N12254   0.382   2.389  12.405  0.1755 -0.0789  0.3359
  833MPD2    H512255   0.432   2.314  12.451  1.0998  0.2394 -0.1451
  833MPD2    N112256   0.168   2.825  12.514 -0.7745 -0.6576  0.4673
  833MPD2    H712257   0.122   2.874  12.590 -1.5656  1.7292 -1.5438
  834MPD2     C12258   0.405   1.529  11.868 -0.3434 -0.2982 -0.3222
  834MPD2    C112259   0.430   1.610  11.764 -0.6149 -0.5834  0.6617
  834MPD2    C212260   0.406   1.752  11.777  0.5820 -0.0864 -0.1981
  834MPD2    C312261   0.354   1.801  11.895 -0.2022 -0.5051  0.1593
  834MPD2    C412262   0.336   1.715  12.005 -0.0001 -0.1447 -0.5954
  834MPD2    C512263   0.362   1.581  11.982  0.0849 -0.0570  0.5163
  834MPD2     H12264   0.431   1.816  11.693  0.2551 -0.8629 -0.8889
  834MPD2    H112265   0.310   1.756  12.102 -1.6549  1.3771 -1.6717
  834MPD2    H212266   0.409   1.422  11.857  0.3489 -0.1471 -1.4903
  834MPD2    H312267   0.332   1.510  12.059 -1.1770 -1.2545 -1.0715
  834MPD2     N12268   0.359   1.937  11.923  0.4632  0.2540 -0.0153
  834MPD2    H512269   0.408   1.992  11.853 -1.8531  0.4498 -1.4593
  834MPD2    N112270   0.469   1.548  11.647 -0.0321 -0.5749  0.0661
  834MPD2    H712271   0.503   1.452  11.656  2.5263  0.4134  0.8664
  835MPD2     C12272   0.554   4.581  11.183  0.0461 -0.0223  0.1306
  835MPD2    C112273   0.463   4.679  11.217  0.1789  0.3396 -0.5775
  835MPD2    C212274   0.498   0.058  11.305 -0.0749  0.4627 -0.5187
  835MPD2    C312275   0.615   0.052  11.384 -0.0851 -0.8126  0.1986
  835MPD2    C412276   0.694   4.660  11.361  0.4002  0.6486 -0.5427
  835MPD2    C512277   0.665   4.563  11.263 -0.5056  0.1944 -0.0363
  835MPD2     H12278   0.426   0.137  11.324 -0.2652  0.1531  0.0502
  835MPD2    H112279   0.784   4.649  11.421  2.2247  1.5008 -3.1225
  835MPD2    H212280   0.545   4.509  11.102  1.0594 -0.5137  0.4490
  835MPD2    H312281   0.727   4.475  11.250  0.2181  0.5063  1.2297
  835MPD2     N12282   0.649   0.143  11.485 -0.2649 -0.1440 -0.4911
  835MPD2    H512283   0.734   0.122  11.537 -1.6592 -1.0820  1.4178
  835MPD2    N112284   0.348   4.689  11.146 -0.0044 -0.2342  0.1495
  835MPD2    H712285   0.294   0.051  11.169  1.8128  0.3505  2.3381
  836MPD2     C12286   0.246   0.823  11.627 -0.1616 -0.5265 -0.0538
  836MPD2    C112287   0.275   0.725  11.724  0.7886  0.2574 -0.5507
  836MPD2    C212288   0.176   0.695  11.818  0.0462 -0.4272 -0.1952
  836MPD2    C312289   0.056   0.762  11.825 -0.4714 -0.0253  0.1357
  836MPD2    C412290   0.033   0.863  11.733  1.2538  0.4367 -0.6677
  836MPD2    C512291   0.129   0.898  11.633  0.2630  0.1895  0.5544
  836MPD2     H12292   0.190   0.612  11.886  1.1787  0.1618  0.2812
  836MPD2    H112293   4.663   0.922  11.723  0.8710 -0.0675 -0.1503
  836MPD2    H212294   0.320   0.842  11.551 -0.8219  0.8508 -0.3565
  836MPD2    H312295   0.127   0.977  11.559  0.5599 -0.7455 -0.4458
  836MPD2     N12296   4.676   0.723  11.910  0.2129 -0.6420  0.7534
  836MPD2    H512297   4.585   0.767  11.907 -0.2084 -1.4136  2.2192
  836MPD2    N112298   0.399   0.651  11.716  0.0014  0.2284 -0.4749
  836MPD2    H712299   0.461   0.674  11.639  0.7925 -0.8009 -0.1469
  837MPD2     C12300   3.184   4.323   9.558 -0.3548 -0.8187 -0.0486
  837MPD2    C112301   3.090   4.303   9.656 -0.0946 -0.0871  0.5413
  837MPD2    C212302   3.072   4.405   9.748  0.0392  0.6101  0.3672
  837MPD2    C312303   3.138   4.524   9.741  0.0701  0.3004  0.5066
  837MPD2    C412304   3.235   4.542   9.649  0.1486 -0.1379  0.9268
  837MPD2    C512305   3.257   4.437   9.560  0.2098  0.0596 -0.1903
  837MPD2     H12306   2.995   4.384   9.822  0.7686 -2.4972  0.2473
  837MPD2    H112307   3.301   4.628   9.654  1.6828 -1.1315 -2.2064
  837MPD2    H212308   3.203   4.241   9.489  0.8668 -2.3334  2.0648
  837MPD2    H312309   3.337   4.444   9.488  1.3196  3.0825  1.3423
  837MPD2     N12310   3.100   4.618   9.850 -0.2402  0.4712 -0.8460
  837MPD2    H512311   3.034   4.586   9.919 -0.0750  1.0020 -0.4453
  837MPD2    N112312   3.008   4.188   9.660  0.1459  0.4629 -1.0076
  837MPD2    H712313   2.931   4.188   9.726  0.7203  0.4010 -0.3266
  838MPD2     C12314   1.438   2.839  11.321 -0.3994 -0.0139 -0.6435
  838MPD2    C112315   1.470   2.713  11.270 -0.1485  0.3407 -0.0944
  838MPD2    C212316   1.382   2.648  11.187 -0.3046 -0.4028  0.3610
  838MPD2    C312317   1.262   2.701  11.158 -0.1519  0.6553  0.3411
  838MPD2    C412318   1.222   2.822  11.212  0.5205  0.3391  0.6902
  838MPD2    C512319   1.310   2.893  11.296 -0.1269  0.0754 -0.3820
  838MPD2     H12320   1.393   2.548  11.145  1.1552 -0.1866  0.2498
  838MPD2    H112321   1.131   2.867  11.175  0.0606 -2.1247 -1.1293
  838MPD2    H212322   1.502   2.885  11.396 -0.1190 -1.1331 -0.1931
  838MPD2    H312323   1.266   2.985  11.334 -3.4030 -1.6846  0.0555
  838MPD2     N12324   1.184   2.627  11.068 -0.1250 -0.2908  0.1562
  838MPD2    H512325   1.220   2.533  11.059  1.5797  0.1895  1.8460
  838MPD2    N112326   1.594   2.656  11.294 -0.3417  0.3255 -0.0792
  838MPD2    H712327   1.610   2.565  11.251  1.6392  1.1490 -1.0864
  839MPD2     C12328   1.612   1.942  10.891  1.0339  0.0943 -0.3577
  839MPD2    C112329   1.541   2.060  10.921 -0.0581  0.1209  0.4724
  839MPD2    C212330   1.612   2.165  10.971  0.3548 -0.0847 -0.4509
  839MPD2    C312331   1.738   2.150  11.033 -0.1115  0.3001  0.0767
  839MPD2    C412332   1.799   2.034  10.998  0.1175 -0.7869  1.0666
  839MPD2    C512333   1.743   1.936  10.917  0.8191 -1.0073 -0.5027
  839MPD2     H12334   1.565   2.262  10.986 -0.7093 -0.4285 -1.5895
  839MPD2    H112335   1.902   2.025  11.033 -0.4867  0.1704  3.0920
  839MPD2    H212336   1.569   1.867  10.825  2.0597 -1.0140  0.2512
  839MPD2    H312337   1.790   1.843  10.887  2.1405 -0.3384 -0.5338
  839MPD2     N12338   1.808   2.254  11.096 -0.4756 -0.2609 -0.0379
  839MPD2    H512339   1.901   2.225  11.125  0.0648  1.8137  0.2981
  839MPD2    N112340   1.406   2.061  10.890 -0.3943  0.4830  0.1385
  839MPD2    H712341   1.382   1.972  10.848  2.2177 -0.0815 -0.1807
  840MPD2     C12342   1.601   0.234  10.560 -0.2815 -0.2112  0.0412
  840MPD2    C112343   1.608   0.175  10.686  0.3468  0.2619  0.2778
  840MPD2    C212344   1.717   0.192  10.766 -0.6883  0.2967  0.0212
  840MPD2    C312345   1.816   0.278  10.727 -0.3075 -0.4611  0.5231
  840MPD2    C412346   1.808   0.343  10.607  0.1828  0.9250 -0.1590
  840MPD2    C512347   1.699   0.316  10.525  0.5385  0.2646  0.4127
  840MPD2     H12348   1.733   0.138  10.859  0.6677  0.3087 -0.2003
  840MPD2    H112349   1.879   0.418  10.574  1.7343 -0.5435 -0.1421
  840MPD2    H212350   1.518   0.225  10.490 -0.3987 -0.5366  0.2236
  840MPD2    H312351   1.686   0.380  10.438  0.0889 -1.4094 -0.7507
  840MPD2     N12352   1.929   0.307  10.806 -0.2391 -0.4718 -0.1860
  840MPD2    H512353   1.999   0.366  10.762 -1.8815  0.0827 -2.0729
  840MPD2    N112354   1.503   0.096  10.722 -0.2708 -0.3201  0.3221
  840MPD2    H712355   1.446   0.068  10.643 -0.5439 -1.2015  0.8239
  841MPD2     C12356   1.723   4.717  13.944  0.0988 -0.0023 -0.2549
  841MPD2    C112357   1.689   4.673  14.070  0.1232 -0.4198 -0.0194
  841MPD2    C212358   1.727   0.024  14.180 -0.6702 -0.1543 -0.3817
  841MPD2    C312359   1.805   0.137  14.170  0.3236 -0.1071  0.1753
  841MPD2    C412360   1.837   0.178  14.044 -0.8470 -0.0534 -0.6656
  841MPD2    C512361   1.799   0.110  13.932  0.8577  0.2548  0.3277
  841MPD2     H12362   1.702   4.696  14.273 -2.2870  0.5677 -0.4531
  841MPD2    H112363   1.893   0.270  14.029 -0.3917 -0.1405  0.4598
  841MPD2    H212364   1.701   4.655  13.858 -0.9645 -1.5821  1.1555
  841MPD2    H312365   1.824   0.143  13.832  1.4406 -1.9651 -0.2520
  841MPD2     N12366   1.851   0.189  14.289  0.4875 -0.8027 -0.1451
  841MPD2    H512367   1.793   0.161  14.368  0.5624  1.4211  0.6764
  841MPD2    N112368   1.627   4.551  14.092 -0.7497  0.4556  0.1111
  841MPD2    H712369   1.642   4.510  14.183  0.7130  2.8184  0.9307
  842MPD2     C12370   2.414   1.345  16.817  0.3678 -0.6695  0.0767
  842MPD2    C112371   2.292   1.277  16.842 -0.3372 -0.1132  0.3699
  842MPD2    C212372   2.281   1.194  16.943 -0.4416  0.9083  0.2722
  842MPD2    C312373   2.390   1.155  17.012  0.9027 -0.4043  0.2187
  842MPD2    C412374   2.509   1.207  16.985 -0.4080  0.0446 -0.0127
  842MPD2    C512375   2.517   1.304  16.894 -0.0428 -1.2227  0.0902
  842MPD2     H12376   2.186   1.146  16.965  1.6559 -2.4791  2.0675
  842MPD2    H112377   2.604   1.169  17.022 -2.2970 -2.0560  2.6318
  842MPD2    H212378   2.442   1.413  16.738 -1.7964  1.0513  0.7961
  842MPD2    H312379   2.615   1.345  16.871 -0.0657 -1.1169  0.1826
  842MPD2     N12380   2.390   1.034  17.094  0.7501 -0.3317 -0.3830
  842MPD2    H512381   2.478   0.983  17.083  0.6915 -1.2753  3.5929
  842MPD2    N112382   2.181   1.324  16.765 -0.3646 -0.6249 -0.6072
  842MPD2    H712383   2.213   1.385  16.691  1.9714 -0.3087  0.6652
  843MPD2     C12384   3.728   2.320   0.039  0.2243 -0.1603  0.2056
  843MPD2    C112385   3.800   2.278   0.146  0.0541  0.0549  0.4808
  843MPD2    C212386   3.935   2.305   0.157  0.4347 -0.1365  0.1529
  843MPD2    C312387   3.996   2.387   0.062  0.4612  0.8123  0.1049
  843MPD2    C412388   3.922   2.438  17.644  0.4953  0.2726 -0.5673
  843MPD2    C512389   3.790   2.397  17.627 -0.5265  0.3687 -0.2135
  843MPD2     H12390   3.993   2.257   0.234 -1.6564  0.1687  1.9127
  843MPD2    H112391   3.961   2.499  17.563  1.8212  0.7224  0.4251
  843MPD2    H212392   3.622   2.302   0.029  0.0345  0.3567  1.3573
  843MPD2    H312393   3.721   2.430  17.550 -2.2247  0.2820  1.2560
  843MPD2     N12394   4.131   2.426   0.053 -0.8347 -0.1156 -0.7919
  843MPD2    H512395   4.150   2.468  17.648 -1.8811 -1.4712 -1.6367
  843MPD2    N112396   3.729   2.198   0.246  0.2348  0.0468 -0.5581
  843MPD2    H712397   3.638   2.158   0.224 -0.6264  1.2270  0.8384
  844MPD2     C12398   2.918   1.185  16.265  0.5436  0.4446  0.4045
  844MPD2    C112399   2.939   1.059  16.322 -0.4212 -0.2021 -0.7079
  844MPD2    C212400   2.998   1.049  16.444  0.6059 -0.9544 -0.4009
  844MPD2    C312401   3.061   1.151  16.501  0.4463  0.4144  0.6311
  844MPD2    C412402   3.051   1.274  16.444  0.3969 -0.0895  0.3903
  844MPD2    C512403   2.985   1.294  16.324 -0.7689 -0.6725  0.6657
  844MPD2     H12404   2.987   0.954  16.495  1.5172 -0.7812  0.0937
  844MPD2    H112405   3.095   1.365  16.483  1.5674  0.0100 -1.1733
  844MPD2    H212406   2.853   1.201  16.180 -0.7606  2.8774  1.8465
  844MPD2    H312407   2.981   1.391  16.276 -2.4595 -1.0607  0.0397
  844MPD2     N12408   3.136   1.122  16.618  1.0964  0.0544 -0.7448
  844MPD2    H512409   3.129   1.029  16.656  0.3372 -0.6027 -2.5083
  844MPD2    N112410   2.885   0.936  16.265  0.0563 -0.0423 -0.6859
  844MPD2    H712411   2.888   0.858  16.329 -0.1111  0.2921 -0.2665
  845MPD2     C12412   3.577   1.787  17.207 -0.1120 -0.0787  0.2480
  845MPD2    C112413   3.515   1.791  17.087 -0.4510 -0.6754 -0.1494
  845MPD2    C212414   3.485   1.664  17.027 -0.1339  0.0460 -0.6244
  845MPD2    C312415   3.524   1.544  17.082 -0.0042  0.3780 -1.1434
  845MPD2    C412416   3.590   1.545  17.198 -0.1750 -0.2745  0.1679
  845MPD2    C512417   3.620   1.660  17.262  0.2335 -0.5939 -0.2583
  845MPD2     H12418   3.430   1.654  16.933 -1.4228 -0.3958  0.1746
  845MPD2    H112419   3.622   1.453  17.248  0.4511  0.2589  0.7509
  845MPD2    H212420   3.611   1.874  17.261 -3.1687  1.6338 -0.5987
  845MPD2    H312421   3.676   1.653  17.354  0.3530 -2.2146 -0.4626
  845MPD2     N12422   3.488   1.425  17.009  0.1330 -0.0556  0.3348
  845MPD2    H512423   3.423   1.444  16.933 -1.0686  0.1933  1.4186
  845MPD2    N112424   3.474   1.920  17.047 -0.3299  0.3041  0.6236
  845MPD2    H712425   3.500   2.000  17.102  0.5889 -1.2729  2.4750
  846MPD2     C12426   4.384   2.106  13.528 -0.3271  0.0938 -0.1097
  846MPD2    C112427   4.326   2.203  13.606  0.1347 -0.3976  0.4251
  846MPD2    C212428   4.334   2.189  13.742 -0.0945  0.1748  0.1319
  846MPD2    C312429   4.381   2.073  13.801 -0.2115  0.2912 -0.0356
  846MPD2    C412430   4.438   1.972  13.717  0.9259 -0.7418 -0.0575
  846MPD2    C512431   4.437   1.996  13.583  0.0594  0.0468 -0.8632
  846MPD2     H12432   4.297   2.271  13.803  0.1063  0.5467 -0.2477
  846MPD2    H112433   4.471   1.876  13.757 -0.1011 -1.6494 -1.3730
  846MPD2    H212434   4.384   2.132  13.423 -1.3280  1.8693  0.3221
  846MPD2    H312435   4.467   1.917  13.516  0.6924 -0.1100 -0.4024
  846MPD2     N12436   4.380   2.050  13.938 -0.3603  0.2144  0.2971
  846MPD2    H512437   4.337   2.118  14.001  0.6675 -0.3162  1.5811
  846MPD2    N112438   4.265   2.314  13.548  0.4240  0.1268  0.4108
  846MPD2    H712439   4.227   2.380  13.615  0.7961  1.3196 -0.5782
  847MPD2     C12440   4.650   3.136  13.950  0.3055  0.2108 -0.4663
  847MPD2    C112441   0.012   3.129  14.062 -0.0879  0.5259  0.6845
  847MPD2    C212442   0.037   3.006  14.117  0.3010 -0.3632 -0.4779
  847MPD2    C312443   4.697   2.897  14.070 -0.9708  0.5375 -0.1110
  847MPD2    C412444   4.608   2.900  13.962 -0.4758 -0.1213 -0.8456
  847MPD2    C512445   4.587   3.020  13.908  0.1054 -0.0639  0.2151
  847MPD2     H12446   0.114   2.997  14.193 -0.3757  0.2099  0.2708
  847MPD2    H112447   4.567   2.813  13.911  1.5379 -1.7664  0.3304
  847MPD2    H212448   4.634   3.226  13.892 -1.6155 -1.5782 -2.6838
  847MPD2    H312449   4.507   3.032  13.836  1.5734 -0.8783 -1.5310
  847MPD2     N12450   0.030   2.778  14.113 -0.4128 -0.4829 -0.0884
  847MPD2    H512451   0.118   2.781  14.163 -0.4235 -0.3660 -0.0768
  847MPD2    N112452   0.081   3.245  14.122  0.1972 -0.6239 -1.0056
  847MPD2    H712453   0.143   3.221  14.198  1.1206 -0.2040 -1.6323
  848MPD2     C12454   2.569   1.245  16.090  0.0411 -0.3270  0.0911
  848MPD2    C112455   2.590   1.320  16.201  0.2672  0.7136  0.5037
  848MPD2    C212456   2.620   1.452  16.181 -0.0200  0.7444  0.3193
  848MPD2    C312457   2.610   1.520  16.055 -0.1150  0.6755  0.7575
  848MPD2    C412458   2.582   1.438  15.948  0.6858 -0.7636 -0.0076
  848MPD2    C512459   2.573   1.299  15.965 -0.5712  0.2411  1.1696
  848MPD2     H12460   2.642   1.506  16.273 -4.4720  2.1269  0.6078
  848MPD2    H112461   2.566   1.473  15.847 -2.2780 -1.9483  0.0597
  848MPD2    H212462   2.558   1.137  16.087 -0.9611 -0.2137 -0.3613
  848MPD2    H312463   2.541   1.237  15.883  0.9110  0.1197  0.6833
  848MPD2     N12464   2.636   1.658  16.033 -0.2675 -0.4477  0.3508
  848MPD2    H512465   2.619   1.700  15.942 -0.6361  0.2630  0.7487
  848MPD2    N112466   2.593   1.267  16.327 -0.2158  0.4840 -0.1944
  848MPD2    H712467   2.613   1.333  16.402 -1.8340  1.3500 -0.5178
  849MPD2     C12468   1.754   0.673  13.941 -0.0447  0.1869 -0.3813
  849MPD2    C112469   1.775   0.806  13.963 -0.4480 -0.0853  0.1250
  849MPD2    C212470   1.883   0.842  14.043  0.0517 -0.8397  0.1017
  849MPD2    C312471   1.968   0.748  14.102  0.5997  0.8076  0.0858
  849MPD2    C412472   1.940   0.619  14.073 -0.2438  0.2398 -0.0275
  849MPD2    C512473   1.834   0.581  14.002  0.4332  0.3099  0.0317
  849MPD2     H12474   1.905   0.948  14.051  0.8329 -1.0290  0.4766
  849MPD2    H112475   1.993   0.539  14.123 -2.6564 -1.7524 -0.6144
  849MPD2    H212476   1.675   0.637  13.877 -0.2430 -1.2243  0.6555
  849MPD2    H312477   1.810   0.476  13.988  2.4476 -0.3275  1.3538
  849MPD2     N12478   2.096   0.771  14.158  0.9900 -0.5750  0.8004
  849MPD2    H512479   2.162   0.694  14.152  1.8006  0.1776  0.0388
  849MPD2    N112480   1.695   0.895  13.886 -0.2659 -0.1588  0.1384
  849MPD2    H712481   1.635   0.872  13.807  0.1162  1.8078 -0.7328
  850MPD2     C12482   4.365   4.165  15.213 -0.3240  1.1203  0.5858
  850MPD2    C112483   4.437   4.057  15.160  0.0492  0.8851  0.5708
  850MPD2    C212484   4.568   4.033  15.195 -0.2260  0.2784 -0.2054
  850MPD2    C312485   4.637   4.126  15.273  0.8428  0.2221  0.2795
  850MPD2    C412486   4.572   4.231  15.328  0.1798  0.1083 -0.0788
  850MPD2    C512487   4.430   4.249  15.300  0.2735  0.3774 -0.2518
  850MPD2     H12488   4.612   3.937  15.171  0.1947  0.4639 -0.1868
  850MPD2    H112489   4.615   4.304  15.396  0.7259  0.5853 -0.9351
  850MPD2    H212490   4.261   4.187  15.192 -1.0476 -2.0315  0.8894
  850MPD2    H312491   4.366   4.325  15.344 -0.7068 -0.2234 -0.6373
  850MPD2     N12492   0.056   4.118  15.296  0.0452  0.7314  0.0720
  850MPD2    H512493   0.097   4.182  15.364  1.0881 -1.4393  1.4798
  850MPD2    N112494   4.374   3.967  15.069  0.4283 -0.0682  0.3085
  850MPD2    H712495   4.275   3.982  15.051  0.6198 -1.4673 -1.8602
  851MPD2     C12496   4.691   3.352  14.687 -0.1362 -0.4900 -0.6928
  851MPD2    C112497   4.564   3.332  14.734 -0.9594  0.2437  0.7109
  851MPD2    C212498   4.516   3.205  14.748  0.1142  0.1824  0.1430
  851MPD2    C312499   4.601   3.092  14.723  0.3668  0.4131  0.3622
  851MPD2    C412500   0.010   3.116  14.677 -0.6174  0.0240  0.3950
  851MPD2    C512501   0.055   3.247  14.662  0.3978  0.3836 -0.4571
  851MPD2     H12502   4.415   3.181  14.779  0.7701 -0.7458  1.5617
  851MPD2    H112503   0.087   3.042  14.660  0.9063  1.7312 -0.1220
  851MPD2    H212504   0.010   3.450  14.664  0.9151 -0.1683  2.5655
  851MPD2    H312505   0.157   3.269  14.633  0.5654 -0.1157 -0.2529
  851MPD2     N12506   4.554   2.963  14.745  0.2755 -0.4882 -0.2798
  851MPD2    H512507   4.465   2.956  14.795  0.0822  1.8222 -0.3306
  851MPD2    N112508   4.489   3.448  14.763 -0.4894 -0.5354  0.9934
  851MPD2    H712509   4.532   3.539  14.753  2.4219 -2.2779 -2.1407
  852MPD2     C12510   3.640   1.690  10.551  1.2057  0.1569  0.4289
  852MPD2    C112511   3.717   1.644  10.445 -0.0452 -0.4072 -0.1782
  852MPD2    C212512   3.749   1.734  10.344 -0.3795 -0.1263  0.0713
  852MPD2    C312513   3.696   1.856  10.331  0.0218 -0.4770 -0.1654
  852MPD2    C412514   3.615   1.898  10.434  0.2960  1.0208  0.1400
  852MPD2    C512515   3.590   1.814  10.544 -0.1957 -0.6002  0.2854
  852MPD2     H12516   3.805   1.689  10.263 -1.1318 -2.1044  0.6581
  852MPD2    H112517   3.558   1.991  10.434 -1.1158  0.1583  2.2212
  852MPD2    H212518   3.622   1.627  10.638 -1.1988  0.6269  0.2626
  852MPD2    H312519   3.535   1.851  10.630 -0.8233 -0.0393 -0.3614
  852MPD2     N12520   3.718   1.925  10.208 -0.3164  0.4142 -0.4393
  852MPD2    H512521   3.790   1.880  10.152  0.1436  1.1767 -0.4640
  852MPD2    N112522   3.765   1.508  10.433  0.6637  0.2813 -0.2570
  852MPD2    H712523   3.840   1.488  10.367  0.5455 -0.6669 -0.1069
  853MPD2     C12524   1.517   1.301  12.040 -0.9887  0.0072  0.7125
  853MPD2    C112525   1.429   1.396  12.016 -0.1779 -0.9106 -0.6413
  853MPD2    C212526   1.381   1.413  11.888 -1.2089 -0.0190 -0.0337
  853MPD2    C312527   1.441   1.337  11.786  0.4818 -0.4751 -0.4958
  853MPD2    C412528   1.524   1.230  11.813 -0.1602  0.0550  0.0129
  853MPD2    C512529   1.568   1.224  11.938 -0.1806 -0.6697  0.2756
  853MPD2     H12530   1.298   1.476  11.858 -1.7924 -0.3393  0.9091
  853MPD2    H112531   1.566   1.162  11.740 -1.9040  0.2535 -1.1864
  853MPD2    H212532   1.561   1.284  12.137 -0.3678 -2.4819  0.0136
  853MPD2    H312533   1.646   1.149  11.942  0.9745  0.6437  2.0555
  853MPD2     N12534   1.395   1.339  11.651  0.4651 -0.0294 -0.1314
  853MPD2    H512535   1.407   1.253  11.599 -0.7276 -0.6266  0.5690
  853MPD2    N112536   1.410   1.484  12.130  0.4978 -0.4574  0.2903
  853MPD2    H712537   1.466   1.467  12.213  0.5879  0.2960  0.3918
  854MPD2     C12538   2.811   1.494  13.009 -0.7183  0.8603  0.1294
  854MPD2    C112539   2.928   1.554  12.977 -0.2266 -0.0566 -0.2949
  854MPD2    C212540   3.050   1.495  13.018 -0.6557  0.8069  0.1201
  854MPD2    C312541   3.050   1.372  13.074  1.0954  0.0697  0.3339
  854MPD2    C412542   2.932   1.306  13.099 -0.4119 -0.4100 -1.0437
  854MPD2    C512543   2.811   1.366  13.071  0.3397 -0.3108 -0.4056
  854MPD2     H12544   3.141   1.543  12.985  0.4753 -0.9621  0.6377
  854MPD2    H112545   2.937   1.212  13.151  1.6264  0.5753  0.5463
  854MPD2    H212546   2.713   1.538  12.995 -1.2601 -0.6455 -0.8613
  854MPD2    H312547   2.710   1.329  13.081  0.8754 -1.2585  1.4583
  854MPD2     N12548   3.167   1.302  13.114  0.0623  0.5108  0.0528
  854MPD2    H512549   3.161   1.204  13.139 -0.1307  1.3831  3.3740
  854MPD2    N112550   2.916   1.674  12.903 -0.2328 -0.1462 -0.0582
  854MPD2    H712551   2.821   1.695  12.874  0.0589  2.1099  0.6043
  855MPD2     C12552   3.951   1.143  13.673  0.8095 -0.1256 -0.2334
  855MPD2    C112553   3.816   1.110  13.667  0.1192 -0.0279  0.3415
  855MPD2    C212554   3.735   1.149  13.567 -0.0320  0.1973 -0.3674
  855MPD2    C312555   3.786   1.222  13.468 -0.2181  0.3192  0.2527
  855MPD2    C412556   3.923   1.251  13.458  0.1692 -0.3930  0.2706
  855MPD2    C512557   4.001   1.208  13.563 -0.5128  0.6929  0.2215
  855MPD2     H12558   3.638   1.100  13.561  0.3450 -0.5737 -0.2772
  855MPD2    H112559   3.956   1.314  13.376 -2.1138  0.4108 -0.0241
  855MPD2    H212560   4.029   1.101  13.736  1.3787 -1.4017 -1.7952
  855MPD2    H312561   4.103   1.245  13.571  0.0684 -0.7700 -0.3195
  855MPD2     N12562   3.710   1.246  13.354 -0.4973  0.1357 -0.2642
  855MPD2    H512563   3.610   1.234  13.364 -0.7193  1.7484 -0.5275
  855MPD2    N112564   3.766   1.021  13.754 -0.4255 -0.4520 -0.7534
  855MPD2    H712565   3.671   0.990  13.742 -0.1697 -1.4267 -0.2137
  856MPD2     C12566   0.091   2.218  13.928 -0.1665  0.0389  0.9820
  856MPD2    C112567   0.220   2.259  13.920 -0.2877  0.5293 -0.9043
  856MPD2    C212568   0.247   2.379  13.868  0.2878  0.5020 -0.8735
  856MPD2    C312569   0.151   2.474  13.853  0.0202 -0.1706  0.3105
  856MPD2    C412570   0.017   2.432  13.837  0.0006 -0.4564 -0.4372
  856MPD2    C512571   4.712   2.304  13.877  0.8233  0.0932 -0.3992
  856MPD2     H12572   0.353   2.403  13.868  0.5777 -0.7753  0.1492
  856MPD2    H112573   4.655   2.497  13.811  1.8038  1.5325 -1.2696
  856MPD2    H212574   0.067   2.118  13.963  1.6890 -0.6956  0.1725
  856MPD2    H312575   4.611   2.265  13.869  0.4781  0.9884 -0.3564
  856MPD2     N12576   0.186   2.615  13.833  1.0289  0.5111  0.2162
  856MPD2    H512577   0.105   2.675  13.820  1.5681  1.6477  2.0433
  856MPD2    N112578   0.337   2.181  13.949 -0.8752  0.1211 -0.4148
  856MPD2    H712579   0.427   2.224  13.932 -0.5653  0.6749  2.5825
  857MPD2     C12580   1.818   4.065  12.864  0.1122  0.2405  0.3725
  857MPD2    C112581   1.950   4.050  12.826 -0.1547  0.7919  0.5898
  857MPD2    C212582   2.028   4.167  12.821  0.1419  0.6009 -0.1910
  857MPD2    C312583   1.980   4.285  12.866  0.4650 -0.5099 -0.4972
  857MPD2    C412584   1.851   4.293  12.915 -0.8809 -0.0021 -0.1269
  857MPD2    C512585   1.767   4.183  12.912  0.5884  0.0416  0.2247
  857MPD2     H12586   2.126   4.170  12.775  1.3679 -1.9717  2.2478
  857MPD2    H112587   1.812   4.382  12.962  0.5526 -0.5244  2.0452
  857MPD2    H212588   1.754   3.981  12.842 -0.8910  0.7251  1.4669
  857MPD2    H312589   1.662   4.185  12.937  0.0847 -0.4336 -1.8528
  857MPD2     N12590   2.070   4.390  12.872 -0.1227 -0.3296  0.1494
  857MPD2    H512591   2.167   4.362  12.856  0.4642  0.6211  2.1635
  857MPD2    N112592   1.996   3.932  12.774  0.6961 -0.3082 -0.1927
  857MPD2    H712593   1.928   3.857  12.781  0.4922 -0.1141 -0.0962
  858MPD2     C12594   2.794   3.345  16.843 -0.0688  0.2757  0.0397
  858MPD2    C112595   2.930   3.331  16.854 -0.2104  0.0411  0.4124
  858MPD2    C212596   2.996   3.406  16.945 -0.2416 -0.0885 -0.2989
  858MPD2    C312597   2.926   3.510  17.008 -0.2573 -0.0222 -0.2358
  858MPD2    C412598   2.790   3.530  16.980 -0.4690 -0.1552  0.0565
  858MPD2    C512599   2.720   3.434  16.914 -0.8313 -0.0029 -0.4083
  858MPD2     H12600   3.102   3.393  16.964 -0.3046  0.9583  0.7664
  858MPD2    H112601   2.736   3.615  17.021 -0.4428 -0.4394  0.6722
  858MPD2    H212602   2.752   3.274  16.772 -2.1587  1.5334  0.0369
  858MPD2    H312603   2.616   3.461  16.899 -0.5916  0.0927 -1.8663
  858MPD2     N12604   2.982   3.603  17.098 -0.5332 -0.7445 -0.0992
  858MPD2    H512605   2.932   3.677  17.146 -1.7553 -2.1220  0.7307
  858MPD2    N112606   2.986   3.235  16.767 -0.7053  0.5133 -0.0543
  858MPD2    H712607   2.922   3.180  16.710 -0.5593  0.9191 -0.6055
  859MPD2     C12608   1.737   0.945  15.842  0.6772  0.1590 -0.0652
  859MPD2    C112609   1.735   0.928  15.703 -0.3338  0.3038 -0.5651
  859MPD2    C212610   1.718   0.802  15.647  0.5944 -0.2092 -0.9309
  859MPD2    C312611   1.692   0.695  15.732 -0.2047  0.2042  0.5121
  859MPD2    C412612   1.680   0.719  15.866 -0.0126  0.1166 -1.0317
  859MPD2    C512613   1.723   0.836  15.922  0.7579 -0.5326 -0.6319
  859MPD2     H12614   1.716   0.805  15.539  1.3129 -0.9479 -0.9612
  859MPD2    H112615   1.650   0.644  15.938 -0.7590  0.2649 -1.1867
  859MPD2    H212616   1.763   1.041  15.885 -1.5570  0.0006  1.6339
  859MPD2    H312617   1.719   0.837  16.031  0.2513  0.1618 -0.6595
  859MPD2     N12618   1.676   0.566  15.678  0.0638  0.2051 -1.4206
  859MPD2    H512619   1.659   0.494  15.748 -1.1697  2.9489  1.1165
  859MPD2    N112620   1.763   1.039  15.625 -0.3515  0.1610 -0.8132
  859MPD2    H712621   1.804   1.123  15.666 -4.7961  1.6904  0.5567
  860MPD2     C12622   3.765   1.119  11.516 -0.0328 -1.0907 -0.1255
  860MPD2    C112623   3.768   1.182  11.639 -0.4452  1.7062 -0.0531
  860MPD2    C212624   3.657   1.174  11.726 -0.6293  0.0026  0.2329
  860MPD2    C312625   3.539   1.112  11.685  0.7468  0.3914 -1.2423
  860MPD2    C412626   3.538   1.056  11.562 -0.2128 -0.4798  0.0357
  860MPD2    C512627   3.647   1.060  11.483  0.6228 -0.8516 -0.2655
  860MPD2     H12628   3.657   1.239  11.812  3.1880 -0.1005  0.3098
  860MPD2    H112629   3.441   1.021  11.530 -0.9951 -0.9210  2.8449
  860MPD2    H212630   3.838   1.116  11.437  1.2593 -1.0531  1.0650
  860MPD2    H312631   3.646   1.006  11.389  0.7455  0.1274 -0.8210
  860MPD2     N12632   3.416   1.125  11.760 -0.1433  0.0347  0.4092
  860MPD2    H512633   3.340   1.067  11.726 -1.5331  0.2014  3.2078
  860MPD2    N112634   3.880   1.261  11.678  0.0608  0.5455  0.1582
  860MPD2    H712635   3.875   1.293  11.774 -0.1180  1.1084 -0.0369
  861MPD2     C12636   2.690   4.009  11.214 -0.3245  0.1205  0.6499
  861MPD2    C112637   2.562   4.015  11.264  0.6753  0.3027 -0.0352
  861MPD2    C212638   2.460   4.066  11.181  0.0408 -0.2991  0.0993
  861MPD2    C312639   2.492   4.115  11.054 -0.7686 -0.4720  0.1837
  861MPD2    C412640   2.621   4.110  11.011 -0.3018 -0.7624 -0.3138
  861MPD2    C512641   2.713   4.060  11.091  0.0741 -0.7436 -0.0997
  861MPD2     H12642   2.358   4.047  11.212 -1.2194  0.0329 -3.8227
  861MPD2    H112643   2.639   4.149  10.911  2.2198 -4.0179 -1.1321
  861MPD2    H212644   2.776   3.975  11.271 -0.2178 -1.0753 -0.2104
  861MPD2    H312645   2.816   4.065  11.055 -1.1787  1.1809 -3.4546
  861MPD2     N12646   2.401   4.180  10.968 -0.3372 -0.2245 -0.1359
  861MPD2    H512647   2.444   4.231  10.892 -0.9130  0.3759 -0.0521
  861MPD2    N112648   2.525   3.958  11.386  0.6950 -0.3650 -0.2328
  861MPD2    H712649   2.426   3.957  11.408  0.5177 -2.2146 -1.1098
  862MPD2     C12650   1.850   4.368  10.451 -0.5776  0.6160  1.3931
  862MPD2    C112651   1.926   4.286  10.527 -0.5469 -0.1322  0.4662
  862MPD2    C212652   1.965   4.160  10.472 -0.2112 -0.4060 -0.1559
  862MPD2    C312653   1.933   4.116  10.348  0.2324 -0.3978  0.0536
  862MPD2    C412654   1.857   4.201  10.274  0.0030  0.3909  0.1778
  862MPD2    C512655   1.815   4.325  10.325  1.0857  0.0374 -0.4947
  862MPD2     H12656   2.014   4.094  10.542  0.4090  0.5701  0.3319
  862MPD2    H112657   1.825   4.179  10.173 -0.4526  0.1670  0.3679
  862MPD2    H212658   1.812   4.464  10.485  0.3653  1.2491  0.6757
  862MPD2    H312659   1.753   4.395  10.270  0.6543  2.5965  3.2464
  862MPD2     N12660   1.964   3.991  10.287 -0.1289  0.1617  0.5085
  862MPD2    H512661   1.931   3.987  10.191  3.3649  1.2547 -0.7275
  862MPD2    N112662   1.974   4.315  10.652 -0.2461  0.3101  0.3884
  862MPD2    H712663   2.046   4.253  10.687  1.5425  2.0751 -0.1647
  863MPD2     C12664   1.899   2.970  16.666  0.3115 -0.9151  0.4044
  863MPD2    C112665   1.776   3.002  16.717 -0.0590 -0.1871 -0.0967
  863MPD2    C212666   1.766   3.018  16.850  0.3463  0.2364  0.1353
  863MPD2    C312667   1.870   3.015  16.928 -0.6844 -0.0725 -0.0112
  863MPD2    C412668   1.997   2.984  16.869 -0.1293 -0.3954 -0.2530
  863MPD2    C512669   2.011   2.956  16.743  0.0284  0.3535  0.5511
  863MPD2     H12670   1.676   3.046  16.902  0.1162  2.4151 -1.4067
  863MPD2    H112671   2.084   2.972  16.933 -0.4315  2.4107  0.7059
  863MPD2    H212672   1.902   2.938  16.563  1.7990 -3.5782  1.2865
  863MPD2    H312673   2.106   2.932  16.695  0.1576 -1.4732  1.6835
  863MPD2     N12674   1.849   3.026  17.067 -0.6651 -0.0728  0.4032
  863MPD2    H512675   1.753   3.033  17.099 -0.2873  1.4028  1.2388
  863MPD2    N112676   1.660   2.998  16.631  0.2992  0.1409  0.1483
  863MPD2    H712677   1.672   2.964  16.537 -1.2579  1.8108 -0.6460
  864MPD2     C12678   2.108   3.912  17.417 -0.0567  0.6045 -0.0359
  864MPD2    C112679   2.181   3.826  17.337 -0.0460  0.5985 -0.5475
  864MPD2    C212680   2.272   3.871  17.253 -0.0532 -0.2044 -0.3726
  864MPD2    C312681   2.308   4.002  17.254  0.7720 -0.4736  0.2123
  864MPD2    C412682   2.237   4.092  17.334 -0.3243  0.6510 -0.2495
  864MPD2    C512683   2.143   4.042  17.425 -0.3305 -0.5486  0.3310
  864MPD2     H12684   2.329   3.793  17.204 -2.1546 -0.9010 -1.6758
  864MPD2    H112685   2.259   4.198  17.338 -0.8244  0.8471 -2.7139
  864MPD2    H212686   2.046   3.876  17.498  0.1550 -0.8529 -0.5112
  864MPD2    H312687   2.094   4.111  17.493  0.5026 -0.2022  0.5738
  864MPD2     N12688   2.415   4.052  17.172  0.1128 -0.3503  0.4261
  864MPD2    H512689   2.411   4.145  17.132 -0.0427 -0.9107 -0.8327
  864MPD2    N112690   2.139   3.688  17.345 -0.6466  0.1027 -0.1088
  864MPD2    H712691   2.077   3.664  17.421  2.2957 -2.6521  1.3922
  865MPD2     C12692   1.966   4.139  16.440 -0.0290  0.2047 -0.1153
  865MPD2    C112693   2.038   4.023  16.437  0.3192  0.1799 -0.5661
  865MPD2    C212694   2.147   4.004  16.522 -0.1243 -0.6913 -0.7250
  865MPD2    C312695   2.185   4.104  16.608  0.3280 -0.4465  0.8168
  865MPD2    C412696   2.107   4.223  16.611 -0.2630 -0.1116 -0.3582
  865MPD2    C512697   1.995   4.239  16.530 -0.0938  0.2138 -0.0554
  865MPD2     H12698   2.207   3.916  16.500 -1.6306 -2.3397  1.8130
  865MPD2    H112699   2.134   4.303  16.679 -0.2831 -1.0855  0.7836
  865MPD2    H212700   1.882   4.162  16.376 -0.8258 -0.3201  0.7469
  865MPD2    H312701   1.957   4.340  16.525 -1.7814 -0.3987  0.3606
  865MPD2     N12702   2.305   4.102  16.681 -0.4917 -0.3125 -0.5611
  865MPD2    H512703   2.304   4.164  16.761  3.5144 -1.3193  0.2922
  865MPD2    N112704   2.010   3.906  16.357  0.3361 -0.6816 -0.4821
  865MPD2    H712705   2.070   3.825  16.354  2.8899  1.1266  1.7442
  866MPD2     C12706   3.470   4.096  11.326  0.8002  0.6448  0.7351
  866MPD2    C112707   3.456   4.172  11.211  0.5497  0.5457  0.3877
  866MPD2    C212708   3.345   4.254  11.192 -0.1136 -0.5195  0.0835
  866MPD2    C312709   3.233   4.233  11.268 -0.0229 -0.7522  0.4337
  866MPD2    C412710   3.243   4.150  11.376  0.0705  0.2319  0.7310
  866MPD2    C512711   3.364   4.093  11.412 -0.0967  0.2554 -0.5483
  866MPD2     H12712   3.339   4.316  11.103 -3.7610 -2.3438 -0.9273
  866MPD2    H112713   3.155   4.132  11.436  0.1835 -0.2341  0.7628
  866MPD2    H212714   3.558   4.036  11.348 -0.1892 -1.5412 -1.2884
  866MPD2    H312715   3.349   4.030  11.499 -3.3241 -0.4511 -1.6152
  866MPD2     N12716   3.106   4.281  11.228  0.2963 -0.8026  0.2360
  866MPD2    H512717   3.026   4.263  11.287  0.7953  0.0336  1.1798
  866MPD2    N112718   3.578   4.177  11.135  0.0839  1.1183  0.4444
  866MPD2    H712719   3.660   4.142  11.183  0.8172  1.3766 -0.6176
  867MPD2     C12720   0.911   4.408  16.722  0.1902  0.6410 -0.0407
  867MPD2    C112721   1.027   4.383  16.783 -0.2693  0.4168 -0.2367
  867MPD2    C212722   1.068   4.471  16.883  0.5028 -0.2986  0.0377
  867MPD2    C312723   0.996   4.586  16.916 -0.4425 -0.6868  0.3459
  867MPD2    C412724   0.876   4.608  16.864 -0.7467 -0.1260  0.6597
  867MPD2    C512725   0.840   4.522  16.759  0.2098  0.2191 -0.3306
  867MPD2     H12726   1.168   4.469  16.924 -0.8309 -1.6357  3.2677
  867MPD2    H112727   0.818   4.697  16.887 -1.4089 -0.6451  0.9984
  867MPD2    H212728   0.875   4.338  16.647  3.0110 -1.5033  0.6017
  867MPD2    H312729   0.755   4.551  16.699 -0.1504 -2.0712 -0.9618
  867MPD2     N12730   1.050   4.678  17.007  0.5094 -0.1326  0.5529
  867MPD2    H512731   0.991   0.038  17.025 -0.4100 -1.0486  1.6507
  867MPD2    N112732   1.086   4.256  16.754 -0.1723  1.0810 -0.4004
  867MPD2    H712733   1.059   4.217  16.664 -2.3105 -0.5921  0.9357
  868MPD2     C12734   2.329   2.543  12.756 -1.4538 -0.0490  0.4468
  868MPD2    C112735   2.373   2.564  12.883 -0.5481  0.6991  1.5250
  868MPD2    C212736   2.289   2.532  12.991 -0.3233  0.3247 -0.9176
  868MPD2    C312737   2.166   2.475  12.965 -0.4502 -0.8473 -0.2039
  868MPD2    C412738   2.115   2.482  12.839 -0.2304 -0.6854 -0.1496
  868MPD2    C512739   2.196   2.507  12.734  0.2732  0.1519  0.3724
  868MPD2     H12740   2.327   2.545  13.092  1.9743 -2.0870 -1.4665
  868MPD2    H112741   2.016   2.450  12.807 -0.9127 -0.0278  1.2917
  868MPD2    H212742   2.390   2.568  12.670 -1.0573 -3.5183 -0.2691
  868MPD2    H312743   2.151   2.509  12.636 -0.5305  0.3635  0.7482
  868MPD2     N12744   2.100   2.417  13.075 -0.5047 -0.4164  0.1042
  868MPD2    H512745   2.152   2.426  13.161  1.6579  0.6991 -1.3405
  868MPD2    N112746   2.507   2.611  12.897 -0.3954 -0.2624  0.0975
  868MPD2    H712747   2.568   2.612  12.817 -1.4080  0.5547 -0.6643
  869MPD2     C12748   4.430   1.123   1.645 -0.2392  0.0993 -0.0759
  869MPD2    C112749   4.305   1.071   1.686  0.3418  0.3993 -0.2963
  869MPD2    C212750   4.190   1.125   1.642  0.6330 -0.7427 -0.2928
  869MPD2    C312751   4.194   1.223   1.542  0.2125 -0.0028  0.4408
  869MPD2    C412752   4.317   1.281   1.510  0.9505 -0.7616  0.6121
  869MPD2    C512753   4.434   1.227   1.560  0.0228 -0.5300 -0.7737
  869MPD2     H12754   4.092   1.084   1.666 -0.3307  1.0848 -1.1038
  869MPD2    H112755   4.328   1.368   1.447 -2.5224 -0.8467 -0.1020
  869MPD2    H212756   4.521   1.078   1.682  0.0136  0.3523 -0.3935
  869MPD2    H312757   4.528   1.279   1.547 -0.6406  0.6162 -0.9961
  869MPD2     N12758   4.085   1.273   1.472 -0.0738  0.1734 -0.4866
  869MPD2    H512759   4.106   1.340   1.399  0.8008  1.2834  0.7831
  869MPD2    N112760   4.312   0.948   1.756 -0.6080  0.2749 -0.2544
  869MPD2    H712761   4.404   0.906   1.767 -0.7745  0.2414  1.0429
  870MPD2     C12762   3.085   0.341   1.928 -0.1286  0.5557  0.2639
  870MPD2    C112763   3.187   0.352   1.843  0.0015 -0.2598  0.6707
  870MPD2    C212764   3.175   0.431   1.726  0.1346 -0.0864  0.7372
  870MPD2    C312765   3.060   0.494   1.693  0.9300  0.3982 -0.4494
  870MPD2    C412766   2.954   0.467   1.778 -0.0915 -1.0555 -0.5464
  870MPD2    C512767   2.968   0.405   1.897 -0.8436 -0.3860 -0.1775
  870MPD2     H12768   3.252   0.439   1.650 -1.1249  0.8807 -0.4433
  870MPD2    H112769   2.855   0.503   1.754  0.2153  1.5857  2.0879
  870MPD2    H212770   3.074   0.268   2.008 -0.5496  0.0248 -0.2753
  870MPD2    H312771   2.884   0.391   1.964  0.8441  0.2014  2.0646
  870MPD2     N12772   3.050   0.567   1.571  0.5324 -0.3277  0.3110
  870MPD2    H512773   3.140   0.567   1.525 -0.1550 -0.7669 -1.0300
  870MPD2    N112774   3.303   0.273   1.868 -0.5576  0.5016  0.1657
  870MPD2    H712775   3.310   0.212   1.949  2.0618  1.3084  0.5520
  871MPD2     C12776   4.714   4.117  17.197 -0.4194  0.2965  0.0377
  871MPD2    C112777   4.613   4.088  17.289  0.1105 -0.0447 -0.2001
  871MPD2    C212778   4.653   4.011  17.402  0.2443 -0.1750 -0.6636
  871MPD2    C312779   0.056   3.944  17.415  0.1431  0.2336 -0.7475
  871MPD2    C412780   0.148   3.971  17.312 -0.4533  0.2902  0.1906
  871MPD2    C512781   0.120   4.060  17.212  0.3637 -0.3386  0.0644
  871MPD2     H12782   4.583   3.988  17.481  0.2961 -0.7103 -0.7727
  871MPD2    H112783   0.244   3.920  17.306 -0.8769 -0.3907 -0.8535
  871MPD2    H212784   4.692   4.179  17.110 -0.0895  0.6526  0.2098
  871MPD2    H312785   0.196   4.078  17.138 -2.0206  1.6951 -1.8727
  871MPD2     N12786   0.076   3.866  17.534  0.0986 -0.0918  0.4527
  871MPD2    H512787   0.005   3.851  17.604  0.4734  2.1287  1.2843
  871MPD2    N112788   4.489   4.154  17.268  1.0669 -0.1299 -1.0352
  871MPD2    H712789   4.484   4.207  17.181  0.6240  0.5245 -0.6109
  872MPD2     C12790   0.218   2.168  13.556 -0.2201 -0.0802  0.3016
  872MPD2    C112791   0.320   2.081  13.584 -0.3904 -0.1231 -0.1853
  872MPD2    C212792   0.301   1.976  13.669 -0.2724  0.3237  0.3188
  872MPD2    C312793   0.180   1.957  13.725  0.1765 -0.3420  0.0608
  872MPD2    C412794   0.076   2.033  13.683  0.2090  0.3821  0.3131
  872MPD2    C512795   0.091   2.143  13.606 -0.4149  0.6399  0.4113
  872MPD2     H12796   0.389   1.916  13.691 -1.3083 -1.0463  0.7474
  872MPD2    H112797   4.701   2.027  13.735 -1.1739  0.0941 -2.3031
  872MPD2    H212798   0.227   2.265  13.509  0.0106 -0.4521 -0.4345
  872MPD2    H312799   0.018   2.223  13.606  0.2137  1.2178  2.0954
  872MPD2     N12800   0.141   1.852  13.809 -0.9269 -0.1835 -0.5862
  872MPD2    H512801   0.045   1.854  13.845 -0.0055 -0.5138  1.8999
  872MPD2    N112802   0.454   2.097  13.538  0.0136 -0.5516  0.1783
  872MPD2    H712803   0.530   2.033  13.559  2.0093  1.9056  0.4948
  873MPD2     C12804   2.028   1.758   0.916  0.6645 -0.2961 -0.1648
  873MPD2    C112805   1.907   1.819   0.950 -0.3401  0.0517 -0.6485
  873MPD2    C212806   1.789   1.754   0.903 -0.7809 -0.2448  0.0316
  873MPD2    C312807   1.789   1.649   0.816 -0.2653 -0.0349 -0.4257
  873MPD2    C412808   1.905   1.609   0.758 -0.0720  0.0378  0.3671
  873MPD2    C512809   2.021   1.656   0.820 -0.2779 -0.2958 -0.6337
  873MPD2     H12810   1.691   1.790   0.932 -2.3019 -2.9553 -1.7630
  873MPD2    H112811   1.914   1.523   0.692  0.2578 -0.1871  0.7032
  873MPD2    H212812   2.120   1.786   0.966  1.2984 -0.6785 -1.1038
  873MPD2    H312813   2.109   1.610   0.775  0.7577  1.9978 -0.9449
  873MPD2     N12814   1.670   1.583   0.776  0.5913  0.4437  1.1585
  873MPD2    H512815   1.686   1.510   0.707 -1.5110  0.9363  0.1664
  873MPD2    N112816   1.903   1.910   1.059  0.0991 -0.2951  0.3631
  873MPD2    H712817   1.988   1.938   1.107  1.5001 -1.2775 -1.5678
  874MPD2     C12818   1.834   1.836  16.192  0.9088 -0.2571  0.3303
  874MPD2    C112819   1.940   1.762  16.239 -0.1558  0.5393 -0.0300
  874MPD2    C212820   2.065   1.784  16.186  0.1113 -0.4762 -0.0273
  874MPD2    C312821   2.087   1.892  16.103 -0.1313 -0.1727  0.0260
  874MPD2    C412822   1.980   1.957  16.046 -0.1523 -0.0199 -0.1255
  874MPD2    C512823   1.853   1.927  16.094 -0.2955  0.2005  0.1187
  874MPD2     H12824   2.150   1.720  16.208 -1.3448 -2.0519  1.0370
  874MPD2    H112825   1.991   2.042  15.979  3.6073 -0.8258 -0.5611
  874MPD2    H212826   1.733   1.825  16.229  1.2362 -0.5585  1.1175
  874MPD2    H312827   1.768   1.986  16.061 -0.5273 -0.0135  0.3373
  874MPD2     N12828   2.222   1.918  16.090 -0.4838  0.9735 -0.0530
  874MPD2    H512829   2.281   1.852  16.140  0.1586  1.9677  0.5108
  874MPD2    N112830   1.909   1.667  16.340 -0.2883  0.3332  0.0058
  874MPD2    H712831   1.811   1.668  16.367 -0.5661 -2.6183 -0.9153
  875MPD2     C12832   2.036   4.657  14.438 -0.4819 -0.3550  0.9664
  875MPD2    C112833   2.138   0.008  14.381 -0.0385  0.0986  0.6359
  875MPD2    C212834   2.209   0.091  14.468 -0.2884  0.0766 -0.4782
  875MPD2    C312835   2.180   0.084  14.601 -0.9340 -0.4454 -0.0382
  875MPD2    C412836   2.091   4.714  14.658  0.0599  0.1915  0.6454
  875MPD2    C512837   2.011   4.642  14.575  0.0220 -0.4097 -0.8758
  875MPD2     H12838   2.283   0.152  14.418 -0.6056  1.5033  0.8124
  875MPD2    H112839   2.058   4.718  14.761  0.4856 -2.0475  0.8682
  875MPD2    H212840   1.961   4.597  14.388  0.0586 -0.6319  0.4869
  875MPD2    H312841   1.938   4.578  14.624 -0.3851  1.1838  0.5914
  875MPD2     N12842   2.245   0.179  14.695 -0.1635  0.0670  0.0976
  875MPD2    H512843   2.211   0.170  14.790 -2.6886  0.1830 -0.7720
  875MPD2    N112844   2.169   4.706  14.238 -0.4846 -0.3437 -0.2829
  875MPD2    H712845   2.131   4.622  14.196 -3.1855  0.6981  0.0304
  876MPD2     C12846   1.783   1.428  16.108 -0.1322 -0.2012  0.0175
  876MPD2    C112847   1.903   1.392  16.059 -0.1028 -0.5169  0.6412
  876MPD2    C212848   1.954   1.264  16.070  0.3708  0.4401 -0.3084
  876MPD2    C312849   1.884   1.169  16.145  0.2418 -0.5741 -0.0493
  876MPD2    C412850   1.758   1.206  16.194  0.9711 -0.9543 -0.5123
  876MPD2    C512851   1.710   1.333  16.175  0.3802  0.9000  0.1014
  876MPD2     H12852   2.042   1.241  16.011  2.3266 -1.9208  3.5243
  876MPD2    H112853   1.695   1.135  16.247  1.8092 -1.3132 -0.0042
  876MPD2    H212854   1.742   1.526  16.087 -2.9339 -1.1819  0.9481
  876MPD2    H312855   1.610   1.357  16.207  0.2460  0.4256  0.0486
  876MPD2     N12856   1.938   1.039  16.159 -0.2092 -0.4782  0.1846
  876MPD2    H512857   2.026   1.020  16.111 -0.3126 -2.4808  0.7992
  876MPD2    N112858   1.962   1.497  15.991 -0.1411 -0.8502  0.4021
  876MPD2    H712859   1.909   1.582  15.979 -0.7300 -1.2808 -0.1037
  877MPD2     C12860   1.764   1.776  15.360 -0.0828  0.3656 -0.2854
  877MPD2    C112861   1.899   1.797  15.360  0.3072 -0.1182 -0.4108
  877MPD2    C212862   1.965   1.813  15.238  0.5876 -0.3028  0.2202
  877MPD2    C312863   1.898   1.810  15.114 -0.4333 -0.1176 -0.1012
  877MPD2    C412864   1.759   1.793  15.120  0.0402 -0.1952 -0.2331
  877MPD2    C512865   1.696   1.774  15.243  0.6769  0.4057  0.1350
  877MPD2     H12866   2.073   1.819  15.245  0.6136 -0.6084  0.0821
  877MPD2    H112867   1.693   1.802  15.035 -0.4647  2.3564  0.4257
  877MPD2    H212868   1.710   1.746  15.449  1.2842  0.6503  0.6435
  877MPD2    H312869   1.590   1.762  15.261  0.5036  0.5600 -0.7764
  877MPD2     N12870   1.950   1.820  14.986  0.2887 -0.7502 -0.7760
  877MPD2    H512871   1.883   1.812  14.910 -1.9323  2.8342  0.8228
  877MPD2    N112872   1.984   1.790  15.470 -0.2054 -0.1909  0.1547
  877MPD2    H712873   2.079   1.823  15.455  0.6191 -2.4965  0.2149
  878MPD2     C12874   1.614   0.920  12.936  0.1334  0.4358 -1.0823
  878MPD2    C112875   1.681   1.040  12.949  1.0837 -0.1547  0.4957
  878MPD2    C212876   1.707   1.093  13.074  0.4744 -0.7713 -0.6432
  878MPD2    C312877   1.659   1.021  13.184  0.0031 -0.6396 -0.5913
  878MPD2    C412878   1.616   0.884  13.165 -0.3981 -0.0325 -0.8395
  878MPD2    C512879   1.584   0.845  13.042  0.4402 -0.0743 -0.0980
  878MPD2     H12880   1.753   1.188  13.100 -0.7963 -0.7728  1.6566
  878MPD2    H112881   1.579   0.822  13.246  0.4304  1.7167  0.8642
  878MPD2    H212882   1.580   0.885  12.840  1.4495  0.2379 -1.4730
  878MPD2    H312883   1.514   0.763  13.032 -0.7405  1.0480 -1.0853
  878MPD2     N12884   1.689   1.080  13.311 -0.4316  0.4948  0.1896
  878MPD2    H512885   1.715   1.178  13.320 -0.4459  0.3492  1.7942
  878MPD2    N112886   1.713   1.100  12.823  0.4335 -0.3993  0.0750
  878MPD2    H712887   1.667   1.055  12.744 -1.6009  1.1149  0.4193
  879MPD2     C12888   2.749   2.736  17.383  0.1399 -0.4998 -0.5171
  879MPD2    C112889   2.637   2.665  17.424  0.8785  0.1630  0.5053
  879MPD2    C212890   2.568   2.574  17.338 -1.2374 -0.8611  0.2224
  879MPD2    C312891   2.637   2.549  17.216  0.1018 -0.0131 -0.5136
  879MPD2    C412892   2.753   2.619  17.182  0.2485  0.1698  0.7745
  879MPD2    C512893   2.815   2.703  17.265 -0.1792 -0.4657  0.4419
  879MPD2     H12894   2.481   2.515  17.364 -1.5493  0.5433  2.4185
  879MPD2    H112895   2.801   2.612  17.085  0.6435 -1.4395  1.0970
  879MPD2    H212896   2.792   2.808  17.452 -1.0973  0.1564 -0.4342
  879MPD2    H312897   2.901   2.760  17.230 -0.0131 -0.9618  0.0435
  879MPD2     N12898   2.601   2.454  17.124 -0.4614 -0.0023  0.2789
  879MPD2    H512899   2.664   2.449  17.044 -1.4709 -0.3682 -0.4928
  879MPD2    N112900   2.588   2.709  17.544  0.0836 -0.0472  0.1639
  879MPD2    H712901   2.633   2.793  17.579 -1.6780  1.8869 -2.1754
  880MPD2     C12902   3.773   4.316   0.921 -0.3583  0.0431 -0.8615
  880MPD2    C112903   3.671   4.399   0.962 -0.4771 -0.1073  0.0393
  880MPD2    C212904   3.607   4.366   1.082  0.2504 -0.1160 -0.3777
  880MPD2    C312905   3.651   4.249   1.154  0.2268  0.5256 -0.2511
  880MPD2    C412906   3.744   4.165   1.102  0.2571  0.4778  0.3908
  880MPD2    C512907   3.808   4.200   0.990  0.8873 -0.1945 -0.5585
  880MPD2     H12908   3.531   4.427   1.129  0.5143 -1.1828  1.4011
  880MPD2    H112909   3.781   4.081   1.159  2.3262  2.1456  1.5310
  880MPD2    H212910   3.825   4.342   0.829 -0.8909  1.6944 -0.7102
  880MPD2    H312911   3.888   4.134   0.956  2.7216  0.6303  2.1990
  880MPD2     N12912   3.582   4.223   1.275  0.3019 -0.6893 -0.5635
  880MPD2    H512913   3.507   4.286   1.302 -0.2892 -1.1506 -1.1225
  880MPD2    N112914   3.619   4.496   0.879  0.0367  0.1567 -0.2141
  880MPD2    H712915   3.661   4.501   0.787  0.5909 -0.4173  0.0076
  881MPD2     C12916   3.383   4.372   0.031  0.2687 -0.7515 -0.1017
  881MPD2    C112917   3.386   4.509   0.038  0.3664 -0.5511  0.1326
  881MPD2    C212918   3.422   4.566   0.157  0.0799  0.6016 -0.3057
  881MPD2    C312919   3.423   4.499   0.276  0.1564  0.6877 -0.1939
  881MPD2    C412920   3.388   4.372   0.273  0.0557 -0.0192 -0.6033
  881MPD2    C512921   3.368   4.306   0.153 -0.0786 -0.4251 -1.2283
  881MPD2     H12922   3.442   4.672   0.166 -1.2176  0.7488  0.9549
  881MPD2    H112923   3.381   4.318   0.367  1.1874  2.3663  0.8471
  881MPD2    H212924   3.357   4.325  17.622 -1.7036  1.0750 -0.4602
  881MPD2    H312925   3.339   4.202   0.144 -1.2915 -0.1773 -0.2033
  881MPD2     N12926   3.440   4.553   0.400  0.9455  0.0953 -0.2853
  881MPD2    H512927   3.446   4.488   0.478  0.1655 -0.3809 -0.6299
  881MPD2    N112928   3.390   4.563  17.600  0.2866 -0.8498  0.5031
  881MPD2    H712929   3.362   4.501  17.524 -0.0218  0.2197 -0.2547
  882MPD2     C12930   1.963   1.609  14.182  0.1613  0.3738  0.4713
  882MPD2    C112931   1.887   1.671  14.285  0.2832  0.6755  0.4724
  882MPD2    C212932   1.752   1.690  14.262 -0.3121  0.6597  0.0276
  882MPD2    C312933   1.686   1.634  14.159 -0.2979 -0.3857  0.0453
  882MPD2    C412934   1.759   1.572  14.062 -1.3515 -0.2032  0.5663
  882MPD2    C512935   1.898   1.562  14.067 -0.3188  0.0769 -0.2794
  882MPD2     H12936   1.698   1.738  14.343 -2.0424 -0.3311 -0.5410
  882MPD2    H112937   1.709   1.522  13.980  0.2800  1.7847 -1.6417
  882MPD2    H212938   2.071   1.611  14.190  0.3477  0.7399 -2.3047
  882MPD2    H312939   1.951   1.506  13.990  0.7350 -0.8056  1.0769
  882MPD2     N12940   1.547   1.638  14.136 -0.3074 -0.3520  0.7393
  882MPD2    H512941   1.513   1.594  14.051 -0.0988 -1.1105  1.0534
  882MPD2    N112942   1.965   1.730  14.392 -0.3931 -0.2474 -0.3328
  882MPD2    H712943   2.063   1.708  14.382 -0.4088 -1.0260  1.2383
  883MPD2     C12944   0.032   1.881  15.747  0.2345 -0.2813  0.0908
  883MPD2    C112945   4.686   1.816  15.854 -0.1448 -0.2578 -0.1670
  883MPD2    C212946   4.719   1.849  15.983  0.3158 -0.3465  0.3762
  883MPD2    C312947   0.100   1.933  16.007 -0.3758 -0.2607 -0.2955
  883MPD2    C412948   0.160   1.994  15.902  0.1301  0.5177  0.2883
  883MPD2    C512949   0.122   1.975  15.771 -0.4691  0.1766 -0.3289
  883MPD2     H12950   4.674   1.801  16.069 -1.5918  0.8198  0.0332
  883MPD2    H112951   0.237   2.069  15.915  0.5114  0.4431 -1.5729
  883MPD2    H212952   0.012   1.855  15.644  0.3926  0.1650 -0.0537
  883MPD2    H312953   0.170   2.018  15.683 -3.5201  0.3534 -1.9115
  883MPD2     N12954   0.135   1.956  16.142  0.5587 -0.0013  0.1753
  883MPD2    H512955   0.079   1.902  16.206 -0.0746  0.0173 -0.3574
  883MPD2    N112956   4.587   1.720  15.833 -0.5780  0.2691  0.1341
  883MPD2    H712957   4.548   1.682  15.919  0.1140  3.0271  1.6481
  884MPD2     C12958   1.094   2.468  15.486  0.2551  0.3557  0.4656
  884MPD2    C112959   1.104   2.556  15.373 -0.1667  0.3497 -0.0842
  884MPD2    C212960   0.985   2.593  15.306 -0.7120  0.6424 -0.5075
  884MPD2    C312961   0.863   2.559  15.358 -0.4031  0.1062 -0.0007
  884MPD2    C412962   0.859   2.486  15.469 -0.6763 -0.1186 -1.1831
  884MPD2    C512963   0.969   2.437  15.534 -0.3516 -0.0276  0.4981
  884MPD2     H12964   0.990   2.644  15.210 -1.1135  0.7926 -0.4476
  884MPD2    H112965   0.766   2.468  15.523 -0.2977  0.1326 -0.4438
  884MPD2    H212966   1.181   2.436  15.543 -1.4415 -0.3713  2.6354
  884MPD2    H312967   0.967   2.369  15.618 -0.5542  0.9402  1.2775
  884MPD2     N12968   0.753   2.612  15.298  0.5041 -0.1312 -0.3292
  884MPD2    H512969   0.775   2.679  15.225 -0.7676 -1.9596 -2.3838
  884MPD2    N112970   1.229   2.582  15.303  0.1594 -0.1848  0.3565
  884MPD2    H712971   1.223   2.645  15.224  0.1707 -2.7809 -1.7092
  885MPD2     C12972   3.865   2.687   0.184 -0.3743  0.8558 -0.7806
  885MPD2    C112973   4.001   2.713   0.196 -0.2727  0.0071  0.2343
  885MPD2    C212974   4.062   2.784   0.094  0.1459  0.1470  0.0652
  885MPD2    C312975   3.991   2.828  17.673 -0.3220 -0.3134 -0.0075
  885MPD2    C412976   3.857   2.803  17.659  0.1842 -0.1508 -0.2558
  885MPD2    C512977   3.795   2.728   0.071 -0.8848  0.1593 -0.6914
  885MPD2     H12978   4.163   2.818   0.113 -0.1426  1.6788 -1.0742
  885MPD2    H112979   3.800   2.838  17.574  0.7390 -1.9887 -1.3862
  885MPD2    H212980   3.816   2.624   0.258 -2.9434  2.0084 -1.4929
  885MPD2    H312981   3.687   2.717   0.063 -0.7447 -0.3950 -1.7848
  885MPD2     N12982   4.061   2.904  17.579  0.2795  0.1064  0.7023
  885MPD2    H512983   4.163   2.902  17.578  0.2816  0.5292  0.2925
  885MPD2    N112984   4.063   2.669   0.313  0.4163 -0.0606  0.3386
  885MPD2    H712985   4.010   2.609   0.375  2.2389  0.9505  2.8726
  886MPD2     C12986   0.545   0.957  15.372  0.6868 -0.0138 -0.0622
  886MPD2    C112987   0.658   1.014  15.433 -0.4200 -0.0839  0.1990
  886MPD2    C212988   0.668   1.154  15.421 -0.6950  0.2952  0.8360
  886MPD2    C312989   0.579   1.221  15.332  0.1907  0.1965 -1.1756
  886MPD2    C412990   0.481   1.159  15.266 -0.3458  0.2405 -0.1679
  886MPD2    C512991   0.457   1.027  15.295 -0.6536 -0.0504  0.9592
  886MPD2     H12992   0.757   1.202  15.458  1.5870 -0.4892 -3.7086
  886MPD2    H112993   0.414   1.217  15.203 -3.2948 -1.4136  1.4270
  886MPD2    H212994   0.533   0.850  15.384  0.9020  0.2269  2.4000
  886MPD2    H312995   0.375   0.975  15.246  1.3309 -0.6062 -1.7482
  886MPD2     N12996   0.602   1.359  15.308 -0.5479  0.7580 -0.2943
  886MPD2    H512997   0.565   1.398  15.221 -2.0817 -0.7430 -0.3232
  886MPD2    N112998   0.750   0.946  15.517 -0.5801  0.3247 -0.0134
  886MPD2    H712999   0.810   1.004  15.574 -2.8175  2.8124 -0.1848
  887MPD2     C13000   1.375   1.033  15.884 -0.3570  0.4588 -0.6705
  887MPD2    C113001   1.247   1.072  15.830  0.0189 -0.5609 -0.1521
  887MPD2    C213002   1.229   1.207  15.794  0.0765  0.2871  0.1907
  887MPD2    C313003   1.328   1.299  15.827  0.2576  0.3888  0.2591
  887MPD2    C413004   1.439   1.258  15.902  0.5501 -0.4239 -0.5037
  887MPD2    C513005   1.462   1.130  15.937  0.1266 -0.0834 -1.0901
  887MPD2     H13006   1.143   1.244  15.739 -0.8578  0.0866  1.5101
  887MPD2    H113007   1.507   1.334  15.939 -0.3205  0.1047  0.0061
  887MPD2    H213008   1.395   0.928  15.904 -1.1838  0.3093 -0.6153
  887MPD2    H313009   1.554   1.102  15.987 -0.7057 -2.4680 -0.8993
  887MPD2     N13010   1.304   1.434  15.789  0.6262 -0.2595 -0.2340
  887MPD2    H513011   1.212   1.460  15.757  1.1322 -0.6073 -1.9579
  887MPD2    N113012   1.149   0.979  15.792  0.1183 -0.2860  0.3555
  887MPD2    H713013   1.068   1.010  15.739  1.0335  2.5515  0.6258
  888MPD2     C13014   3.103   1.042  14.821 -0.0527  0.1772 -0.1665
  888MPD2    C113015   3.071   1.108  14.939  0.3347  0.1961 -0.4604
  888MPD2    C213016   3.153   1.206  14.978  0.5283 -0.5032  0.5106
  888MPD2    C313017   3.278   1.227  14.917 -0.0097 -0.1875  0.5511
  888MPD2    C413018   3.300   1.170  14.790 -0.4151  0.4885  0.8223
  888MPD2    C513019   3.207   1.082  14.749 -0.8446  1.2652 -0.2225
  888MPD2     H13020   3.144   1.243  15.079  2.3205 -0.6504  0.7305
  888MPD2    H113021   3.391   1.188  14.733 -1.2074 -0.4627 -0.7047
  888MPD2    H213022   3.021   0.998  14.765 -0.3793 -0.9731  1.2105
  888MPD2    H313023   3.214   1.054  14.644  2.1961 -1.7274  0.7885
  888MPD2     N13024   3.357   1.333  14.975  0.5340 -0.3707  0.2209
  888MPD2    H513025   3.328   1.367  15.066  0.7859  0.8087 -0.1513
  888MPD2    N113026   2.961   1.076  15.021 -0.2106 -0.2655 -0.2247
  888MPD2    H713027   2.935   1.131  15.102 -0.4555  0.7692 -0.9999
  889MPD2     C13028   1.879   0.435  12.878  0.1610 -0.6878 -0.0728
  889MPD2    C113029   2.017   0.419  12.859 -0.7384 -0.2940  0.0242
  889MPD2    C213030   2.091   0.533  12.875  1.0166  0.2374  0.3528
  889MPD2    C313031   2.039   0.658  12.869  0.0602 -0.6566  0.5867
  889MPD2    C413032   1.903   0.668  12.856  0.0559 -0.5862 -0.0555
  889MPD2    C513033   1.825   0.558  12.879  0.1341 -0.2361 -0.2452
  889MPD2     H13034   2.200   0.538  12.874  0.9648  1.2492 -0.5728
  889MPD2    H113035   1.850   0.756  12.823  1.8387  0.4717 -0.1246
  889MPD2    H213036   1.814   0.349  12.864 -0.7432 -0.5539  3.2073
  889MPD2    H313037   1.717   0.568  12.882  0.4909  3.2733  1.0945
  889MPD2     N13038   2.122   0.773  12.878 -0.4315  0.4321 -0.1985
  889MPD2    H513039   2.212   0.755  12.921  0.1470  2.6506 -0.4380
  889MPD2    N113040   2.067   0.292  12.882 -0.0823  0.6046 -0.0445
  889MPD2    H713041   1.994   0.222  12.871 -0.4216  1.1091 -1.0704
  890MPD2     C13042   1.580   2.531  14.431  0.9527  0.3034  0.7877
  890MPD2    C113043   1.698   2.468  14.406 -0.2712  0.3008 -0.2418
  890MPD2    C213044   1.768   2.407  14.505  0.4269 -0.4729 -0.2102
  890MPD2    C313045   1.712   2.397  14.632  0.1720 -0.2827 -0.1230
  890MPD2    C413046   1.590   2.455  14.659  0.2219 -0.2807 -0.0147
  890MPD2    C513047   1.531   2.524  14.558 -0.1299 -0.1289 -0.2626
  890MPD2     H13048   1.859   2.357  14.473 -0.6615 -1.5634 -1.6075
  890MPD2    H113049   1.545   2.451  14.757  1.7368 -0.0193  0.6784
  890MPD2    H213050   1.526   2.581  14.352  0.8935 -1.0301 -0.0139
  890MPD2    H313051   1.433   2.568  14.577 -0.0356 -1.1401  2.5047
  890MPD2     N13052   1.802   2.337  14.730 -0.2253 -0.5636 -0.8992
  890MPD2    H513053   1.881   2.284  14.695 -0.7217 -0.8904 -1.5261
  890MPD2    N113054   1.758   2.486  14.284  0.2271 -0.3107  0.4505
  890MPD2    H713055   1.695   2.516  14.210  1.5394 -0.6786 -0.8171
  891MPD2     C13056   4.641   0.685  16.489 -0.0698 -0.0956 -0.2203
  891MPD2    C113057   4.575   0.736  16.599 -0.0375  0.2611 -0.0563
  891MPD2    C213058   4.643   0.817  16.692  0.1011 -0.1514 -0.4777
  891MPD2    C313059   0.051   0.844  16.667 -0.8142  0.8521 -0.3873
  891MPD2    C413060   0.119   0.786  16.561 -0.1025  0.6465  0.5782
  891MPD2    C513061   0.053   0.710  16.471 -0.0351 -0.4149 -0.8689
  891MPD2     H13062   4.587   0.857  16.776 -1.8538 -2.8362 -0.4991
  891MPD2    H113063   0.225   0.804  16.545 -0.1240  0.6839  0.4806
  891MPD2    H213064   4.592   0.619  16.418 -0.8016 -0.7420  0.8828
  891MPD2    H313065   0.115   0.668  16.392  1.3646 -1.2923  0.6840
  891MPD2     N13066   0.114   0.924  16.760 -0.0385  0.7377 -0.3255
  891MPD2    H513067   0.065   0.943  16.847  0.1712 -2.2867  0.4444
  891MPD2    N113068   4.440   0.703  16.614 -0.1082  0.2624  0.3573
  891MPD2    H713069   4.413   0.639  16.540 -1.3231  0.5859  0.5290
  892MPD2     C13070   1.017   1.911  14.888 -0.2309  0.9478  0.7096
  892MPD2    C113071   0.925   1.907  14.788  0.4337 -0.2891 -0.5897
  892MPD2    C213072   0.959   1.855  14.664 -0.9633  0.0793  0.5459
  892MPD2    C313073   1.084   1.811  14.638 -0.5776 -0.4812 -0.0397
  892MPD2    C413074   1.184   1.827  14.736 -0.3871 -0.3630  0.5799
  892MPD2    C513075   1.148   1.876  14.860 -0.3309 -0.1107  0.7827
  892MPD2     H13076   0.884   1.846  14.586 -0.8524 -2.8862  0.7806
  892MPD2    H113077   1.289   1.807  14.717 -0.4144  0.5210 -0.4715
  892MPD2    H213078   0.993   1.955  14.984  1.4395  0.8079  1.1879
  892MPD2    H313079   1.212   1.878  14.947  0.1773 -1.0501  0.4242
  892MPD2     N13080   1.122   1.751  14.518  0.2583 -0.3478  0.3698
  892MPD2    H513081   1.219   1.723  14.518  0.4347  0.2596 -0.5445
  892MPD2    N113082   0.793   1.956  14.801 -0.2483  0.5048  0.3634
  892MPD2    H713083   0.751   1.962  14.708 -1.5804 -0.1376  0.9271
  893MPD2     C13084   2.642   0.726   2.266  0.0304 -0.5186  0.1681
  893MPD2    C113085   2.732   0.634   2.229  1.1312  0.1101  0.6315
  893MPD2    C213086   2.706   0.495   2.240 -0.3540  0.6013  0.0571
  893MPD2    C313087   2.594   0.466   2.318  0.0323  0.5137 -0.2995
  893MPD2    C413088   2.521   0.564   2.386  0.0208  0.2683 -0.2293
  893MPD2    C513089   2.540   0.693   2.354 -0.3255 -0.1800  0.4884
  893MPD2     H13090   2.770   0.416   2.201 -1.4622  0.0410 -0.6333
  893MPD2    H113091   2.439   0.538   2.452 -1.6596 -0.8958 -2.7674
  893MPD2    H213092   2.665   0.830   2.247 -0.3217 -0.4342  0.2019
  893MPD2    H313093   2.489   0.770   2.410  0.9519  0.2519  1.0615
  893MPD2     N13094   2.556   0.334   2.341  0.9601  0.1063 -0.2331
  893MPD2    H513095   2.470   0.317   2.392 -0.0852  2.0203 -1.3765
  893MPD2    N113096   2.847   0.688   2.174  0.4553 -0.2162 -0.1747
  893MPD2    H713097   2.849   0.786   2.150  0.3117 -0.5274 -1.4583
  894MPD2     C13098   0.938   3.681   1.223 -0.5250  0.7536 -0.1577
  894MPD2    C113099   1.001   3.594   1.310  0.2301  0.6830  0.1435
  894MPD2    C213100   1.140   3.612   1.331 -0.6467  0.0434  0.7670
  894MPD2    C313101   1.210   3.712   1.265 -0.2257 -0.0152  0.9801
  894MPD2    C413102   1.137   3.808   1.194 -0.2207  0.5378 -0.0419
  894MPD2    C513103   1.011   3.783   1.164 -0.5459  0.2216  0.1292
  894MPD2     H13104   1.186   3.548   1.405  1.8915  0.8185 -0.1487
  894MPD2    H113105   1.175   3.895   1.141  0.5492 -2.8467 -5.0533
  894MPD2    H213106   0.835   3.668   1.192  0.2447 -1.5568 -1.8071
  894MPD2    H313107   0.963   3.847   1.091 -2.7795 -1.0864  0.4532
  894MPD2     N13108   1.347   3.728   1.292 -0.4146 -0.0357 -0.2595
  894MPD2    H513109   1.393   3.660   1.352  1.4916  0.7242 -0.8502
  894MPD2    N113110   0.935   3.493   1.381  0.0695 -0.1679 -0.8776
  894MPD2    H713111   0.986   3.432   1.445 -0.4151 -0.8051 -1.0951
  895MPD2     C13112   0.527   1.401  13.737  0.3231 -0.7324 -0.1224
  895MPD2    C113113   0.487   1.418  13.606 -0.0295 -0.6763  0.3088
  895MPD2    C213114   0.514   1.318  13.515 -0.0877 -0.2954 -0.9651
  895MPD2    C313115   0.576   1.199  13.551 -1.3643  0.3652 -0.7894
  895MPD2    C413116   0.630   1.184  13.679 -0.1269  0.8242 -0.1727
  895MPD2    C513117   0.594   1.287  13.769 -0.1875 -0.2712  0.5652
  895MPD2     H13118   0.463   1.328  13.420  3.3029 -0.5623 -2.7883
  895MPD2    H113119   0.675   1.094  13.719 -1.5734 -0.3252 -1.1067
  895MPD2    H213120   0.515   1.475  13.816  3.7798 -1.1049  0.7339
  895MPD2    H313121   0.621   1.280  13.874  1.2933 -1.2319  0.1339
  895MPD2     N13122   0.579   1.093  13.469  0.0119  0.1538 -0.2714
  895MPD2    H513123   0.600   1.005  13.516 -0.8800 -0.0670 -0.2921
  895MPD2    N113124   0.414   1.537  13.572  0.6516 -0.1039 -0.2037
  895MPD2    H713125   0.370   1.589  13.648  2.9626  0.0246  1.0299
  896MPD2     C13126   3.026   3.405   1.684  0.1372 -0.2271 -0.6104
  896MPD2    C113127   2.952   3.514   1.730  0.3539  0.1338  0.6989
  896MPD2    C213128   2.808   3.505   1.729  0.1536 -0.0269 -0.1823
  896MPD2    C313129   2.749   3.384   1.704 -0.6455 -0.0090  0.0019
  896MPD2    C413130   2.826   3.279   1.664  0.0667  0.4977  0.4424
  896MPD2    C513131   2.960   3.287   1.658  0.2932  0.3027 -0.5624
  896MPD2     H13132   2.753   3.598   1.742  3.1371  1.7630 -0.5901
  896MPD2    H113133   2.783   3.188   1.626  1.1375 -0.5616  1.7361
  896MPD2    H213134   3.133   3.409   1.667 -0.0975  3.9872 -1.0087
  896MPD2    H313135   3.018   3.208   1.611 -0.1597 -1.3809  1.7131
  896MPD2     N13136   2.612   3.379   1.690  0.1068 -0.3169 -0.3897
  896MPD2    H513137   2.566   3.465   1.719 -0.1703 -1.0521  1.3509
  896MPD2    N113138   3.025   3.634   1.751 -0.1307  0.6928  0.6924
  896MPD2    H713139   3.126   3.636   1.735 -0.5076 -1.7848 -2.0302
  897MPD2     C13140   3.580   4.335  10.245  0.0606 -0.8675 -0.7710
  897MPD2    C113141   3.503   4.454  10.239  0.0980  0.2172 -0.3797
  897MPD2    C213142   3.434   4.493  10.346 -0.7488 -0.0247  0.3006
  897MPD2    C313143   3.435   4.422  10.464  0.3963  0.1647 -0.4522
  897MPD2    C413144   3.513   4.305  10.474  0.2066  0.1150 -1.4405
  897MPD2    C513145   3.582   4.263  10.357 -0.9926  0.4313 -0.4168
  897MPD2     H13146   3.392   4.593  10.350 -2.6932 -0.8274  0.2577
  897MPD2    H113147   3.533   4.253  10.567 -1.1199 -0.8949 -1.7152
  897MPD2    H213148   3.642   4.295  10.166 -0.1134 -0.2626 -1.2170
  897MPD2    H313149   3.645   4.174  10.363  0.8005  1.8436  1.8478
  897MPD2     N13150   3.377   4.468  10.582 -0.0263 -0.7195  0.6147
  897MPD2    H513151   3.403   4.427  10.672 -0.0249  0.6598  1.2429
  897MPD2    N113152   3.506   4.528  10.121  0.1451  0.4794 -0.4004
  897MPD2    H713153   3.581   4.507  10.056 -0.2093  0.9238 -0.9539
  898MPD2     C13154   0.409   2.181  17.547  0.0032 -0.9959 -0.0331
  898MPD2    C113155   0.546   2.171  17.511  0.5327  0.2668  0.0935
  898MPD2    C213156   0.598   2.242  17.404  0.2877 -0.2008 -0.1160
  898MPD2    C313157   0.512   2.331  17.337 -0.5855  0.0393  0.2443
  898MPD2    C413158   0.379   2.342  17.376  0.4633 -0.0658  0.2602
  898MPD2    C513159   0.328   2.269  17.482 -0.2996  0.0929  0.0294
  898MPD2     H13160   0.698   2.225  17.367 -0.3240 -1.1177 -1.3388
  898MPD2    H113161   0.311   2.403  17.318 -0.0120  0.3362  1.2438
  898MPD2    H213162   0.374   2.147  17.644 -0.4665  1.4828  0.6653
  898MPD2    H313163   0.232   2.293  17.526  1.2455  1.9589  2.3985
  898MPD2     N13164   0.567   2.397  17.230 -0.0144 -0.1348 -0.6421
  898MPD2    H513165   0.666   2.383  17.212  0.0633  2.5155 -2.3215
  898MPD2    N113166   0.640   2.092  17.587 -0.0516 -0.0791  0.0314
  898MPD2    H713167   0.737   2.106  17.562 -0.0874  0.3773  0.1495
  899MPD2     C13168   1.413   2.698  17.254 -0.2624  0.4028 -0.5892
  899MPD2    C113169   1.470   2.724  17.376 -0.2604  0.2920  0.3099
  899MPD2    C213170   1.404   2.685  17.490  0.2531  0.2405 -0.0031
  899MPD2    C313171   1.296   2.600  17.484  0.9569 -0.2904  0.6038
  899MPD2    C413172   1.243   2.571  17.359  0.2048  0.3784  0.9008
  899MPD2    C513173   1.299   2.623  17.242 -0.3095 -0.1881  0.0163
  899MPD2     H13174   1.430   2.729  17.586 -1.4769 -0.9593  1.0169
  899MPD2    H113175   1.147   2.521  17.355 -0.6990  2.0507  1.5568
  899MPD2    H213176   1.454   2.723  17.156 -1.6363  2.3587 -0.6650
  899MPD2    H313177   1.257   2.601  17.145 -0.6113  0.3550  0.0282
  899MPD2     N13178   1.219   2.572  17.598 -0.5612  0.4961 -0.6739
  899MPD2    H513179   1.131   2.523  17.586  1.4829 -3.0911 -0.8958
  899MPD2    N113180   1.590   2.786  17.368 -0.3466  0.0350  0.4742
  899MPD2    H713181   1.619   2.813  17.274 -2.2287 -1.3811 -0.4954
  900MPD2     C13182   1.133   3.787  12.364  0.3207  0.1296 -0.0072
  900MPD2    C113183   1.126   3.753  12.236  0.3378 -0.0569  0.1817
  900MPD2    C213184   1.038   3.818  12.145  0.3567 -0.1936  0.3054
  900MPD2    C313185   0.950   3.905  12.198 -0.1797  0.1927 -0.3789
  900MPD2    C413186   0.959   3.939  12.333 -0.3111 -0.2869 -0.0027
  900MPD2    C513187   1.046   3.876  12.418 -0.0777 -0.1292  0.2330
  900MPD2     H13188   1.040   3.794  12.040 -0.8065 -0.5942  0.3700
  900MPD2    H113189   0.898   4.019  12.374  0.0063  1.5754 -3.1731
  900MPD2    H213190   1.203   3.732  12.426 -2.0760 -0.6432  2.0040
  900MPD2    H313191   1.048   3.888  12.526  1.5416 -2.3036  0.4576
  900MPD2     N13192   0.867   3.966  12.104  0.6150 -0.1642 -0.2033
  900MPD2    H513193   0.870   3.928  12.010  1.2777 -0.5658 -0.0287
  900MPD2    N113194   1.212   3.656  12.191  0.3337 -0.4892 -0.5722
  900MPD2    H713195   1.266   3.612  12.265 -2.0091 -1.0541  0.8107
  901MPD2     C13196   1.037   2.628  11.892  0.6147  0.1446  0.4866
  901MPD2    C113197   1.151   2.638  11.978 -0.9290  0.4727  0.2269
  901MPD2    C213198   1.192   2.762  12.018  0.7463  0.0527 -0.4106
  901MPD2    C313199   1.116   2.871  11.999  0.6670  0.2458  0.1462
  901MPD2    C413200   0.997   2.866  11.926  0.0841  0.7307  0.1376
  901MPD2    C513201   0.956   2.738  11.880 -0.2324 -0.0698 -0.4476
  901MPD2     H13202   1.273   2.767  12.090 -0.1735  3.0872  0.4271
  901MPD2    H113203   0.929   2.947  11.902  0.1810  0.5720 -0.6904
  901MPD2    H213204   0.997   2.532  11.861  1.5410 -0.0438 -0.1444
  901MPD2    H313205   0.863   2.731  11.825 -0.6054 -1.0286  0.2904
  901MPD2     N13206   1.176   2.990  12.043 -0.1249  0.5367  0.4284
  901MPD2    H513207   1.273   2.978  12.071 -0.4431 -2.8632 -0.0016
  901MPD2    N113208   1.218   2.519  12.001  0.0116  0.5158 -0.1634
  901MPD2    H713209   1.184   2.440  11.947 -0.7055  1.0508 -0.4991
  902MPD2     C13210   4.272   1.602  12.965  0.1993  0.0205  0.5321
  902MPD2    C113211   4.359   1.697  13.009 -0.6114  0.2574  0.4604
  902MPD2    C213212   4.475   1.729  12.935 -0.0450 -0.0020 -0.1218
  902MPD2    C313213   4.481   1.679  12.809 -0.6924  0.1767 -0.3997
  902MPD2    C413214   4.392   1.579  12.768  0.0453 -0.1064  0.0474
  902MPD2    C513215   4.289   1.536  12.849  0.3561  0.0534 -0.5372
  902MPD2     H13216   4.551   1.800  12.968 -1.2512  1.8510 -1.3168
  902MPD2    H113217   4.392   1.538  12.667  1.1466  0.5520 -0.2242
  902MPD2    H213218   4.194   1.563  13.029 -1.1666  2.4439  0.3516
  902MPD2    H313219   4.222   1.460  12.811 -1.7915  0.6726  2.0207
  902MPD2     N13220   4.556   1.731  12.709 -0.3036 -0.0465 -0.3082
  902MPD2    H513221   4.549   1.698  12.613 -0.7995 -0.7994 -0.0164
  902MPD2    N113222   4.325   1.768  13.132  0.4967  0.4247 -0.1932
  902MPD2    H713223   4.253   1.723  13.188 -0.7208  0.6864 -1.5550
  903MPD2     C13224   0.026   1.838  11.897  0.5673  0.5448  0.1305
  903MPD2    C113225   4.698   1.769  12.003 -0.9895 -0.0396 -0.0555
  903MPD2    C213226   4.600   1.676  11.987 -0.6792  0.1465  0.4206
  903MPD2    C313227   4.560   1.645  11.858 -0.6593 -0.5777  0.1107
  903MPD2    C413228   4.618   1.707  11.748  0.0402  0.3589 -0.3250
  903MPD2    C513229   4.703   1.817  11.773  0.1037  0.1342  0.1202
  903MPD2     H13230   4.550   1.613  12.060  0.2424 -0.0920  0.8370
  903MPD2    H113231   4.589   1.684  11.646  1.1806 -0.0825 -0.5552
  903MPD2    H213232   0.082   1.931  11.899 -0.6249  1.2492  0.7236
  903MPD2    H313233   0.028   1.880  11.698  0.1838  1.9765  1.7082
  903MPD2     N13234   4.462   1.545  11.848  0.4474 -0.1140  0.2738
  903MPD2    H513235   4.434   1.515  11.942  2.0437 -0.0525  0.7707
  903MPD2    N113236   0.017   1.808  12.129  0.4460 -0.1322  0.3506
  903MPD2    H713237   0.069   1.895  12.139  0.4283 -0.0176 -0.5846
  904MPD2     C13238   0.133   1.007  13.555  0.1937 -0.6086 -0.2695
  904MPD2    C113239   0.097   0.878  13.599  0.1624 -0.2438 -0.2971
  904MPD2    C213240   0.192   0.797  13.655 -0.4081 -0.0936  0.4035
  904MPD2    C313241   0.315   0.841  13.675 -0.5495  0.4090 -0.1177
  904MPD2    C413242   0.349   0.976  13.652 -0.4932 -0.3244 -0.2323
  904MPD2    C513243   0.255   1.053  13.583 -0.6194  0.2593  0.0961
  904MPD2     H13244   0.164   0.695  13.678 -2.1939  0.5462  1.1033
  904MPD2    H113245   0.436   1.019  13.698 -2.0493  0.2214  2.2060
  904MPD2    H213246   0.067   1.080  13.510  0.0046  0.1477  1.2266
  904MPD2    H313247   0.283   1.152  13.550 -0.8728  0.2191 -0.2423
  904MPD2     N13248   0.406   0.749  13.738  0.3697  0.2901  0.7432
  904MPD2    H513249   0.370   0.658  13.767 -2.0652  2.0026  3.0919
  904MPD2    N113250   4.682   0.840  13.582 -0.1263  0.0569  0.3031
  904MPD2    H713251   4.625   0.895  13.519 -0.5833 -0.3321  0.3728
  905MPD2     C13252   4.649   1.240  13.344 -0.2801  0.0531  0.0668
  905MPD2    C113253   4.630   1.112  13.290  0.0289 -1.0918  0.5254
  905MPD2    C213254   0.006   1.059  13.208  0.2461  0.4531 -0.3485
  905MPD2    C313255   0.123   1.126  13.178 -0.5398 -0.3739 -0.4897
  905MPD2    C413256   0.140   1.252  13.227 -0.2827  0.2062  0.5433
  905MPD2    C513257   0.048   1.306  13.315  0.1662 -0.2547 -0.4768
  905MPD2     H13258   4.717   0.954  13.184  2.2193 -0.0036  0.8405
  905MPD2    H113259   0.229   1.312  13.209  0.8024 -1.9432 -1.2616
  905MPD2    H213260   4.581   1.279  13.419  1.2807  0.7999  1.0940
  905MPD2    H313261   0.070   1.405  13.354  0.7357 -1.1193  1.3950
  905MPD2     N13262   0.241   1.063  13.123  0.2658 -0.0510  0.5112
  905MPD2    H513263   0.319   1.126  13.106 -0.9298  1.4460  0.5840
  905MPD2    N113264   4.524   1.038  13.343  0.0055  0.2581 -0.2188
  905MPD2    H713265   4.481   1.101  13.410  1.0695  0.7457  0.0026
  906MPD2     C13266   2.180   0.423  11.601 -0.6090 -0.5147 -0.8117
  906MPD2    C113267   2.129   0.316  11.530 -0.0238  0.0805  0.3779
  906MPD2    C213268   2.043   0.231  11.588  0.1136  0.2281  0.4812
  906MPD2    C313269   2.008   0.244  11.722 -0.0664 -0.3277 -0.0660
  906MPD2    C413270   2.049   0.355  11.790  0.3663  0.1535 -0.1158
  906MPD2    C513271   2.133   0.445  11.729  0.0788 -0.2506  0.2790
  906MPD2     H13272   1.995   0.147  11.538 -0.3565 -0.6518  2.3884
  906MPD2    H113273   2.012   0.373  11.890  2.0607  0.9721  0.3625
  906MPD2    H213274   2.237   0.501  11.553  0.8656 -0.0265  1.7192
  906MPD2    H313275   2.169   0.531  11.785  0.0017  0.0050 -0.0609
  906MPD2     N13276   1.926   0.144  11.774 -0.0284 -0.5686  0.8548
  906MPD2    H513277   1.896   0.076  11.705 -0.4012 -0.4452  0.8988
  906MPD2    N113278   2.160   0.293  11.396  0.3983  0.3884 -0.0916
  906MPD2    H713279   2.113   0.216  11.350  1.0803  0.2052 -0.4877
  907MPD2     C13280   1.057   0.112  15.628  0.5117  0.8109  0.6888
  907MPD2    C113281   1.181   0.065  15.602 -0.2495  0.4506 -0.1069
  907MPD2    C213282   1.274   0.057  15.703 -0.0033 -0.1800  0.6757
  907MPD2    C313283   1.249   0.092  15.836  0.1183 -0.4599  0.1584
  907MPD2    C413284   1.117   0.133  15.857 -0.0237  0.3034  0.5191
  907MPD2    C513285   1.025   0.148  15.756  0.3912 -0.1270  0.0492
  907MPD2     H13286   1.375   0.025  15.680 -0.2570  0.6197 -1.5601
  907MPD2    H113287   1.080   0.153  15.957 -0.0636 -0.9741  0.7567
  907MPD2    H213288   0.976   0.109  15.556  0.4705  3.4349  0.6451
  907MPD2    H313289   0.924   0.172  15.787  0.1869 -0.4256 -0.3795
  907MPD2     N13290   1.347   0.080  15.936  0.1328  0.6926 -1.0540
  907MPD2    H513291   1.421   0.015  15.912 -0.5005 -0.5036  0.2762
  907MPD2    N113292   1.220   0.002  15.477  0.1191 -0.3062  0.2296
  907MPD2    H713293   1.302   4.664  15.480  1.0236  0.8350 -2.9270
  908MPD2     C13294   3.723   4.331   9.277  0.0386  0.2272  0.4743
  908MPD2    C113295   3.640   4.267   9.370 -0.3838 -0.5230  0.0956
  908MPD2    C213296   3.593   4.341   9.478 -0.6132 -0.4459 -0.7853
  908MPD2    C313297   3.627   4.472   9.501 -0.2463 -0.6751  0.3120
  908MPD2    C413298   3.704   4.527   9.405  0.1622  0.5751  0.3044
  908MPD2    C513299   3.752   4.465   9.292  0.3266  0.4916 -0.6039
  908MPD2     H13300   3.525   4.295   9.550  0.2280  1.8007  1.4400
  908MPD2    H113301   3.736   4.630   9.415  1.6971  0.0214  1.2226
  908MPD2    H213302   3.752   4.281   9.186  0.2733  0.0164  0.6680
  908MPD2    H313303   3.812   4.518   9.219  0.7222 -0.0446 -0.6704
  908MPD2     N13304   3.579   4.549   9.614 -0.2908 -0.6206 -0.6888
  908MPD2    H513305   3.534   4.496   9.688  0.0056 -0.6128 -0.4997
  908MPD2    N113306   3.612   4.132   9.343 -0.5329  0.3153  0.1013
  908MPD2    H713307   3.644   4.092   9.256 -1.7203 -0.0052 -0.1955
  909MPD2     C13308   3.887   2.759  12.096 -0.0820 -0.2965 -0.2800
  909MPD2    C113309   3.855   2.848  11.998 -0.4122 -0.5498 -0.0416
  909MPD2    C213310   3.772   2.953  12.036  0.1076  0.6117  0.8562
  909MPD2    C313311   3.715   2.959  12.162  0.7034  0.5635 -0.5003
  909MPD2    C413312   3.747   2.860  12.251 -0.4331 -0.1368 -0.4630
  909MPD2    C513313   3.838   2.768  12.220  0.5149 -0.0856 -0.1937
  909MPD2     H13314   3.735   3.023  11.962  0.3798 -0.6065 -0.4310
  909MPD2    H113315   3.719   2.876  12.354  1.6638  1.2711 -0.0907
  909MPD2    H213316   3.965   2.686  12.075 -1.0483 -1.6976  0.9765
  909MPD2    H313317   3.885   2.714  12.302  1.0314 -1.1160 -1.1791
  909MPD2     N13318   3.628   3.070  12.191  0.1917 -0.1808  0.1120
  909MPD2    H513319   3.610   3.135  12.115 -0.3560 -1.1359 -0.5724
  909MPD2    N113320   3.908   2.851  11.867  0.2939  0.4284 -0.3594
  909MPD2    H713321   3.870   2.933  11.821 -3.3254 -0.1845  1.5340
  910MPD2     C13322   0.014   0.223  15.875  0.0445  0.0615  1.1364
  910MPD2    C113323   0.113   0.188  15.789 -0.5713  0.2870  0.6477
  910MPD2    C213324   0.089   0.209  15.652  0.7308 -0.2450 -0.1316
  910MPD2    C313325   4.690   0.255  15.605 -0.2603  0.1385  0.9107
  910MPD2    C413326   4.591   0.280  15.696 -0.6220 -0.0967  0.7274
  910MPD2    C513327   4.612   0.273  15.832  0.0350 -0.2828  0.5851
  910MPD2     H13328   0.170   0.190  15.583  0.1706  1.4646 -1.2538
  910MPD2    H113329   4.487   0.297  15.669  0.3714  0.4335 -2.7013
  910MPD2    H213330   0.034   0.214  15.981 -1.1512 -0.8588  1.2856
  910MPD2    H313331   4.531   0.289  15.903 -0.8560 -2.4575  0.0460
  910MPD2     N13332   4.662   0.284  15.468  0.5961  0.2076  0.5807
  910MPD2    H513333   4.568   0.307  15.440  0.4163 -1.1557  0.0555
  910MPD2    N113334   0.242   0.137  15.830 -0.3606 -0.1140  0.2390
  910MPD2    H713335   0.301   0.098  15.757 -0.9310  1.5989 -1.1595
  911MPD2     C13336   3.117   1.593  16.118 -0.1849  0.1248 -0.4363
  911MPD2    C113337   3.137   1.486  16.035  0.0294 -0.3109 -0.4785
  911MPD2    C213338   3.096   1.499  15.906  0.3982  0.6133  0.5847
  911MPD2    C313339   3.033   1.617  15.863 -0.6149 -0.5080  0.0484
  911MPD2    C413340   3.006   1.720  15.955 -0.0875 -0.0654  1.3462
  911MPD2    C513341   3.060   1.711  16.081  0.2604  0.1310  0.2355
  911MPD2     H13342   3.111   1.424  15.830 -1.4733  2.4708 -1.6155
  911MPD2    H113343   2.964   1.813  15.922  4.7704  1.2016 -1.2416
  911MPD2    H213344   3.162   1.582  16.216 -2.4513 -0.7153  0.5123
  911MPD2    H313345   3.041   1.794  16.147 -2.6286 -1.7166  1.7769
  911MPD2     N13346   2.978   1.642  15.732 -0.5363  0.0082 -0.1577
  911MPD2    H513347   2.905   1.712  15.736 -0.7890 -0.2673  0.0221
  911MPD2    N113348   3.209   1.374  16.078 -0.0736 -0.4634  0.3179
  911MPD2    H713349   3.243   1.383  16.174  0.1465 -1.8721  0.3680
  912MPD2     C13350   2.372   1.169  15.462 -0.4120 -0.3468 -0.8622
  912MPD2    C113351   2.491   1.205  15.518  0.5492  0.3320 -0.2847
  912MPD2    C213352   2.557   1.131  15.613 -0.9185 -0.1333  0.8977
  912MPD2    C313353   2.488   1.017  15.661 -0.0509  0.1475 -0.0149
  912MPD2    C413354   2.367   0.983  15.612 -0.6377 -0.4896 -0.5107
  912MPD2    C513355   2.312   1.053  15.504  0.6936 -0.2424  0.3038
  912MPD2     H13356   2.642   1.167  15.670 -0.6545  0.4441  0.1341
  912MPD2    H113357   2.323   0.891  15.651  1.2909 -1.6870 -1.1583
  912MPD2    H213358   2.309   1.224  15.393  0.2008 -0.0811 -1.2194
  912MPD2    H313359   2.209   1.034  15.475  0.2146  2.0710  0.5243
  912MPD2     N13360   2.540   0.962  15.785  0.0591  0.4555 -0.0628
  912MPD2    H513361   2.629   0.999  15.816  0.7001 -2.0082  0.9462
  912MPD2    N113362   2.526   1.335  15.485 -0.0460 -0.3154  0.4126
  912MPD2    H713363   2.494   1.383  15.402 -1.8003 -1.8266  0.1991
  913MPD2     C13364   4.008   2.157  10.304 -0.8073 -0.5672 -0.1554
  913MPD2    C113365   3.910   2.227  10.372 -0.1136  0.8069  0.9835
  913MPD2    C213366   3.874   2.352  10.321  0.1289 -0.2810  0.2714
  913MPD2    C313367   3.927   2.400  10.200  0.2137  0.4695 -0.5436
  913MPD2    C413368   4.017   2.322  10.136  0.3450 -0.0703  0.1260
  913MPD2    C513369   4.060   2.202  10.185  0.0185 -0.2018 -0.1178
  913MPD2     H13370   3.815   2.420  10.382 -1.2682 -3.2366  2.2009
  913MPD2    H113371   4.077   2.360  10.054 -0.8612 -1.0766 -1.2435
  913MPD2    H213372   4.059   2.073  10.352 -0.4833 -0.0579  0.3979
  913MPD2    H313373   4.131   2.141  10.130 -1.4650  0.0635 -2.3238
  913MPD2     N13374   3.884   2.523  10.137  0.2212  0.2939 -0.3744
  913MPD2    H513375   3.929   2.558  10.054  0.0484 -3.1138 -1.9193
  913MPD2    N113376   3.855   2.167  10.486  0.2985  0.1589 -0.0247
  913MPD2    H713377   3.879   2.069  10.497  0.9074  0.4043  0.8479
  914MPD2     C13378   1.399   2.200  11.292 -0.0428  0.7315  0.3775
  914MPD2    C113379   1.280   2.230  11.348 -0.2718 -0.2916 -0.3755
  914MPD2    C213380   1.278   2.225  11.484  0.2588 -0.7283 -0.3896
  914MPD2    C313381   1.388   2.180  11.561  0.4812 -0.0535  0.2621
  914MPD2    C413382   1.507   2.152  11.502  0.9369  0.1107  0.1583
  914MPD2    C513383   1.511   2.164  11.369 -0.2725  0.6113  0.7414
  914MPD2     H13384   1.189   2.249  11.541 -0.2822  0.1246 -1.5903
  914MPD2    H113385   1.589   2.108  11.557  0.5975 -0.3359  0.3097
  914MPD2    H213386   1.404   2.202  11.184 -1.6419 -1.0902  0.2810
  914MPD2    H313387   1.602   2.138  11.316 -0.6007  1.0346 -0.0397
  914MPD2     N13388   1.372   2.182  11.698 -0.1426  0.6211  0.3448
  914MPD2    H513389   1.282   2.213  11.734 -1.6183 -2.8196 -0.4179
  914MPD2    N113390   1.178   2.282  11.266 -0.0191  0.5838 -0.6184
  914MPD2    H713391   1.205   2.278  11.169  0.1448 -2.2435 -0.4501
  915MPD2     C13392   4.405   2.554  15.996 -0.5605  0.3097 -0.2864
  915MPD2    C113393   4.291   2.581  15.923 -0.3882  0.5655 -0.5054
  915MPD2    C213394   4.184   2.644  15.989 -0.7344 -0.4445 -0.3489
  915MPD2    C313395   4.189   2.665  16.124  0.6133 -0.2300 -0.8807
  915MPD2    C413396   4.296   2.625  16.200  0.2095 -0.7842 -0.2150
  915MPD2    C513397   4.409   2.581  16.133  0.3609 -0.0982  0.3692
  915MPD2     H13398   4.091   2.662  15.936 -0.5880  3.2776  0.6402
  915MPD2    H113399   4.305   2.645  16.306  2.2658  1.3423 -0.7921
  915MPD2    H213400   4.491   2.512  15.946 -1.1042  1.7177 -2.4433
  915MPD2    H313401   4.501   2.560  16.185  0.9305  2.7166  0.5092
  915MPD2     N13402   4.084   2.736  16.189  0.2993 -1.1054  0.0817
  915MPD2    H513403   4.018   2.789  16.133  0.6988  0.5378  1.1561
  915MPD2    N113404   4.286   2.535  15.788  0.1763  0.5854  0.0229
  915MPD2    H713405   4.362   2.477  15.753  0.6874  1.6108 -0.5696
  916MPD2     C13406   2.027   0.803  15.625 -0.3900 -0.1614  0.0504
  916MPD2    C113407   2.042   0.686  15.695 -0.0098 -0.2719 -0.0666
  916MPD2    C213408   2.039   0.564  15.625 -0.6848  0.0556  0.9922
  916MPD2    C313409   2.024   0.559  15.488 -0.4908  0.2689 -0.4567
  916MPD2    C413410   2.013   0.678  15.419 -0.1141 -0.9502  0.7627
  916MPD2    C513411   2.019   0.795  15.490 -0.1878  0.0116  0.6572
  916MPD2     H13412   2.054   0.475  15.684  1.3045  0.8686  1.7253
  916MPD2    H113413   1.994   0.684  15.312  3.7427  0.8377  0.1775
  916MPD2    H213414   2.039   0.896  15.680 -1.0433 -0.4878  0.7383
  916MPD2    H313415   2.018   0.886  15.431  2.3208  0.1636  0.8516
  916MPD2     N13416   2.032   0.429  15.435 -0.1255  0.5301  0.5767
  916MPD2    H513417   2.045   0.350  15.497 -0.6303 -0.1956 -0.2302
  916MPD2    N113418   2.049   0.699  15.838 -0.2267  0.3106  0.2625
  916MPD2    H713419   2.048   0.793  15.875 -0.6134  0.6256 -0.5447
  917MPD2     C13420   2.892   2.572  10.946  0.0550 -0.2558  0.1261
  917MPD2    C113421   2.838   2.690  10.994  0.3795 -0.3160 -0.4376
  917MPD2    C213422   2.882   2.808  10.939  0.0691 -0.3351  0.4195
  917MPD2    C313423   2.967   2.823  10.837 -0.5525 -0.3503  0.0761
  917MPD2    C413424   3.022   2.702  10.792 -0.2644  0.0663 -0.6337
  917MPD2    C513425   2.989   2.583  10.855 -0.5075  0.3768 -0.1195
  917MPD2     H13426   2.848   2.901  10.982  1.9336  1.5937 -2.3285
  917MPD2    H113427   3.105   2.691  10.723 -0.4868 -2.9441 -0.4484
  917MPD2    H213428   2.873   2.472  10.983  1.0851 -0.0079  1.3428
  917MPD2    H313429   3.028   2.487  10.824 -0.7603 -0.1626  1.2693
  917MPD2     N13430   3.008   2.946  10.776  0.2868 -0.2896 -0.0863
  917MPD2    H513431   3.069   2.935  10.695 -1.1831  1.5021 -1.4550
  917MPD2    N113432   2.749   2.678  11.102  0.2733  0.0215  0.8175
  917MPD2    H713433   2.728   2.584  11.136  1.0103 -0.4532 -0.0561
  918MPD2     C13434   2.728   3.131  11.960  0.2552  0.2875  0.7146
  918MPD2    C113435   2.822   3.056  11.893  0.8046  0.7799  0.6516
  918MPD2    C213436   2.784   2.991  11.775 -0.5659 -0.2466 -1.2472
  918MPD2    C313437   2.653   2.995  11.731 -0.3437 -0.1072 -0.3799
  918MPD2    C413438   2.566   3.079  11.794  0.3159 -0.0135 -0.3169
  918MPD2    C513439   2.600   3.142  11.919  0.6277  0.0876 -0.0158
  918MPD2     H13440   2.855   2.925  11.726  0.0142  0.3814 -1.2401
  918MPD2    H113441   2.467   3.107  11.759 -0.3143  0.3946  1.7383
  918MPD2    H213442   2.749   3.190  12.047 -1.4487  0.8889  0.7168
  918MPD2    H313443   2.530   3.212  11.962  0.7992  1.6679 -2.2972
  918MPD2     N13444   2.617   2.931  11.612 -0.3767  0.6702  0.1729
  918MPD2    H513445   2.692   2.889  11.559 -0.5861  0.5305 -0.0116
  918MPD2    N113446   2.955   3.026  11.934 -0.1347  0.8089 -0.2917
  918MPD2    H713447   3.014   2.973  11.870 -0.2888 -1.0742  1.1225
  919MPD2     C13448   3.069   1.455  11.223  0.1431 -0.5336 -0.1085
  919MPD2    C113449   2.997   1.353  11.167 -0.1758  0.1725  0.1416
  919MPD2    C213450   3.042   1.288  11.052  0.5634 -0.1984 -0.3041
  919MPD2    C313451   3.169   1.304  11.003  0.5493 -0.2970 -0.5002
  919MPD2    C413452   3.240   1.410  11.056  0.3154 -0.3473  0.0545
  919MPD2    C513453   3.185   1.491  11.159  0.3093 -0.1002  0.5438
  919MPD2     H13454   2.981   1.208  11.013 -0.5426  0.8008 -0.6361
  919MPD2    H113455   3.338   1.433  11.016  1.1068  0.4127  2.4382
  919MPD2    H213456   3.041   1.515  11.308  1.5911  1.1122 -0.7788
  919MPD2    H313457   3.244   1.572  11.200 -1.9804  2.2853 -0.8714
  919MPD2     N13458   3.220   1.223  10.891 -0.3718  0.4049  0.0554
  919MPD2    H513459   3.297   1.259  10.834 -1.5505 -0.3789 -2.0307
  919MPD2    N113460   2.872   1.320  11.221  0.2528 -0.1129 -0.4532
  919MPD2    H713461   2.815   1.254  11.168 -1.4202  0.7546  0.2747
  920MPD2     C13462   3.323   1.709  10.133  0.1176  0.0244 -0.6490
  920MPD2    C113463   3.210   1.639  10.092  0.3405 -0.1478 -0.1642
  920MPD2    C213464   3.193   1.509  10.143 -0.2125  0.7926  0.1301
  920MPD2    C313465   3.279   1.461  10.240 -0.6503  0.0388 -0.2518
  920MPD2    C413466   3.392   1.535  10.272 -0.2711 -0.2226 -0.5142
  920MPD2    C513467   3.414   1.654  10.218  0.1619  0.2835 -0.0643
  920MPD2     H13468   3.101   1.454  10.125  0.4113 -0.2646  0.1993
  920MPD2    H113469   3.471   1.492  10.332 -0.8337 -2.9810 -1.7561
  920MPD2    H213470   3.345   1.813  10.111  0.4896  0.3501  1.2317
  920MPD2    H313471   3.502   1.706  10.253  1.4978 -1.6106 -0.6308
  920MPD2     N13472   3.244   1.342  10.298  0.4101  0.2897 -0.0250
  920MPD2    H513473   3.179   1.289  10.241  0.7614  1.7254 -1.7535
  920MPD2    N113474   3.101   1.690  10.020  0.1106 -0.4181  0.2099
  920MPD2    H713475   3.025   1.629   9.991  1.0161 -1.7573  0.6356
  921MPD2     C13476   3.872   1.265  16.627 -0.0735 -0.7429 -0.9949
  921MPD2    C113477   3.836   1.133  16.594  0.0709 -0.2806  0.3408
  921MPD2    C213478   3.711   1.118  16.536 -0.4006  0.1581 -0.4603
  921MPD2    C313479   3.628   1.229  16.514  0.5715  0.3505  0.0709
  921MPD2    C413480   3.662   1.354  16.553 -0.1501 -0.6178  0.2550
  921MPD2    C513481   3.788   1.370  16.602  0.0732 -0.0547 -0.0406
  921MPD2     H13482   3.679   1.020  16.501  1.7025 -0.4618 -0.6110
  921MPD2    H113483   3.606   1.445  16.530  3.3950  0.9906 -1.9984
  921MPD2    H213484   3.964   1.286  16.680  0.9297  2.8290 -4.1184
  921MPD2    H313485   3.827   1.470  16.620 -0.4867 -0.4470  3.1937
  921MPD2     N13486   3.502   1.209  16.440 -0.3311  0.0538 -0.0601
  921MPD2    H513487   3.464   1.288  16.390 -0.6864  0.4980  0.9073
  921MPD2    N113488   3.925   1.029  16.626 -0.0850 -0.5887  0.2489
  921MPD2    H713489   3.998   1.064  16.687 -0.3171  1.5178 -0.6951
  922MPD2     C13490   0.227   4.155   0.901 -0.1023  0.0641 -0.1736
  922MPD2    C113491   0.197   4.089   0.782  0.3260 -0.5575 -0.1188
  922MPD2    C213492   0.072   4.039   0.754  0.4921 -0.2780  1.2677
  922MPD2    C313493   4.687   4.094   0.827 -0.5434 -0.7198  0.6956
  922MPD2    C413494   4.714   4.173   0.935 -0.0559 -0.5935  1.2031
  922MPD2    C513495   0.125   4.188   0.982 -0.7017  0.2233 -0.3051
  922MPD2     H13496   0.056   3.976   0.668  4.0517  1.3490 -0.5781
  922MPD2    H113497   4.636   4.207   1.002 -0.7139 -1.4489  0.8725
  922MPD2    H213498   0.328   4.186   0.928 -0.3105  0.9025 -0.3721
  922MPD2    H313499   0.143   4.242   1.075  1.5718 -0.0040 -0.6171
  922MPD2     N13500   4.553   4.070   0.782 -0.0567  0.6548  0.0885
  922MPD2    H513501   4.539   3.993   0.717  1.6858 -0.3165  0.8907
  922MPD2    N113502   0.288   4.078   0.678 -0.2298 -0.0233 -0.5020
  922MPD2    H713503   0.245   4.024   0.604  0.9845 -2.8504  0.8545
  923MPD2     C13504   0.695   0.752   9.474 -0.2936  0.0125  0.2617
  923MPD2    C113505   0.687   0.887   9.492 -0.1062 -0.4568  0.2648
  923MPD2    C213506   0.753   0.950   9.598  0.9485 -0.4120 -0.3053
  923MPD2    C313507   0.821   0.868   9.691  0.3085  0.2420  0.3594
  923MPD2    C413508   0.827   0.726   9.665  0.0805 -0.1569 -1.3646
  923MPD2    C513509   0.765   0.675   9.557 -0.2316  0.3488 -0.4354
  923MPD2     H13510   0.750   1.057   9.612 -2.4873 -0.2949 -2.2425
  923MPD2    H113511   0.851   0.654   9.743 -2.0870 -0.5115 -1.0114
  923MPD2    H213512   0.652   0.698   9.390  0.9427 -2.9820  1.5567
  923MPD2    H313513   0.759   0.567   9.554  0.6020  0.2579  1.2431
  923MPD2     N13514   0.874   0.914   9.810  0.7473 -0.2779 -0.3410
  923MPD2    H513515   0.912   0.843   9.872 -0.9119  0.8750  1.9837
  923MPD2    N113516   0.599   0.966   9.419 -0.6401 -0.2739 -0.9976
  923MPD2    H713517   0.606   1.065   9.441 -0.9724 -0.7705  1.3356
  924MPD2     C13518   2.001   4.203  16.067 -0.2188 -1.1768  0.6481
  924MPD2    C113519   1.898   4.216  15.971  0.3872 -0.2773  0.3879
  924MPD2    C213520   1.830   4.336  15.966 -0.2632  0.4214  0.7930
  924MPD2    C313521   1.858   4.430  16.066  0.2738  0.4245 -0.1838
  924MPD2    C413522   1.978   4.423  16.144 -0.3868  0.0657 -0.2460
  924MPD2    C513523   2.036   4.306  16.141 -0.2650 -0.2712 -0.5203
  924MPD2     H13524   1.749   4.358  15.898 -0.8233 -2.2717  0.6271
  924MPD2    H113525   2.021   4.494  16.213 -1.1625  0.8215 -0.5314
  924MPD2    H213526   2.052   4.108  16.075  1.9581 -0.1315 -1.1003
  924MPD2    H313527   2.114   4.297  16.215 -0.8997  2.2430  0.4276
  924MPD2     N13528   1.767   4.542  16.081 -0.0621  0.1960 -0.3920
  924MPD2    H513529   1.686   4.553  16.021 -0.7545 -0.3257  0.4563
  924MPD2    N113530   1.870   4.107  15.886  0.2008 -0.0432  0.6308
  924MPD2    H713531   1.952   4.049  15.873  0.4471  0.7798 -1.5158
  925MPD2     C13532   0.382   1.312  14.473  0.1975 -0.2594  0.0661
  925MPD2    C113533   0.251   1.321  14.437  0.1623  0.1200  0.1133
  925MPD2    C213534   0.157   1.264  14.524  0.1186  0.0013  0.4760
  925MPD2    C313535   0.187   1.211  14.647  0.3014 -0.1014  0.2566
  925MPD2    C413536   0.317   1.215  14.682  0.9596  0.0815 -0.1476
  925MPD2    C513537   0.407   1.259  14.589  0.2863 -0.2000 -0.6839
  925MPD2     H13538   0.056   1.247  14.487  1.1516 -1.2040 -1.7789
  925MPD2    H113539   0.342   1.167  14.775  0.5805  1.2276  0.5513
  925MPD2    H213540   0.465   1.364  14.425  0.7271 -1.7632 -0.6435
  925MPD2    H313541   0.508   1.234  14.620  0.4818  0.7518 -0.5587
  925MPD2     N13542   0.100   1.149  14.735  0.5149 -0.0863  0.5162
  925MPD2    H513543   0.141   1.117  14.822 -1.6709  0.6432  1.8043
  925MPD2    N113544   0.197   1.388  14.328  0.5623  0.6661 -0.3165
  925MPD2    H713545   0.097   1.380  14.314  0.4081 -2.2764  2.3900
  926MPD2     C13546   3.934   0.143  13.101 -0.4290  0.5686 -0.5478
  926MPD2    C113547   3.826   0.207  13.058  0.1576 -0.1691  0.7845
  926MPD2    C213548   3.844   0.311  12.968 -0.5494  0.3410  0.6857
  926MPD2    C313549   3.968   0.345  12.920  0.0865 -0.2357 -0.0842
  926MPD2    C413550   4.078   0.285  12.965 -0.4109 -0.5742  0.0323
  926MPD2    C513551   4.057   0.180  13.049  0.5130 -0.0616  0.2656
  926MPD2     H13552   3.757   0.355  12.920  0.1654  1.4244  0.3798
  926MPD2    H113553   4.175   0.328  12.944  0.0800 -0.6172  2.2484
  926MPD2    H213554   3.933   0.057  13.167  2.0144  0.2514 -0.9355
  926MPD2    H313555   4.140   0.119  13.083 -0.6644 -1.6556  0.2809
  926MPD2     N13556   3.988   0.451  12.828 -0.5527 -0.1470  0.1069
  926MPD2    H513557   4.080   0.468  12.790  0.6374 -3.5916  1.4070
  926MPD2    N113558   3.693   0.174  13.091 -0.2083 -0.5168 -0.0168
  926MPD2    H713559   3.623   0.244  13.069 -1.1447 -1.1026  1.0467
  927MPD2     C13560   2.723   2.813   0.306 -0.3689  0.0750 -0.9348
  927MPD2    C113561   2.699   2.675   0.321  0.7652  0.0538 -0.1081
  927MPD2    C213562   2.757   2.585   0.236 -0.4895  0.1334  0.3984
  927MPD2    C313563   2.829   2.632   0.130 -0.0015  0.4902 -0.3807
  927MPD2    C413564   2.844   2.766   0.112 -0.2825 -0.0530 -0.5330
  927MPD2    C513565   2.793   2.854   0.197  0.2054 -0.1576 -0.6508
  927MPD2     H13566   2.743   2.478   0.248  1.7309 -0.3290 -1.1967
  927MPD2    H113567   2.888   2.798   0.018  1.4269  0.1806  0.3480
  927MPD2    H213568   2.686   2.887   0.376 -1.1642 -2.2035  1.0595
  927MPD2    H313569   2.809   2.957   0.168 -2.7815  0.0359 -1.6883
  927MPD2     N13570   2.877   2.541   0.032  0.4731 -0.8856  0.6508
  927MPD2    H513571   2.844   2.445   0.034 -1.7017 -0.1272  0.2998
  927MPD2    N113572   2.619   2.616   0.426 -0.4421 -0.1922 -0.4252
  927MPD2    H713573   2.620   2.515   0.429  1.5241 -0.1175  1.3449
  928MPD2     C13574   0.469   1.676   0.248  0.5720  0.1408  0.2642
  928MPD2    C113575   0.554   1.662   0.345 -0.2676  0.1504  1.2547
  928MPD2    C213576   0.689   1.627   0.318  0.0929  0.0765 -0.3283
  928MPD2    C313577   0.727   1.604   0.188 -0.2231 -0.4561 -0.0363
  928MPD2    C413578   0.629   1.613   0.088  0.1609 -0.0963 -0.0923
  928MPD2    C513579   0.504   1.650   0.121 -0.1103  0.7318 -0.3355
  928MPD2     H13580   0.761   1.609   0.397  1.9561  1.3336 -1.7410
  928MPD2    H113581   0.656   1.602  17.669  0.4866 -1.8109  0.1870
  928MPD2    H213582   0.365   1.703   0.268 -0.0780 -0.2048 -2.7528
  928MPD2    H313583   0.426   1.658   0.046  0.0368  0.8615 -0.4748
  928MPD2     N13584   0.856   1.577   0.148  0.3835 -0.1375 -0.2550
  928MPD2    H513585   0.874   1.587   0.049  1.0191  1.5490  0.0348
  928MPD2    N113586   0.508   1.690   0.479 -0.0230  0.1380 -0.1500
  928MPD2    H713587   0.409   1.712   0.485 -0.4052 -1.5795  0.0102
  929MPD2     C13588   0.619   0.356   9.522  0.2566 -0.0565  0.3684
  929MPD2    C113589   0.536   0.349   9.633 -0.0006 -0.7127 -0.4875
  929MPD2    C213590   0.407   0.396   9.611 -0.5501  0.8373  0.1167
  929MPD2    C313591   0.377   0.482   9.504 -0.6007  0.0816 -0.0094
  929MPD2    C413592   0.461   0.488   9.400 -0.2767 -0.8593  0.6425
  929MPD2    C513593   0.586   0.423   9.407 -0.3736 -0.4750 -0.2570
  929MPD2     H13594   0.335   0.400   9.693  0.9968 -0.3414  1.5342
  929MPD2    H113595   0.446   0.545   9.310 -1.0045 -1.1517  0.5830
  929MPD2    H213596   0.720   0.318   9.535  0.4763  0.4109  0.0284
  929MPD2    H313597   0.664   0.431   9.332  0.6613  0.7259  0.9238
  929MPD2     N13598   0.251   0.538   9.476  0.8349 -0.0090  0.1159
  929MPD2    H513599   0.246   0.585   9.387  0.3145  1.0828  0.7244
  929MPD2    N113600   0.582   0.275   9.749 -0.1418  0.0663  0.5468
  929MPD2    H713601   0.679   0.245   9.759  0.1712  1.2118  0.9589
  930MPD2     C13602   2.533   2.783  13.985 -0.1636  0.4373 -0.5095
  930MPD2    C113603   2.666   2.736  13.980  0.3534  0.3435  0.3812
  930MPD2    C213604   2.680   2.608  13.930 -0.4513 -0.3249 -0.0945
  930MPD2    C313605   2.584   2.539  13.860 -0.2449 -0.5452 -0.4188
  930MPD2    C413606   2.458   2.583  13.873 -0.1968  0.2986  0.3560
  930MPD2    C513607   2.433   2.697  13.945 -0.5322 -0.3296  0.5292
  930MPD2     H13608   2.781   2.569  13.942  0.3018  1.0155 -1.9523
  930MPD2    H113609   2.379   2.519  13.834  0.9052 -0.9931  0.2346
  930MPD2    H213610   2.516   2.882  14.025 -0.3621  0.5517 -0.8744
  930MPD2    H313611   2.327   2.718  13.955 -1.1014 -2.1986 -1.5142
  930MPD2     N13612   2.608   2.420  13.791 -0.6443 -0.2527 -0.2531
  930MPD2    H513613   2.522   2.370  13.771 -0.6541 -0.4464  0.2798
  930MPD2    N113614   2.768   2.817  14.041  0.4063 -0.1634 -0.1272
  930MPD2    H713615   2.735   2.903  14.084 -1.5071 -1.5516  1.1930
  931MPD2     C13616   2.890   2.134   0.674 -0.2185  0.0832  0.5622
  931MPD2    C113617   2.777   2.141   0.749  0.3967 -0.2678 -0.5000
  931MPD2    C213618   2.771   2.065   0.864 -0.7701 -0.7124 -0.5108
  931MPD2    C313619   2.880   1.998   0.913 -0.1015  0.1937  0.4801
  931MPD2    C413620   2.995   1.992   0.835 -0.7923  0.1831  0.9918
  931MPD2    C513621   2.994   2.059   0.722  0.1417  0.5446  0.4306
  931MPD2     H13622   2.683   2.085   0.924 -3.0061 -0.9200 -3.7256
  931MPD2    H113623   3.081   1.941   0.876  0.0236  0.4386 -0.4264
  931MPD2    H213624   2.907   2.186   0.580 -0.1102  1.1630  1.1802
  931MPD2    H313625   3.079   2.036   0.660 -1.2022 -1.8597 -0.5098
  931MPD2     N13626   2.883   1.939   1.045  0.3447  0.7911 -0.2889
  931MPD2    H513627   2.977   1.916   1.075  0.4627  0.3159 -1.0349
  931MPD2    N113628   2.676   2.238   0.711  0.2616 -0.1203 -0.0550
  931MPD2    H713629   2.684   2.270   0.615 -1.1843 -1.0167 -0.4772
  932MPD2     C13630   1.025   1.112  11.535 -0.1182 -0.7895 -0.4184
  932MPD2    C113631   0.946   1.195  11.607 -0.7607 -0.0799  0.0573
  932MPD2    C213632   0.965   1.213  11.740 -0.4018  0.3466 -0.0384
  932MPD2    C313633   1.071   1.159  11.802 -0.5277 -0.2920  0.3161
  932MPD2    C413634   1.153   1.072  11.725 -0.0668  0.1207 -0.6710
  932MPD2    C513635   1.136   1.053  11.595  0.4195 -0.5617 -0.3031
  932MPD2     H13636   0.895   1.276  11.793 -0.4635 -0.5026  0.8790
  932MPD2    H113637   1.225   1.014  11.783 -0.0844  1.0196  0.2585
  932MPD2    H213638   1.024   1.116  11.426 -1.6981 -1.1112 -0.4129
  932MPD2    H313639   1.196   0.983  11.539  2.0526 -0.6251  1.5459
  932MPD2     N13640   1.096   1.168  11.943  0.5283 -0.0345  0.1833
  932MPD2    H513641   1.161   1.102  11.984 -0.9687 -0.8894  1.1873
  932MPD2    N113642   0.841   1.264  11.548  0.6208  0.0816 -0.0879
  932MPD2    H713643   0.791   1.338  11.596 -0.2591 -0.0207 -0.8580
  933MPD2     C13644   4.678   1.979   0.487  0.1259 -0.1612 -0.3613
  933MPD2    C113645   0.032   2.013   0.595  0.0827 -0.4247  0.4655
  933MPD2    C213646   0.026   2.139   0.641  0.0321 -0.2663 -0.1385
  933MPD2    C313647   4.653   2.230   0.597 -0.2844  0.3919  0.5369
  933MPD2    C413648   4.570   2.197   0.497 -0.0408  0.3393 -0.2349
  933MPD2    C513649   4.590   2.070   0.439 -0.3693  0.0299 -0.9617
  933MPD2     H13650   0.093   2.180   0.716 -0.8609  2.2155 -0.6851
  933MPD2    H113651   4.486   2.254   0.460 -0.1995  0.7162  0.7051
  933MPD2    H213652   4.679   1.887   0.428  3.3429  0.7466 -1.7565
  933MPD2    H313653   4.524   2.042   0.358  0.1899 -2.7538 -0.4209
  933MPD2     N13654   4.652   2.354   0.654  0.6424 -0.3644  0.1658
  933MPD2    H513655   4.720   2.366   0.728  0.3160  1.4625  0.1645
  933MPD2    N113656   0.124   1.916   0.642 -0.2173  0.0480 -0.4216
  933MPD2    H713657   0.161   1.845   0.580  0.6324 -1.1972  1.5105
  934MPD2     C13658   1.362   2.398   2.391  0.6778 -0.5549  0.6504
  934MPD2    C113659   1.444   2.326   2.305  0.3682 -0.1177  0.2551
  934MPD2    C213660   1.490   2.396   2.198 -0.2782  0.1065 -0.0994
  934MPD2    C313661   1.452   2.526   2.169  0.3072  0.1981  1.0840
  934MPD2    C413662   1.363   2.593   2.252 -0.0280  0.0676 -0.2942
  934MPD2    C513663   1.319   2.526   2.361  1.4474 -0.9835  0.9521
  934MPD2     H13664   1.558   2.344   2.131 -0.2144 -0.6260  0.5473
  934MPD2    H113665   1.329   2.694   2.232 -0.9401  0.1377  1.6200
  934MPD2    H213666   1.315   2.344   2.473 -0.0831 -0.6205  0.1624
  934MPD2    H313667   1.246   2.580   2.421  1.4315 -0.7734  0.7435
  934MPD2     N13668   1.506   2.600   2.060 -0.4067 -0.3607  0.1408
  934MPD2    H513669   1.456   2.686   2.042  0.1541 -0.4409 -1.8313
  934MPD2    N113670   1.492   2.195   2.322  0.3549  0.0137 -0.1791
  934MPD2    H713671   1.561   2.166   2.253  0.7784 -0.4342  0.4309
  935MPD2     C13672   2.117   2.279   1.352 -0.0412  0.3671 -0.1302
  935MPD2    C113673   2.018   2.345   1.284 -0.0996  0.6053 -0.0466
  935MPD2    C213674   1.939   2.434   1.356 -0.6110 -1.0745 -0.3370
  935MPD2    C313675   1.946   2.442   1.495  0.3922 -0.8034  0.6824
  935MPD2    C413676   2.037   2.360   1.567 -0.2590  0.4888  0.0472
  935MPD2    C513677   2.125   2.286   1.488  0.5778  0.2421  0.2946
  935MPD2     H13678   1.861   2.494   1.313  0.6212  1.8099  1.4681
  935MPD2    H113679   2.035   2.354   1.675 -3.3994 -0.0636 -0.0406
  935MPD2    H213680   2.195   2.219   1.307 -0.0487  0.0884  0.2276
  935MPD2    H313681   2.200   2.223   1.535 -0.3781 -1.7834 -0.8921
  935MPD2     N13682   1.875   2.536   1.572  0.0546  0.0958  0.2350
  935MPD2    H513683   1.892   2.537   1.672  1.6653  0.7859 -0.0407
  935MPD2    N113684   1.998   2.345   1.145 -0.0841  0.3887  0.0442
  935MPD2    H713685   1.909   2.383   1.116 -0.3483 -0.0259  0.3106
  936MPD2     C13686   0.320   4.695  12.323  0.0840 -0.2330  0.1593
  936MPD2    C113687   0.325   4.641  12.454 -0.0548  0.0872 -0.3039
  936MPD2    C213688   0.364   4.720  12.563 -0.2776  0.6233 -0.4605
  936MPD2    C313689   0.422   0.124  12.531 -0.3956 -0.3003 -0.7333
  936MPD2    C413690   0.428   0.170  12.400 -0.6750 -0.0952  0.0148
  936MPD2    C513691   0.369   0.102  12.303 -0.3122  0.0964 -0.4903
  936MPD2     H13692   0.374   4.678  12.662  0.7404  0.0795 -0.7890
  936MPD2    H113693   0.473   0.266  12.374  0.8738 -0.8709 -0.2055
  936MPD2    H213694   0.288   4.645  12.232  1.6678 -0.3495 -0.3355
  936MPD2    H313695   0.372   0.149  12.205  1.1511  0.5007 -0.2360
  936MPD2     N13696   0.492   0.198  12.627 -0.0647  0.0512 -0.1129
  936MPD2    H513697   0.563   0.264  12.596 -0.7745 -0.4794 -2.8039
  936MPD2    N113698   0.291   4.504  12.475 -0.5249  0.3455 -0.4168
  936MPD2    H713699   0.293   4.468  12.570  1.7029  0.9499 -0.2309
  937MPD2     C13700   2.665   0.656  11.266  0.0804  0.2041 -0.0013
  937MPD2    C113701   2.745   0.765  11.259  0.5572 -0.4186  0.1657
  937MPD2    C213702   2.837   0.765  11.155 -0.4351  0.2427 -0.6829
  937MPD2    C313703   2.860   0.658  11.064 -0.0914 -0.9045 -0.0975
  937MPD2    C413704   2.785   0.542  11.082 -0.0202  0.2027  0.2518
  937MPD2    C513705   2.685   0.551  11.177 -0.0997  0.3314 -0.8769
  937MPD2     H13706   2.884   0.862  11.142 -0.5941  0.4761  0.4802
  937MPD2    H113707   2.790   0.460  11.012  1.0728  2.1702 -1.9935
  937MPD2    H213708   2.582   0.639  11.333 -0.3615  1.0682 -0.3221
  937MPD2    H313709   2.627   0.459  11.180 -1.3424  1.0746 -2.1017
  937MPD2     N13710   2.949   0.676  10.958  0.1104 -0.5820 -0.0941
  937MPD2    H513711   2.976   0.772  10.941 -2.6674  0.1069 -0.6141
  937MPD2    N113712   2.720   0.886  11.324  0.2481 -0.8749 -0.0446
  937MPD2    H713713   2.788   0.959  11.304 -1.1346 -0.4354 -3.1420
  938MPD2     C13714   0.824   3.543   0.865 -0.3608  0.6388 -0.4276
  938MPD2    C113715   0.916   3.451   0.908  0.4487 -1.0054 -0.8917
  938MPD2    C213716   0.875   3.333   0.962 -0.6023 -0.3057 -0.7274
  938MPD2    C313717   0.735   3.308   0.985 -0.0147  0.6952  0.1400
  938MPD2    C413718   0.649   3.407   0.949 -0.6307  0.6254  1.0065
  938MPD2    C513719   0.692   3.523   0.884 -0.2500 -0.2702 -0.2370
  938MPD2     H13720   0.947   3.256   0.987 -1.2263  0.1497  2.5274
  938MPD2    H113721   0.546   3.404   0.983 -0.5484 -0.4749  1.1818
  938MPD2    H213722   0.853   3.646   0.853 -0.8933  1.2020  3.1424
  938MPD2    H313723   0.620   3.597   0.851 -1.3481 -0.7884  0.9657
  938MPD2     N13724   0.683   3.200   1.057 -0.5270 -1.0148  0.0114
  938MPD2    H513725   0.583   3.193   1.067 -0.5831  0.4014  0.4896
  938MPD2    N113726   1.058   3.487   0.910 -0.2446 -0.2457 -0.0977
  938MPD2    H713727   1.071   3.583   0.880 -0.6436 -0.0642  0.3264
  939MPD2     C13728   2.892   3.551   1.389  0.3751  0.1014 -0.8767
  939MPD2    C113729   2.872   3.681   1.369 -0.4727 -0.1830 -1.3168
  939MPD2    C213730   2.927   3.742   1.260  0.5241  0.3511 -0.1519
  939MPD2    C313731   2.996   3.668   1.167 -0.1219  0.2370  0.0952
  939MPD2    C413732   3.019   3.536   1.185  0.1938 -0.3330  0.1946
  939MPD2    C513733   2.967   3.481   1.297  0.2936 -0.0532 -0.2247
  939MPD2     H13734   2.903   3.845   1.235 -0.1538 -0.0849 -1.2579
  939MPD2    H113735   3.069   3.468   1.117 -0.3862  0.1700 -0.7387
  939MPD2    H213736   2.843   3.500   1.471  0.6569  0.8776 -0.2242
  939MPD2    H313737   2.970   3.373   1.307  2.4430  0.1474  1.4948
  939MPD2     N13738   3.045   3.740   1.055  0.3116  0.0743 -0.1478
  939MPD2    H513739   3.014   3.836   1.040  1.5693  0.5345  0.1690
  939MPD2    N113740   2.780   3.744   1.459 -0.1998  0.1931  0.4248
  939MPD2    H713741   2.728   3.681   1.520 -0.3668 -0.2252 -0.1504
  940MPD2     C13742   0.641   4.614  13.489  0.7185 -0.6120  0.1420
  940MPD2    C113743   0.671   4.498  13.555 -0.3501  0.3895  0.0543
  940MPD2    C213744   0.764   4.416  13.492 -0.2247 -0.4023  0.0538
  940MPD2    C313745   0.822   4.446  13.369  0.2617 -0.1575 -0.2088
  940MPD2    C413746   0.782   4.562  13.313 -0.4786 -1.1667 -1.0130
  940MPD2    C513747   0.688   4.639  13.367 -0.3133 -0.3920 -0.1460
  940MPD2     H13748   0.790   4.324  13.544 -0.7424 -1.2804 -1.2496
  940MPD2    H113749   0.814   4.583  13.212  2.3080 -2.6216 -0.4233
  940MPD2    H213750   0.559   4.677  13.522  1.1127 -0.1055  0.1545
  940MPD2    H313751   0.645   4.720  13.309 -1.8324 -1.6160 -0.7216
  940MPD2     N13752   0.921   4.373  13.298  0.4311 -0.6447 -0.2489
  940MPD2    H513753   0.947   4.394  13.202 -1.4277 -3.0990 -1.2913
  940MPD2    N113754   0.601   4.453  13.669  0.0424  0.1323 -0.7227
  940MPD2    H713755   0.636   4.368  13.713  1.3755  2.0979  2.0393
  941MPD2     C13756   0.614   3.108   9.195  0.3470 -0.3840 -0.7798
  941MPD2    C113757   0.511   3.085   9.289  1.3780  0.2918 -0.3426
  941MPD2    C213758   0.426   2.980   9.268  0.0352  0.1543 -0.8270
  941MPD2    C313759   0.410   2.928   9.142 -1.0673  0.7949  0.0727
  941MPD2    C413760   0.504   2.961   9.046 -0.5849 -0.3656 -0.0968
  941MPD2    C513761   0.606   3.041   9.074  0.9074  0.4812 -0.6117
  941MPD2     H13762   0.375   2.951   9.359 -3.0801  1.1121 -2.2643
  941MPD2    H113763   0.509   2.913   8.949  1.7004 -1.5092  0.5768
  941MPD2    H213764   0.696   3.177   9.208  0.0632  0.0122 -1.1142
  941MPD2    H313765   0.671   3.078   8.995  1.6755 -0.4995 -0.4442
  941MPD2     N13766   0.324   2.817   9.122 -0.5303  0.9527 -0.4564
  941MPD2    H513767   0.334   2.762   9.037 -0.7836  0.0966  0.0791
  941MPD2    N113768   0.519   3.145   9.417  0.2794  0.5095 -0.0499
  941MPD2    H713769   0.449   3.112   9.484 -0.4314  1.5385 -0.2901
  942MPD2     C13770   0.209   4.458   9.364 -0.5840  0.5957  0.2506
  942MPD2    C113771   0.306   4.415   9.451 -0.0360 -0.6284  0.2329
  942MPD2    C213772   0.438   4.441   9.422 -0.1446 -0.4278  0.1473
  942MPD2    C313773   0.480   4.524   9.318  0.2285  0.2966  0.1123
  942MPD2    C413774   0.384   4.563   9.230  0.1545 -0.8204 -0.3743
  942MPD2    C513775   0.250   4.535   9.258 -0.4992  0.0043 -0.1105
  942MPD2     H13776   0.513   4.400   9.489  2.4741  3.4369 -0.4437
  942MPD2    H113777   0.401   4.635   9.150  2.8234 -1.9561 -0.8080
  942MPD2    H213778   0.103   4.439   9.370 -0.3472 -0.2789  2.0271
  942MPD2    H313779   0.173   4.566   9.188 -1.1166 -1.3566 -0.0287
  942MPD2     N13780   0.607   4.577   9.307 -0.3342  0.8622 -0.5077
  942MPD2    H513781   0.620   4.658   9.246 -2.5280  0.2595 -1.7931
  942MPD2    N113782   0.272   4.349   9.572 -0.0875 -0.4024  0.5889
  942MPD2    H713783   0.349   4.309   9.625  2.8439  0.7971 -2.7563
  943MPD2     C13784   0.037   3.549   9.077  0.1484 -0.9506  0.3526
  943MPD2    C113785   4.670   3.456   9.134  0.2053  0.4580 -0.3417
  943MPD2    C213786   4.602   3.372   9.041  0.4710  0.0433 -0.1549
  943MPD2    C313787   4.636   3.367   8.907  0.4930  0.4423 -0.4653
  943MPD2    C413788   0.009   3.464   8.856  0.3197  0.3829 -0.1269
  943MPD2    C513789   0.062   3.559   8.943  0.2716 -0.6999 -0.3727
  943MPD2     H13790   4.519   3.309   9.070 -0.1146  1.0647  0.4178
  943MPD2    H113791   0.034   3.464   8.751  0.4929  0.7188 -0.0840
  943MPD2    H213792   0.097   3.613   9.140  0.3071  0.0261 -0.7876
  943MPD2    H313793   0.130   3.636   8.909 -1.4692  1.9516  2.1473
  943MPD2     N13794   4.578   3.267   8.818 -0.4523  0.1893  0.0074
  943MPD2    H513795   4.614   3.258   8.724 -2.6221  0.8971 -0.9014
  943MPD2    N113796   4.638   3.457   9.276  0.8054  0.4993 -0.0835
  943MPD2    H713797   4.674   3.534   9.332 -0.2468  0.6032  0.4388
  944MPD2     C13798   3.887   1.766  11.203 -0.0925 -0.2548  0.5810
  944MPD2    C113799   3.985   1.848  11.153  0.0118  0.0850  0.1717
  944MPD2    C213800   3.979   1.986  11.169 -0.2254 -0.0977 -0.5176
  944MPD2    C313801   3.881   2.033  11.256  0.2311 -0.5232  0.1836
  944MPD2    C413802   3.788   1.951  11.307  0.8640 -0.4070  0.8001
  944MPD2    C513803   3.790   1.819  11.279 -0.1426 -0.0442 -0.4027
  944MPD2     H13804   4.055   2.053  11.131  1.3838 -0.5446  1.8687
  944MPD2    H113805   3.715   1.993  11.375 -0.4340 -0.0129 -0.8405
  944MPD2    H213806   3.888   1.659  11.186  1.8346 -0.2380  0.5186
  944MPD2    H313807   3.714   1.757  11.325  0.5221  0.4735  1.4181
  944MPD2     N13808   3.887   2.170  11.273  0.0055  0.1907  0.3045
  944MPD2    H513809   3.959   2.222  11.224  0.3769  1.3463  2.0800
  944MPD2    N113810   4.082   1.792  11.070  0.0795  0.8557 -0.3145
  944MPD2    H713811   4.089   1.691  11.080  0.1400  0.9533  0.6291
    1TCq1    O113812   2.746   3.368  14.545  0.2703 -0.9642  0.0988
    1TCq1    C113813   2.695   3.314  14.658 -0.1438 -0.9269 -0.3703
    1TCq1    O213814   2.586   3.262  14.668 -0.6572 -0.2059  0.1105
    1TCq1    C213815   2.737   3.410  14.753  0.4746  0.3409  0.2257
    1TCq1    C313816   2.861   3.399  14.812 -0.1871 -0.2250  0.5046
    1TCq1    C413817   2.886   3.484  14.916 -0.2169 -0.5199 -0.1372
    1TCq1    C513818   2.801   3.588  14.945  0.5672 -0.0763 -0.7747
    1TCq1    C613819   2.673   3.590  14.882 -0.4145 -0.1357  0.3287
    1TCq1    C713820   2.640   3.497  14.789  0.2022  0.4707  0.7645
    1TCq1    C813821   2.578   3.701  14.919 -0.0493 -1.2038 -0.0315
    1TCq1    O413822   2.610   3.762  15.020  0.4286 -0.6932  0.2059
    1TCq1    C913823   3.018   3.481  14.983 -0.2238  0.3524  0.4383
    1TCq1    O513824   3.038   3.554  15.086  0.7795  0.4668 -0.5560
    1TCq1    O613825   3.099   3.393  14.943  0.3032  0.1268 -0.1510
    1TCq1    H113826   2.816   3.436  14.553 -1.3561  0.8247 -0.9021
    1TCq1    H213827   2.923   3.316  14.780 -0.0206  0.0427  0.1302
    1TCq1    H313828   2.822   3.662  15.021  1.0871 -0.1790 -0.8233
    1TCq1    H413829   2.542   3.486  14.745  1.1293 -1.3285 -0.8813
    2MPD2     C13830   2.212   4.037  14.777  0.4144 -0.2746  0.0620
    2MPD2    C113831   2.231   3.960  14.662 -0.3574 -0.3194 -0.1941
    2MPD2    C213832   2.328   3.857  14.673 -0.0415  0.8026 -0.0369
    2MPD2    C313833   2.392   3.834  14.797  0.0728 -1.0497  0.0319
    2MPD2    C413834   2.365   3.910  14.909  0.0784 -0.4321  0.3335
    2MPD2    C513835   2.278   4.010  14.897  0.1754 -0.4239  0.2727
    2MPD2     H13836   2.339   3.787  14.591  1.4246  2.4678 -1.2588
    2MPD2    H113837   2.412   3.893  15.006  0.9165 -0.1281 -0.0246
    2MPD2    H213838   2.158   4.131  14.780  2.6070  0.9644  0.3890
    2MPD2    H313839   2.268   4.082  14.977 -1.9269  0.1896 -0.5395
    2MPD2     N13840   2.486   3.723  14.814  0.3669  0.2886 -0.0127
    2MPD2    H513841   2.503   3.667  14.731 -0.1299 -2.5109  1.7526
    2MPD2    N113842   2.167   3.994  14.541  0.0420 -0.7654  1.0182
    2MPD2    H713843   2.107   4.074  14.531 -0.8339 -1.6511 -0.9307
    3TMC2    C113844   2.104   4.010  14.327 -0.9414  0.4180 -0.2600
    3TMC2    C213845   2.131   4.144  14.324  0.4897  0.7932 -0.0994
    3TMC2    C313846   2.105   4.210  14.205  0.0662 -0.1611  0.3762
    3TMC2    C413847   2.057   3.940  14.222  0.3013  0.4130  0.8279
    3TMC2    C513848   2.012   4.015  14.115 -0.5555  0.7366 -0.1333
    3TMC2    C613849   2.034   4.150  14.104 -0.1667  0.2431 -0.1435
    3TMC2     C13850   2.183   3.938  14.424  0.2344 -0.9938 -0.2621
    3TMC2     O13851   2.217   3.824  14.398 -0.5219  0.0108 -0.0269
    3TMC2     H13852   2.183   4.195  14.405 -0.9317 -2.4005  2.8205
    3TMC2    H113853   2.020   3.839  14.237  1.3836 -0.3782 -1.6870
    3TMC2    H213854   2.014   4.202  14.010  0.6416 -0.3691 -0.6577
    3TMC2    C713855   1.895   3.956  14.054 -0.0063 -0.5008  0.3756
    3TMC2    C813856   2.101   4.356  14.199  0.3161 -0.2003 -0.9865
    3TMC2    O113857   1.873   3.838  14.080 -0.0956 -0.3450  0.5688
    3TMC2    O213858   1.998   4.420  14.202  0.2558 -0.3591 -0.2071
    3TMC2    O513859   2.218   4.398  14.251  0.4652 -0.0861  0.1385
    3TMC2    H513860   2.289   4.334  14.234  1.4845  1.0594  0.0841
    4MPD2     C13861   1.439   0.396  13.055  0.1827  0.5690 -0.3779
    4MPD2    C113862   1.312   0.343  13.069 -0.5639  0.3842 -0.0270
    4MPD2    C213863   1.297   0.235  13.157  0.2096  0.0880  0.1667
    4MPD2    C313864   1.407   0.184  13.217  0.0498  0.2821  0.1995
    4MPD2    C413865   1.531   0.239  13.202  0.0992  0.5263  1.0349
    4MPD2    C513866   1.548   0.347  13.119  0.1770  0.4398  0.1139
    4MPD2     H13867   1.207   0.175  13.165  0.6043 -0.3143  1.6094
    4MPD2    H113868   1.621   0.195  13.244  2.0068  1.5013 -2.0173
    4MPD2    H213869   1.451   0.477  12.985  1.5289  0.5755 -0.1389
    4MPD2    H313870   1.637   0.405  13.100 -0.1976  0.7255 -0.8022
    4MPD2     N13871   1.371   0.076  13.304  0.2287 -0.1250  0.0664
    4MPD2    H513872   1.272   0.058  13.316 -0.3052  1.4701 -1.9440
    4MPD2    N113873   1.210   0.408  12.993  0.3672 -0.0060  0.2819
    4MPD2    H713874   1.230   0.476  12.921 -0.3592 -1.5426 -1.3834
    5TCq2    C113875   1.463   0.004  13.374 -0.1160  0.2974 -0.1438
    5TCq2    O213876   1.584   0.011  13.372 -0.1848  0.1187 -0.0788
    5TCq2    C213877   1.406   4.608  13.437 -0.5367  0.3266  0.4062
    5TCq2    C313878   1.282   4.619  13.491  0.4413 -0.5725 -0.0031
    5TCq2    C413879   1.246   4.518  13.577 -0.1014 -0.4585 -0.0146
    5TCq2    C513880   1.332   4.417  13.609 -0.8393  0.1821 -0.1575
    5TCq2    C613881   1.461   4.425  13.570 -0.3359  0.0626 -0.5334
    5TCq2    C713882   1.500   4.519  13.484 -0.2984  0.5356  0.4373
    5TCq2    C813883   1.559   4.332  13.638 -0.3900  0.1229  0.2460
    5TCq2    O413884   1.679   4.358  13.652  1.0840  0.0961 -0.3849
    5TCq2    C913885   1.113   4.518  13.628  0.3866 -0.5354 -0.2203
    5TCq2    O513886   1.079   4.435  13.719  0.4167  0.6422 -0.0785
    5TCq2    O613887   1.031   4.614  13.600 -0.4131  0.1204  0.3396
    5TCq2    H213888   1.205   4.689  13.462  1.0169 -0.4789 -1.3389
    5TCq2    H313889   1.297   4.341  13.678  1.7847  0.5534  1.6007
    5TCq2    H413890   1.602   4.512  13.450  0.0111 -0.0939  1.5052
    6MPD1     C13891   1.290   2.194  13.077 -0.3669 -0.4644 -0.1163
    6MPD1    C113892   1.277   2.151  12.945  0.2793 -0.4938 -0.2571
    6MPD1    C213893   1.228   2.025  12.920  0.2289  0.3516 -0.1802
    6MPD1    C313894   1.154   1.954  13.012 -0.7102 -0.3711  0.3101
    6MPD1    C413895   1.156   2.006  13.141  0.1171 -0.0445 -0.3615
    6MPD1    C513896   1.230   2.120  13.175  0.6738 -0.5170 -0.3894
    6MPD1     H13897   1.229   1.976  12.823 -1.4510  0.8267 -0.4470
    6MPD1    H113898   1.103   1.963  13.225  0.8719  0.1562  0.2147
    6MPD1    H213899   1.343   2.284  13.106  1.2098 -0.4231 -3.1722
    6MPD1    H313900   1.225   2.156  13.277 -0.4351  0.0516 -0.6421
    6MPD1     N13901   1.091   1.824  12.996  0.1144  0.2530 -0.0489
    6MPD1    H513902   1.060   1.776  13.080  0.8936  0.1948  0.2101
    6MPD1    N113903   1.359   2.219  12.847 -0.2276 -0.2472  0.1433
    6MPD1    H613904   1.361   2.319  12.861 -2.0544 -0.6947  3.5274
    6MPD1    H713905   1.329   2.193  12.753 -0.4028  0.9576 -0.1253
    7MPD2     C13906   0.924   1.113  13.314 -0.3993  0.1974  0.8172
    7MPD2    C113907   0.897   1.116  13.183 -0.0424 -0.6739 -0.1125
    7MPD2    C213908   0.850   1.004  13.124  0.2249 -0.4097 -0.2666
    7MPD2    C313909   0.832   0.892  13.192  0.1718 -0.6642 -0.5008
    7MPD2    C413910   0.859   0.893  13.328 -0.0702 -0.1425  0.7174
    7MPD2    C513911   0.897   1.008  13.394 -0.6703 -0.2950  0.2094
    7MPD2     H13912   0.827   1.010  13.018 -2.3672 -0.7355  0.2895
    7MPD2    H113913   0.858   0.806  13.392  0.7730  0.2322  1.2463
    7MPD2    H213914   0.953   1.204  13.366 -0.8098  0.9457 -0.2559
    7MPD2    H313915   0.913   1.012  13.502 -2.2200 -0.0072  0.4266
    7MPD2     N13916   0.802   0.771  13.126 -0.8207 -0.8134 -0.3866
    7MPD2    H513917   0.798   0.685  13.181  1.0735  2.2487  4.5767
    7MPD2    N113918   0.902   1.231  13.101 -0.8214 -0.2887  0.2945
    7MPD2    H713919   0.856   1.226  13.011 -0.0452 -0.1051 -0.1156
    8TMC3    C113920   0.806   0.624  12.947  0.2685 -0.5312 -0.0689
    8TMC3    C213921   0.897   0.553  13.023  0.4274  0.3573  0.3233
    8TMC3    C313922   0.992   0.490  12.953 -0.6699  0.9811 -0.2082
    8TMC3    C413923   0.808   0.630  12.809  0.6347  0.3242  0.4580
    8TMC3    C513924   0.914   0.569  12.749 -0.5890  0.1633  0.7849
    8TMC3    C613925   1.002   0.495  12.819  0.2528 -0.6300 -0.0279
    8TMC3     C13926   0.789   0.753  12.992  1.0217  0.0251  0.1854
    8TMC3     O13927   0.821   0.828  12.900  0.8874 -0.8929 -0.6391
    8TMC3     H13928   0.885   0.539  13.130 -0.0270  1.4655  0.4137
    8TMC3    H113929   0.737   0.686  12.750 -0.0206 -0.0162  0.9252
    8TMC3    H213930   1.086   0.451  12.768  0.8775 -0.2618  0.6864
    8TMC3    C713931   0.975   0.644  12.637  0.0444 -0.0240  0.2200
    8TMC3    C813932   1.079   0.395  13.028  0.4204 -0.0210  0.1087
    8TMC3    O113933   1.073   0.594  12.588 -0.2249  0.2562  0.5717
    8TMC3    O213934   1.039   0.357  13.133  0.0158  0.2252 -0.2773
    9TMC3    C113935   1.021   1.625  12.878 -0.0784 -0.1773 -0.0600
    9TMC3    C213936   1.003   1.563  12.761 -0.0629 -0.1682  0.4011
    9TMC3    C313937   0.985   1.431  12.766 -0.1671 -0.8735  0.3839
    9TMC3    C413938   1.011   1.566  12.996 -0.4645  0.5233 -0.2253
    9TMC3    C513939   0.980   1.431  12.993 -0.5253  0.1849 -0.8218
    9TMC3    C613940   0.961   1.363  12.881 -0.3664  0.4705  0.0690
    9TMC3     C13941   1.067   1.766  12.873 -0.5372 -0.3011 -0.7704
    9TMC3     O13942   1.085   1.811  12.761 -0.7285  0.1161  0.2242
    9TMC3     H13943   1.043   1.607  12.670 -0.6832 -1.8000 -0.6521
    9TMC3    H113944   0.993   1.618  13.090 -3.0285  2.1700 -1.6238
    9TMC3    H213945   0.969   1.254  12.878 -2.9820  0.2649  1.0602
    9TMC3    C713946   0.971   1.348  13.115  0.3497 -0.1683 -0.3890
    9TMC3    C813947   1.010   1.359  12.642  0.5981  0.2856 -0.2037
    9TMC3    O113948   1.016   1.400  13.215 -0.1607 -0.3812 -0.4074
    9TMC3    O213949   1.044   1.411  12.538  0.0327 -0.1419  0.4102
   10MPD2     C13950   1.087   0.880  12.487 -0.0427 -0.9120  0.0882
   10MPD2    C113951   0.989   0.880  12.580  0.1747 -0.4295 -0.8689
   10MPD2    C213952   0.942   1.002  12.621  0.0192 -0.6713 -0.3245
   10MPD2    C313953   1.001   1.126  12.591  0.1107 -0.1804 -0.2068
   10MPD2    C413954   1.106   1.123  12.497 -0.0156 -0.1331  0.2914
   10MPD2    C513955   1.139   0.997  12.443 -0.9440 -0.6484  0.3096
   10MPD2     H13956   0.862   0.991  12.693  0.2758 -2.1288 -0.2583
   10MPD2    H113957   1.159   1.207  12.455 -0.3950 -1.0853 -2.0427
   10MPD2    H213958   1.113   0.787  12.439  1.2565  0.7253 -2.3576
   10MPD2    H313959   1.220   0.994  12.372 -1.3597  1.4612 -0.2714
   10MPD2     N13960   0.948   1.240  12.650  0.0274 -0.6920 -0.3583
   10MPD2    H513961   0.889   1.214  12.729 -0.5668  3.1132  0.4476
   10MPD2    N113962   0.930   0.777  12.641 -0.3200 -0.1256 -0.6907
   10MPD2    H713963   0.859   0.796  12.712  0.4037  0.7921 -0.2134
   11MPD2     C13964   1.658   3.885  13.877 -0.7154 -0.5154  0.1156
   11MPD2    C113965   1.713   4.013  13.895  0.5483 -0.5956 -0.4231
   11MPD2    C213966   1.660   4.118  13.826  0.2804  0.1950 -0.0156
   11MPD2    C313967   1.566   4.096  13.733  1.3527 -0.5476 -0.5132
   11MPD2    C413968   1.522   3.966  13.707  0.2735 -0.4094  0.0194
   11MPD2    C513969   1.568   3.863  13.779 -0.4482 -0.0649 -1.0833
   11MPD2     H13970   1.703   4.216  13.842 -0.8024  0.7487 -0.5185
   11MPD2    H113971   1.445   3.938  13.636  1.5837 -1.1958 -1.0971
   11MPD2    H213972   1.690   3.804  13.942 -0.8557  0.2086  1.0959
   11MPD2    H313973   1.537   3.762  13.756 -1.4905  0.1990 -0.8311
   11MPD2     N13974   1.511   4.205  13.657  0.4322 -0.0282 -0.1475
   11MPD2    H513975   1.430   4.182  13.602  0.2638 -0.2432  0.1877
   11MPD2    N113976   1.822   4.048  13.981 -0.7716 -0.5910  0.0227
   11MPD2    H713977   1.863   4.140  13.970 -0.4158 -0.6223  1.1262
    1MPD1     C13978   4.198   1.971   0.134 -0.0992 -0.1932  0.0823
    1MPD1    C113979   4.182   1.838   0.084 -0.2774 -0.0778  0.2720
    1MPD1    C213980   4.124   1.821  17.647 -0.2792  0.6511 -0.4969
    1MPD1    C313981   4.084   1.937  17.573  0.1412 -0.5447  1.3279
    1MPD1    C413982   4.091   2.060  17.633 -0.2336  0.4707  0.2289
    1MPD1    C513983   4.147   2.076   0.069  0.1022  0.0606  0.2491
    1MPD1     H13984   4.107   1.725  17.600  0.0617  0.6591 -0.6377
    1MPD1    H113985   4.055   2.145  17.577  3.0700  1.1129 -0.9486
    1MPD1    H213986   4.253   1.987   0.226 -1.0399  0.5560  0.5135
    1MPD1    H313987   4.156   2.175   0.113  1.0891 -0.0761  0.3669
    1MPD1     N13988   4.036   1.930  17.438  0.7317  0.0177  0.2685
    1MPD1    H513989   3.980   2.010  17.410  0.2393 -0.5381 -0.3305
    1MPD1    N113990   4.255   1.734   0.144 -0.8219  0.5500  0.5746
    1MPD1    H613991   4.261   1.756   0.243 -1.1219 -1.5607  1.0583
    1MPD1    H713992   4.221   1.640   0.122  0.7840 -0.1962  1.3139
    2MPD1     C13993   3.987   1.071  16.944 -0.4765  0.2271 -0.1416
    2MPD1    C113994   4.100   1.128  16.997 -0.8688  0.0864  0.3576
    2MPD1    C213995   4.101   1.260  17.032  0.5050  0.7292 -0.8427
    2MPD1    C313996   3.994   1.341  16.998 -0.4209 -0.3366 -0.5358
    2MPD1    C413997   3.874   1.276  16.961  0.5131 -0.2152  0.2216
    2MPD1    C513998   3.874   1.143  16.936 -0.8258  0.6533  0.6547
    2MPD1     H13999   4.191   1.300  17.076  0.1612  1.7010 -1.0131
    2MPD1    H114000   3.785   1.336  16.945  1.2256  1.1791  1.4194
    2MPD1    H214001   3.965   0.968  16.919  0.1637  0.5119 -1.9338
    2MPD1    H314002   3.782   1.092  16.910  0.8148 -1.5444 -0.8664
    2MPD1     N14003   3.993   1.477  17.041 -0.1967 -0.1011 -0.5547
    2MPD1    H514004   4.066   1.506  17.106  1.0410  0.4600 -2.1838
    2MPD1    N114005   4.214   1.040  17.002  0.4078 -0.0593 -0.3169
    2MPD1    H614006   4.178   0.945  17.014  0.5275 -0.0435  0.1526
    2MPD1    H714007   4.272   1.068  17.081 -0.6938  0.1369  0.4165
    3TMC3    C114008   3.921   1.700  17.051 -0.7206 -0.0294 -0.3562
    3TMC3    C214009   3.878   1.807  16.983 -0.0246  0.2530  0.0439
    3TMC3    C314010   3.898   1.928  17.044 -0.2257  0.1137 -0.0260
    3TMC3    C414011   3.972   1.699  17.177  0.1283 -0.5932  0.4391
    3TMC3    C514012   3.979   1.818  17.236  0.3469 -0.1227 -0.1820
    3TMC3    C614013   3.945   1.937  17.173 -0.1881  0.6857  0.1067
    3TMC3     C14014   3.907   1.571  16.987  0.4193 -0.1143  0.7609
    3TMC3     O14015   3.843   1.559  16.884 -0.0673  0.3911 -0.5669
    3TMC3     H14016   3.825   1.799  16.889  0.3062  0.8237 -0.1923
    3TMC3    H114017   4.000   1.606  17.226  0.9622 -0.0068  1.0847
    3TMC3    H214018   3.953   2.037  17.212 -0.3298  0.5717  0.4276
    3TMC3    C714019   4.047   1.814  17.365 -0.4229  0.3932  0.1380
    3TMC3    C814020   3.836   2.046  16.994 -0.3053 -0.0201  0.1433
    3TMC3    O114021   4.114   1.713  17.382  0.3141  0.2221 -0.1968
    3TMC3    O214022   3.810   2.143  17.065 -0.6488 -0.1506 -0.6190
    4MPD1     C14023   3.546   2.284  16.621  0.2036  0.3565 -0.7567
    4MPD1    C114024   3.590   2.165  16.568 -0.6912 -0.0214  0.2020
    4MPD1    C214025   3.678   2.089  16.647 -0.9108  0.1156  0.3455
    4MPD1    C314026   3.727   2.118  16.776  0.3799  0.0486 -0.0769
    4MPD1    C414027   3.683   2.242  16.823  0.0277 -0.4129 -0.1778
    4MPD1    C514028   3.595   2.319  16.748 -0.2309  0.4001 -0.1684
    4MPD1     H14029   3.713   1.996  16.606  1.3314 -0.0317  2.6529
    4MPD1    H114030   3.703   2.286  16.920  1.3084 -1.3424 -0.0365
    4MPD1    H214031   3.473   2.349  16.576 -0.5623 -0.8212 -1.2104
    4MPD1    H314032   3.554   2.414  16.780 -1.1071 -0.2897  0.7436
    4MPD1     N14033   3.804   2.030  16.856 -0.3481 -0.1472 -0.8608
    4MPD1    H514034   3.826   1.939  16.817 -2.6837  0.1411 -2.8240
    4MPD1    N114035   3.525   2.110  16.455  0.0651  0.2765 -0.2431
    4MPD1    H614036   3.506   2.178  16.381  0.7024 -0.1745 -0.8238
    4MPD1    H714037   3.581   2.038  16.410  0.8982  1.5249 -1.2165
    1TCq1    O114038   0.498   1.738  10.160 -0.0297 -0.8110  0.3732
    1TCq1    C114039   0.539   1.708  10.290  0.1218  0.2459 -0.5625
    1TCq1    O214040   0.534   1.778  10.389 -0.2238 -0.2843  0.3059
    1TCq1    C214041   0.572   1.569  10.306  0.5057 -0.2273 -0.0923
    1TCq1    C314042   0.624   1.535  10.427 -0.4099 -0.4643 -0.3274
    1TCq1    C414043   0.667   1.404  10.447  0.1216  0.4495  0.2574
    1TCq1    C514044   0.703   1.330  10.331 -0.1196  0.2969 -0.2634
    1TCq1    C614045   0.650   1.367  10.213 -0.0608  0.3566  0.0252
    1TCq1    C714046   0.586   1.487  10.198 -0.1012  0.6815  1.5079
    1TCq1    C814047   0.651   1.268  10.105 -0.3050  0.5827 -0.5160
    1TCq1    O414048   0.656   1.312   9.991  0.4545  0.0485  0.0554
    1TCq1    C914049   0.755   1.371  10.563  0.1636  0.0731 -0.3470
    1TCq1    O514050   0.767   1.453  10.656 -0.1935  0.4234 -0.2975
    1TCq1    O614051   0.812   1.262  10.556 -0.0766 -0.1827 -0.2658
    1TCq1    H114052   0.513   1.663  10.098  0.7650  0.6929 -1.2550
    1TCq1    H214053   0.607   1.597  10.514 -0.4649  0.3695 -0.9266
    1TCq1    H314054   0.773   1.248  10.343  0.2541  0.4635 -1.3400
    1TCq1    H414055   0.558   1.508  10.095  3.0618  0.7097  0.6672
    2MPD1     C14056   0.525   0.802   9.943  0.0431  0.3020 -0.0152
    2MPD1    C114057   0.579   0.792  10.071  0.2229 -0.0130  0.0151
    2MPD1    C214058   0.621   0.904  10.140  0.7908  0.2944  0.9006
    2MPD1    C314059   0.621   1.027  10.076 -0.0111  0.2278  0.9111
    2MPD1    C414060   0.570   1.040   9.947 -0.6031 -0.4133  0.1035
    2MPD1    C514061   0.518   0.926   9.888 -0.6478  0.1334 -0.3973
    2MPD1     H14062   0.685   0.898  10.228  0.6171  1.0184  1.0768
    2MPD1    H114063   0.554   1.129   9.888  0.4063  0.5421  1.2645
    2MPD1    H214064   0.487   0.716   9.891 -0.9754  2.6368 -3.1594
    2MPD1    H314065   0.467   0.932   9.793  2.1275  0.4733 -1.8666
    2MPD1     N14066   0.658   1.138  10.152 -0.1131  0.6366  0.6143
    2MPD1    H514067   0.678   1.132  10.251 -1.9015 -0.7056  0.9152
    2MPD1    N114068   0.616   0.664  10.118 -0.4592  0.5566 -0.2030
    2MPD1    H614069   0.545   0.595  10.095  0.3287 -1.0159  2.0980
    2MPD1    H714070   0.625   0.657  10.219 -1.0070  0.1766 -0.1854
    1TCq1    O114071   2.413   0.624   0.922  0.3387 -0.6037  0.2802
    1TCq1    C114072   2.303   0.645   0.842 -0.4420  0.7454  0.1196
    1TCq1    O214073   2.183   0.624   0.868 -0.6885  0.2179  0.4360
    1TCq1    C214074   2.352   0.741   0.744  0.2128  0.2675  0.0900
    1TCq1    C314075   2.270   0.843   0.712  0.1563 -0.0718  0.7481
    1TCq1    C414076   2.331   0.953   0.669  0.3931 -0.0335 -0.1389
    1TCq1    C514077   2.449   0.940   0.600  0.1383 -0.7504 -0.1583
    1TCq1    C614078   2.526   0.823   0.616  0.1188 -0.1682  0.3174
    1TCq1    C714079   2.476   0.727   0.695  0.0378  0.5650  0.4142
    1TCq1    C814080   2.657   0.812   0.551 -0.6939  0.0815 -0.0534
    1TCq1    O414081   2.709   0.697   0.542  0.5978 -0.2311 -0.2098
    1TCq1    C914082   2.245   1.069   0.639  0.0630  0.2528 -0.5040
    1TCq1    O514083   2.305   1.174   0.599 -0.2530  0.6486  0.6519
    1TCq1    O614084   2.122   1.052   0.647 -0.0910  0.5398 -0.4803
    1TCq1    H114085   2.498   0.661   0.893 -0.1103  0.4475  0.3112
    1TCq1    H214086   2.180   0.858   0.771  1.0239  0.7924  1.8421
    1TCq1    H314087   2.474   1.021   0.533  1.7946  1.6441  3.3035
    1TCq1    H414088   2.529   0.633   0.699 -0.4972  0.2570  0.2226
    2MPD1     C14089   3.078   1.011   0.320 -0.1488  0.3070  0.5029
    2MPD1    C114090   2.995   1.121   0.363  0.2713 -0.6726  0.7296
    2MPD1    C214091   2.871   1.088   0.422 -0.0346  0.1453 -0.0080
    2MPD1    C314092   2.830   0.958   0.440  0.8877  0.3994 -0.5685
    2MPD1    C414093   2.914   0.852   0.398  0.2730 -0.1700 -0.1164
    2MPD1    C514094   3.036   0.888   0.345  0.5844 -0.3814 -0.4896
    2MPD1     H14095   2.807   1.165   0.462  0.0913  0.3896 -0.2713
    2MPD1    H114096   2.881   0.749   0.388 -3.5466  0.8673  1.6310
    2MPD1    H214097   3.176   1.028   0.279  0.4398 -0.9421  1.3774
    2MPD1    H314098   3.097   0.805   0.310  0.9965 -0.8674  1.3663
    2MPD1     N14099   2.709   0.934   0.511 -0.1325 -0.2022 -0.6056
    2MPD1    H514100   2.662   1.021   0.533 -0.7472 -0.9454  1.0712
    2MPD1    N114101   3.028   1.262   0.362 -0.6473 -0.3537 -0.2705
    2MPD1    H614102   3.095   1.278   0.288  0.1802 -0.7266  0.3966
    2MPD1    H714103   2.952   1.324   0.337 -1.2737 -0.7874  0.5246
    1MPD1     C14104   1.877   1.132  12.067  0.0203 -0.3290  0.2987
    1MPD1    C114105   1.890   1.260  12.023 -0.5255  0.3736 -0.0271
    1MPD1    C214106   1.989   1.290  11.925  0.0299  0.1805  0.2739
    1MPD1    C314107   2.047   1.192  11.850 -0.8208 -0.1529 -0.7796
    1MPD1    C414108   2.007   1.065  11.876 -0.2960  0.2046 -0.5059
    1MPD1    C514109   1.924   1.035  11.984 -0.9371 -0.0131 -0.5110
    1MPD1     H14110   2.007   1.396  11.909 -1.1231  0.4703  0.8604
    1MPD1    H114111   2.056   0.974  11.844 -2.4296 -1.1475  0.0323
    1MPD1    H214112   1.835   1.107  12.163 -0.6129 -0.5031 -0.0234
    1MPD1    H314113   1.920   0.934  12.024 -0.1899  0.0308 -0.3230
    1MPD1     N14114   2.140   1.232  11.740 -0.1147  0.1854 -0.6069
    1MPD1    H514115   2.169   1.329  11.735 -4.1152  1.5108  1.7820
    1MPD1    N114116   1.830   1.364  12.099 -0.2744 -0.0322  0.2095
    1MPD1    H614117   1.847   1.453  12.054 -0.9385  0.1531  0.3221
    1MPD1    H714118   1.730   1.352  12.112  0.1188 -1.5288  1.8722
    2MPD1     C14119   1.771   1.427  11.467 -1.4514  0.4818 -0.6267
    2MPD1    C114120   1.777   1.424  11.331 -0.2146 -0.4280 -0.2717
    2MPD1    C214121   1.819   1.304  11.272  0.4968 -0.1690  1.2430
    2MPD1    C314122   1.847   1.187  11.343 -0.7854  0.5820  0.2761
    2MPD1    C414123   1.835   1.195  11.481 -0.5062 -0.4388  0.2333
    2MPD1    C514124   1.795   1.312  11.543  0.3043 -0.6534 -0.0908
    2MPD1     H14125   1.812   1.294  11.165 -2.6718  3.7038  1.1176
    2MPD1    H114126   1.856   1.105  11.536 -1.0978 -0.6674  0.0899
    2MPD1    H214127   1.755   1.521  11.519  0.4024  1.2205 -1.4167
    2MPD1    H314128   1.787   1.312  11.651 -1.9687  3.0989 -0.2875
    2MPD1     N14129   1.901   1.065  11.288  0.2593  0.6195  0.6728
    2MPD1    H514130   1.908   0.992  11.358  2.6120 -0.3689 -0.6075
    2MPD1    N114131   1.743   1.534  11.248  0.3468 -0.1643 -0.0301
    2MPD1    H614132   1.718   1.511  11.152  1.5083 -0.1955 -0.3168
    2MPD1    H714133   1.680   1.603  11.288  0.5369 -0.2007  0.3248
    3MPD1     C14134   1.669   0.390  11.667  0.2489 -0.0188 -0.3209
    3MPD1    C114135   1.709   0.524  11.690  0.1362  0.3335 -0.0142
    3MPD1    C214136   1.803   0.580  11.602  0.0710 -0.1235  0.1998
    3MPD1    C314137   1.803   0.526  11.475  0.5727 -0.0840 -0.0821
    3MPD1    C414138   1.760   0.395  11.448  0.0985  0.4305  0.1996
    3MPD1    C514139   1.703   0.322  11.551 -0.2625 -0.4898  0.0545
    3MPD1     H14140   1.850   0.675  11.624 -0.6746  0.0389  1.1099
    3MPD1    H114141   1.778   0.343  11.355 -1.5559  0.8099 -0.3352
    3MPD1    H214142   1.621   0.329  11.744  0.8493  0.6412  0.5765
    3MPD1    H314143   1.683   0.217  11.541 -1.3110 -0.0995 -1.7960
    3MPD1     N14144   1.876   0.600  11.379  0.7705 -0.3452 -0.5567
    3MPD1    H514145   1.914   0.688  11.413  2.5115 -1.6135  0.7990
    3MPD1    N114146   1.688   0.575  11.816 -0.0492  0.2019 -0.0099
    3MPD1    H614147   1.610   0.531  11.864 -0.4289  1.9466  0.9945
    3MPD1    H714148   1.665   0.674  11.805 -0.8055  0.1087  0.7776
    4MPD2     C14149   2.594   1.650  11.277  0.0423  0.0353  0.8678
    4MPD2    C114150   2.532   1.547  11.208  0.5008 -0.4450  0.4430
    4MPD2    C214151   2.580   1.504  11.088  0.4660  0.4258 -0.3950
    4MPD2    C314152   2.680   1.566  11.028 -0.3622 -0.1315  0.9352
    4MPD2    C414153   2.750   1.662  11.094  0.6187 -0.4331 -0.2491
    4MPD2    C514154   2.705   1.704  11.217 -0.4992 -0.3155 -0.0147
    4MPD2     H14155   2.524   1.426  11.036  2.6876 -0.8671 -0.8202
    4MPD2    H114156   2.841   1.695  11.046  0.1963  0.7579 -0.2429
    4MPD2    H214157   2.556   1.690  11.370 -2.7110  0.4516 -0.4464
    4MPD2    H314158   2.751   1.789  11.264 -1.6850  0.4457 -0.2153
    4MPD2     N14159   2.728   1.510  10.906  0.3822 -0.1168  0.1164
    4MPD2    H514160   2.824   1.535  10.884  0.9004 -0.3406  2.1382
    4MPD2    N114161   2.410   1.485  11.261  0.5025 -0.4646 -0.0063
    4MPD2    H714162   2.363   1.418  11.201 -1.9730  1.5959 -0.3488
    5TMC3    C114163   2.250   1.397  11.399 -0.2661  0.0715  0.0969
    5TMC3    C214164   2.254   1.325  11.518  0.0921 -0.0029  0.5445
    5TMC3    C314165   2.236   1.188  11.516  0.4483  0.1157  0.7247
    5TMC3    C414166   2.215   1.334  11.283 -0.4228  0.5831  0.3030
    5TMC3    C514167   2.212   1.192  11.280  0.0793 -0.1997  0.0273
    5TMC3    C614168   2.209   1.121  11.399 -0.3217  0.4094 -0.0843
    5TMC3     C14169   2.355   1.497  11.385  0.8588 -0.4778 -0.8527
    5TMC3     O14170   2.407   1.532  11.489 -0.4626  0.0983 -0.4109
    5TMC3     H14171   2.296   1.369  11.608 -0.4960 -0.4820  1.0539
    5TMC3    H114172   2.183   1.388  11.194 -0.5584  1.5066  0.9056
    5TMC3    H214173   2.203   1.013  11.401  1.3586  0.3341  0.8602
    5TMC3    C714174   2.299   1.141  11.178 -0.6897  0.9010 -0.2975
    5TMC3    C814175   2.174   1.138  11.642 -0.1249  0.1498 -0.6456
    5TMC3    O114176   2.367   1.226  11.124 -0.2014 -0.2708  0.3335
    5TMC3    O214177   2.154   1.017  11.644  0.0755 -0.3017  0.1957
    6TMC3    C114178   1.959   0.914  11.118  0.2957  0.2582  0.2730
    6TMC3    C214179   1.915   0.813  11.205 -0.6077  0.7724 -0.1578
    6TMC3    C314180   1.928   0.685  11.162 -0.0728 -0.3016 -0.2927
    6TMC3    C414181   2.024   0.883  10.997 -0.5475  0.1898 -0.3345
    6TMC3    C514182   2.039   0.750  10.963  0.3454 -0.0164  0.3501
    6TMC3    C614183   1.986   0.647  11.046  0.0257 -0.1067 -0.1471
    6TMC3     C14184   1.940   1.049  11.160 -0.3475  0.4443 -0.6477
    6TMC3     O14185   1.952   1.138  11.075 -0.0459  0.0597  0.2235
    6TMC3     H14186   1.864   0.829  11.299  0.7014  0.3327  0.6346
    6TMC3    H114187   2.063   0.964  10.936 -0.4067  1.4968  1.4997
    6TMC3    H214188   1.985   0.543  11.017 -0.6023 -0.2195  0.2875
    6TMC3    C714189   2.075   0.700  10.833  0.3015 -0.5987 -0.2563
    6TMC3    C814190   1.879   0.575  11.247 -0.0799  0.1868  0.1188
    6TMC3    O114191   2.053   0.584  10.808 -0.4567  0.0742 -0.0449
    6TMC3    O214192   1.829   0.489  11.177 -0.3157  0.6925 -0.5123
    7MPD2     C14193   2.544   0.777  10.930  0.4084  0.3258 -0.0322
    7MPD2    C114194   2.578   0.908  10.942 -0.2747  0.8089 -0.2617
    7MPD2    C214195   2.499   0.981  11.034  0.5573 -0.2982 -0.1973
    7MPD2    C314196   2.383   0.926  11.090 -0.0020 -0.6429  0.5627
    7MPD2    C414197   2.366   0.790  11.089 -0.2474 -0.3120  0.2311
    7MPD2    C514198   2.449   0.714  11.012 -0.6426 -0.2891  0.3620
    7MPD2     H14199   2.524   1.086  11.037 -1.6703  0.2810 -1.7144
    7MPD2    H114200   2.280   0.739  11.129  0.3487 -1.3744  0.1521
    7MPD2    H214201   2.599   0.716  10.860 -0.9103 -1.1742  0.2429
    7MPD2    H314202   2.425   0.609  10.995 -1.0150 -0.1954  0.3111
    7MPD2     N14203   2.294   1.004  11.168  0.3453 -0.3693 -0.4326
    7MPD2    H514204   2.220   0.960  11.222  2.5700 -1.4780  1.6892
    7MPD2    N114205   2.684   0.966  10.870  0.0496 -0.0156  0.2483
    7MPD2    H714206   2.711   0.906  10.793  1.7260  2.2511 -0.9420
    8TMC3    C114207   2.785   1.149  10.764 -0.6227  0.6240  0.8464
    8TMC3    C214208   2.721   1.094  10.657 -0.1065 -0.1673 -0.0052
    8TMC3    C314209   2.632   1.173  10.588 -0.7657  0.5459  0.0068
    8TMC3    C414210   2.796   1.282  10.787  0.1232  0.6707 -0.2213
    8TMC3    C514211   2.706   1.362  10.722  0.2134 -0.0080 -0.3606
    8TMC3    C614212   2.626   1.307  10.629  0.2587  0.5410 -0.3526
    8TMC3     C14213   2.748   1.082  10.891  0.2130  0.4781  0.5169
    8TMC3     O14214   2.744   1.153  10.991 -0.6380 -0.4878 -0.5194
    8TMC3     H14215   2.744   0.994  10.622 -1.3381 -0.3410 -0.3287
    8TMC3    H114216   2.853   1.312  10.874  1.2115  0.1460 -0.7420
    8TMC3    H214217   2.548   1.361  10.576 -0.4708 -1.4460 -1.3347
    8TMC3    C714218   2.637   1.453  10.813 -0.2463  0.6334  0.4774
    8TMC3    C814219   2.500   1.110  10.572  0.7741  0.6535  0.5115
    8TMC3    O114220   2.515   1.448  10.815  0.6961 -0.1179  0.0069
    8TMC3    O214221   2.395   1.172  10.598 -0.0337 -0.1476 -0.3120
    9MPD2     C14222   2.469   0.748  10.514  0.0300  0.3924 -0.2731
    9MPD2    C114223   2.424   0.871  10.547 -0.2387  0.9143 -0.4099
    9MPD2    C214224   2.308   0.890  10.618  0.7701 -0.1460 -0.3627
    9MPD2    C314225   2.243   0.778  10.663 -0.2893 -0.1370 -0.3768
    9MPD2    C414226   2.282   0.650  10.627  0.3884  0.1120  0.0167
    9MPD2    C514227   2.400   0.634  10.556 -0.2428  0.8263 -0.6105
    9MPD2     H14228   2.277   0.990  10.647 -1.0339 -0.7639 -0.2139
    9MPD2    H114229   2.238   0.562  10.672  2.2292 -1.7025 -1.7106
    9MPD2    H214230   2.566   0.736  10.466 -0.1810  2.9155 -1.3675
    9MPD2    H314231   2.422   0.535  10.518 -1.8362  0.4556 -0.5457
    9MPD2     N14232   2.151   0.794  10.767 -0.8711 -0.1529 -0.5869
    9MPD2    H514233   2.152   0.888  10.807 -0.2251 -1.9035  3.5343
    9MPD2    N114234   2.517   0.982  10.532 -0.1990  0.2007  0.1351
    9MPD2    H714235   2.609   0.958  10.494 -0.3267 -0.3874  0.2039
    1MPD1     C14236   2.427   3.657  16.164  0.6967  0.3158 -0.1266
    1MPD1    C114237   2.394   3.755  16.256  0.3262  0.5385 -0.1050
    1MPD1    C214238   2.389   3.888  16.215  0.6088 -0.2028  0.0871
    1MPD1    C314239   2.433   3.920  16.091  0.0655 -0.6537 -0.3044
    1MPD1    C414240   2.485   3.820  16.004 -0.7375 -0.7962 -0.7213
    1MPD1    C514241   2.475   3.689  16.039 -0.1154 -0.3681 -1.0395
    1MPD1     H14242   2.335   3.961  16.275 -1.5928 -0.5717 -1.4576
    1MPD1    H114243   2.524   3.832  15.904 -0.3130 -1.5163 -0.6433
    1MPD1    H214244   2.417   3.553  16.192 -1.2215  0.3836 -0.5660
    1MPD1    H314245   2.491   3.612  15.965  0.5455 -0.8721 -0.3688
    1MPD1     N14246   2.432   4.048  16.038 -0.6916  0.7196  0.3969
    1MPD1    H514247   2.455   4.057  15.939 -0.4044  0.1336  0.4133
    1MPD1    N114248   2.336   3.716  16.381  0.6689  0.5568  0.2082
    1MPD1    H614249   2.391   3.636  16.412 -0.1500 -0.1211 -0.0881
    1MPD1    H714250   2.367   3.794  16.438  0.9307  1.4182 -1.1189
    2MPD1     C14251   2.865   4.564  15.332 -0.3557  0.0874  0.2723
    2MPD1    C114252   2.783   4.652  15.400 -0.8504 -0.1494  0.1424
    2MPD1    C214253   2.742   4.627  15.528  0.4767  0.6514 -0.1665
    2MPD1    C314254   2.763   4.505  15.588  0.9249  0.9511 -0.3078
    2MPD1    C414255   2.836   4.411  15.519  0.2283 -0.1768 -0.8194
    2MPD1    C514256   2.890   4.443  15.394 -0.4408 -0.4299 -0.4669
    2MPD1     H14257   2.684   4.705  15.577  0.8788 -0.4913  2.1449
    2MPD1    H114258   2.849   4.313  15.562  1.7420  0.6182  0.5290
    2MPD1    H214259   2.916   4.591  15.240 -0.7648 -0.3764 -0.0858
    2MPD1    H314260   2.954   4.369  15.347  1.4393  0.1653  1.1147
    2MPD1     N14261   2.695   4.472  15.709 -0.5412  0.3234 -0.0054
    2MPD1    H514262   2.618   4.531  15.738 -1.1070 -0.5086  0.2011
    2MPD1    N114263   2.755   0.060  15.345  0.0368  0.0834  0.0852
    2MPD1    H614264   2.752   0.057  15.244  0.5310  0.8635  0.0489
    2MPD1    H714265   2.667   0.102  15.376 -1.9797 -2.7138 -1.8187
    3TCq2    C114266   2.706   4.360  15.786  0.2460  0.3993 -0.5089
    3TCq2    O214267   2.766   4.249  15.776  0.1198 -0.4543  0.7039
    3TCq2    C214268   2.625   4.376  15.902  0.1099  0.0423  0.0850
    3TCq2    C314269   2.590   4.504  15.944 -0.4485 -0.2093 -0.5885
    3TCq2    C414270   2.494   4.511  16.046 -0.0284  0.0983  0.3152
    3TCq2    C514271   2.423   4.404  16.084 -0.8573  0.4969  0.4198
    3TCq2    C614272   2.448   4.283  16.023  0.4918  0.7848  0.1370
    3TCq2    C714273   2.545   4.266  15.936  0.5440 -0.7111 -0.0656
    3TCq2    C814274   2.423   4.164  16.109 -0.3486 -0.4788  0.4561
    3TCq2    O414275   2.405   4.177  16.228 -0.3351 -0.1512 -0.2370
    3TCq2    C914276   2.448   4.642  16.089  0.0482 -0.5624  0.2418
    3TCq2    O514277   2.517   0.020  16.063 -0.3751  0.7072 -0.2510
    3TCq2    O614278   2.345   4.635  16.153  0.2777 -0.2497  0.0300
    3TCq2    H214279   2.640   4.594  15.910  0.4774 -0.4056  0.2490
    3TCq2    H314280   2.349   4.417  16.163  0.1060  0.9712  1.2512
    3TCq2    H414281   2.576   4.168  15.900 -1.5025 -1.0538 -0.8569
    1TCq1    O114282   4.704   3.633  12.879  0.3906  0.2338  0.1854
    1TCq1    C114283   4.574   3.625  12.843  0.2363 -1.1291 -0.7005
    1TCq1    O214284   4.517   3.518  12.824 -0.1949 -0.3748  0.2428
    1TCq1    C214285   4.511   3.748  12.874  0.6791 -0.0667  0.3661
    1TCq1    C314286   4.388   3.741  12.924 -0.3981 -0.5025 -0.2501
    1TCq1    C414287   4.322   3.853  12.958  0.0399 -0.4794  0.8726
    1TCq1    C514288   4.378   3.975  12.937 -0.2331 -0.7154 -0.1296
    1TCq1    C614289   4.509   3.976  12.895 -0.3466 -0.4382  0.4028
    1TCq1    C714290   4.586   3.867  12.860  0.7632 -0.4276 -0.3795
    1TCq1    C814291   4.581   4.094  12.920  0.5900  0.0831 -0.3789
    1TCq1    O414292   4.547   4.199  12.869 -0.5706 -0.0296  0.3969
    1TCq1    C914293   4.184   3.854  13.011 -0.1872 -0.7583 -0.2610
    1TCq1    O514294   4.124   3.961  13.032  0.1844  0.5444 -0.7816
    1TCq1    O614295   4.134   3.741  13.024  0.1310 -0.0844  0.4487
    1TCq1    H114296   4.715   3.711  12.938 -1.0015  2.2896 -2.2320
    1TCq1    H214297   4.326   3.653  12.934  0.0539 -0.9642 -1.4291
    1TCq1    H314298   4.328   4.067  12.963  1.5533  0.5566 -1.1563
    1TCq1    H414299   4.684   3.877  12.815  0.6959 -0.0219 -0.4409
    2MPD2     C14300   0.046   4.293  13.056  0.1800 -0.0388 -0.5583
    2MPD2    C114301   0.054   4.158  13.058 -0.0135  0.1065  0.4380
    2MPD2    C214302   0.166   4.105  13.123  0.9214 -0.0813  0.7343
    2MPD2    C314303   0.253   4.175  13.201 -0.0137  0.2077  0.3958
    2MPD2    C414304   0.240   4.313  13.201 -0.1507 -0.3538 -0.4716
    2MPD2    C514305   0.149   4.365  13.113  0.1123  0.1345  0.3109
    2MPD2     H14306   0.183   3.999  13.133 -1.9353 -0.5574  0.6590
    2MPD2    H114307   0.307   4.381  13.254 -0.2498 -1.1743  0.7036
    2MPD2    H214308   4.686   4.349  13.009  0.5040  0.8840 -0.0093
    2MPD2    H314309   0.145   4.472  13.105 -1.8476  0.0976  0.7269
    2MPD2     N14310   0.344   4.106  13.286 -0.3561  0.3072  0.0978
    2MPD2    H514311   0.366   4.009  13.264 -1.8857  0.3928 -1.8010
    2MPD2    N114312   4.684   4.066  13.002 -0.4369 -0.4369 -0.5102
    2MPD2    H714313   4.694   3.967  13.023 -1.0830 -0.0159  1.8098
    3TCq1    O114314   0.831   3.757  13.374  0.4411  0.4844  0.2393
    3TCq1    C114315   0.778   3.863  13.313 -0.7537 -0.1252 -0.0389
    3TCq1    O214316   0.762   3.875  13.196 -0.7706 -0.6290  0.3532
    3TCq1    C214317   0.698   3.948  13.396  0.2526 -0.2327 -0.3808
    3TCq1    C314318   0.750   3.982  13.523 -0.5721 -0.9207  0.0259
    3TCq1    C414319   0.690   4.074  13.595  0.6974  0.4132  0.7076
    3TCq1    C514320   0.565   4.117  13.565 -0.1721  1.0566  0.1842
    3TCq1    C614321   0.514   4.085  13.444 -0.2806  0.4886 -0.3842
    3TCq1    C714322   0.581   4.001  13.359  0.4675 -0.7636 -0.0522
    3TCq1    C814323   0.409   4.168  13.391  0.2809 -0.3228  0.2733
    3TCq1    O414324   0.378   4.268  13.452  0.2672 -0.1933 -0.4800
    3TCq1    C914325   0.765   4.127  13.713 -0.8385  0.0941 -0.0144
    3TCq1    O514326   0.724   4.234  13.765 -0.1831 -0.0444 -0.0772
    3TCq1    O614327   0.879   4.079  13.736 -0.3582 -0.0837  0.1791
    3TCq1    H114328   0.822   3.756  13.472 -0.9810  2.4525  0.1148
    3TCq1    H214329   0.847   3.954  13.561  0.6788  1.9367 -1.0511
    3TCq1    H314330   0.504   4.181  13.628 -1.4953  1.6060 -1.6526
    3TCq1    H414331   0.542   3.979  13.260  0.1693 -0.7980  0.0721
    1MPD2     C14332   0.151   0.296  14.660 -0.0455  0.4287 -0.3354
    1MPD2    C114333   0.121   0.193  14.748 -0.5706 -0.3781  0.0061
    1MPD2    C214334   0.204   0.169  14.858  0.3879  0.7410  0.3006
    1MPD2    C314335   0.321   0.241  14.871 -0.0417  0.4297  0.7335
    1MPD2    C414336   0.353   0.339  14.776 -0.0256 -0.7235 -1.2892
    1MPD2    C514337   0.270   0.360  14.663 -0.8770  0.3471  0.1251
    1MPD2     H14338   0.167   0.107  14.939  1.5814 -0.3148  0.0470
    1MPD2    H114339   0.440   0.404  14.779  0.2066 -1.1828  1.2698
    1MPD2    H214340   0.089   0.312  14.573  0.8321  2.1925 -0.6153
    1MPD2    H314341   0.296   0.431  14.585  0.8632 -1.0976 -0.6419
    1MPD2     N14342   0.406   0.213  14.977  0.1266  0.4141  0.8515
    1MPD2    H514343   0.477   0.281  15.001  0.9445  0.3333 -1.3635
    1MPD2    N114344   4.715   0.134  14.731 -0.0719  0.3207 -0.0291
    1MPD2    H714345   4.660   0.155  14.648  0.1679  2.9550  0.4834
    2TMC3    C114346   4.528   4.719  14.790 -0.0510 -0.9659 -0.4481
    2TMC3    C214347   4.505   4.627  14.887 -0.4016 -1.0851  0.5575
    2TMC3    C314348   4.391   4.635  14.959 -0.5205 -0.8278  0.7569
    2TMC3    C414349   4.437   0.098  14.765  0.2419 -0.3289 -0.3074
    2TMC3    C514350   4.319   0.098  14.837 -0.6144 -0.5854 -0.1982
    2TMC3    C614351   4.292   0.012  14.939 -0.2609 -0.6552 -0.4621
    2TMC3     C14352   4.668   0.033  14.819  0.6866  0.0275  0.4623
    2TMC3     O14353   4.719   4.676  14.896 -0.4501  0.1137 -0.0907
    2TMC3     H14354   4.566   4.537  14.893 -1.2446 -1.5636  2.1247
    2TMC3    H114355   4.455   0.178  14.694  2.5020  0.9318  1.7038
    2TMC3    H214356   4.194   4.720  14.983  0.9480 -2.1944  1.7652
    2TMC3    C714357   4.204   0.153  14.771 -1.0698 -0.0112 -0.1814
    2TMC3    C814358   4.410   4.603  15.098  0.5398  0.7998  0.3493
    2TMC3    O114359   4.103   0.166  14.841 -0.2415  0.2255 -0.0580
    2TMC3    O214360   4.309   4.609  15.166  0.3346 -0.2612  0.7568
    3TCq1    O114361   4.021   0.718  13.689 -0.5409 -0.2554  0.3322
    3TCq1    C114362   4.025   0.587  13.661 -0.0608 -0.6321 -0.1788
    3TCq1    O214363   3.963   0.535  13.569  0.0628 -0.4621  0.2688
    3TCq1    C214364   4.122   0.520  13.749 -0.1032 -0.0092  0.0820
    3TCq1    C314365   4.223   0.441  13.701 -0.0705  0.2625  0.3482
    3TCq1    C414366   4.295   0.375  13.800 -0.1337  0.5715  0.0557
    3TCq1    C514367   4.266   0.375  13.936  0.0839  0.9478  0.1777
    3TCq1    C614368   4.150   0.434  13.971  0.1862  0.0469 -0.3328
    3TCq1    C714369   4.076   0.503  13.877 -0.5048  0.0083 -0.6542
    3TCq1    C814370   4.078   0.423  14.096  0.0327 -0.1671  0.4111
    3TCq1    O414371   3.956   0.436  14.090 -0.2021  0.0844  0.1809
    3TCq1    C914372   4.403   0.296  13.757 -0.2732  0.2233 -0.1969
    3TCq1    O514373   4.484   0.258  13.849 -0.0164  0.0048 -0.0285
    3TCq1    O614374   4.414   0.273  13.634 -0.1937  0.9247  0.1911
    3TCq1    H114375   4.090   0.750  13.751 -0.9494 -0.4048  0.8595
    3TCq1    H214376   4.258   0.437  13.599 -0.8137 -0.3976  0.1133
    3TCq1    H314377   4.324   0.330  14.015  1.3389 -0.1646 -1.3827
    3TCq1    H414378   3.982   0.554  13.898  1.3328  1.5729  3.7500
    4MPD2     C14379   3.969   0.366  14.368 -0.6657  0.0186  0.2445
    4MPD2    C114380   4.098   0.344  14.334  0.4870  0.0833  0.0632
    4MPD2    C214381   4.181   0.289  14.429  0.7695 -0.1780  0.5917
    4MPD2    C314382   4.128   0.248  14.548  0.6695  0.1079  0.2275
    4MPD2    C414383   3.997   0.254  14.578 -1.1286 -0.4352  0.1790
    4MPD2    C514384   3.919   0.312  14.486  0.2533  0.4625 -0.0118
    4MPD2     H14385   4.282   0.260  14.402  0.4020 -0.5066 -0.4105
    4MPD2    H114386   3.948   0.212  14.665 -0.4831  0.3008  0.9033
    4MPD2    H214387   3.905   0.413  14.295 -0.9656  0.5551  0.8560
    4MPD2    H314388   3.815   0.330  14.508  0.4327  0.0466  1.1448
    4MPD2     N14389   4.223   0.186  14.639  0.1264  0.3795  0.1649
    4MPD2    H514390   4.307   0.151  14.595 -0.7851 -1.7859  0.1419
    4MPD2    N114391   4.153   0.390  14.209  0.3124 -0.2840  0.2443
    4MPD2    H714392   4.254   0.394  14.195  0.1578 -2.3914 -1.3749
    5TMC2    C114393   0.445   0.021  15.392 -0.5656 -0.3882 -0.2769
    5TMC2    C214394   0.487   0.131  15.451 -0.2173 -0.1668 -0.3205
    5TMC2    C314395   0.529   0.234  15.364 -0.2586  0.3983  0.2323
    5TMC2    C414396   0.464   0.001  15.260 -0.0610  0.7013  0.6128
    5TMC2    C514397   0.479   0.102  15.175 -0.0715  0.0619  0.1634
    5TMC2    C614398   0.517   0.227  15.229 -0.7214  0.9802  0.3477
    5TMC2     C14399   0.317   4.704  15.443  0.4702 -0.0293 -0.6557
    5TMC2     O14400   0.301   4.712  15.565 -0.1719 -0.1152  0.3532
    5TMC2     H14401   0.454   0.152  15.552  1.2619 -0.1533  0.1618
    5TMC2    H114402   0.429   4.628  15.218  1.2621  0.4000  0.1979
    5TMC2    H214403   0.561   0.303  15.165 -0.9060 -0.4606 -1.4781
    5TMC2    C714404   0.400   0.100  15.059 -0.3847 -0.3137 -0.2491
    5TMC2    C814405   0.658   0.294  15.395 -0.5468  0.1487 -0.1013
    5TMC2    O114406   0.343   4.716  15.042  0.0333 -0.2099 -0.7226
    5TMC2    O214407   0.712   0.378  15.327  0.1358  0.5923 -0.3623
    5TMC2    O514408   0.718   0.195  15.467 -0.4232 -0.1510 -0.2803
    5TMC2    H514409   0.654   0.134  15.509 -0.5530  0.8578  1.0034
    6MPD2     C14410   4.543   4.630  15.361 -0.4304 -0.4914  0.6385
    6MPD2    C114411   4.610   4.599  15.246 -0.2225 -0.1955  0.6738
    6MPD2    C214412   0.021   4.598  15.241  0.6899 -0.3445  0.3794
    6MPD2    C314413   0.099   4.630  15.353  0.1256 -0.3338  0.4892
    6MPD2    C414414   0.029   4.646  15.475 -0.1100 -0.5538 -0.3185
    6MPD2    C514415   4.612   4.646  15.481  0.7361 -0.3065  0.2406
    6MPD2     H14416   0.076   4.597  15.147 -0.0116  0.8431 -0.0546
    6MPD2    H114417   0.077   4.668  15.569 -0.5028 -1.1981  0.0319
    6MPD2    H214418   4.435   4.631  15.366 -0.4824  1.4200 -1.0123
    6MPD2    H314419   4.560   4.674  15.572  0.5256  2.5057 -0.7559
    6MPD2     N14420   0.236   4.655  15.343 -0.7945  0.5758  0.3648
    6MPD2    H514421   0.279   4.644  15.251 -0.9756  0.6430  0.2740
    6MPD2    N114422   4.541   4.592  15.123  0.0769  0.5643 -0.1025
    6MPD2    H714423   4.596   4.595  15.038  1.4081 -0.3702  0.7291
  945NH4     N114424   0.198   2.750  10.134  0.1468 -0.0683  0.0226
  945NH4     H214425   0.280   2.755  10.197 -0.2210  2.0151  0.3404
  945NH4     H314426   0.230   2.771  10.037 -0.0579  0.0660 -0.0153
  945NH4     H414427   0.122   2.814  10.163 -0.6642 -1.0168  0.0107
  945NH4     H514428   0.159   2.653  10.134  1.3387 -0.5418  1.0930
  946SOD     NA14429   3.572   1.716   0.986  0.3318  0.1919 -0.3331
  947SOD     NA14430   1.284   0.905   0.733 -0.0263 -0.3614  0.2306
  948SOD     NA14431   0.980   1.309  10.923 -0.5294  0.5359  0.2939
  949SOD     NA14432   2.491   0.457  13.457 -0.1257  0.0720  0.2383
  950SOD     NA14433   3.443   3.637  10.155  0.1791 -0.2823 -0.8357
  951SOD     NA14434   0.302   3.276  11.757 -0.2299  0.2542 -0.2534
  952SOD     NA14435   4.445   3.856   9.430  0.3442 -0.0380 -0.1814
  953SOD     NA14436   4.511   0.703  13.057  0.6197  0.0904  0.4450
  954SOD     NA14437   0.454   2.517  10.362 -0.1685 -0.2763  0.3852
  955SOD     NA14438   0.753   3.685  11.747  0.2127  0.1426 -0.2370
  956SOD     NA14439   0.911   4.193  15.132 -0.2406  0.0147 -0.1875
  957SOD     NA14440   1.245   2.981  11.621 -0.2923 -0.0875 -0.0193
  958SOD     NA14441   0.607   3.618  16.018 -0.1121  0.2191 -0.1856
  959SOD     NA14442   0.469   3.141  10.227  0.1035 -0.1599 -0.0859
  960SOD     NA14443   3.917   3.831  13.020  0.3132  0.1037 -0.1026
  961SOD     NA14444   3.688   0.450   1.237 -0.2018 -0.6764  0.2260
  962SOD     NA14445   1.854   3.820   1.794 -0.0252  0.1787 -0.2767
  963SOD     NA14446   4.000   3.236   9.157 -0.2055  0.0703 -0.5843
  964SOD     NA14447   1.598   3.791  14.391  0.3086 -0.1262 -0.2673
  965SOD     NA14448   0.344   4.404  12.069 -0.6878 -0.4664 -0.1356
  966SOD     NA14449   2.095   0.369   7.958 -0.4323 -0.0313 -0.4787
  967SOD     NA14450   3.082   1.647  11.722  0.3486  0.5622 -0.2706
  968SOD     NA14451   4.410   4.082  10.005  0.0781 -0.4430 -0.3379
  969SOD     NA14452   4.220   1.800   3.241  0.3614 -0.2871  0.0847
  970SOD     NA14453   4.187   2.739   1.945  0.2776  0.1238 -0.2774
  971SOD     NA14454   4.113   1.136  11.307 -0.0881  0.1129  0.2989
  972SOD     NA14455   2.498   4.615  14.744 -0.2323  0.5363 -0.1382
  973SOD     NA14456   1.869   1.891   9.275 -0.1797  0.0876 -0.1384
  974SOD     NA14457   3.926   4.586  10.508  0.3709  0.1196 -0.6463
  975SOD     NA14458   1.730   2.469  12.881  0.6694  0.1566  0.1499
  976SOD     NA14459   4.126   3.080  14.151  0.3118 -0.0473  0.0802
  977SOD     NA14460   0.063   3.854  14.953  0.4601 -0.2365  0.5455
  978SOD     NA14461   0.999   3.859  11.624 -0.2424 -0.3873 -0.4495
  979SOD     NA14462   2.883   4.350   0.797  0.8930  0.1452  0.3873
  980SOD     NA14463   2.104   0.093  15.793 -0.2699 -0.3162  0.4380
  981SOD     NA14464   0.938   2.400   0.715 -0.3990 -0.7337  0.6228
  982SOD     NA14465   0.226   2.905   9.769 -0.2519 -0.0870 -0.2561
  983SOD     NA14466   0.748   0.664   4.851 -0.0807 -0.2287  0.2491
  984SOD     NA14467   4.467   3.293  10.594 -0.3457  0.3835  0.8241
  985SOD     NA14468   1.050   1.909   3.117 -0.0209  0.0921  0.0335
  986SOD     NA14469   2.098   0.078  16.991  0.4315  0.3140  0.4157
  987SOD     NA14470   3.423   3.234   1.815  0.1157 -0.2229  0.4742
  988SOD     NA14471   1.023   2.478   4.603 -0.5269  0.5146  0.5592
  989SOD     NA14472   2.584   2.668   1.464  0.2471 -0.0656  0.9763
  990SOD     NA14473   0.376   4.274  11.007  0.4111  0.2509 -0.2848
  991SOD     NA14474   3.265   3.374  14.805 -0.0869 -0.5313  0.4066
  992SOD     NA14475   3.633   2.013  13.148 -0.0160  0.4827  0.0852
  993SOD     NA14476   1.055   4.220  13.699  0.1543  0.0379 -0.1285
  994SOD     NA14477   3.530   4.620  13.926 -0.1226 -0.9128 -0.1376
  995SOD     NA14478   2.182   3.845   4.237 -0.0578  0.3865 -0.0753
  996SOD     NA14479   0.105   0.289  14.152 -0.4991 -0.3773  0.3144
  997SOD     NA14480   1.923   0.277  16.003  0.3620  0.3154  0.1525
  998SOD     NA14481   2.218   2.939   0.868 -0.0943 -0.1051  0.1342
  999SOD     NA14482   4.280   2.902  12.874 -0.0506  0.1534  0.1658
 1000SOD     NA14483   1.775   2.879   3.004 -0.1165 -0.3748 -0.4042
 1001SOD     NA14484   1.281   3.461  16.944 -0.6422  0.0170 -0.3782
 1002SOD     NA14485   4.331   1.095  16.786  0.4962 -0.1383 -0.6108
 1003SOD     NA14486   4.581   0.070   3.367  0.3195 -0.4387 -0.7578
 1004SOD     NA14487   1.235   0.138  13.883 -0.6504 -0.1997  0.1107
 1005SOD     NA14488   3.128   2.998  13.044  0.0990  0.3268  0.1087
 1006SOD     NA14489   0.312   1.031  10.870 -0.0084  0.0689 -0.2544
 1007SOD     NA14490   4.255   1.698  11.525 -0.1526  0.0080 -0.5137
 1008SOD     NA14491   2.466   1.805   0.985  0.2624 -0.0544 -0.0024
 1009SOD     NA14492   1.712   0.055  11.090 -0.1971 -0.0412 -0.2284
 1010SOD     NA14493   0.619   4.334   0.843 -0.3204 -0.0346 -0.1032
 1011SOL     OW14494   2.449   4.233   4.184  0.3550 -0.2502 -0.2830
 1011SOL    HW114495   2.508   4.277   4.246  0.0812  1.9349 -1.5659
 1011SOL    HW214496   2.450   4.297   4.113  1.0900  1.4535  1.2349
 1012SOL     OW14497   1.755   2.863   9.990 -0.1299 -0.2837 -0.3220
 1012SOL    HW114498   1.843   2.897   9.976 -1.3789  2.3900 -1.7678
 1012SOL    HW214499   1.754   2.857  10.086  2.9311  0.4807 -0.2568
 1013SOL     OW14500   1.738   4.216  16.997  0.4459 -0.2764  0.5354
 1013SOL    HW114501   1.814   4.247  16.947 -0.1127  2.6260  1.5219
 1013SOL    HW214502   1.690   4.169  16.929 -1.4610  0.9521  1.0353
 1014SOL     OW14503   4.246   1.553   7.491 -0.1723 -0.0706 -0.2124
 1014SOL    HW114504   4.308   1.499   7.539  1.4721  1.5093 -0.5544
 1014SOL    HW214505   4.178   1.584   7.551 -0.5146  0.1190 -0.6965
 1015SOL     OW14506   0.409   2.146   6.849  1.0138  0.5030 -0.2894
 1015SOL    HW114507   0.411   2.072   6.909  0.8180 -2.0934 -3.5163
 1015SOL    HW214508   0.319   2.145   6.818  0.5816  1.7195  0.8844
 1016SOL     OW14509   1.983   3.850   6.344 -0.0537 -0.2715  0.8087
 1016SOL    HW114510   2.053   3.906   6.376 -1.4488  3.2962 -2.3207
 1016SOL    HW214511   2.037   3.789   6.293 -0.4156 -1.0225  1.3207
 1017SOL     OW14512   0.885   3.603   8.634  0.0889 -0.1339  0.2264
 1017SOL    HW114513   0.812   3.555   8.595  2.7265 -2.0171 -2.4923
 1017SOL    HW214514   0.842   3.664   8.694 -0.0990 -1.3427  1.3232
 1018SOL     OW14515   1.578   0.757   9.139  0.1081 -0.2810  0.0082
 1018SOL    HW114516   1.489   0.740   9.109  0.0314  0.6568 -0.3133
 1018SOL    HW214517   1.555   0.782   9.229  0.7827 -1.1141  0.4153
 1019SOL     OW14518   0.162   0.878   1.634 -0.1555  0.8858 -0.3021
 1019SOL    HW114519   0.139   0.873   1.727 -1.2133 -0.4293 -0.6302
 1019SOL    HW214520   0.149   0.972   1.622 -1.1278  0.6092 -1.3517
 1020SOL     OW14521   2.997   0.504   5.862  0.4376 -0.4700  0.9060
 1020SOL    HW114522   2.939   0.491   5.787  0.6292 -1.0423  0.8575
 1020SOL    HW214523   3.072   0.535   5.811  1.5183 -2.6150  1.1896
 1021SOL     OW14524   3.876   3.807   7.627 -0.2452  0.3937  0.2197
 1021SOL    HW114525   3.907   3.886   7.584 -0.3324  0.9965  1.2579
 1021SOL    HW214526   3.829   3.851   7.698  2.8644 -0.4726  2.8265
 1022SOL     OW14527   2.607   4.120  16.405  0.3133  0.3261  0.3120
 1022SOL    HW114528   2.639   4.042  16.360  0.2525  0.0575  0.7458
 1022SOL    HW214529   2.536   4.140  16.344 -1.0152  0.8996  2.0600
 1023SOL     OW14530   2.684   3.991  10.069 -0.0020 -0.1928 -0.1362
 1023SOL    HW114531   2.589   3.994  10.057 -0.3225 -2.4761  1.7375
 1023SOL    HW214532   2.689   3.904  10.029 -1.0283  0.2455 -1.2174
 1024SOL     OW14533   4.685   0.135   4.701  0.2927 -0.2541 -0.2090
 1024SOL    HW114534   4.663   0.092   4.619 -1.5856 -0.5047  0.4193
 1024SOL    HW214535   0.043   0.088   4.727  0.9995 -0.3377 -2.4932
 1025SOL     OW14536   2.890   2.697   8.500 -0.6527 -0.6946  0.0063
 1025SOL    HW114537   2.841   2.654   8.571 -1.3226 -0.6811 -0.4460
 1025SOL    HW214538   2.834   2.703   8.423 -1.4588 -1.4923  0.5259
 1026SOL     OW14539   1.564   2.696   8.316  0.2664 -0.0110  0.2662
 1026SOL    HW114540   1.628   2.693   8.386 -0.8903  1.5403  1.3920
 1026SOL    HW214541   1.579   2.780   8.271 -2.7216  0.6522  0.5159
 1027SOL     OW14542   1.157   0.274  14.282 -0.2780 -0.1520 -0.1282
 1027SOL    HW114543   1.104   0.350  14.258 -1.3303 -0.4160  1.3674
 1027SOL    HW214544   1.089   0.222  14.324  0.2623 -0.3161  0.5417
 1028SOL     OW14545   2.464   0.475   8.969 -0.0615  0.4394 -0.3853
 1028SOL    HW114546   2.396   0.411   8.946 -0.3414  0.0192  1.6204
 1028SOL    HW214547   2.515   0.424   9.032  0.2352  1.5577  0.2737
 1029SOL     OW14548   1.232   2.976   8.027  1.2061  0.3970 -0.9441
 1029SOL    HW114549   1.215   2.902   7.969 -0.7648 -0.7276  1.0708
 1029SOL    HW214550   1.143   3.009   8.032  1.0588 -0.1430  0.0789
 1030SOL     OW14551   2.634   2.375   7.320  0.2722  0.2467  0.4531
 1030SOL    HW114552   2.621   2.317   7.395 -0.6745 -0.0824  0.0426
 1030SOL    HW214553   2.623   2.458   7.366  0.5609 -0.9142  2.5795
 1031SOL     OW14554   2.452   2.805   3.315  0.2419  0.0240  0.0231
 1031SOL    HW114555   2.370   2.780   3.358 -0.5614 -0.4004 -1.7439
 1031SOL    HW214556   2.462   2.738   3.248 -0.8250  0.6230 -0.7290
 1032SOL     OW14557   1.604   2.830  13.054 -0.2588 -0.0944 -0.2401
 1032SOL    HW114558   1.551   2.760  13.094 -0.1353 -0.4926 -0.7780
 1032SOL    HW214559   1.678   2.780  13.021  0.0218 -1.3931  2.3216
 1033SOL     OW14560   3.155   3.856  10.711  0.7585  0.5969  0.0492
 1033SOL    HW114561   3.189   3.912  10.781 -0.5280  0.2711  0.9214
 1033SOL    HW214562   3.067   3.840  10.746  0.5410  0.9417 -0.3454
 1034SOL     OW14563   1.170   4.110   1.298 -0.1448  0.1361 -0.4849
 1034SOL    HW114564   1.135   4.139   1.382 -0.2015 -2.8420  0.5118
 1034SOL    HW214565   1.091   4.099   1.245 -0.2414 -0.1452 -0.2846
 1035SOL     OW14566   0.863   4.443  13.866  0.6782  0.5219 -0.5294
 1035SOL    HW114567   0.934   4.458  13.804  1.4687 -3.1338 -0.4795
 1035SOL    HW214568   0.809   4.378  13.821  1.8713 -0.6318 -0.2821
 1036SOL     OW14569   4.094   3.688   8.539  0.0019 -0.5911 -0.4178
 1036SOL    HW114570   4.149   3.749   8.588  0.1369 -0.4019 -0.7992
 1036SOL    HW214571   4.159   3.618   8.528 -0.0437 -0.7069  0.0460
 1037SOL     OW14572   3.418   2.840   3.431 -0.1026 -0.2864  0.1393
 1037SOL    HW114573   3.503   2.797   3.437  1.6432  2.4739 -4.8737
 1037SOL    HW214574   3.386   2.802   3.513 -1.0272 -1.9518 -1.0053
 1038SOL     OW14575   4.052   4.555   4.853  0.6792 -0.4011  0.1862
 1038SOL    HW114576   3.973   4.561   4.799  0.8462 -1.8623 -0.2108
 1038SOL    HW214577   4.115   4.613   4.810 -0.0887 -0.7131 -1.3639
 1039SOL     OW14578   0.427   3.921  14.326 -0.1703 -0.0346  0.0530
 1039SOL    HW114579   0.408   3.852  14.263 -1.2693 -0.1985  0.5673
 1039SOL    HW214580   0.413   3.995  14.267  1.6467  0.5184  0.3171
 1040SOL     OW14581   3.634   0.944   6.055 -0.1978  0.4052  0.5786
 1040SOL    HW114582   3.664   0.997   5.980  1.9716 -1.1749  0.3386
 1040SOL    HW214583   3.615   1.011   6.120  1.5061  0.8706  0.5823
 1041SOL     OW14584   2.737   0.352   8.044  0.6567 -0.3849  0.2471
 1041SOL    HW114585   2.687   0.297   7.983 -0.5224 -0.8480  1.6474
 1041SOL    HW214586   2.815   0.298   8.058  1.4569  0.3350 -1.3856
 1042SOL     OW14587   3.744   0.380   1.575  0.1162 -0.0323 -0.6861
 1042SOL    HW114588   3.691   0.454   1.543 -2.0135 -0.9677  0.6756
 1042SOL    HW214589   3.757   0.333   1.493  0.1003  2.5755 -2.1898
 1043SOL     OW14590   0.047   0.596   7.452  0.0296 -0.4193 -0.0610
 1043SOL    HW114591   4.710   0.529   7.416 -3.0665  2.0089  0.3737
 1043SOL    HW214592   0.042   0.668   7.388  0.1718 -0.9635 -0.6859
 1044SOL     OW14593   3.424   1.309   9.887  0.0271  0.0903  0.0143
 1044SOL    HW114594   3.512   1.309   9.849  0.2587 -0.7474  0.5742
 1044SOL    HW214595   3.402   1.392   9.844 -0.9864 -0.1494  0.0657
 1045SOL     OW14596   4.253   0.245   0.952  0.0945  0.2763  0.5638
 1045SOL    HW114597   4.304   0.198   0.886 -2.5885 -1.0743 -0.5496
 1045SOL    HW214598   4.272   0.332   0.917 -0.8558  0.3513  0.2384
 1046SOL     OW14599   3.497   2.378  10.239  0.1021 -0.3712  0.0786
 1046SOL    HW114600   3.533   2.293  10.262  2.0978 -0.6371 -4.1475
 1046SOL    HW214601   3.551   2.440  10.287  2.4693 -0.0016 -3.0357
 1047SOL     OW14602   1.555   1.119   9.597  0.6722  0.7094 -0.1045
 1047SOL    HW114603   1.579   1.210   9.579 -0.6635  1.3336  1.1784
 1047SOL    HW214604   1.493   1.093   9.528 -0.8185  2.4087  0.5748
 1048SOL     OW14605   4.698   3.185   2.803  0.4878  0.1461  0.2665
 1048SOL    HW114606   0.026   3.171   2.722 -0.1262  2.4489 -0.4902
 1048SOL    HW214607   4.629   3.119   2.793  1.6720 -0.8714 -1.2176
 1049SOL     OW14608   0.409   0.290   5.442 -0.0128  0.2569  0.2954
 1049SOL    HW114609   0.423   0.272   5.535  0.8102  0.9736  0.3088
 1049SOL    HW214610   0.454   0.213   5.407 -2.9673 -0.3385 -2.2528
 1050SOL     OW14611   1.347   0.292   6.162 -0.1736 -0.2329  0.1170
 1050SOL    HW114612   1.358   0.288   6.067 -1.1580  3.7293 -0.1482
 1050SOL    HW214613   1.391   0.211   6.188 -4.4170 -1.6085  3.0217
 1051SOL     OW14614   0.963   1.669   4.096  0.5091  0.4144  0.6445
 1051SOL    HW114615   1.029   1.608   4.129  0.9001  1.3573  1.5823
 1051SOL    HW214616   1.012   1.750   4.108  1.4435  0.2831 -2.3881
 1052SOL     OW14617   1.287   4.223  14.879  0.0613 -0.2608 -0.0488
 1052SOL    HW114618   1.291   4.130  14.855 -0.5089  0.0584 -1.3843
 1052SOL    HW214619   1.206   4.245  14.832  1.1314 -0.2958 -1.9026
 1053SOL     OW14620   0.735   1.009   4.333  0.0805 -0.6890 -0.0266
 1053SOL    HW114621   0.718   1.056   4.252  0.8717  0.0779  0.2506
 1053SOL    HW214622   0.697   1.071   4.395 -1.8885 -0.3700 -1.5727
 1054SOL     OW14623   2.480   1.990   7.881 -0.0496 -0.4242  0.4328
 1054SOL    HW114624   2.564   1.946   7.871  0.3499 -0.3183  3.5892
 1054SOL    HW214625   2.432   1.916   7.844 -0.6274  0.4115 -0.5180
 1055SOL     OW14626   1.999   1.410   3.514 -0.4261 -0.3881 -1.0075
 1055SOL    HW114627   1.906   1.388   3.523  0.1679 -2.2228  0.6071
 1055SOL    HW214628   1.996   1.467   3.437  1.4429  0.7686 -0.1973
 1056SOL     OW14629   1.831   4.593   7.317 -0.0578  0.2025 -0.2490
 1056SOL    HW114630   1.837   4.688   7.318  1.5575  0.0987  0.0912
 1056SOL    HW214631   1.892   4.577   7.245  0.3121  1.0240 -0.1129
 1057SOL     OW14632   1.888   4.545  13.596 -0.0816  0.1853 -0.4047
 1057SOL    HW114633   1.821   4.484  13.628 -0.6339  0.6790 -0.6385
 1057SOL    HW214634   1.837   4.614  13.554  0.1457  0.6993  0.1637
 1058SOL     OW14635   4.230   1.366   8.529 -0.1991  0.1330  0.3916
 1058SOL    HW114636   4.257   1.400   8.444  0.3636 -2.1422 -0.3443
 1058SOL    HW214637   4.181   1.441   8.563  0.0060  0.1382  0.6677
 1059SOL     OW14638   0.988   2.889   8.287  0.1545 -0.3113 -0.2305
 1059SOL    HW114639   0.989   2.882   8.383  0.7657 -0.9748 -0.2900
 1059SOL    HW214640   1.081   2.902   8.270  0.3444 -2.6627 -0.8852
 1060SOL     OW14641   0.604   4.193  17.241 -0.1185  0.4579 -0.4495
 1060SOL    HW114642   0.555   4.160  17.316 -0.2583  0.9712 -0.3134
 1060SOL    HW214643   0.684   4.141  17.243 -0.1974  0.3037 -1.3705
 1061SOL     OW14644   1.590   0.853   4.270 -0.1882 -0.8163 -0.2641
 1061SOL    HW114645   1.535   0.847   4.192  0.1180  0.6945 -0.5974
 1061SOL    HW214646   1.575   0.768   4.313  1.3503 -0.4610  0.9794
 1062SOL     OW14647   3.064   3.973   6.269  0.0756  0.3505 -0.3489
 1062SOL    HW114648   3.122   3.934   6.335  0.2676 -0.3712 -0.9479
 1062SOL    HW214649   3.067   4.066   6.291 -1.3805  0.3450 -0.1224
 1063SOL     OW14650   2.200   1.475   6.515  0.4190 -0.1125  0.3579
 1063SOL    HW114651   2.206   1.565   6.546 -0.2617  0.1679 -0.3521
 1063SOL    HW214652   2.135   1.477   6.445  0.3359 -0.9351  0.4061
 1064SOL     OW14653   1.845   1.845   7.135  0.6344 -0.0268  0.1058
 1064SOL    HW114654   1.785   1.896   7.189  1.1002 -1.5561  2.0651
 1064SOL    HW214655   1.782   1.838   7.062 -1.2436  1.7234  1.5538
 1065SOL     OW14656   2.615   4.216   5.987  0.1269  0.0962  0.1610
 1065SOL    HW114657   2.700   4.259   5.992 -0.0701  0.6909 -1.8054
 1065SOL    HW214658   2.635   4.122   5.988 -0.9265 -0.1438 -3.1177
 1066SOL     OW14659   3.683   2.340   4.616  0.1377 -0.0437  0.3890
 1066SOL    HW114660   3.647   2.257   4.588  0.9574 -0.5199  0.7463
 1066SOL    HW214661   3.772   2.339   4.579 -0.7086  1.6105 -1.6944
 1067SOL     OW14662   2.298   0.115   4.531 -0.4138  0.5857  0.1273
 1067SOL    HW114663   2.275   0.086   4.619  1.6079 -1.2105  0.0533
 1067SOL    HW214664   2.316   0.033   4.486 -2.1467  0.5297 -0.4775
 1068SOL     OW14665   1.965   2.260  11.572  0.0356 -0.3240  0.2549
 1068SOL    HW114666   1.878   2.292  11.596  0.0645  1.2218 -1.6836
 1068SOL    HW214667   2.011   2.343  11.587 -0.6624  0.0321  0.4192
 1069SOL     OW14668   3.965   1.821   8.248 -0.5187 -0.1674 -0.1930
 1069SOL    HW114669   4.029   1.834   8.318 -1.6511  0.3174  0.7643
 1069SOL    HW214670   3.917   1.903   8.262  1.5126  1.2468 -1.4474
 1070SOL     OW14671   0.422   4.188   3.752  0.5497 -0.0283 -0.1868
 1070SOL    HW114672   0.387   4.099   3.761 -1.0120  0.5656 -0.4554
 1070SOL    HW214673   0.470   4.208   3.833 -1.2167 -0.1016  0.9016
 1071SOL     OW14674   0.573   0.707   1.234 -0.0706 -0.1282  0.3016
 1071SOL    HW114675   0.553   0.757   1.155 -1.0703 -0.8068  0.1284
 1071SOL    HW214676   0.534   0.767   1.299  3.0010  0.9767  1.1262
 1072SOL     OW14677   1.749   3.226   4.630  0.0789  0.2365 -0.2161
 1072SOL    HW114678   1.768   3.206   4.721  0.7345 -2.0803 -0.8560
 1072SOL    HW214679   1.700   3.307   4.645  0.5710  0.2243  1.4060
 1073SOL     OW14680   0.834   1.169   5.322  0.3653  0.0923 -0.1433
 1073SOL    HW114681   0.852   1.206   5.409  0.6580 -0.3778 -0.0015
 1073SOL    HW214682   0.829   1.074   5.336  1.3348  0.4176  2.5808
 1074SOL     OW14683   0.803   1.651   2.675  0.0699 -0.1739  0.2831
 1074SOL    HW114684   0.818   1.746   2.675  2.8763 -0.6219 -0.2727
 1074SOL    HW214685   0.885   1.622   2.635  0.8747  1.0596  1.0357
 1075SOL     OW14686   1.232   1.541   9.566 -0.1973  0.1235 -0.3604
 1075SOL    HW114687   1.185   1.483   9.624 -1.6475 -0.3891 -2.0611
 1075SOL    HW214688   1.164   1.589   9.518  0.6760  1.7033 -0.0439
 1076SOL     OW14689   2.657   0.654  11.669  0.1896  0.1699 -0.3921
 1076SOL    HW114690   2.698   0.578  11.628 -0.6488 -0.6238  0.2346
 1076SOL    HW214691   2.657   0.721  11.601  0.8292 -0.2935 -0.8544
 1077SOL     OW14692   2.439   2.708   6.034 -0.0957 -0.8007 -0.5934
 1077SOL    HW114693   2.472   2.779   6.090  0.4280 -0.0258 -1.8692
 1077SOL    HW214694   2.347   2.721   6.056 -0.7204 -1.1755 -2.9925
 1078SOL     OW14695   4.222   3.400   3.538 -0.6104  0.2871 -0.1548
 1078SOL    HW114696   4.273   3.391   3.618 -0.4462 -1.4384 -0.4444
 1078SOL    HW214697   4.268   3.473   3.497 -1.2598  0.7006 -0.1427
 1079SOL     OW14698   1.249   3.645   2.598 -0.3597  0.4935  0.6300
 1079SOL    HW114699   1.180   3.688   2.648 -0.5994 -0.9973  1.5758
 1079SOL    HW214700   1.315   3.626   2.665 -1.3405  1.5975  1.8923
 1080SOL     OW14701   3.211   4.006  14.007  0.0105  0.6416 -1.1822
 1080SOL    HW114702   3.193   3.957  14.087 -1.2799  2.6313 -0.2530
 1080SOL    HW214703   3.228   3.932  13.948 -2.0300 -2.2432  1.8424
 1081SOL     OW14704   2.114   3.569  11.559  0.4776  0.2587 -0.1726
 1081SOL    HW114705   2.155   3.570  11.645 -0.0549 -0.0349  0.0845
 1081SOL    HW214706   2.062   3.650  11.559  0.0582 -0.0119  1.4507
 1082SOL     OW14707   1.071   2.828   0.950  0.3136  0.4513  0.0347
 1082SOL    HW114708   1.137   2.856   1.013 -0.2045  0.5452  0.5431
 1082SOL    HW214709   1.110   2.853   0.866 -0.9955  0.2021 -0.6653
 1083SOL     OW14710   2.918   0.923   5.705 -0.3779  0.2258 -0.1345
 1083SOL    HW114711   3.010   0.901   5.718 -0.5807 -0.8211 -0.4625
 1083SOL    HW214712   2.914   0.908   5.611  1.9592  0.1443 -0.2274
 1084SOL     OW14713   2.661   1.272   2.346 -0.4238 -0.1258  1.2467
 1084SOL    HW114714   2.746   1.307   2.371 -1.9334  2.5759  2.5916
 1084SOL    HW214715   2.623   1.254   2.432 -1.9845 -3.7497 -0.1899
 1085SOL     OW14716   0.056   2.268   4.495 -0.8237  0.0556  0.3469
 1085SOL    HW114717   0.034   2.199   4.558  1.4302 -1.7636 -0.8657
 1085SOL    HW214718   0.146   2.294   4.517 -1.5276  0.4793  2.8258
 1086SOL     OW14719   3.985   4.470   7.461  0.0249  0.0513  0.6669
 1086SOL    HW114720   4.072   4.449   7.426 -1.4645  1.6586 -4.0677
 1086SOL    HW214721   3.963   4.553   7.420  0.9167 -0.3521 -0.6399
 1087SOL     OW14722   4.164   0.069   5.707  0.1156  0.0906  0.5281
 1087SOL    HW114723   4.137   0.009   5.776  1.3956 -0.6907  0.3623
 1087SOL    HW214724   4.197   0.147   5.751  2.6017 -0.4870 -0.3261
 1088SOL     OW14725   3.213   2.932  14.978 -0.6654  0.0610 -0.2695
 1088SOL    HW114726   3.134   2.889  14.944  0.2981  0.0745 -2.5071
 1088SOL    HW214727   3.255   2.851  15.007 -0.4819  0.6575  1.1226
 1089SOL     OW14728   2.543   0.334   3.779  0.0410  0.1650 -0.3335
 1089SOL    HW114729   2.601   0.308   3.707  1.0671 -0.0961  0.5964
 1089SOL    HW214730   2.604   0.380   3.837 -0.4819  0.0244  0.3194
 1090SOL     OW14731   1.090   0.785   3.316  0.4210  0.2468 -0.1129
 1090SOL    HW114732   1.027   0.728   3.361 -2.1041  1.3243 -2.3384
 1090SOL    HW214733   1.120   0.727   3.246  0.9194  1.5685 -1.0068
 1091SOL     OW14734   4.526   3.944   5.073  0.4107 -0.2259 -0.0780
 1091SOL    HW114735   4.435   3.916   5.085  0.6387 -1.0352 -0.1835
 1091SOL    HW214736   4.559   3.943   5.163 -1.5726  0.0491  0.6525
 1092SOL     OW14737   0.772   0.534   4.656 -0.6751 -0.4225  0.5765
 1092SOL    HW114738   0.854   0.484   4.662 -1.5486 -1.7749  1.0532
 1092SOL    HW214739   0.721   0.494   4.586  0.5200  2.7969 -2.1712
 1093SOL     OW14740   1.228   3.962  14.788 -0.3979  0.4236 -0.1246
 1093SOL    HW114741   1.321   3.943  14.780 -0.5777 -0.5909  0.1880
 1093SOL    HW214742   1.193   3.873  14.785  2.1677 -0.6636  2.3944
 1094SOL     OW14743   1.411   0.009   3.570 -0.2273  0.5010  0.4601
 1094SOL    HW114744   1.468   0.030   3.496  0.0964 -1.1548  0.2552
 1094SOL    HW214745   1.354   0.086   3.567 -0.7279  0.1221  0.3079
 1095SOL     OW14746   4.542   2.366  15.706 -0.0783 -0.3396  0.1487
 1095SOL    HW114747   4.500   2.296  15.657 -0.2314  0.2956 -0.6380
 1095SOL    HW214748   4.593   2.410  15.638 -1.4849  0.2191 -0.5394
 1096SOL     OW14749   1.702   3.399   5.213 -0.0298 -0.2557 -0.3690
 1096SOL    HW114750   1.615   3.373   5.244  0.3219  0.7138  1.4299
 1096SOL    HW214751   1.759   3.322   5.216 -0.3112 -0.3828  1.9719
 1097SOL     OW14752   2.295   1.970  15.393 -0.1194  0.6129 -0.0264
 1097SOL    HW114753   2.323   1.952  15.303  0.2758 -2.6866  0.7453
 1097SOL    HW214754   2.231   2.039  15.382  0.5830  1.4838  1.2783
 1098SOL     OW14755   0.032   0.299   2.539  0.2815 -0.3267  0.2376
 1098SOL    HW114756   4.687   0.304   2.470 -0.5868  0.2319  1.1074
 1098SOL    HW214757   0.035   0.203   2.547  0.8775 -0.2700  0.6984
 1099SOL     OW14758   3.311   3.641   1.702 -0.1035  0.2541  0.0353
 1099SOL    HW114759   3.363   3.692   1.764  1.1531 -3.2926  1.8693
 1099SOL    HW214760   3.343   3.553   1.719 -1.0405 -0.5578 -2.3199
 1100SOL     OW14761   4.425   1.638   7.305  1.2522  0.3135  0.6430
 1100SOL    HW114762   4.359   1.616   7.372 -0.1652 -0.1717 -0.9129
 1100SOL    HW214763   4.377   1.713   7.268 -0.2829 -1.3287 -0.6846
 1101SOL     OW14764   3.711   2.689   8.245  0.0289  0.1578  0.2210
 1101SOL    HW114765   3.686   2.777   8.215 -1.0300 -0.4370 -0.6824
 1101SOL    HW214766   3.801   2.679   8.216 -0.8542 -3.3545 -1.3092
 1102SOL     OW14767   3.447   0.221  13.743  0.1395  0.3215 -0.1578
 1102SOL    HW114768   3.530   0.188  13.779  0.1354  1.6704  1.1014
 1102SOL    HW214769   3.455   0.316  13.751  0.1477  0.3043  0.0603
 1103SOL     OW14770   1.452   0.032   1.172 -0.3181 -0.7505  0.6239
 1103SOL    HW114771   1.414   0.119   1.164 -0.1754 -0.6751  0.7681
 1103SOL    HW214772   1.400   4.691   1.119 -0.2619 -0.6119  0.4047
 1104SOL     OW14773   4.139   2.934   8.411 -0.3673  0.4872  0.4667
 1104SOL    HW114774   4.053   2.972   8.433 -1.2370 -0.0745 -1.9460
 1104SOL    HW214775   4.186   3.016   8.401  1.2104 -0.5560 -0.5808
 1105SOL     OW14776   1.398   1.258  12.353 -0.8277  0.0796 -0.6215
 1105SOL    HW114777   1.376   1.284  12.442 -0.4693 -1.0564 -0.1962
 1105SOL    HW214778   1.465   1.191  12.370  1.0293  1.9663 -0.5054
 1106SOL     OW14779   1.103   0.826   8.484  0.4311  0.4873 -0.8433
 1106SOL    HW114780   1.179   0.807   8.539  0.8522 -0.7169 -1.8541
 1106SOL    HW214781   1.076   0.914   8.511  2.7515  0.8977  0.1460
 1107SOL     OW14782   2.645   1.856  15.053 -0.0461 -0.6376 -0.6260
 1107SOL    HW114783   2.650   1.761  15.061  1.4476 -0.5002  0.1662
 1107SOL    HW214784   2.661   1.871  14.960 -1.9557  0.6580 -0.7508
 1108SOL     OW14785   2.649   3.019   6.692 -0.2725  0.2780 -0.0394
 1108SOL    HW114786   2.630   2.964   6.768  0.7025  2.5457  1.8448
 1108SOL    HW214787   2.744   3.009   6.702 -0.1774  1.2061 -0.0446
 1109SOL     OW14788   4.641   0.282   9.759  0.0579  0.2049 -0.2540
 1109SOL    HW114789   4.679   0.223   9.694  1.0669  1.0953 -0.4689
 1109SOL    HW214790   4.550   0.283   9.727 -0.4719 -2.5533  1.1415
 1110SOL     OW14791   2.756   1.728   5.359  0.2676  0.1954  0.0653
 1110SOL    HW114792   2.780   1.815   5.327 -0.9684  0.6435  0.3864
 1110SOL    HW214793   2.730   1.747   5.449 -1.1757  3.9270 -1.1242
 1111SOL     OW14794   3.013   1.035   3.088 -0.3087  0.5724 -0.3278
 1111SOL    HW114795   2.946   1.015   3.153  0.2570  0.5753  0.2509
 1111SOL    HW214796   3.037   0.944   3.069 -2.0041  0.3477 -1.4416
 1112SOL     OW14797   1.239   2.739   4.864  0.3235 -0.9256 -0.4828
 1112SOL    HW114798   1.249   2.781   4.949  1.4270 -1.8641 -0.1616
 1112SOL    HW214799   1.193   2.806   4.813 -0.7856 -0.2365  1.4430
 1113SOL     OW14800   1.045   2.244   3.417  0.0994  0.2382 -0.7227
 1113SOL    HW114801   1.132   2.282   3.430 -1.0585  2.0822  1.6167
 1113SOL    HW214802   1.050   2.179   3.486 -0.7632 -0.1693 -1.0471
 1114SOL     OW14803   3.085   1.691   2.486  0.0983 -0.3218 -0.0035
 1114SOL    HW114804   3.059   1.753   2.417 -0.6688 -1.0711 -0.3887
 1114SOL    HW214805   3.119   1.754   2.549  0.1616  1.0831 -1.4364
 1115SOL     OW14806   1.043   3.266   1.857  0.0287  0.1263  0.0580
 1115SOL    HW114807   1.051   3.288   1.950  1.3550  0.6667 -0.1850
 1115SOL    HW214808   0.993   3.344   1.831  1.5320  0.1167 -2.8795
 1116SOL     OW14809   1.165   0.575   7.282  0.3603  0.2357 -0.6453
 1116SOL    HW114810   1.170   0.534   7.368  1.8707 -1.4187 -1.5235
 1116SOL    HW214811   1.198   0.500   7.232 -0.0992 -0.5264  0.1850
 1117SOL     OW14812   1.385   3.209   3.147  0.3225 -0.2823  0.3102
 1117SOL    HW114813   1.359   3.119   3.167 -1.6465  0.5761  1.5954
 1117SOL    HW214814   1.390   3.244   3.236 -2.3278  0.2167  0.2749
 1118SOL     OW14815   2.429   4.180   8.388 -0.0256 -0.3828 -0.4587
 1118SOL    HW114816   2.473   4.107   8.432 -0.2764  1.2991  2.5542
 1118SOL    HW214817   2.451   4.153   8.299 -0.6852  3.5824 -1.8120
 1119SOL     OW14818   0.025   0.566  14.556 -0.0431 -0.3921 -0.3176
 1119SOL    HW114819   0.067   0.652  14.549 -0.3793 -0.2448 -0.5108
 1119SOL    HW214820   0.035   0.561  14.651 -2.5381  0.3617 -0.0348
 1120SOL     OW14821   4.380   2.965   2.252 -0.0259  0.1691  0.1312
 1120SOL    HW114822   4.435   2.945   2.176 -0.7211  0.7764 -0.5363
 1120SOL    HW214823   4.437   3.028   2.297 -0.6555  0.8791 -0.0622
 1121SOL     OW14824   2.081   0.615   9.467 -0.1033  0.1820  0.2866
 1121SOL    HW114825   2.117   0.590   9.383 -1.2879  0.8304 -0.4147
 1121SOL    HW214826   1.988   0.628   9.447 -0.3623 -0.1818  1.2566
 1122SOL     OW14827   0.895   4.283   9.465  0.4858  0.2508 -0.0790
 1122SOL    HW114828   0.958   4.319   9.527 -0.6330  1.6678  0.2605
 1122SOL    HW214829   0.829   4.353   9.468  1.0065  0.8135 -1.7555
 1123SOL     OW14830   1.340   2.191  15.258  0.1418  0.1960 -0.5963
 1123SOL    HW114831   1.412   2.195  15.195  0.7432 -0.4131  0.0623
 1123SOL    HW214832   1.335   2.275  15.304 -0.5944 -0.2587  0.1663
 1124SOL     OW14833   1.394   4.505   6.671 -0.4162 -0.3799 -0.0154
 1124SOL    HW114834   1.352   4.469   6.592  0.8110 -2.5687  0.3178
 1124SOL    HW214835   1.411   4.425   6.721 -1.0174  0.3985  1.3911
 1125SOL     OW14836   0.916   0.335  14.134  0.8006  0.1150  0.3587
 1125SOL    HW114837   0.920   0.319  14.228 -2.4059 -1.1443  0.2860
 1125SOL    HW214838   0.911   0.247  14.097 -1.9540  0.6450 -0.5829
 1126SOL     OW14839   2.796   2.814  16.852  0.0749  0.3177 -0.4030
 1126SOL    HW114840   2.776   2.839  16.942  2.2650 -0.5197  0.3221
 1126SOL    HW214841   2.885   2.846  16.839  0.3829 -0.9564 -1.4884
 1127SOL     OW14842   4.265   2.502  12.286 -0.0928 -0.0976  0.2282
 1127SOL    HW114843   4.173   2.526  12.270  0.3445  1.3432 -0.1823
 1127SOL    HW214844   4.265   2.415  12.247  1.3398 -0.3430  0.7820
 1128SOL     OW14845   1.800   2.628  16.321 -0.2835  0.0572 -0.4854
 1128SOL    HW114846   1.712   2.663  16.331 -0.9301 -1.8785  0.4602
 1128SOL    HW214847   1.801   2.563  16.391  1.3954 -0.8471 -1.3405
 1129SOL     OW14848   2.980   0.701  16.382 -0.2468 -0.0236  0.0952
 1129SOL    HW114849   2.973   0.649  16.462  2.3685  0.3299  0.5334
 1129SOL    HW214850   3.049   0.653  16.338  0.4436  1.0931 -0.0484
 1130SOL     OW14851   4.068   1.087  10.662  0.0930  0.3563  0.0136
 1130SOL    HW114852   4.146   1.099  10.718 -1.0515  1.7514  1.3227
 1130SOL    HW214853   4.103   1.126  10.582  1.2493 -1.7332 -0.4954
 1131SOL     OW14854   3.666   1.143   2.968 -0.5315  0.0937  0.2287
 1131SOL    HW114855   3.591   1.189   2.930 -1.0386 -2.6530 -2.0047
 1131SOL    HW214856   3.735   1.178   2.912 -0.2302  0.2677  0.7027
 1132SOL     OW14857   0.289   2.588   7.168 -0.1492  0.1347  0.0239
 1132SOL    HW114858   0.203   2.613   7.202 -0.3549  0.2990 -0.6222
 1132SOL    HW214859   0.287   2.496   7.141 -2.5808  0.4825 -0.9481
 1133SOL     OW14860   0.229   3.250  15.631  0.3829 -0.0889  0.3314
 1133SOL    HW114861   0.304   3.304  15.605  0.6393 -0.9905 -0.7611
 1133SOL    HW214862   0.252   3.170  15.585  0.5420  0.5400 -0.6801
 1134SOL     OW14863   4.359   4.097   4.106  0.2572 -0.1750 -0.1262
 1134SOL    HW114864   4.323   4.011   4.088  0.6433  0.1873 -2.6253
 1134SOL    HW214865   4.449   4.065   4.106 -0.0835 -1.1247  0.5363
 1135SOL     OW14866   4.467   4.275   6.113  0.0907  0.0326 -0.0368
 1135SOL    HW114867   4.483   4.181   6.121 -1.9578 -0.3934 -0.8735
 1135SOL    HW214868   4.552   4.304   6.081  0.9953 -1.7901  0.6769
 1136SOL     OW14869   4.414   3.562   7.038 -0.2456 -0.1769 -0.2967
 1136SOL    HW114870   4.385   3.518   7.118  2.5560  0.3355  0.9958
 1136SOL    HW214871   4.503   3.581   7.067 -0.3827  0.0333 -0.0148
 1137SOL     OW14872   2.312   3.325   3.754 -0.1273 -0.2581 -0.6091
 1137SOL    HW114873   2.338   3.413   3.780  1.2380 -0.4443 -1.3881
 1137SOL    HW214874   2.231   3.342   3.706 -0.6603 -1.3524 -0.1077
 1138SOL     OW14875   1.460   1.607   1.604  0.4070  0.6090  0.0489
 1138SOL    HW114876   1.550   1.633   1.626  1.0955 -0.5067 -1.4443
 1138SOL    HW214877   1.437   1.676   1.543 -0.3529  0.0028 -0.3373
 1139SOL     OW14878   3.698   2.238   7.587  0.6438 -0.0982  0.0945
 1139SOL    HW114879   3.720   2.267   7.499 -1.4372  1.6713  0.1726
 1139SOL    HW214880   3.643   2.160   7.574 -0.4036  0.5905  0.3683
 1140SOL     OW14881   0.474   3.196  16.651 -0.1133 -0.6582 -0.0045
 1140SOL    HW114882   0.547   3.244  16.690  0.6331 -2.4273  0.7474
 1140SOL    HW214883   0.394   3.247  16.664 -0.2373 -0.9822  0.4757
 1141SOL     OW14884   0.931   1.758   9.036  0.5647 -0.4900 -0.1703
 1141SOL    HW114885   0.977   1.840   9.051 -3.3587  1.3332  2.0175
 1141SOL    HW214886   0.841   1.784   9.018 -0.8816 -3.6465  2.3879
 1142SOL     OW14887   4.168   2.756   3.110  0.0325  0.3026  0.0131
 1142SOL    HW114888   4.190   2.849   3.123  0.7087  0.0551  0.6261
 1142SOL    HW214889   4.229   2.711   3.168 -1.1873 -1.1721  0.1519
 1143SOL     OW14890   2.723   1.201   9.917  0.0130 -0.0202  0.1667
 1143SOL    HW114891   2.638   1.244   9.917 -1.0021 -2.0506 -1.8945
 1143SOL    HW214892   2.737   1.180   9.824 -1.7960  2.6964 -0.7216
 1144SOL     OW14893   1.015   2.248  14.402 -0.0729  0.0903 -1.0853
 1144SOL    HW114894   0.955   2.313  14.364 -2.4156 -0.8570  0.9493
 1144SOL    HW214895   1.073   2.296  14.460 -2.2887  1.1973  0.2263
 1145SOL     OW14896   2.078   0.981   2.302  0.1736  0.1676  0.0275
 1145SOL    HW114897   2.156   1.013   2.348 -1.2465  1.9902  1.1667
 1145SOL    HW214898   2.018   1.055   2.308 -0.6143 -0.7156  3.4547
 1146SOL     OW14899   1.183   0.098   1.457  0.2474 -0.0747 -0.0528
 1146SOL    HW114900   1.088   0.100   1.445  0.2814 -1.8569 -0.5841
 1146SOL    HW214901   1.195   0.013   1.416 -0.3051 -0.3392  0.3371
 1147SOL     OW14902   2.954   1.136   2.685  0.1104  0.5181  0.4105
 1147SOL    HW114903   3.040   1.175   2.668  0.5926 -0.6005  0.2514
 1147SOL    HW214904   2.924   1.179   2.764 -1.4410  0.3211 -0.0748
 1148SOL     OW14905   1.803   3.767  10.086  0.1190 -0.2311 -0.2644
 1148SOL    HW114906   1.738   3.790  10.153  3.2997  2.8948  1.7796
 1148SOL    HW214907   1.851   3.695  10.127  0.5419  0.3595  0.2723
 1149SOL     OW14908   0.107   3.711   6.528  0.1066 -0.3935  0.3774
 1149SOL    HW114909   0.012   3.719   6.539 -0.1072  0.3865 -2.0783
 1149SOL    HW214910   0.120   3.617   6.521  1.0035 -0.1827 -0.6514
 1150SOL     OW14911   1.668   1.579  11.788 -0.1840  0.6560  0.1351
 1150SOL    HW114912   1.589   1.609  11.744 -0.3765 -1.3793 -0.9071
 1150SOL    HW214913   1.628   1.504  11.832  0.8165 -0.8262 -1.4480
 1151SOL     OW14914   1.026   3.698   2.326 -0.1237  0.3169 -0.2575
 1151SOL    HW114915   0.971   3.776   2.334 -1.2855 -0.3696 -1.5259
 1151SOL    HW214916   0.978   3.656   2.397  0.8862  0.2213  0.3651
 1152SOL     OW14917   3.307   4.111  13.514  0.2179 -0.0570 -0.1512
 1152SOL    HW114918   3.314   4.020  13.486  1.0508 -0.7308  2.2248
 1152SOL    HW214919   3.327   4.158  13.433  0.5583 -0.5374 -0.3508
 1153SOL     OW14920   1.772   4.006   0.013  0.3271  0.2589  0.6551
 1153SOL    HW114921   1.739   4.082  17.651  1.3993  0.5929  0.4477
 1153SOL    HW214922   1.738   4.015   0.102 -2.0133  1.5307 -0.3620
 1154SOL     OW14923   3.849   0.129   6.578  1.3854 -0.1017  0.2039
 1154SOL    HW114924   3.881   0.188   6.510 -0.0811  0.1900 -0.2319
 1154SOL    HW214925   3.806   0.192   6.638  0.6750  0.2130 -0.6349
 1155SOL     OW14926   0.047   4.643   4.198  0.0218  0.0994  0.3070
 1155SOL    HW114927   0.016   4.573   4.255 -0.9774 -1.2265 -1.8647
 1155SOL    HW214928   0.115   4.603   4.144  2.7462  1.4360  2.7211
 1156SOL     OW14929   3.361   4.557   3.132 -0.3330 -0.1390  0.3062
 1156SOL    HW114930   3.448   4.595   3.146  0.9247 -2.8180 -0.2672
 1156SOL    HW214931   3.363   4.480   3.189 -0.3486 -0.8746 -0.6926
 1157SOL     OW14932   2.038   2.702  17.100  0.3757  0.3744 -0.1417
 1157SOL    HW114933   2.046   2.774  17.037 -0.1233 -0.9284 -1.7059
 1157SOL    HW214934   1.945   2.680  17.102  0.7713 -0.9943  3.2983
 1158SOL     OW14935   3.486   1.706   4.276  0.3068 -0.0605  0.2226
 1158SOL    HW114936   3.507   1.729   4.366  0.6161  1.4874 -0.2543
 1158SOL    HW214937   3.399   1.668   4.292  0.1937 -0.7385 -1.9631
 1159SOL     OW14938   1.499   3.460   3.521 -0.0946  0.1014 -0.6792
 1159SOL    HW114939   1.478   3.394   3.456 -0.6875 -0.3294 -0.0518
 1159SOL    HW214940   1.410   3.495   3.533  0.3820  0.1970  2.4711
 1160SOL     OW14941   1.025   1.483  15.680  0.3985 -0.4365 -0.0673
 1160SOL    HW114942   0.956   1.474  15.745 -0.1019  1.1502 -0.3903
 1160SOL    HW214943   1.000   1.415  15.618 -0.5519 -0.4497  0.3407
 1161SOL     OW14944   2.542   3.421   8.381 -0.6333  0.0274 -0.0020
 1161SOL    HW114945   2.503   3.394   8.465 -1.8111  0.7702 -0.2974
 1161SOL    HW214946   2.593   3.342   8.365  2.7914  2.5547 -1.4503
 1162SOL     OW14947   2.023   2.606   2.581 -0.0724 -0.0740 -0.4279
 1162SOL    HW114948   2.107   2.643   2.553 -0.2898  0.9686  0.3099
 1162SOL    HW214949   1.962   2.680   2.583 -0.1242 -0.0855 -1.6359
 1163SOL     OW14950   3.837   1.606   6.605 -0.4994 -0.0722  0.4798
 1163SOL    HW114951   3.852   1.548   6.530 -0.0295  0.9917 -0.2420
 1163SOL    HW214952   3.888   1.681   6.577 -0.9219  0.7487  1.9448
 1164SOL     OW14953   4.210   4.138   6.705  0.0599  0.1010 -0.5845
 1164SOL    HW114954   4.244   4.110   6.621  1.4036  0.4063 -0.1338
 1164SOL    HW214955   4.266   4.215   6.715  1.0238 -0.6024 -0.5568
 1165SOL     OW14956   3.214   1.894   1.377  0.4770  0.0153 -0.2053
 1165SOL    HW114957   3.187   1.802   1.381 -0.1790  0.2351  0.7257
 1165SOL    HW214958   3.270   1.902   1.454  0.5277 -2.3176  0.0032
 1166SOL     OW14959   4.115   4.635   2.955 -0.4318 -0.3538 -0.6896
 1166SOL    HW114960   4.076   4.636   3.042  2.1721  0.1821  0.4562
 1166SOL    HW214961   4.053   4.583   2.904 -2.0111  0.7103  0.1523
 1167SOL     OW14962   0.834   3.223   0.679  0.4928 -0.0650  0.5451
 1167SOL    HW114963   0.908   3.163   0.685  1.6641  1.2261 -0.6844
 1167SOL    HW214964   0.850   3.293   0.743 -1.6187 -1.1241  2.2244
 1168SOL     OW14965   1.988   0.278   2.567  0.0826 -0.5129 -0.3697
 1168SOL    HW114966   1.989   0.373   2.554 -0.9671 -0.7091 -1.9894
 1168SOL    HW214967   1.916   0.259   2.506 -0.7849  1.6170 -0.0238
 1169SOL     OW14968   3.920   2.853   7.585 -0.5739  0.0164  0.3315
 1169SOL    HW114969   3.934   2.933   7.635  1.4199 -1.0150  1.4546
 1169SOL    HW214970   3.829   2.864   7.560  0.0688  1.0506 -1.5444
 1170SOL     OW14971   0.446   1.295  14.057 -0.1184  0.4850  0.2290
 1170SOL    HW114972   0.541   1.291  14.062 -0.1078  0.8635  0.3205
 1170SOL    HW214973   0.421   1.352  14.129  0.8948 -1.2383  1.9536
 1171SOL     OW14974   2.989   2.561   3.019 -0.5797  0.0891 -0.1889
 1171SOL    HW114975   3.011   2.515   2.939 -2.0720 -0.8822 -0.0258
 1171SOL    HW214976   2.961   2.484   3.068 -1.9325  0.6772 -0.0550
 1172SOL     OW14977   0.004   3.884   1.870  0.0920 -0.3246 -0.0984
 1172SOL    HW114978   4.692   3.822   1.936  0.8634 -3.2877 -2.5078
 1172SOL    HW214979   0.039   3.961   1.916 -1.0510  0.4844 -0.6073
 1173SOL     OW14980   1.870   2.059   6.021 -0.2483 -0.0301  0.4058
 1173SOL    HW114981   1.961   2.083   6.003 -0.2035  0.1787  0.8874
 1173SOL    HW214982   1.850   2.056   5.928  0.5210  2.0934  0.1535
 1174SOL     OW14983   2.584   3.936   7.964  0.4413 -0.3658 -0.0123
 1174SOL    HW114984   2.529   3.989   8.022 -0.5447  0.1503 -1.4064
 1174SOL    HW214985   2.636   4.002   7.918 -0.2898  0.7622  0.7582
 1175SOL     OW14986   0.661   1.474  16.379 -0.1463 -0.6482  0.5289
 1175SOL    HW114987   0.570   1.447  16.371 -0.5899  0.6406  1.1449
 1175SOL    HW214988   0.651   1.562  16.415 -0.7026 -1.2689  1.8702
 1176SOL     OW14989   0.598   2.460  15.012  0.9649  0.3847 -0.1750
 1176SOL    HW114990   0.679   2.410  15.021  2.2452  2.1059 -1.9008
 1176SOL    HW214991   0.538   2.400  15.056  0.6204 -0.6870 -2.1226
 1177SOL     OW14992   2.622   2.875   4.625  0.1845 -0.2104 -0.1946
 1177SOL    HW114993   2.548   2.817   4.608  0.0051  0.3156 -1.2268
 1177SOL    HW214994   2.637   2.913   4.538  0.7748  0.5367  0.2377
 1178SOL     OW14995   2.642   1.816   4.555  0.2425  0.0264  0.0001
 1178SOL    HW114996   2.570   1.757   4.574  1.3756 -1.3140  0.0890
 1178SOL    HW214997   2.608   1.903   4.577  1.6653  0.3884  0.7787
 1179SOL     OW14998   2.024   0.736   4.488 -0.5890 -0.3148 -0.1754
 1179SOL    HW114999   2.087   0.755   4.419 -0.0307 -0.2932  0.3346
 1179SOL    HW215000   1.981   0.662   4.445 -0.4969  0.7140 -1.9950
 1180SOL     OW15001   2.577   3.322   2.630 -0.0229  0.4409  0.1219
 1180SOL    HW115002   2.660   3.322   2.583 -0.4460  1.3382 -0.6376
 1180SOL    HW215003   2.565   3.228   2.642 -1.6926  0.4784 -1.1241
 1181SOL     OW15004   1.902   4.033  16.771  0.0527 -0.7011  0.0057
 1181SOL    HW115005   1.986   4.026  16.817  0.3112 -2.7860 -0.7764
 1181SOL    HW215006   1.929   4.002  16.685  1.2324 -3.2702  1.3033
 1182SOL     OW15007   1.142   0.399   7.864  1.3226  0.2130 -0.0332
 1182SOL    HW115008   1.155   0.488   7.897  0.9282 -0.4597  1.9873
 1182SOL    HW215009   1.218   0.398   7.807  1.2889  1.8484 -0.0947
 1183SOL     OW15010   4.651   1.142   1.174  0.6428  0.4753  0.4937
 1183SOL    HW115011   4.572   1.089   1.176 -0.1927  1.7271  0.8579
 1183SOL    HW215012   4.631   1.210   1.239 -2.8518 -1.8656  1.8327
 1184SOL     OW15013   3.872   0.063   4.425  0.1648  0.1622  0.6625
 1184SOL    HW115014   3.888   0.158   4.427  0.1433  0.1964 -0.6435
 1184SOL    HW215015   3.964   0.040   4.439  0.6963  3.0982  2.0147
 1185SOL     OW15016   0.832   0.818   3.645  0.1048  0.4931 -0.2212
 1185SOL    HW115017   0.826   0.734   3.692 -0.5077  0.2504 -0.7295
 1185SOL    HW215018   0.923   0.845   3.647 -0.0054  0.6833  2.0665
 1186SOL     OW15019   1.442   3.481  15.820  0.3195  0.1528  0.1181
 1186SOL    HW115020   1.439   3.401  15.768 -0.7970 -0.3027  0.9046
 1186SOL    HW215021   1.460   3.553  15.760 -0.1645  0.7157  0.6541
 1187SOL     OW15022   1.988   3.256  10.595 -0.2608 -0.2984  0.7837
 1187SOL    HW115023   2.013   3.299  10.513  3.8372 -1.8764  1.2284
 1187SOL    HW215024   2.064   3.254  10.653  1.5367 -0.5991 -1.5626
 1188SOL     OW15025   0.756   2.597  14.548  0.1072  0.5513  0.1045
 1188SOL    HW115026   0.717   2.592  14.635  1.7829  1.2694  0.8937
 1188SOL    HW215027   0.708   2.670  14.510  1.3818  1.7627  0.8530
 1189SOL     OW15028   1.085   1.823   1.276 -0.3562 -0.4126  0.3618
 1189SOL    HW115029   1.016   1.843   1.339 -2.0198 -0.5047 -1.4465
 1189SOL    HW215030   1.028   1.787   1.208  0.9880 -0.2890 -0.8495
 1190SOL     OW15031   1.457   4.482   2.454 -0.3970 -0.3543  0.7853
 1190SOL    HW115032   1.497   4.566   2.433  0.1711 -0.3704  1.8068
 1190SOL    HW215033   1.381   4.518   2.499 -0.5925 -3.0577  2.6431
 1191SOL     OW15034   1.143   0.666   5.094  0.3146 -0.2972  0.4799
 1191SOL    HW115035   1.233   0.634   5.087  0.6325  0.5716  0.6075
 1191SOL    HW215036   1.162   0.747   5.141 -1.2040 -0.1968  0.9281
 1192SOL     OW15037   2.630   4.209   3.080 -0.2961 -0.1218  0.0178
 1192SOL    HW115038   2.695   4.225   3.012  0.6281  0.6330  1.0755
 1192SOL    HW215039   2.577   4.285   3.061  0.9967  0.8787  0.3726
 1193SOL     OW15040   1.103   3.726   2.846 -0.2029 -0.2849 -0.5216
 1193SOL    HW115041   1.122   3.643   2.890 -0.7597 -0.2267 -0.1797
 1193SOL    HW215042   1.008   3.723   2.835 -0.3193 -0.4188  0.5998
 1194SOL     OW15043   4.296   3.056   0.239 -0.0369 -0.4217  0.1475
 1194SOL    HW115044   4.259   2.975   0.275 -1.3433  0.3574  0.5396
 1194SOL    HW215045   4.391   3.042   0.230  0.3340  1.8164  0.4781
 1195SOL     OW15046   1.128   2.165   8.285 -0.1639 -0.1261  0.0087
 1195SOL    HW115047   1.095   2.124   8.365 -1.9250  2.1374  0.4440
 1195SOL    HW215048   1.218   2.191   8.309 -0.4404 -0.3346  1.2588
 1196SOL     OW15049   3.843   0.452   4.068 -0.6120  0.4341  0.1692
 1196SOL    HW115050   3.868   0.504   4.145 -1.9258  1.2227  0.0496
 1196SOL    HW215051   3.872   0.505   3.994 -2.7676  0.4621 -0.6300
 1197SOL     OW15052   1.373   2.399   7.485  0.1729  0.0164 -0.6549
 1197SOL    HW115053   1.435   2.467   7.513  0.6422 -0.2460 -1.0659
 1197SOL    HW215054   1.340   2.367   7.568  0.7112 -0.8381 -0.7788
 1198SOL     OW15055   3.833   0.831   3.333  0.0337  1.0323  0.3132
 1198SOL    HW115056   3.774   0.762   3.364  0.1625  0.9267  0.3219
 1198SOL    HW215057   3.784   0.864   3.257 -1.3679  1.0428  1.2180
 1199SOL     OW15058   2.417   2.864   0.936 -0.2930 -0.3651 -0.2816
 1199SOL    HW115059   2.492   2.885   0.880 -0.4295 -0.0291 -0.3370
 1199SOL    HW215060   2.468   2.816   1.002  1.8178  1.4497 -0.6135
 1200SOL     OW15061   0.378   4.384   8.588 -0.3004  0.3183  0.0658
 1200SOL    HW115062   0.435   4.317   8.551  0.8374  1.1476  0.3042
 1200SOL    HW215063   0.317   4.333   8.641  1.3027 -0.9878  0.6327
 1201SOL     OW15064   2.568   4.072   7.193 -0.2564 -0.1852 -0.7468
 1201SOL    HW115065   2.599   4.119   7.116  2.1421 -0.9961 -0.2810
 1201SOL    HW215066   2.489   4.120   7.213 -0.5486 -0.1363 -2.0149
 1202SOL     OW15067   3.045   2.929  17.485  0.3085 -0.3177  0.2632
 1202SOL    HW115068   2.958   2.969  17.485  0.4028 -0.1102  2.0216
 1202SOL    HW215069   3.023   2.837  17.493  1.3177 -0.5877 -0.0249
 1203SOL     OW15070   3.595   2.576  14.027  0.5208 -0.2792 -0.0012
 1203SOL    HW115071   3.509   2.617  14.023 -0.9626 -3.3564  0.4095
 1203SOL    HW215072   3.567   2.487  14.003  4.0940 -0.8654 -2.1265
 1204SOL     OW15073   1.232   2.530  14.421  0.0821 -0.8485 -0.1375
 1204SOL    HW115074   1.298   2.463  14.439  0.9132  0.2055  0.7168
 1204SOL    HW215075   1.234   2.550  14.328  2.3847 -2.0126 -0.3380
 1205SOL     OW15076   4.576   2.999  11.596  0.0038  0.1628  0.5376
 1205SOL    HW115077   4.552   2.983  11.505  3.6242 -2.3923 -0.0060
 1205SOL    HW215078   4.557   2.912  11.632  0.3108  0.6229  1.8163
 1206SOL     OW15079   2.493   2.548  15.559 -0.0876  0.1775  0.0254
 1206SOL    HW115080   2.510   2.641  15.575 -1.5043  1.1983 -4.4063
 1206SOL    HW215081   2.551   2.495  15.615 -1.8477 -0.2298  1.4543
 1207SOL     OW15082   0.965   1.101  14.896 -0.2135  1.1628 -0.1298
 1207SOL    HW115083   0.884   1.051  14.910  0.3476  1.0884  2.9774
 1207SOL    HW215084   1.016   1.038  14.845 -1.5424 -1.0875  1.3202
 1208SOL     OW15085   0.984   4.537  11.681 -0.1749 -0.2571 -1.1574
 1208SOL    HW115086   0.969   4.479  11.756  1.2862 -0.2248 -0.8412
 1208SOL    HW215087   0.971   4.475  11.609  0.4995 -0.1712 -1.3479
 1209SOL     OW15088   0.029   0.121   8.612  0.0322 -0.1650 -0.0178
 1209SOL    HW115089   0.063   0.177   8.682 -1.2391 -0.6658  1.0079
 1209SOL    HW215090   0.105   0.091   8.563  0.5582  1.6438 -0.2989
 1210SOL     OW15091   3.488   1.320  10.818 -0.2171 -0.0271  0.0615
 1210SOL    HW115092   3.559   1.271  10.857 -0.2699  0.8991  1.3189
 1210SOL    HW215093   3.532   1.341  10.735  1.3142 -0.9242  0.6512
 1211SOL     OW15094   0.316   2.806   2.107  0.0301 -0.0317 -0.5435
 1211SOL    HW115095   0.402   2.770   2.131  0.3398  1.9198  1.2754
 1211SOL    HW215096   0.342   2.860   2.032 -0.3883  0.6935 -0.1627
 1212SOL     OW15097   4.104   1.603   2.270 -0.2197 -0.1880  0.4633
 1212SOL    HW115098   4.018   1.630   2.302 -0.4926  0.9076 -1.1638
 1212SOL    HW215099   4.092   1.604   2.175 -3.2902  1.1792  0.8608
 1213SOL     OW15100   1.529   3.165   5.414 -0.8038  0.3808  0.9567
 1213SOL    HW115101   1.492   3.172   5.502 -1.1547 -0.7612  0.8996
 1213SOL    HW215102   1.474   3.213   5.353 -0.6677 -0.2656  0.3289
 1214SOL     OW15103   3.517   2.633   1.917  0.8907  0.1417 -0.2106
 1214SOL    HW115104   3.501   2.575   1.843  2.3656  0.5052 -0.8127
 1214SOL    HW215105   3.431   2.620   1.957  1.4331 -1.0497  0.5845
 1215SOL     OW15106   1.899   1.070   9.713 -0.4505  0.1275 -0.2075
 1215SOL    HW115107   1.906   1.121   9.633 -2.2767 -0.2080 -0.5701
 1215SOL    HW215108   1.942   1.115   9.786 -1.0188  0.9209 -0.3704
 1216SOL     OW15109   1.333   3.725  12.914  0.2218 -0.6887  0.1143
 1216SOL    HW115110   1.408   3.704  12.970  0.4216 -2.3451 -0.7476
 1216SOL    HW215111   1.371   3.696  12.831  0.6851 -0.3298  0.1996
 1217SOL     OW15112   1.605   3.514   2.293  0.4872  0.6489 -0.1279
 1217SOL    HW115113   1.629   3.597   2.334  2.1784  0.7151 -1.2279
 1217SOL    HW215114   1.510   3.522   2.302  0.3397 -0.8547 -0.3404
 1218SOL     OW15115   2.310   0.476   4.074 -0.3150 -0.1482  0.2729
 1218SOL    HW115116   2.313   0.494   4.168 -2.1485 -0.5821  0.4127
 1218SOL    HW215117   2.394   0.507   4.041 -1.6315  1.5024 -1.5155
 1219SOL     OW15118   0.523   4.482   0.499 -0.4604 -0.0038  0.1301
 1219SOL    HW115119   0.540   4.572   0.472  1.6833 -0.6461 -0.7390
 1219SOL    HW215120   0.606   4.464   0.544 -0.8968 -2.2060  0.0874
 1220SOL     OW15121   3.565   1.380  15.452 -0.0410 -0.0846  0.0658
 1220SOL    HW115122   3.601   1.291  15.453  0.9252  0.3020 -2.2599
 1220SOL    HW215123   3.573   1.406  15.544  3.5842 -0.2782 -0.2028
 1221SOL     OW15124   1.021   3.587   7.189 -0.8441 -0.0787 -0.0082
 1221SOL    HW115125   0.998   3.614   7.278  1.7659  0.6440  0.4306
 1221SOL    HW215126   1.100   3.640   7.181 -1.5372  1.1197  0.9803
 1222SOL     OW15127   0.662   1.837   8.440  0.3887 -0.3259  0.3268
 1222SOL    HW115128   0.652   1.932   8.438  1.5120 -0.2566 -1.3841
 1222SOL    HW215129   0.608   1.813   8.516 -0.2544  1.0137  0.3071
 1223SOL     OW15130   2.193   1.741   5.870  0.2180 -0.3102 -0.1942
 1223SOL    HW115131   2.218   1.649   5.873 -0.8513 -0.5615  0.6042
 1223SOL    HW215132   2.121   1.734   5.807 -0.1526 -2.6698  0.5109
 1224SOL     OW15133   0.901   2.676   7.432 -1.0303  0.2365 -0.4223
 1224SOL    HW115134   0.857   2.760   7.441 -1.2356  0.1878 -0.9481
 1224SOL    HW215135   0.924   2.660   7.523 -1.6980  3.8746  0.3800
 1225SOL     OW15136   0.902   2.106  17.469  0.0715  0.1243  0.0917
 1225SOL    HW115137   0.888   2.072  17.381  0.1790 -1.2298  0.6103
 1225SOL    HW215138   0.993   2.138  17.469  0.8244 -2.0748  0.9066
 1226SOL     OW15139   3.122   0.150   5.451 -0.3861  0.4964  0.3155
 1226SOL    HW115140   3.074   0.103   5.519 -0.3471  0.7223  0.4994
 1226SOL    HW215141   3.103   0.102   5.370 -0.1711  0.0324  0.5389
 1227SOL     OW15142   0.288   3.683   9.773 -0.5895 -0.0953  0.0697
 1227SOL    HW115143   0.229   3.737   9.825  0.7767  0.4151  1.1002
 1227SOL    HW215144   0.335   3.632   9.840  1.0710  1.2762 -0.0502
 1228SOL     OW15145   0.005   0.180   2.013  0.1413  0.4329  0.1479
 1228SOL    HW115146   4.706   0.272   2.000 -1.9371  0.1566  1.4561
 1228SOL    HW215147   0.090   0.188   1.968 -0.6916 -2.0601 -1.8934
 1229SOL     OW15148   1.663   4.130   3.740  0.4986  0.4016  0.2411
 1229SOL    HW115149   1.647   4.035   3.742 -0.0032  0.4902  0.3133
 1229SOL    HW215150   1.584   4.149   3.791  0.2892 -1.6667  0.6907
 1230SOL     OW15151   2.611   1.929   8.462  0.6675 -0.0389 -0.0624
 1230SOL    HW115152   2.564   1.847   8.477  0.2023  0.1317 -0.5988
 1230SOL    HW215153   2.598   1.944   8.368  3.3068  1.5409 -0.1667
 1231SOL     OW15154   3.610   1.592  12.215 -1.1360 -0.1570 -0.7368
 1231SOL    HW115155   3.647   1.508  12.189 -1.6244 -0.6606  0.1668
 1231SOL    HW215156   3.517   1.583  12.192 -1.1181  1.1572 -1.2893
 1232SOL     OW15157   4.434   0.330   0.645 -0.1469 -0.3218  0.5475
 1232SOL    HW115158   4.473   0.360   0.727  0.2708 -1.2333  0.6857
 1232SOL    HW215159   4.450   0.404   0.586 -0.2044 -1.4191 -0.8661
 1233SOL     OW15160   4.018   4.272   5.779  0.1396  1.0286 -0.2771
 1233SOL    HW115161   3.951   4.341   5.779  2.0355  2.8974 -2.0521
 1233SOL    HW215162   4.080   4.303   5.712  0.6792  1.3327  0.3603
 1234SOL     OW15163   2.466   3.652   8.721 -0.0777 -0.1993  0.3607
 1234SOL    HW115164   2.419   3.694   8.649 -0.1517 -0.2298  0.3919
 1234SOL    HW215165   2.492   3.566   8.689 -2.9838 -0.3775 -1.5134
 1235SOL     OW15166   1.402   0.595  16.042 -0.0502 -0.0280  0.1889
 1235SOL    HW115167   1.377   0.576  16.133 -1.7169  0.6399 -0.1247
 1235SOL    HW215168   1.323   0.645  16.020 -1.0143 -2.4338 -1.8392
 1236SOL     OW15169   1.822   1.114   1.134 -0.0716 -0.1653  0.0674
 1236SOL    HW115170   1.908   1.151   1.115 -0.4819  1.3579  1.0891
 1236SOL    HW215171   1.842   1.046   1.198  2.2078 -1.3806 -1.9479
 1237SOL     OW15172   0.410   0.215   1.113  0.7795  0.2631  0.6150
 1237SOL    HW115173   0.329   0.266   1.108  2.2273  2.1722 -3.2991
 1237SOL    HW215174   0.387   0.152   1.181  0.7731  0.0506  0.4175
 1238SOL     OW15175   0.468   4.387   2.818  0.2376  0.0339 -0.5565
 1238SOL    HW115176   0.380   4.390   2.779 -0.0863  1.6844  0.2988
 1238SOL    HW215177   0.485   4.297   2.792 -1.1544 -0.0886 -1.0741
 1239SOL     OW15178   1.651   0.089  14.500  0.0761 -1.0153  0.1881
 1239SOL    HW115179   1.654   4.715  14.493 -2.0270 -1.1257  0.7021
 1239SOL    HW215180   1.569   0.099  14.453  1.0963 -1.3872 -1.6386
 1240SOL     OW15181   2.439   1.081   9.030 -0.0632 -0.3813 -0.6072
 1240SOL    HW115182   2.437   1.038   8.945 -0.5818  0.2014 -0.8954
 1240SOL    HW215183   2.477   1.012   9.085 -0.0025  0.0043 -0.1608
 1241SOL     OW15184   2.257   4.524   5.917 -0.2761 -0.1439 -0.1094
 1241SOL    HW115185   2.323   4.454   5.909 -0.4156 -0.4940  1.8138
 1241SOL    HW215186   2.209   4.519   5.834  0.6605  0.2098 -0.6698
 1242SOL     OW15187   0.062   2.510   4.957  0.7670 -0.3255 -0.4268
 1242SOL    HW115188   0.115   2.582   4.991 -0.8478  1.0713 -0.8638
 1242SOL    HW215189   0.056   2.528   4.863  0.4674  1.5088 -0.0658
 1243SOL     OW15190   0.304   3.410   2.164  0.2097  0.3120 -0.6707
 1243SOL    HW115191   0.359   3.477   2.205  0.5108  0.7577 -1.8064
 1243SOL    HW215192   0.248   3.403   2.241  1.3774 -1.4258  0.0227
 1244SOL     OW15193   1.490   1.698  11.087  0.6922 -0.0942  0.5488
 1244SOL    HW115194   1.401   1.730  11.101  0.2578 -0.9416 -0.2948
 1244SOL    HW215195   1.537   1.731  11.164 -0.7706 -2.3700  2.4436
 1245SOL     OW15196   2.014   0.160   8.729 -0.2498 -0.8624 -0.4638
 1245SOL    HW115197   1.974   0.182   8.644 -1.8180 -0.3932  0.4086
 1245SOL    HW215198   1.943   0.112   8.771 -0.2384 -1.8326 -1.5194
 1246SOL     OW15199   2.446   4.358   5.829 -0.1727 -0.6578 -0.0620
 1246SOL    HW115200   2.528   4.373   5.782  0.0102 -0.5826  0.2739
 1246SOL    HW215201   2.489   4.303   5.895  1.6071 -2.1541 -2.4756
 1247SOL     OW15202   2.143   3.163   9.819  0.1590 -0.0955 -0.2960
 1247SOL    HW115203   2.157   3.230   9.753 -0.4888  0.7658  0.4305
 1247SOL    HW215204   2.219   3.183   9.873  0.7626 -1.0276 -0.8059
 1248SOL     OW15205   0.273   2.931   2.935 -0.8839  0.3357 -0.1486
 1248SOL    HW115206   0.346   2.877   2.964 -2.3046 -0.6740  1.5409
 1248SOL    HW215207   0.199   2.870   2.937 -0.8680  0.4043  1.9217
 1249SOL     OW15208   4.583   1.838  16.995 -0.3843 -0.4127 -0.4650
 1249SOL    HW115209   4.580   1.794  16.910 -1.2458 -0.4105 -0.4384
 1249SOL    HW215210   4.504   1.803  17.036 -0.4574  0.0448 -0.2134
 1250SOL     OW15211   2.594   0.209  12.222 -0.2562  0.3869 -0.3266
 1250SOL    HW115212   2.645   0.201  12.303 -0.5666  1.0764 -0.0582
 1250SOL    HW215213   2.666   0.190  12.162 -0.2323  0.0150 -0.1800
 1251SOL     OW15214   1.343   0.505   6.334  0.1216 -0.0708  0.3541
 1251SOL    HW115215   1.337   0.423   6.285  1.8085  1.1000 -1.7913
 1251SOL    HW215216   1.392   0.558   6.271  2.1462 -0.6430  1.4312
 1252SOL     OW15217   1.415   1.697  11.826 -0.0145  0.0433  0.2823
 1252SOL    HW115218   1.363   1.677  11.748  1.5025 -0.4324 -0.6284
 1252SOL    HW215219   1.363   1.679  11.904 -0.9441 -1.2372 -0.6441
 1253SOL     OW15220   4.162   2.241  12.048  0.3327  0.5576 -0.2405
 1253SOL    HW115221   4.155   2.158  12.000  0.9437  1.9106 -2.6331
 1253SOL    HW215222   4.185   2.295  11.973  1.7710 -0.4772 -0.5527
 1254SOL     OW15223   1.730   0.909  11.661 -0.5952 -0.1710 -0.0874
 1254SOL    HW115224   1.664   0.954  11.608  1.0298  0.9985 -1.1384
 1254SOL    HW215225   1.682   0.899  11.743 -0.4420 -2.5834 -0.2758
 1255SOL     OW15226   4.320   1.367   7.244 -0.4452  0.3608  0.8509
 1255SOL    HW115227   4.374   1.392   7.169 -0.7553  3.0423  1.5012
 1255SOL    HW215228   4.299   1.458   7.267  0.8906  1.4445 -2.2538
 1256SOL     OW15229   3.700   2.675  10.502 -0.5889  0.2280 -0.2438
 1256SOL    HW115230   3.741   2.630  10.429 -0.1740  0.4319 -0.1345
 1256SOL    HW215231   3.637   2.723  10.448 -0.6576  0.8476  0.3956
 1257SOL     OW15232   1.470   1.420  15.465 -0.4341  0.5297  0.0526
 1257SOL    HW115233   1.414   1.354  15.505 -1.0272  1.9389  1.5617
 1257SOL    HW215234   1.541   1.420  15.529 -2.5789 -1.6687  2.4223
 1258SOL     OW15235   3.200   3.626  11.809  0.1354  0.2261 -0.3513
 1258SOL    HW115236   3.125   3.677  11.778 -0.4943 -0.6548 -0.2737
 1258SOL    HW215237   3.169   3.535  11.814 -0.6438  0.5277  0.2250
 1259SOL     OW15238   3.038   1.862   0.434  0.3475 -0.2322 -0.1262
 1259SOL    HW115239   3.053   1.768   0.443 -0.3138 -0.2212  0.9945
 1259SOL    HW215240   3.123   1.895   0.465 -0.6401  0.6471  1.6227
 1260SOL     OW15241   1.859   3.765  13.045 -0.0725 -0.0016  0.2429
 1260SOL    HW115242   1.914   3.702  13.090 -0.6222  0.6210  1.7961
 1260SOL    HW215243   1.901   3.847  13.073 -0.1608  0.6881 -1.6650
 1261SOL     OW15244   2.824   1.977   7.942  0.4423  1.1075 -0.1856
 1261SOL    HW115245   2.819   1.944   7.853  4.0259 -0.5880  0.2576
 1261SOL    HW215246   2.896   2.038   7.930  2.0670 -0.4620  1.5321
 1262SOL     OW15247   1.142   3.872   7.723  0.1035  0.2859  0.1483
 1262SOL    HW115248   1.140   3.868   7.818  0.2714  0.9913  0.1838
 1262SOL    HW215249   1.056   3.830   7.718 -0.1374  0.4635  2.8485
 1263SOL     OW15250   1.731   1.637   8.926 -0.2559  0.8370  0.3281
 1263SOL    HW115251   1.757   1.646   8.835 -3.3093  0.0520 -0.6215
 1263SOL    HW215252   1.660   1.577   8.905  2.3005 -1.0582 -2.8983
 1264SOL     OW15253   2.552   0.691   7.653  0.9765 -0.4487  0.6330
 1264SOL    HW115254   2.590   0.660   7.735 -0.4010 -0.2942  1.3238
 1264SOL    HW215255   2.602   0.771   7.638  0.4361 -0.2642 -0.1622
 1265SOL     OW15256   2.171   4.563   4.102 -0.3128 -0.5275 -0.2014
 1265SOL    HW115257   2.209   4.493   4.049  1.3444 -0.0176  0.3235
 1265SOL    HW215258   2.244   4.623   4.118  0.0587 -1.3832  1.3134
 1266SOL     OW15259   0.642   2.059  16.784  0.5052 -0.3159 -0.0227
 1266SOL    HW115260   0.667   2.023  16.699 -0.0691 -1.4571  0.2841
 1266SOL    HW215261   0.605   1.980  16.823 -2.8300  1.1737 -0.1497
 1267SOL     OW15262   2.429   2.466   9.850  0.0287  0.1077  0.3990
 1267SOL    HW115263   2.505   2.410   9.835 -0.3549  0.0020 -1.2172
 1267SOL    HW215264   2.356   2.404   9.857 -0.6228  0.7927 -0.3207
 1268SOL     OW15265   1.730   3.680  15.164  0.1658 -0.0551  0.2958
 1268SOL    HW115266   1.724   3.732  15.084 -1.6171 -0.0816  0.4230
 1268SOL    HW215267   1.723   3.589  15.134  1.9291  0.0082 -0.3423
 1269SOL     OW15268   3.327   3.574  10.351 -0.0004  0.1641 -0.1168
 1269SOL    HW115269   3.300   3.604  10.437 -0.7492  0.3368 -0.4077
 1269SOL    HW215270   3.307   3.481  10.353  0.9474 -0.0528 -0.4196
 1270SOL     OW15271   3.005   2.935   4.562  0.9632  0.5953 -0.2959
 1270SOL    HW115272   3.092   2.901   4.581  1.4109  1.7374 -0.3026
 1270SOL    HW215273   3.005   3.025   4.594 -0.3115  0.9963 -1.4087
 1271SOL     OW15274   0.353   0.804   3.466 -0.4029  0.2286  0.0660
 1271SOL    HW115275   0.351   0.878   3.527 -2.1266  0.1797  0.0836
 1271SOL    HW215276   0.276   0.823   3.412 -0.2857  2.1747  0.6042
 1272SOL     OW15277   3.807   0.088  13.547 -0.1218 -0.3772 -0.0395
 1272SOL    HW115278   3.884   0.101  13.491  0.7333 -3.4036  0.4314
 1272SOL    HW215279   3.844   0.126  13.627 -0.1308 -0.4915  0.0194
 1273SOL     OW15280   2.040   0.166   5.727 -0.4538  0.2247  0.1301
 1273SOL    HW115281   2.066   0.187   5.817  0.3990 -1.2259  0.2122
 1273SOL    HW215282   1.971   0.101   5.736 -0.0949  0.0938  1.9174
 1274SOL     OW15283   1.997   3.591  13.185 -0.2686  0.3898 -0.0688
 1274SOL    HW115284   2.078   3.576  13.233 -1.5487 -3.0561  1.0528
 1274SOL    HW215285   1.974   3.498  13.184  1.1435  0.0156  2.2377
 1275SOL     OW15286   0.426   2.970   4.875 -0.1125  0.2525  0.5651
 1275SOL    HW115287   0.366   3.015   4.815  0.4392 -0.6699 -0.6572
 1275SOL    HW215288   0.458   2.900   4.819 -1.2169  0.1620  0.0490
 1276SOL     OW15289   2.821   2.348   4.913  0.3694 -0.4281 -0.0108
 1276SOL    HW115290   2.744   2.311   4.956  0.5263  1.2656  1.7221
 1276SOL    HW215291   2.848   2.283   4.848 -3.7144 -0.3119 -1.8329
 1277SOL     OW15292   2.950   0.762   7.242  0.4950  0.2517 -0.2037
 1277SOL    HW115293   2.996   0.774   7.325  0.1909  1.5651 -0.2298
 1277SOL    HW215294   2.940   0.667   7.254  0.0341  0.2082 -0.8823
 1278SOL     OW15295   1.429   4.547   7.667  0.3285 -0.2857 -0.0768
 1278SOL    HW115296   1.370   4.586   7.732  0.0093 -0.5626 -0.1998
 1278SOL    HW215297   1.506   4.603   7.677  1.2013 -2.0957  3.2035
 1279SOL     OW15298   2.927   3.053  12.911 -0.1002  0.9053  0.5031
 1279SOL    HW115299   2.832   3.042  12.908 -0.1803  1.6023  0.4958
 1279SOL    HW215300   2.929   3.145  12.936  0.6537  0.6380  1.4415
 1280SOL     OW15301   1.314   3.698   8.153 -0.5817 -0.1710  0.2269
 1280SOL    HW115302   1.284   3.645   8.079  1.1250 -0.0058 -0.5860
 1280SOL    HW215303   1.392   3.736   8.112 -1.5462  1.8300  0.2857
 1281SOL     OW15304   1.396   2.242   3.421 -0.0080  0.2050  0.2887
 1281SOL    HW115305   1.489   2.226   3.406  0.8337  3.4154  2.1235
 1281SOL    HW215306   1.391   2.336   3.441  0.9920  0.4933 -0.7806
 1282SOL     OW15307   0.608   3.484   1.984 -0.4690 -0.4362 -0.3433
 1282SOL    HW115308   0.521   3.505   1.949 -0.4386 -1.7294 -1.2236
 1282SOL    HW215309   0.599   3.477   2.079  1.9472  0.7953 -0.0430
 1283SOL     OW15310   4.227   0.181   3.355 -0.3496  0.3866  0.5139
 1283SOL    HW115311   4.296   0.196   3.290 -0.0312 -1.4714  0.4252
 1283SOL    HW215312   4.264   0.233   3.426  1.5568  0.8087 -0.7923
 1284SOL     OW15313   4.301   1.059   0.521  0.0408  0.0311  0.9392
 1284SOL    HW115314   4.371   1.048   0.457  0.5966 -0.9320  1.6993
 1284SOL    HW215315   4.348   1.110   0.588  1.4713 -1.9887  1.4911
 1285SOL     OW15316   0.352   1.035  11.412  0.4453 -0.1919  0.0048
 1285SOL    HW115317   0.372   1.065  11.500 -1.3264 -0.4447  0.4950
 1285SOL    HW215318   0.272   1.081  11.385  0.3321  1.3998  3.0428
 1286SOL     OW15319   0.619   1.765   5.886  0.0374 -0.4638 -0.0188
 1286SOL    HW115320   0.586   1.834   5.944 -0.7512 -1.2505  0.4686
 1286SOL    HW215321   0.554   1.764   5.816 -2.4544 -4.1255  2.3604
 1287SOL     OW15322   3.436   2.193   6.144  0.1260 -0.3471  0.2437
 1287SOL    HW115323   3.503   2.136   6.107 -0.6195 -2.2069  1.7375
 1287SOL    HW215324   3.378   2.224   6.075 -0.7078 -1.7694  0.3048
 1288SOL     OW15325   3.949   2.679   7.805  0.1219 -0.9212 -0.9004
 1288SOL    HW115326   3.977   2.733   7.731  1.6945 -1.3251 -0.6020
 1288SOL    HW215327   4.034   2.650   7.837 -0.7355 -0.6998  1.5269
 1289SOL     OW15328   1.018   0.148   1.153  0.3518  0.3741  0.2807
 1289SOL    HW115329   1.113   0.159   1.143  0.4054 -0.1772  0.2287
 1289SOL    HW215330   0.988   0.238   1.164  1.5748  0.7877  0.2904
 1290SOL     OW15331   0.912   1.687   8.396 -0.0476  0.3875  0.5188
 1290SOL    HW115332   0.839   1.745   8.419 -0.4373 -0.4905  1.4991
 1290SOL    HW215333   0.976   1.719   8.460  0.1334  1.9002 -0.4228
 1291SOL     OW15334   3.903   1.098   7.375 -0.0477  0.3731 -0.1325
 1291SOL    HW115335   3.919   1.192   7.376  4.1593 -0.3735  2.0421
 1291SOL    HW215336   3.833   1.088   7.440  1.9236 -1.1465  1.7448
 1292SOL     OW15337   4.351   0.368   8.351  0.0951  0.2474  0.7002
 1292SOL    HW115338   4.442   0.359   8.377  0.3885 -2.3810 -1.2033
 1292SOL    HW215339   4.315   0.302   8.411 -0.7342  0.7113  0.7100
 1293SOL     OW15340   1.602   0.748   2.722 -0.0644  0.3415 -0.1269
 1293SOL    HW115341   1.587   0.815   2.788  2.1511 -0.7838  1.5552
 1293SOL    HW215342   1.515   0.709   2.721  0.3618 -0.6327  1.3750
 1294SOL     OW15343   0.435   1.694   5.388  0.0441 -0.5309  0.0427
 1294SOL    HW115344   0.413   1.787   5.395  2.3034  0.0426 -0.4942
 1294SOL    HW215345   0.435   1.690   5.292  0.3033 -0.0738  0.0220
 1295SOL     OW15346   4.276   4.630   1.001  0.3142  0.3542  0.3541
 1295SOL    HW115347   4.304   4.687   0.929 -0.6598 -0.6631 -0.8223
 1295SOL    HW215348   4.235   4.686   1.067 -1.9641 -0.9875  0.0713
 1296SOL     OW15349   0.288   3.408  14.953 -0.1379  0.0008 -0.4314
 1296SOL    HW115350   0.279   3.475  14.885 -2.0869 -0.2847 -0.4553
 1296SOL    HW215351   0.359   3.438  15.011 -1.0131  0.9939  0.1279
 1297SOL     OW15352   2.399   2.381   0.222  0.3917 -0.1886 -0.1810
 1297SOL    HW115353   2.365   2.293   0.208  2.4436 -0.7048 -2.0080
 1297SOL    HW215354   2.377   2.383   0.315 -1.7381  0.0883 -0.7030
 1298SOL     OW15355   1.764   3.007   7.751 -0.3500 -0.0647 -0.6025
 1298SOL    HW115356   1.803   3.086   7.714 -1.0262  0.8020  0.4985
 1298SOL    HW215357   1.819   2.990   7.828  0.0549  1.6588 -0.5097
 1299SOL     OW15358   2.203   1.183   3.569  0.3803  0.5550  0.2021
 1299SOL    HW115359   2.161   1.118   3.512  0.8996 -0.1464  0.6145
 1299SOL    HW215360   2.240   1.129   3.639 -2.9207 -2.1000 -0.1048
 1300SOL     OW15361   2.642   0.088   1.429  0.8521 -0.1816  0.2601
 1300SOL    HW115362   2.591   0.011   1.402  0.1757  0.6155 -0.7331
 1300SOL    HW215363   2.623   0.100   1.522 -2.2665 -2.2622 -0.0692
 1301SOL     OW15364   0.613   0.238   1.299  0.0594 -0.4771  0.1821
 1301SOL    HW115365   0.564   0.263   1.221  1.1140  0.0874 -0.3041
 1301SOL    HW215366   0.638   0.325   1.330 -2.4822  0.1711  0.3773
 1302SOL     OW15367   3.389   3.260   6.197 -0.2217  0.2218  0.1878
 1302SOL    HW115368   3.323   3.195   6.219 -0.1462 -0.9041 -2.9321
 1302SOL    HW215369   3.437   3.250   6.279 -1.8445 -0.8461  0.9992
 1303SOL     OW15370   3.657   3.370  12.442  0.3179 -0.5165  0.1052
 1303SOL    HW115371   3.573   3.414  12.430 -0.0461 -2.0150 -2.8097
 1303SOL    HW215372   3.710   3.435  12.395 -1.1705 -1.5691 -3.0648
 1304SOL     OW15373   1.009   3.167   6.478  0.5265 -0.5088 -0.2534
 1304SOL    HW115374   1.046   3.107   6.413  0.6018  0.3156 -0.9775
 1304SOL    HW215375   0.949   3.226   6.432  2.1249  0.8309 -0.6306
 1305SOL     OW15376   1.766   1.464   5.894  0.5608 -0.3354 -0.4445
 1305SOL    HW115377   1.796   1.533   5.953  0.7907 -1.5440  0.8375
 1305SOL    HW215378   1.814   1.483   5.814  1.7433  0.8286  0.5482
 1306SOL     OW15379   1.047   4.599   4.441 -0.2198  0.3802 -0.4681
 1306SOL    HW115380   1.023   4.683   4.401  0.2306  0.8784  0.3166
 1306SOL    HW215381   1.061   4.614   4.534 -0.8590 -1.3369 -0.0855
 1307SOL     OW15382   0.809   2.990   6.921 -0.5953  0.2238 -0.3163
 1307SOL    HW115383   0.767   2.958   6.841  1.2602 -4.3759  0.5828
 1307SOL    HW215384   0.888   3.027   6.880 -1.0920  0.3186 -1.1934
 1308SOL     OW15385   1.042   0.527  14.909  0.2788  0.3985 -0.2204
 1308SOL    HW115386   1.109   0.579  14.864  1.3616 -0.7146  0.0788
 1308SOL    HW215387   0.979   0.594  14.933  0.4514 -0.1650  1.7649
 1309SOL     OW15388   1.188   4.418   4.261  0.1051 -0.2117  0.0208
 1309SOL    HW115389   1.144   4.348   4.308  1.8462 -2.2104 -1.3610
 1309SOL    HW215390   1.157   4.492   4.313 -1.0321  0.9330 -2.2453
 1310SOL     OW15391   2.274   4.169   8.040 -0.0385  0.0803 -0.4596
 1310SOL    HW115392   2.225   4.241   8.080 -2.2578 -1.0464 -1.1346
 1310SOL    HW215393   2.358   4.173   8.085 -0.9060 -0.1232  1.2263
 1311SOL     OW15394   4.150   4.545  13.140  0.3052  0.1633 -0.5802
 1311SOL    HW115395   4.142   4.453  13.162  1.7347  0.7376  2.2616
 1311SOL    HW215396   4.074   4.557  13.082 -0.1515 -0.4393 -0.1044
 1312SOL     OW15397   4.086   0.663   9.141  0.3131 -1.0685 -0.0718
 1312SOL    HW115398   4.043   0.579   9.126 -1.0957 -0.4685  0.5714
 1312SOL    HW215399   4.063   0.685   9.232 -1.1943 -1.2620 -0.4191
 1313SOL     OW15400   3.780   1.492   4.677  0.2707 -0.6631  0.1828
 1313SOL    HW115401   3.766   1.401   4.704  0.6137 -0.0364  2.4775
 1313SOL    HW215402   3.790   1.475   4.583 -2.4854 -1.7839  0.0940
 1314SOL     OW15403   2.877   1.967  15.190 -0.1414 -0.2411  0.3820
 1314SOL    HW115404   2.782   1.968  15.177 -0.4047 -0.7909  2.4138
 1314SOL    HW215405   2.887   1.906  15.262  1.9821  0.9700  1.1011
 1315SOL     OW15406   0.388   3.572   6.364  0.0189 -0.1956 -0.0194
 1315SOL    HW115407   0.425   3.487   6.340 -2.0746 -0.9705 -0.4341
 1315SOL    HW215408   0.325   3.556   6.434 -0.2599  1.6037  0.1309
 1316SOL     OW15409   1.884   4.667   6.683  0.3694  0.3043 -0.4486
 1316SOL    HW115410   1.836   4.586   6.699 -1.3795  1.3014 -0.6707
 1316SOL    HW215411   1.869   4.677   6.589  1.9218 -2.6301 -0.9946
 1317SOL     OW15412   3.816   4.417   5.524 -0.2538  0.9043 -0.2409
 1317SOL    HW115413   3.804   4.427   5.618  2.3493  0.1674  0.1513
 1317SOL    HW215414   3.776   4.496   5.485 -0.9501  0.7358  0.1367
 1318SOL     OW15415   0.110   3.531  16.765 -0.1043 -0.0570  0.0900
 1318SOL    HW115416   0.165   3.564  16.835  1.7320  0.9044 -1.7941
 1318SOL    HW215417   0.020   3.555  16.787  0.0771  0.4647  0.2469
 1319SOL     OW15418   0.248   3.085   4.686  0.4523  0.2253 -0.0629
 1319SOL    HW115419   0.278   3.082   4.595 -0.1420  0.4983 -0.2722
 1319SOL    HW215420   0.155   3.067   4.671  0.3911  1.3068 -0.9579
 1320SOL     OW15421   0.109   4.303   3.338 -0.2422 -0.4989 -0.1276
 1320SOL    HW115422   0.161   4.360   3.395  0.2454  0.7652 -1.8385
 1320SOL    HW215423   0.177   4.286   3.273 -1.2910 -0.3998 -1.2681
 1321SOL     OW15424   2.223   1.620  11.060  0.0578  0.0129 -0.2175
 1321SOL    HW115425   2.140   1.635  11.105  1.0816  3.7360  0.4035
 1321SOL    HW215426   2.269   1.704  11.062  2.8303 -1.4687 -1.3297
 1322SOL     OW15427   1.886   3.925   3.927 -0.1735 -0.8261  0.6703
 1322SOL    HW115428   1.900   4.000   3.984  1.9282 -1.5358  1.0792
 1322SOL    HW215429   1.839   3.966   3.854 -0.5785  0.2600  1.5487
 1323SOL     OW15430   4.204   3.208  14.579  0.0672  0.2377 -0.2751
 1323SOL    HW115431   4.186   3.281  14.519 -0.3171  0.7351  0.4555
 1323SOL    HW215432   4.209   3.249  14.665  0.3441 -2.3854  0.9639
 1324SOL     OW15433   0.964   4.660   0.706  0.5742 -0.2590 -0.3136
 1324SOL    HW115434   1.018   4.687   0.780  0.0530  0.5316 -0.2187
 1324SOL    HW215435   0.971   4.565   0.708 -0.9479 -0.3783 -0.1265
 1325SOL     OW15436   3.481   3.287   5.908  0.1690  0.0947 -0.0961
 1325SOL    HW115437   3.559   3.232   5.907 -0.7676 -1.2025 -1.7603
 1325SOL    HW215438   3.446   3.271   5.995  1.0701 -2.4160 -0.1852
 1326SOL     OW15439   0.243   3.582   7.687 -0.1006 -0.7002  0.3315
 1326SOL    HW115440   0.184   3.623   7.751  0.0201 -1.8943  1.2264
 1326SOL    HW215441   0.261   3.493   7.719  0.2319 -0.6899  0.1689
 1327SOL     OW15442   2.303   4.497  15.125 -0.2322 -0.0110 -0.2988
 1327SOL    HW115443   2.225   4.546  15.098  1.0151  1.9433 -0.4027
 1327SOL    HW215444   2.355   4.509  15.045 -1.7499  0.1800 -1.2654
 1328SOL     OW15445   0.590   0.486   0.620  0.2623  0.8102 -0.0172
 1328SOL    HW115446   0.545   0.534   0.551  0.1164  1.0199  0.2242
 1328SOL    HW215447   0.600   0.402   0.576  2.7555  0.2665  1.5945
 1329SOL     OW15448   3.328   3.057  15.949  0.4230  0.5980  0.0967
 1329SOL    HW115449   3.274   2.998  15.898  1.1042  2.4939 -2.8357
 1329SOL    HW215450   3.416   3.021  15.942  0.4333  0.5622  0.3987
 1330SOL     OW15451   0.348   0.037  11.653  0.1640  0.0853 -0.5011
 1330SOL    HW115452   0.353   0.090  11.573  1.9888 -1.2458 -1.2548
 1330SOL    HW215453   0.395   4.679  11.628  0.9724  1.0205 -1.9148
 1331SOL     OW15454   1.200   1.334   5.161 -0.2313  0.5516 -0.3097
 1331SOL    HW115455   1.237   1.336   5.073  2.4219 -1.4550  0.7518
 1331SOL    HW215456   1.108   1.314   5.140  0.5351 -1.6110 -1.6034
 1332SOL     OW15457   0.212   0.873  16.002  0.0979 -0.4493 -0.2361
 1332SOL    HW115458   0.269   0.849  16.075 -2.4313 -1.3699  1.4272
 1332SOL    HW215459   0.165   0.791  15.989  0.3818 -0.7620  0.7205
 1333SOL     OW15460   3.921   3.941  14.580 -0.6009  1.2477  0.6767
 1333SOL    HW115461   3.839   3.902  14.610 -0.2887  0.5766  0.6576
 1333SOL    HW215462   3.920   3.920  14.487 -2.3119  3.5667  0.2025
 1334SOL     OW15463   1.228   0.460   6.554 -0.3165 -0.5401  0.4366
 1334SOL    HW115464   1.172   0.536   6.539 -0.6971 -1.5207 -3.0226
 1334SOL    HW215465   1.282   0.476   6.477 -0.9237 -2.3799 -0.3665
 1335SOL     OW15466   4.166   3.339   6.497  0.3853  0.7202  0.4731
 1335SOL    HW115467   4.223   3.262   6.497 -0.9075 -0.2314  1.5027
 1335SOL    HW215468   4.167   3.364   6.405  0.4526  0.8670  0.5142
 1336SOL     OW15469   3.728   3.953   7.817  0.1125 -0.7187 -0.4438
 1336SOL    HW115470   3.745   4.027   7.759 -0.7468 -0.6638 -0.6266
 1336SOL    HW215471   3.660   3.992   7.871 -0.6256 -2.1692 -0.3242
 1337SOL     OW15472   3.829   1.197   3.524 -0.5003 -0.2826 -0.6529
 1337SOL    HW115473   3.803   1.245   3.603 -1.6346 -1.6311 -0.2200
 1337SOL    HW215474   3.773   1.230   3.453 -1.3358 -0.4949 -0.0916
 1338SOL     OW15475   0.275   4.264  14.984 -0.3965  0.1129  0.3999
 1338SOL    HW115476   0.235   4.340  14.941 -0.8507 -0.3387  0.0165
 1338SOL    HW215477   0.315   4.323  15.047 -1.6680  0.0936  1.2315
 1339SOL     OW15478   3.848   2.116   8.319 -0.2655  0.0726  0.0187
 1339SOL    HW115479   3.916   2.178   8.344 -1.1769  0.2873  1.9229
 1339SOL    HW215480   3.883   2.095   8.232 -0.2198  1.5916 -0.3285
 1340SOL     OW15481   1.544   2.557   6.697 -0.9269 -0.5894  0.2470
 1340SOL    HW115482   1.450   2.539   6.707 -0.8662 -0.1221  1.6874
 1340SOL    HW215483   1.550   2.603   6.613  1.5390 -2.1343 -0.4163
 1341SOL     OW15484   3.574   3.095   2.433  0.0681  0.0826 -0.2221
 1341SOL    HW115485   3.561   3.105   2.527  1.3728  1.5198 -0.1971
 1341SOL    HW215486   3.588   3.001   2.430 -0.6153  0.1077 -3.9264
 1342SOL     OW15487   2.192   2.567   6.487 -0.0980  0.1249 -0.4409
 1342SOL    HW115488   2.279   2.597   6.511  0.0955 -0.7267 -0.0983
 1342SOL    HW215489   2.145   2.646   6.460 -1.8436  0.1787  2.7525
 1343SOL     OW15490   3.667   2.086   7.068  0.0081  0.6009  0.8632
 1343SOL    HW115491   3.651   2.067   7.160 -0.8720 -1.0078  0.3716
 1343SOL    HW215492   3.579   2.079   7.033  0.1291 -0.7130  0.8339
 1344SOL     OW15493   1.610   1.517   8.508  0.2564 -0.6561  0.0904
 1344SOL    HW115494   1.695   1.483   8.536 -0.0744 -0.1823  1.6719
 1344SOL    HW215495   1.589   1.460   8.433  0.8450 -0.0985 -0.4925
 1345SOL     OW15496   0.880   1.411   8.355  0.3078  0.3798 -0.7306
 1345SOL    HW115497   0.817   1.464   8.305 -2.8276 -1.8464  0.8869
 1345SOL    HW215498   0.943   1.482   8.368 -1.5061  2.0669 -1.0993
 1346SOL     OW15499   1.736   0.433   2.244  0.0268  0.2412 -0.0475
 1346SOL    HW115500   1.787   0.513   2.257 -0.7268  0.7467 -0.2119
 1346SOL    HW215501   1.752   0.416   2.151 -1.2818  0.0825 -0.2463
 1347SOL     OW15502   0.124   3.311   4.470  0.1527  0.6580 -0.5272
 1347SOL    HW115503   0.072   3.310   4.551 -0.2829  0.7992 -0.8063
 1347SOL    HW215504   0.117   3.399   4.433 -1.1161  1.5308  1.7710
 1348SOL     OW15505   3.192   1.320  14.080 -0.4000 -0.1475 -0.1614
 1348SOL    HW115506   3.175   1.331  13.987  1.9687 -2.8861 -0.9065
 1348SOL    HW215507   3.153   1.398  14.121 -0.3148 -0.2629  0.1413
 1349SOL     OW15508   1.625   2.410   4.651  0.1313 -0.2955 -0.4727
 1349SOL    HW115509   1.554   2.362   4.608  2.0965 -2.8375 -0.8177
 1349SOL    HW215510   1.584   2.497   4.649 -1.0198 -0.8186  0.3582
 1350SOL     OW15511   3.115   3.665   7.460  0.1263 -0.2474  0.6110
 1350SOL    HW115512   3.167   3.593   7.494  1.3988  1.1868  1.6704
 1350SOL    HW215513   3.085   3.618   7.382 -1.1279  0.5075  0.6331
 1351SOL     OW15514   1.295   2.653   3.159 -0.2812  0.1295 -0.2328
 1351SOL    HW115515   1.364   2.623   3.100 -0.1046 -0.4980  0.2864
 1351SOL    HW215516   1.337   2.634   3.243 -0.2850 -0.0689 -0.2768
 1352SOL     OW15517   3.666   1.425  12.654 -0.2562 -0.1967 -0.0173
 1352SOL    HW115518   3.737   1.480  12.620 -2.5925  1.4147 -2.3042
 1352SOL    HW215519   3.640   1.473  12.732 -2.0802  0.0650 -0.7984
 1353SOL     OW15520   1.447   2.353  15.028 -0.0337 -0.7158 -0.3402
 1353SOL    HW115521   1.404   2.340  14.943 -0.7070  2.4576 -0.4884
 1353SOL    HW215522   1.532   2.390  15.003 -0.3611 -0.0912 -0.5308
 1354SOL     OW15523   2.400   2.104   6.237 -0.3313  0.1663  0.1415
 1354SOL    HW115524   2.405   2.009   6.234  3.3898  0.4046 -1.0748
 1354SOL    HW215525   2.367   2.116   6.326 -0.0001 -0.9116  0.4018
 1355SOL     OW15526   3.913   3.831   9.968 -0.4244  0.3051 -0.0444
 1355SOL    HW115527   3.930   3.738   9.958  1.4255  0.6922 -0.5946
 1355SOL    HW215528   3.819   3.834   9.981 -0.7215  1.6760 -2.5521
 1356SOL     OW15529   2.997   2.603   6.694  0.1713  0.2593  0.2676
 1356SOL    HW115530   3.034   2.590   6.781 -0.6957  0.1449  0.6201
 1356SOL    HW215531   2.906   2.588   6.717  0.6060  0.0381  1.8111
 1357SOL     OW15532   1.553   4.355   0.197  0.8686 -0.1683 -0.2491
 1357SOL    HW115533   1.539   4.265   0.225 -2.4705 -0.1722 -1.9139
 1357SOL    HW215534   1.642   4.371   0.226  0.5453 -4.3145  2.9868
 1358SOL     OW15535   0.488   4.122   6.349  0.2071  0.1372  0.2762
 1358SOL    HW115536   0.582   4.130   6.369  0.2443  1.8419 -0.6087
 1358SOL    HW215537   0.447   4.122   6.436 -1.3528 -1.4836 -0.4833
 1359SOL     OW15538   4.156   1.119   3.579 -0.1517  0.3942  0.0405
 1359SOL    HW115539   4.146   1.151   3.668  0.1272 -1.5990  0.7902
 1359SOL    HW215540   4.071   1.078   3.565  0.3043  0.5976 -3.5722
 1360SOL     OW15541   3.986   1.673   5.501 -0.0034  0.4013  0.2605
 1360SOL    HW115542   3.910   1.698   5.554  0.3707  1.0926  0.4664
 1360SOL    HW215543   4.056   1.685   5.565 -0.0666 -1.8742  0.7551
 1361SOL     OW15544   0.772   1.986   6.151  0.4940  0.3643  0.9092
 1361SOL    HW115545   0.826   2.056   6.186 -0.4153  0.2405  2.5622
 1361SOL    HW215546   0.809   1.913   6.201  0.5662  0.1125  0.4887
 1362SOL     OW15547   4.220   3.486   8.030  0.2703  0.5698  0.1598
 1362SOL    HW115548   4.143   3.512   7.979  0.6263  1.8023  0.2578
 1362SOL    HW215549   4.221   3.395   8.001  0.8592  0.2954  1.0578
 1363SOL     OW15550   0.445   2.132   6.500 -0.2803 -0.6029  1.0518
 1363SOL    HW115551   0.477   2.073   6.431  1.0436 -0.5267  1.5917
 1363SOL    HW215552   0.525   2.179   6.523 -0.6563 -0.2500  1.6419
 1364SOL     OW15553   1.620   0.003   7.716 -0.3145  0.2718  0.1980
 1364SOL    HW115554   1.706   0.041   7.731 -0.3462  1.3008 -2.2146
 1364SOL    HW215555   1.569   0.080   7.690 -1.7169 -0.3959  0.9144
 1365SOL     OW15556   0.588   1.659  16.121  0.2769  0.0618  0.4190
 1365SOL    HW115557   0.522   1.719  16.086  1.7338  0.7464 -1.1678
 1365SOL    HW215558   0.669   1.685  16.076  0.9296 -0.8841  1.0369
 1366SOL     OW15559   2.860   0.060   1.870 -0.2327 -0.3786  0.2430
 1366SOL    HW115560   2.908   4.699   1.852  0.1721 -0.2420  0.6856
 1366SOL    HW215561   2.858   0.096   1.781 -1.3384  0.3663  0.5891
 1367SOL     OW15562   3.672   3.460  11.084 -0.1116  0.2922  0.4005
 1367SOL    HW115563   3.595   3.503  11.123  0.5115  1.5840  0.1784
 1367SOL    HW215564   3.644   3.370  11.064 -1.6720  1.0813 -0.9834
 1368SOL     OW15565   3.775   1.940   4.622  0.2039  0.2376 -0.3097
 1368SOL    HW115566   3.749   1.860   4.667 -2.3923  0.4660 -1.4060
 1368SOL    HW215567   3.695   1.965   4.574  1.1505  0.4609 -1.7588
 1369SOL     OW15568   4.257   3.209   7.995 -0.0811  0.7454 -0.0580
 1369SOL    HW115569   4.225   3.216   8.085 -3.1587  2.8547 -1.3304
 1369SOL    HW215570   4.328   3.145   8.000 -1.3823 -0.9701 -3.3772
 1370SOL     OW15571   4.069   3.593   2.756  0.4705  0.3950 -0.4916
 1370SOL    HW115572   4.051   3.555   2.670  1.6565 -0.8548 -0.1850
 1370SOL    HW215573   4.098   3.514   2.801  0.8282  1.3387  0.9161
 1371SOL     OW15574   0.259   1.089   0.637  0.4757 -0.4062  0.1555
 1371SOL    HW115575   0.287   1.082   0.545 -0.4447  1.8850 -0.3175
 1371SOL    HW215576   0.297   1.174   0.658 -1.3551  0.6546 -0.7649
 1372SOL     OW15577   3.073   1.136   2.036 -0.3196 -0.1465 -0.4059
 1372SOL    HW115578   2.990   1.100   2.004 -0.4307 -1.6492  1.6176
 1372SOL    HW215579   3.037   1.220   2.066 -1.5163 -1.5358  2.0277
 1373SOL     OW15580   1.589   2.663   6.114  0.0223 -0.1717  0.4020
 1373SOL    HW115581   1.626   2.603   6.179 -0.5890 -0.2398  0.6833
 1373SOL    HW215582   1.496   2.644   6.122  0.5551 -3.3997 -1.1614
 1374SOL     OW15583   2.898   0.575   6.104  0.2866  0.0358 -0.0556
 1374SOL    HW115584   2.918   0.669   6.108  1.8441 -0.3013 -0.0623
 1374SOL    HW215585   2.909   0.548   6.013 -3.0895  1.3774 -0.8506
 1375SOL     OW15586   3.977   4.126  16.655 -0.0802  0.3119  0.1111
 1375SOL    HW115587   3.994   4.067  16.581 -0.5168 -1.2274  1.2365
 1375SOL    HW215588   3.894   4.091  16.686 -0.1261  0.6089  0.3187
 1376SOL     OW15589   0.428   4.351   5.794 -0.2763  0.4107  0.0038
 1376SOL    HW115590   0.396   4.439   5.816  2.9417  1.0489  2.3090
 1376SOL    HW215591   0.368   4.293   5.841  2.8906 -0.9295  2.4289
 1377SOL     OW15592   2.228   4.500  13.188 -0.4740  0.1828  0.3286
 1377SOL    HW115593   2.184   4.584  13.200 -2.4759 -0.6340 -1.2240
 1377SOL    HW215594   2.321   4.517  13.177 -0.7630  1.3984 -0.2525
 1378SOL     OW15595   2.914   0.943   5.436 -0.1500  0.7665  0.0149
 1378SOL    HW115596   3.002   0.920   5.405  0.0796  0.0348  1.2131
 1378SOL    HW215597   2.879   0.989   5.359 -0.0722 -0.2920 -0.6473
 1379SOL     OW15598   2.943   1.536   5.315 -0.6769  0.1113 -0.1803
 1379SOL    HW115599   2.965   1.535   5.408 -3.8252  0.5235  0.5782
 1379SOL    HW215600   2.875   1.601   5.334  0.4493  0.9068  1.1298
 1380SOL     OW15601   3.236   3.900   6.446  0.1257  0.0602  0.0748
 1380SOL    HW115602   3.231   3.812   6.483  0.4816  0.0592  0.1205
 1380SOL    HW215603   3.247   3.948   6.528  0.6022  2.5440 -1.4579
 1381SOL     OW15604   2.073   1.201   1.121 -0.1463 -0.1626  0.2684
 1381SOL    HW115605   2.117   1.119   1.097  0.7686  0.3327  0.2479
 1381SOL    HW215606   2.107   1.263   1.056  0.9338 -0.5078  0.5098
 1382SOL     OW15607   4.247   2.218   5.597 -0.0318  0.2649 -0.1517
 1382SOL    HW115608   4.297   2.141   5.625  0.2044  1.0491  1.6018
 1382SOL    HW215609   4.297   2.254   5.523  1.9272 -1.5178  0.2870
 1383SOL     OW15610   2.287   4.122   5.761 -0.7423 -0.3519  0.0878
 1383SOL    HW115611   2.318   4.213   5.752 -1.2964 -0.3646 -1.8161
 1383SOL    HW215612   2.368   4.081   5.732  0.7732  0.6563  2.8879
 1384SOL     OW15613   4.316   4.203   1.918  0.1318 -0.0346  0.2315
 1384SOL    HW115614   4.400   4.162   1.895  0.8322  1.5923 -0.0980
 1384SOL    HW215615   4.333   4.228   2.009 -1.5470  1.4146  0.1487
 1385SOL     OW15616   1.948   0.492   0.968 -0.0807  0.5185 -0.1150
 1385SOL    HW115617   1.939   0.587   0.975 -1.7497  0.4552 -1.4208
 1385SOL    HW215618   2.043   0.487   0.953 -0.2636  0.1726 -1.1696
 1386SOL     OW15619   2.296   3.686   5.371  0.0313  0.2329 -0.2542
 1386SOL    HW115620   2.346   3.735   5.436 -0.2420  1.6390 -1.1242
 1386SOL    HW215621   2.222   3.653   5.423  0.1398  0.7883  0.2607
 1387SOL     OW15622   1.652   3.997   0.821 -0.0876 -0.0427 -0.0763
 1387SOL    HW115623   1.605   3.925   0.778 -1.8540  0.3820  1.1206
 1387SOL    HW215624   1.722   3.938   0.850 -0.3873 -0.1087  0.5219
 1388SOL     OW15625   1.017   4.070   3.067  0.0634  0.3672  0.4353
 1388SOL    HW115626   0.970   4.010   3.126 -1.1924  1.0018  0.0656
 1388SOL    HW215627   1.106   4.035   3.076  0.4958  1.2312 -0.5305
 1389SOL     OW15628   4.222   3.295   4.105 -0.1293  0.2493  0.1105
 1389SOL    HW115629   4.293   3.347   4.069  0.7789 -0.5403  0.7735
 1389SOL    HW215630   4.142   3.346   4.093 -0.5971 -0.9657 -1.8446
 1390SOL     OW15631   4.134   3.315   5.032 -0.0779  0.5837 -0.3536
 1390SOL    HW115632   4.216   3.268   5.049 -1.3961 -2.0856 -1.4006
 1390SOL    HW215633   4.167   3.392   4.986  1.4027  0.8692  1.1570
 1391SOL     OW15634   0.251   1.094  15.021  0.0440 -1.0008 -0.0281
 1391SOL    HW115635   0.202   1.014  15.038 -0.9568 -0.7273 -1.7220
 1391SOL    HW215636   0.206   1.151  15.083  0.0139 -0.4602 -0.5501
 1392SOL     OW15637   0.053   2.655   5.239  0.1946  0.0894 -0.4624
 1392SOL    HW115638   0.075   2.562   5.241  2.1830  0.5697  0.1505
 1392SOL    HW215639   4.679   2.649   5.236  0.2329 -1.7827  2.7407
 1393SOL     OW15640   0.258   1.516   1.193 -0.3790  0.5568 -0.2812
 1393SOL    HW115641   0.235   1.523   1.100 -1.0123 -0.5274 -0.2032
 1393SOL    HW215642   0.349   1.546   1.189 -0.0959 -0.4676 -1.5300
 1394SOL     OW15643   2.568   2.332   5.092  0.0499  0.1662  0.3694
 1394SOL    HW115644   2.495   2.270   5.088 -0.5105  0.9416 -1.7737
 1394SOL    HW215645   2.585   2.358   5.182 -0.4875  0.3857  0.4030
 1395SOL     OW15646   1.035   4.318   7.528  0.2606  0.2684 -0.6975
 1395SOL    HW115647   0.949   4.277   7.513  1.8675 -2.8773 -1.3054
 1395SOL    HW215648   1.088   4.239   7.515 -1.0638 -1.1013  2.0747
 1396SOL     OW15649   4.149   2.955   4.014  0.0568  0.1134  0.3060
 1396SOL    HW115650   4.056   2.943   3.993  0.0920 -0.3226  0.4073
 1396SOL    HW215651   4.162   2.922   4.103  1.7237 -0.9860 -0.3604
 1397SOL     OW15652   2.580   0.521   8.684 -0.0273 -0.3149 -0.0679
 1397SOL    HW115653   2.518   0.520   8.757  0.0584  0.0316  0.0061
 1397SOL    HW215654   2.643   0.459   8.723  0.6708  1.1048  1.0772
 1398SOL     OW15655   3.983   0.708   2.450 -0.6998  0.0788 -0.4507
 1398SOL    HW115656   4.000   0.745   2.363  3.8779  0.1835  0.4621
 1398SOL    HW215657   3.968   0.786   2.503 -0.3434  0.0235 -0.2678
 1399SOL     OW15658   1.781   4.684   5.551 -0.1480  0.4416 -0.1859
 1399SOL    HW115659   1.693   4.716   5.573 -0.8465 -1.7761  0.1850
 1399SOL    HW215660   1.823   4.692   5.636  1.5500  1.4835 -1.1146
 1400SOL     OW15661   3.166   4.509   2.942  0.0365 -0.3677 -0.0694
 1400SOL    HW115662   3.243   4.544   2.987 -0.8410  1.5250 -0.0204
 1400SOL    HW215663   3.121   4.592   2.926 -1.5200 -1.1760  0.0728
 1401SOL     OW15664   1.200   4.540  14.704 -0.2497  0.3974  0.1886
 1401SOL    HW115665   1.265   4.483  14.662 -1.4743 -0.9740  0.1468
 1401SOL    HW215666   1.137   4.474  14.734 -2.1135  2.1393  0.1568
 1402SOL     OW15667   0.662   1.509  15.739  0.5605  0.1046 -0.1275
 1402SOL    HW115668   0.689   1.461  15.661 -1.9216 -0.6743 -0.5286
 1402SOL    HW215669   0.740   1.563  15.748  0.9365 -0.1847 -1.5863
 1403SOL     OW15670   1.252   3.513   8.871  0.0785 -0.1687 -0.4223
 1403SOL    HW115671   1.259   3.562   8.788  0.5955  0.6016  0.0801
 1403SOL    HW215672   1.159   3.490   8.868  0.2842 -1.1144  0.8702
 1404SOL     OW15673   4.688   0.628   7.840  0.3966 -0.2070  0.2933
 1404SOL    HW115674   0.017   0.552   7.871  1.1670 -0.5056 -1.6466
 1404SOL    HW215675   4.619   0.581   7.793  1.0119  0.8136 -1.6136
 1405SOL     OW15676   3.576   2.558   7.141 -0.3039  0.0346 -0.0179
 1405SOL    HW115677   3.571   2.521   7.230  1.3848 -2.4937 -0.9695
 1405SOL    HW215678   3.671   2.562   7.131 -0.1045 -0.7748  1.3597
 1406SOL     OW15679   0.372   2.512  10.154  0.1071  0.1437  0.2472
 1406SOL    HW115680   0.417   2.513  10.069  2.2998  0.9808  1.3988
 1406SOL    HW215681   0.287   2.492  10.116  0.6024 -0.5823 -0.4902
 1407SOL     OW15682   1.892   0.447   8.295 -0.1338  0.3721 -0.5496
 1407SOL    HW115683   1.833   0.498   8.240 -1.7649 -0.3761  0.5200
 1407SOL    HW215684   1.917   0.507   8.366 -1.0332  1.2834 -1.0046
 1408SOL     OW15685   3.584   2.059   3.809  0.2317 -0.0099  0.6232
 1408SOL    HW115686   3.584   1.963   3.811 -1.4760  0.0527  4.0748
 1408SOL    HW215687   3.541   2.078   3.726  2.2592 -0.9997 -0.6513
 1409SOL     OW15688   2.266   4.359  13.494  0.4164  0.1004 -0.0586
 1409SOL    HW115689   2.185   4.359  13.443  0.2619  0.1793  0.1913
 1409SOL    HW215690   2.300   4.270  13.486 -0.0665  0.1992 -3.5012
 1410SOL     OW15691   1.492   0.310   7.976  0.0970  0.0755  0.0928
 1410SOL    HW115692   1.454   0.231   8.015 -0.8750  0.6088  0.2193
 1410SOL    HW215693   1.582   0.286   7.956 -0.3771 -2.5438  1.1612
 1411SOL     OW15694   3.761   2.139   8.830  0.1927  0.3829  0.6586
 1411SOL    HW115695   3.827   2.074   8.804 -2.7226 -1.6101 -1.7620
 1411SOL    HW215696   3.770   2.125   8.924 -0.7771 -0.0685  0.6896
 1412SOL     OW15697   4.409   2.144   4.629  0.8425 -0.5259  0.2982
 1412SOL    HW115698   4.330   2.125   4.680 -0.8267  0.0531 -2.0614
 1412SOL    HW215699   4.476   2.084   4.662  1.7139 -1.7714 -3.6746
 1413SOL     OW15700   2.216   3.243  10.257 -0.1549 -0.2424 -0.4792
 1413SOL    HW115701   2.282   3.312  10.245  0.9889 -0.8510  2.2337
 1413SOL    HW215702   2.240   3.177  10.193  1.0327 -0.6356  0.3685
 1414SOL     OW15703   2.687   1.053   5.626  0.1304 -0.1554 -0.4846
 1414SOL    HW115704   2.751   1.094   5.568 -0.2724  0.2964 -0.6142
 1414SOL    HW215705   2.749   1.017   5.690 -1.5508  0.8728  1.7387
 1415SOL     OW15706   4.095   4.173  12.890 -0.2107 -0.0775 -0.1015
 1415SOL    HW115707   4.125   4.097  12.939 -0.5671  0.1878  0.5178
 1415SOL    HW215708   4.121   4.247  12.945 -1.8231 -0.0369  0.6024
 1416SOL     OW15709   2.438   0.428   8.174  0.0861 -0.4235  0.5669
 1416SOL    HW115710   2.492   0.492   8.220 -2.8334  0.4610  2.7399
 1416SOL    HW215711   2.431   0.354   8.234 -2.0091 -0.7659 -0.1213
 1417SOL     OW15712   2.384   1.745  14.184  0.1822  0.5774  0.9295
 1417SOL    HW115713   2.452   1.809  14.202 -0.1705  1.6820 -1.6500
 1417SOL    HW215714   2.317   1.780  14.243 -2.1476  0.5499 -1.7192
 1418SOL     OW15715   3.562   4.029   7.998  0.1742 -0.6420  0.2589
 1418SOL    HW115716   3.626   4.052   8.065 -1.3476  0.9151  1.1984
 1418SOL    HW215717   3.505   3.969   8.046 -0.9316 -0.7233 -1.1504
 1419SOL     OW15718   4.263   2.976  13.720 -0.0505 -0.1591  0.1206
 1419SOL    HW115719   4.302   2.903  13.671 -0.5029 -0.8897  0.8677
 1419SOL    HW215720   4.174   2.942  13.727  0.1550 -0.7302 -0.0542
 1420SOL     OW15721   2.143   3.076   6.362 -0.6276  0.2433  0.5378
 1420SOL    HW115722   2.147   3.074   6.266  0.0378 -0.9212  0.5887
 1420SOL    HW215723   2.174   3.166   6.373  1.3569 -0.1875 -1.5095
 1421SOL     OW15724   2.399   1.810   0.601  0.0524  0.1664  0.2838
 1421SOL    HW115725   2.336   1.865   0.647  0.6221  0.5587  0.5924
 1421SOL    HW215726   2.431   1.862   0.527  0.4971 -0.3959  0.0817
 1422SOL     OW15727   0.159   0.320   8.302 -0.0909 -0.5591  0.5451
 1422SOL    HW115728   0.091   0.355   8.360  1.3904  2.4333  0.4645
 1422SOL    HW215729   0.099   0.254   8.267 -0.3804 -0.0351  0.0576
 1423SOL     OW15730   0.101   1.140   1.565  0.5189 -0.4292 -0.2311
 1423SOL    HW115731   0.144   1.202   1.624  1.6161 -1.3198 -0.0818
 1423SOL    HW215732   0.137   1.171   1.481  3.9745  0.0091  1.4031
 1424SOL     OW15733   4.566   0.018   7.755  0.5142  0.0216  0.3558
 1424SOL    HW115734   4.475   4.719   7.733  0.5045 -1.2523  1.5648
 1424SOL    HW215735   4.612   4.667   7.712 -0.8474 -0.3874 -0.4102
 1425SOL     OW15736   0.582   4.504   8.741  0.0178  0.0646 -0.4947
 1425SOL    HW115737   0.628   4.424   8.766 -0.8866 -0.6880 -1.2686
 1425SOL    HW215738   0.507   4.466   8.695  0.0726  0.6940 -1.1168
 1426SOL     OW15739   1.708   2.430   6.890  0.1009  0.0779  0.0061
 1426SOL    HW115740   1.666   2.344   6.891 -1.4743  0.8709  2.2123
 1426SOL    HW215741   1.652   2.473   6.825  0.3409  2.0845  1.1334
 1427SOL     OW15742   1.013   1.431  10.715 -0.3325  0.1199  0.3697
 1427SOL    HW115743   0.921   1.442  10.692 -0.0390  0.9447 -0.3738
 1427SOL    HW215744   1.045   1.406  10.629 -2.3679  0.9986 -0.6302
 1428SOL     OW15745   4.193   1.766  12.089 -0.1002  0.0979 -0.1451
 1428SOL    HW115746   4.124   1.796  12.149 -1.2374 -2.4378 -0.1560
 1428SOL    HW215747   4.205   1.848  12.042 -0.8656  0.3115  0.0250
 1429SOL     OW15748   1.852   1.855   6.605 -0.3398  1.2352 -0.1926
 1429SOL    HW115749   1.878   1.846   6.513 -2.0030 -1.4702 -0.4151
 1429SOL    HW215750   1.780   1.791   6.607  1.8100 -1.1351  0.8874
 1430SOL     OW15751   0.162   2.014  11.507  0.5796  0.7637 -0.9115
 1430SOL    HW115752   0.160   2.070  11.585 -0.0926  1.5135 -1.4672
 1430SOL    HW215753   0.107   2.070  11.452  1.1012  1.8496 -0.3045
 1431SOL     OW15754   2.236   0.917  16.297 -0.1295 -0.4247  0.1514
 1431SOL    HW115755   2.301   0.986  16.285 -0.1844 -0.7563 -1.9788
 1431SOL    HW215756   2.280   0.837  16.269  0.0038 -0.2537 -0.1233
 1432SOL     OW15757   3.331   2.042  11.771 -0.0953  0.2578  0.2964
 1432SOL    HW115758   3.365   2.103  11.836  1.3615  2.1953 -2.2571
 1432SOL    HW215759   3.408   2.031  11.714 -0.7478 -2.2337 -0.0918
 1433SOL     OW15760   3.903   0.760   6.027  0.1104  0.1532  0.6276
 1433SOL    HW115761   3.845   0.735   6.099 -1.0828 -1.4385 -0.8880
 1433SOL    HW215762   3.870   0.712   5.951  2.2874  0.2190 -0.3554
 1434SOL     OW15763   4.396   1.259   7.857  0.0996  0.8260 -0.2000
 1434SOL    HW115764   4.358   1.278   7.943 -0.3145 -1.8927  0.2300
 1434SOL    HW215765   4.476   1.210   7.875  0.0638  1.6627  2.1960
 1435SOL     OW15766   0.402   0.885   0.773  0.4810  0.1086 -0.4044
 1435SOL    HW115767   0.323   0.928   0.742 -0.4104 -0.5210  1.0175
 1435SOL    HW215768   0.374   0.794   0.767 -0.0540  0.3635 -1.8965
 1436SOL     OW15769   1.376   0.639   4.915 -0.3530 -0.2837 -1.1741
 1436SOL    HW115770   1.463   0.619   4.950 -1.0978 -1.4010  0.0035
 1436SOL    HW215771   1.387   0.725   4.875 -2.8369  0.4119 -0.3601
 1437SOL     OW15772   2.926   2.948   6.738 -0.6390  0.0041 -0.2474
 1437SOL    HW115773   3.014   2.972   6.709  0.3169 -1.8050  1.1799
 1437SOL    HW215774   2.950   2.937   6.830 -0.2744  1.6724 -0.1438
 1438SOL     OW15775   3.483   0.842   6.503  1.1289  0.2990  0.0072
 1438SOL    HW115776   3.476   0.824   6.597 -0.8312 -0.6104 -0.3031
 1438SOL    HW215777   3.438   0.770   6.458 -1.4574  2.0670 -0.2176
 1439SOL     OW15778   2.956   2.532   8.107  0.2081 -0.2444  0.2151
 1439SOL    HW115779   2.985   2.583   8.032 -1.7364 -1.1694 -1.1705
 1439SOL    HW215780   3.039   2.491   8.129  0.9545  0.8294 -0.5899
 1440SOL     OW15781   2.216   3.888  11.487  1.1794 -0.6419 -0.2444
 1440SOL    HW115782   2.154   3.955  11.458  1.5902 -0.3553 -0.4514
 1440SOL    HW215783   2.217   3.902  11.582  2.2561  0.2414 -0.3899
 1441SOL     OW15784   4.272   2.649   1.157 -0.6057 -0.0391  0.1215
 1441SOL    HW115785   4.228   2.711   1.215  0.4382  0.1060  0.7641
 1441SOL    HW215786   4.288   2.696   1.075 -2.1516 -0.2698 -0.3089
 1442SOL     OW15787   3.549   0.006  16.928  0.5106  0.6315  0.4496
 1442SOL    HW115788   3.469   0.006  16.981 -1.2352  0.8621 -2.1786
 1442SOL    HW215789   3.612   0.026  16.997  0.3999  1.1338  0.4043
 1443SOL     OW15790   4.658   3.700   4.998 -0.1751 -0.1888  0.1270
 1443SOL    HW115791   4.615   3.781   5.022  0.8563  0.0486  1.1992
 1443SOL    HW215792   4.579   3.646   4.992  0.0621 -0.8060  2.5982
 1444SOL     OW15793   4.234   1.719  14.937 -0.4884 -0.4434 -0.4271
 1444SOL    HW115794   4.241   1.652  15.005  2.7036  1.5955  1.2633
 1444SOL    HW215795   4.141   1.737  14.949 -0.5720 -1.4791  0.5166
 1445SOL     OW15796   2.942   0.722   5.202  0.0379 -0.1326 -0.1681
 1445SOL    HW115797   2.951   0.746   5.110  1.2734 -1.0264 -0.2797
 1445SOL    HW215798   3.032   0.728   5.233  0.5121  1.5155 -1.8749
 1446SOL     OW15799   0.384   1.096   2.192  0.0998  0.1386  0.6727
 1446SOL    HW115800   0.350   1.012   2.161  0.9980 -0.1059  0.3511
 1446SOL    HW215801   0.306   1.149   2.179 -0.6244 -1.1260 -0.1500
 1447SOL     OW15802   2.699   0.419   0.839  0.3561  0.0679 -0.1473
 1447SOL    HW115803   2.793   0.439   0.842  0.3993  0.2811 -2.3819
 1447SOL    HW215804   2.702   0.341   0.894 -0.2979 -0.2724 -0.5974
 1448SOL     OW15805   1.916   3.664   1.030 -0.0643 -0.0012  0.1640
 1448SOL    HW115806   1.875   3.674   0.944 -2.4479 -2.1935  1.0684
 1448SOL    HW215807   1.856   3.597   1.062 -1.5887  1.3679  0.1272
 1449SOL     OW15808   2.899   2.660   7.826  0.0978 -0.2300 -0.2619
 1449SOL    HW115809   2.837   2.647   7.898 -0.6015 -0.8173 -0.9755
 1449SOL    HW215810   2.844   2.721   7.777 -0.3129  1.1538  1.9051
 1450SOL     OW15811   2.498   0.082   6.323  0.3661  0.0040  0.2319
 1450SOL    HW115812   2.586   0.046   6.313  0.3990 -0.0348  0.6594
 1450SOL    HW215813   2.463   0.057   6.238  0.9478  0.7989 -0.2404
 1451SOL     OW15814   1.167   0.684   6.817  0.3112 -0.0637 -1.0251
 1451SOL    HW115815   1.159   0.600   6.863 -2.3492  0.7658  0.0042
 1451SOL    HW215816   1.216   0.647   6.743 -2.5744 -0.0281 -2.9415
 1452SOL     OW15817   3.796   0.878   0.708  0.2363 -0.5217 -0.0187
 1452SOL    HW115818   3.755   0.957   0.671  0.5955 -0.6182 -0.6242
 1452SOL    HW215819   3.848   0.858   0.631  0.0745  1.4862 -0.6415
 1453SOL     OW15820   3.625   1.251   8.466  0.0936  0.0830 -0.7031
 1453SOL    HW115821   3.580   1.208   8.393 -0.7520 -1.7093  0.8688
 1453SOL    HW215822   3.626   1.344   8.445  0.6266  0.7370  2.1627
 1454SOL     OW15823   0.426   3.614  15.889 -0.3906  0.0499  0.1441
 1454SOL    HW115824   0.377   3.536  15.863 -0.0871  0.4584 -1.6796
 1454SOL    HW215825   0.413   3.660  15.806 -0.1556  1.6564  1.0012
 1455SOL     OW15826   1.262   1.127  14.285  0.9514  0.2982 -0.0825
 1455SOL    HW115827   1.306   1.068  14.224 -1.2969 -1.1904 -0.2899
 1455SOL    HW215828   1.325   1.139  14.356 -0.3720 -1.5502  1.4275
 1456SOL     OW15829   0.331   4.464   6.950 -0.1615  0.1893  0.3263
 1456SOL    HW115830   0.300   4.385   6.995 -0.3828  0.5338  0.7786
 1456SOL    HW215831   0.425   4.470   6.967 -0.0071 -3.2152  0.6619
 1457SOL     OW15832   1.803   1.468   4.868 -0.2663 -0.3284 -0.3499
 1457SOL    HW115833   1.842   1.450   4.953  3.2374 -2.1547 -2.3252
 1457SOL    HW215834   1.875   1.458   4.806  1.1082  0.0134  1.1936
 1458SOL     OW15835   1.537   0.713   6.304  0.1547  0.5032 -0.3417
 1458SOL    HW115836   1.603   0.774   6.336  1.4468 -0.9538 -0.2028
 1458SOL    HW215837   1.546   0.649   6.374  1.9899  0.2453 -0.8197
 1459SOL     OW15838   3.756   0.333   7.107 -0.1160 -0.4135 -0.3701
 1459SOL    HW115839   3.665   0.326   7.135 -0.5422  0.6548 -1.4289
 1459SOL    HW215840   3.767   0.428   7.110  1.0449 -0.5795  0.8191
 1460SOL     OW15841   1.929   2.321   8.340 -0.1616 -0.1629 -0.2605
 1460SOL    HW115842   2.013   2.276   8.340  1.1750  2.3186 -0.4280
 1460SOL    HW215843   1.861   2.254   8.331 -0.6670  0.3521 -0.2678
 1461SOL     OW15844   2.265   3.373   5.752  0.4832 -0.0046  0.3037
 1461SOL    HW115845   2.195   3.308   5.742  2.1207 -1.5907 -0.8281
 1461SOL    HW215846   2.314   3.352   5.673  0.8381 -0.1772  0.5692
 1462SOL     OW15847   0.459   2.830   5.669 -1.0627 -0.1382 -0.6961
 1462SOL    HW115848   0.445   2.859   5.579  0.0515  1.0838 -0.4749
 1462SOL    HW215849   0.413   2.899   5.716 -2.6526 -1.7923  0.1736
 1463SOL     OW15850   4.480   4.661   8.022  0.3946 -0.3482  0.0836
 1463SOL    HW115851   4.514   4.637   7.936  0.1317 -2.0132  0.4448
 1463SOL    HW215852   4.544   4.613   8.076  0.0979  0.3589  1.0727
 1464SOL     OW15853   0.294   4.712   0.062 -0.0454 -0.2312  0.1683
 1464SOL    HW115854   0.213   4.666   0.042 -0.2667  0.2416 -0.0156
 1464SOL    HW215855   0.275   0.082   0.038 -0.3112 -0.4684 -0.5131
 1465SOL     OW15856   1.969   2.524   3.673  0.3186 -0.0108 -0.2369
 1465SOL    HW115857   1.945   2.450   3.616 -2.9537  0.3180  0.7411
 1465SOL    HW215858   2.057   2.539   3.637 -0.4294  2.2242 -1.1304
 1466SOL     OW15859   0.923   3.397   6.773 -0.4246  0.0422 -0.3449
 1466SOL    HW115860   0.954   3.307   6.760  0.7428 -0.0667  3.0664
 1466SOL    HW215861   0.894   3.392   6.864  1.2506  1.8407  0.2828
 1467SOL     OW15862   1.248   1.375   3.785  0.6296 -0.3186  0.1608
 1467SOL    HW115863   1.196   1.296   3.799 -0.6055  0.5035  0.1790
 1467SOL    HW215864   1.190   1.442   3.822  1.4334  0.4022  0.1323
 1468SOL     OW15865   2.964   3.685   8.893 -0.2636 -0.0448 -0.0616
 1468SOL    HW115866   2.992   3.598   8.923  0.8716 -0.1299 -1.3494
 1468SOL    HW215867   2.877   3.692   8.934  0.0598 -0.7344  0.7454
 1469SOL     OW15868   3.391   0.621   6.354  0.0104  0.2031 -0.3724
 1469SOL    HW115869   3.321   0.612   6.289 -0.5600  0.8048  0.1614
 1469SOL    HW215870   3.467   0.599   6.300  0.6830  3.6814 -0.8527
 1470SOL     OW15871   3.126   3.431   3.621 -0.1297 -0.2527  0.2182
 1470SOL    HW115872   3.158   3.500   3.562 -0.1697  0.7791  1.4060
 1470SOL    HW215873   3.110   3.366   3.553 -0.9558  2.7980 -2.4854
 1471SOL     OW15874   2.512   0.275   1.975  0.2135  0.0494 -0.0788
 1471SOL    HW115875   2.571   0.235   2.039 -1.0649 -0.6286  0.6657
 1471SOL    HW215876   2.436   0.306   2.024 -0.3525 -0.1510 -0.8360
 1472SOL     OW15877   1.029   4.269   2.018 -0.8606 -0.1849 -0.0365
 1472SOL    HW115878   1.071   4.270   2.104  0.8051  1.0911 -0.8615
 1472SOL    HW215879   0.963   4.339   2.016  0.4004  0.9672 -0.9238
 1473SOL     OW15880   2.212   4.339   3.915  0.3736  0.1410  0.3672
 1473SOL    HW115881   2.307   4.326   3.907  0.3721 -0.5448  1.4513
 1473SOL    HW215882   2.171   4.350   3.829 -1.2996 -1.5294  0.9565
 1474SOL     OW15883   3.880   4.200   5.371 -0.0283 -0.0552  0.5047
 1474SOL    HW115884   3.965   4.178   5.409 -0.2654  0.5407  1.3922
 1474SOL    HW215885   3.843   4.260   5.436 -0.8007  0.4693 -0.4212
 1475SOL     OW15886   3.840   1.523   9.612  0.3279 -0.3667 -0.2479
 1475SOL    HW115887   3.869   1.591   9.552 -0.3826  1.4822  1.5139
 1475SOL    HW215888   3.909   1.459   9.594  0.8889 -0.2204  1.3454
 1476SOL     OW15889   0.945   1.328   4.119  0.4199  0.5156 -0.3169
 1476SOL    HW115890   0.867   1.274   4.116  0.0953  0.8789  2.1291
 1476SOL    HW215891   0.940   1.357   4.210  0.7518 -0.6984  0.0792
 1477SOL     OW15892   3.241   3.622   9.645 -0.2386  0.1385  0.7303
 1477SOL    HW115893   3.161   3.674   9.648 -0.4576 -0.1789  0.4310
 1477SOL    HW215894   3.217   3.542   9.691 -0.3810 -0.6991 -0.7850
 1478SOL     OW15895   2.258   3.197   0.856 -0.0681  0.7868 -0.1105
 1478SOL    HW115896   2.230   3.191   0.947  0.8772 -1.4379  0.0251
 1478SOL    HW215897   2.225   3.286   0.842  0.4774  1.0949  0.5852
 1479SOL     OW15898   3.048   3.177   5.032  0.8251  0.4676  0.3208
 1479SOL    HW115899   3.044   3.243   5.102  1.7439  3.2061 -2.2444
 1479SOL    HW215900   3.057   3.100   5.088 -2.5022  0.9030  1.5017
 1480SOL     OW15901   0.411   4.582   4.166  0.5493 -0.0540  0.1966
 1480SOL    HW115902   0.365   4.651   4.215  2.1914 -0.5408  2.4110
 1480SOL    HW215903   0.355   4.581   4.088  1.2469 -1.1699 -0.2817
 1481SOL     OW15904   4.650   1.486   7.228 -0.1518  0.4775  0.0951
 1481SOL    HW115905   4.599   1.538   7.290  0.2513  1.7769 -0.6833
 1481SOL    HW215906   4.586   1.492   7.157 -0.5962  0.5852  0.5091
 1482SOL     OW15907   3.737   2.429   3.219 -0.0382 -0.1574  0.3211
 1482SOL    HW115908   3.671   2.491   3.186 -0.1851  0.1733  1.2442
 1482SOL    HW215909   3.816   2.480   3.236  0.6149 -1.0588  0.0076
 1483SOL     OW15910   3.019   3.921   3.333 -0.3013 -0.3953 -0.8821
 1483SOL    HW115911   2.996   4.003   3.291  2.7303  0.5891 -0.5804
 1483SOL    HW215912   3.112   3.926   3.353 -0.8958 -0.9817  2.1072
 1484SOL     OW15913   3.447   2.668   6.667 -0.5567 -0.0264 -0.3984
 1484SOL    HW115914   3.451   2.707   6.579 -0.4340  1.1109  0.1054
 1484SOL    HW215915   3.407   2.741   6.714  1.5202  0.3499  0.7795
 1485SOL     OW15916   0.865   0.634  11.647 -0.7410  0.1905 -0.6939
 1485SOL    HW115917   0.876   0.686  11.727 -0.5505  1.1550 -1.3415
 1485SOL    HW215918   0.811   0.689  11.590  0.4363  0.1169 -1.8714
 1486SOL     OW15919   1.302   1.082   7.526 -0.3966  0.0832  0.3894
 1486SOL    HW115920   1.273   0.996   7.494 -0.0700  0.6512 -1.4328
 1486SOL    HW215921   1.261   1.094   7.612 -0.7239 -2.5293  0.6008
 1487SOL     OW15922   3.740   3.320   8.023 -0.3291  0.8635 -0.2861
 1487SOL    HW115923   3.716   3.347   8.112 -1.5477  0.0194 -0.3666
 1487SOL    HW215924   3.815   3.261   8.036 -1.0588 -0.2787 -1.3426
 1488SOL     OW15925   3.775   3.636  10.779  0.0430 -0.3522  0.3572
 1488SOL    HW115926   3.866   3.659  10.761 -0.1773 -0.5914 -1.1186
 1488SOL    HW215927   3.766   3.576  10.705 -1.6149  0.4135 -0.0845
 1489SOL     OW15928   3.248   4.426   5.405  0.5319  0.3924 -0.1686
 1489SOL    HW115929   3.260   4.412   5.499  1.4920 -0.3596 -0.4108
 1489SOL    HW215930   3.235   4.520   5.395 -1.5547  0.3745  2.2224
 1490SOL     OW15931   2.274   1.030   5.463  0.0439 -0.4043  0.2941
 1490SOL    HW115932   2.280   1.009   5.370 -1.4452 -1.0353  0.3433
 1490SOL    HW215933   2.195   0.987   5.497 -1.2149  2.0030  0.4468
 1491SOL     OW15934   3.576   2.863   4.212  0.8415  0.3581  0.1464
 1491SOL    HW115935   3.510   2.807   4.253 -0.0809 -0.0753 -1.9447
 1491SOL    HW215936   3.646   2.800   4.194 -0.2176  0.2689 -3.8019
 1492SOL     OW15937   1.168   2.417   5.680  0.7253  0.0245  0.1512
 1492SOL    HW115938   1.126   2.431   5.765 -0.1080  1.3200 -0.4729
 1492SOL    HW215939   1.198   2.326   5.688  1.9923  0.4734  0.5624
 1493SOL     OW15940   4.182   3.897   4.033 -0.6263 -0.1332  0.1691
 1493SOL    HW115941   4.186   3.943   3.950  0.7652 -1.4289 -0.4948
 1493SOL    HW215942   4.103   3.845   4.020  0.5593 -1.6788 -0.9687
 1494SOL     OW15943   2.754   1.282   8.182  0.0625 -0.5259  1.0263
 1494SOL    HW115944   2.701   1.299   8.104 -0.2363 -3.3394  0.6121
 1494SOL    HW215945   2.712   1.337   8.249  0.9185  1.2611  0.0914
 1495SOL     OW15946   1.070   3.444   2.126 -0.2491  0.0120 -0.4823
 1495SOL    HW115947   1.062   3.539   2.117  0.4110  0.1316  0.1702
 1495SOL    HW215948   1.005   3.412   2.189  0.1249  1.7071  0.7660
 1496SOL     OW15949   2.728   3.004   2.181  0.1067  0.1544 -0.5832
 1496SOL    HW115950   2.647   2.997   2.231  0.1133 -0.8545 -0.7192
 1496SOL    HW215951   2.689   3.049   2.106 -5.6649  1.5542  3.2067
 1497SOL     OW15952   4.459   1.484   7.029  0.1437  0.7008  0.0204
 1497SOL    HW115953   4.444   1.568   7.072 -0.5692  0.6791 -0.1749
 1497SOL    HW215954   4.418   1.499   6.943 -1.6907  1.7076  1.0616
 1498SOL     OW15955   4.118   2.374   3.227  0.0299  0.3246  0.0643
 1498SOL    HW115956   4.089   2.421   3.149 -0.4029 -1.6908 -0.9779
 1498SOL    HW215957   4.201   2.346   3.188  0.7540  0.6776  1.3330
 1499SOL     OW15958   3.981   3.664   6.127  0.6709  0.4935  0.2963
 1499SOL    HW115959   4.064   3.671   6.175 -0.5771  0.4665  2.4794
 1499SOL    HW215960   3.936   3.597   6.178  1.7419 -0.6709 -0.2874
 1500SOL     OW15961   3.431   0.268   9.106  0.3905 -0.5501 -0.1550
 1500SOL    HW115962   3.492   0.338   9.083  1.2467 -0.8456  1.2017
 1500SOL    HW215963   3.410   0.298   9.195 -0.1064 -0.4672 -0.3034
 1501SOL     OW15964   4.110   0.546   0.337 -0.3928  0.2796 -0.0723
 1501SOL    HW115965   4.138   0.629   0.375  0.1348  1.5187 -3.1811
 1501SOL    HW215966   4.089   0.507   0.422 -1.4442  2.3321  0.6135
 1502SOL     OW15967   1.080   1.290   9.061  0.2232 -0.7736  0.0989
 1502SOL    HW115968   1.137   1.357   9.023 -1.2954 -0.4258 -1.5402
 1502SOL    HW215969   1.019   1.341   9.115 -1.5337 -0.7423 -1.9386
 1503SOL     OW15970   3.982   0.337   6.400 -0.1851 -0.5388  0.4323
 1503SOL    HW115971   4.054   0.359   6.459 -0.0247  3.1882 -1.1967
 1503SOL    HW215972   4.005   0.402   6.334  2.1764 -1.4663  0.3403
 1504SOL     OW15973   1.097   2.194   6.082 -0.1127 -0.3982  0.0629
 1504SOL    HW115974   1.175   2.235   6.046 -1.5585  1.4314 -0.9579
 1504SOL    HW215975   1.054   2.269   6.124  0.4790 -0.6248  1.0775
 1505SOL     OW15976   4.077   2.044  13.354 -0.5097  0.0292 -0.1580
 1505SOL    HW115977   4.140   2.114  13.370  0.5938 -0.6067 -1.7205
 1505SOL    HW215978   4.129   1.970  13.386  1.3490  1.9090  1.1652
 1506SOL     OW15979   0.074   4.341   0.490  0.2081  0.6672  0.0185
 1506SOL    HW115980   4.701   4.349   0.471  0.0936  1.7670  0.9875
 1506SOL    HW215981   0.119   4.408   0.438 -1.0903  0.6517 -1.1359
 1507SOL     OW15982   3.401   4.314  13.684 -0.0997 -0.3996  0.0301
 1507SOL    HW115983   3.321   4.302  13.634 -0.0613  1.8899 -0.5629
 1507SOL    HW215984   3.412   4.226  13.721  0.4389  0.0536  0.9371
 1508SOL     OW15985   0.135   4.581   7.400 -0.4833 -0.1813 -0.0705
 1508SOL    HW115986   0.077   4.594   7.474 -0.5456  0.8941 -0.3124
 1508SOL    HW215987   0.103   4.500   7.360  0.0529 -1.8580  2.9040
 1509SOL     OW15988   1.803   4.075   9.317 -0.3006  0.5187  0.0845
 1509SOL    HW115989   1.808   4.010   9.387 -1.5915 -0.4043 -0.6887
 1509SOL    HW215990   1.730   4.131   9.346 -0.7308  0.7109 -1.3913
 1510SOL     OW15991   3.809   3.090   9.093 -0.3148  0.0272 -0.5014
 1510SOL    HW115992   3.730   3.080   9.039 -0.4815  3.4363 -0.9124
 1510SOL    HW215993   3.843   3.001   9.091 -1.0186 -0.2566  0.1773
 1511SOL     OW15994   1.599   1.798  16.439  0.5079 -0.1179  0.7990
 1511SOL    HW115995   1.513   1.777  16.474 -1.0202  1.5809 -1.9561
 1511SOL    HW215996   1.577   1.827  16.350  1.0972  0.7718  0.9522
 1512SOL     OW15997   1.888   4.460   4.277 -0.2515  0.0502 -0.2468
 1512SOL    HW115998   1.835   4.435   4.201 -0.8584 -1.5589  0.7145
 1512SOL    HW215999   1.978   4.428   4.264 -0.2756 -0.2821  0.4209
 1513SOL     OW16000   3.763   4.305   2.232  0.4534  0.0097 -0.2241
 1513SOL    HW116001   3.704   4.296   2.157 -0.9292  0.3488  0.8241
 1513SOL    HW216002   3.744   4.223   2.277  0.6227 -0.8796 -1.7418
 1514SOL     OW16003   4.495   2.630   2.596  0.4570 -0.1641 -0.2578
 1514SOL    HW116004   4.532   2.675   2.672  1.0273  0.2629 -0.7884
 1514SOL    HW216005   4.561   2.660   2.533  0.6123 -0.1366 -0.0806
 1515SOL     OW16006   0.567   4.010   5.528 -0.2444  0.2602  0.0501
 1515SOL    HW116007   0.652   3.983   5.494 -0.3260 -1.7373  1.3962
 1515SOL    HW216008   0.535   3.930   5.570  2.0347 -1.3116 -1.1762
 1516SOL     OW16009   0.665   1.634  12.965 -0.1627 -0.0540 -0.2608
 1516SOL    HW116010   0.662   1.577  12.887  1.9190 -2.3242  1.2970
 1516SOL    HW216011   0.649   1.568  13.033  2.6111  1.4362  1.8516
 1517SOL     OW16012   0.848   2.045   4.878 -0.4586  0.1867 -0.2059
 1517SOL    HW116013   0.930   2.027   4.924 -1.0421 -1.0230  0.3618
 1517SOL    HW216014   0.872   2.069   4.789 -0.8919 -0.5782 -0.5290
 1518SOL     OW16015   2.266   0.610   1.280 -0.0813  0.3751 -0.4372
 1518SOL    HW116016   2.274   0.567   1.365  1.8204  1.5444  0.0026
 1518SOL    HW216017   2.228   0.542   1.225  3.6128 -2.8467  0.9917
 1519SOL     OW16018   2.030   1.677  17.534  0.1490  0.6302  0.5493
 1519SOL    HW116019   1.979   1.750  17.498  1.9838  0.4118 -2.4551
 1519SOL    HW216020   2.109   1.729  17.549 -0.8573  2.0744  0.8461
 1520SOL     OW16021   4.409   4.525  17.548  0.0989 -0.1963 -0.3438
 1520SOL    HW116022   4.419   4.613  17.585  2.5355 -0.7121  0.2556
 1520SOL    HW216023   4.380   4.546  17.459  0.1872 -0.7821 -0.5101
 1521SOL     OW16024   4.053   3.289  10.949  0.8461  0.3827  0.5468
 1521SOL    HW116025   3.981   3.292  10.887  0.0839 -2.2391  1.3060
 1521SOL    HW216026   4.041   3.357  11.015  1.5207 -0.7251  1.8247
 1522SOL     OW16027   1.497   0.981  11.556 -0.3787  0.3314 -0.2049
 1522SOL    HW116028   1.497   0.999  11.461  1.5759 -0.7189 -0.3944
 1522SOL    HW216029   1.442   0.904  11.565 -0.0016  0.2057  0.9061
 1523SOL     OW16030   4.262   0.347   4.204 -0.0961 -0.7050 -0.1217
 1523SOL    HW116031   4.243   0.377   4.292  0.6662 -0.8810  0.0986
 1523SOL    HW216032   4.283   0.430   4.162 -3.0206 -0.4427 -1.1217
 1524SOL     OW16033   1.905   4.229  13.672  0.4371  0.2889 -0.3281
 1524SOL    HW116034   1.814   4.247  13.647  0.3041 -0.5552 -0.4726
 1524SOL    HW216035   1.930   4.320  13.684  1.3335 -0.0423  0.3481
 1525SOL     OW16036   3.520   0.043  11.656 -0.0893 -0.5117 -0.2888
 1525SOL    HW116037   3.526   0.133  11.623  2.5698 -0.7689 -0.4822
 1525SOL    HW216038   3.603   0.023  11.699  1.1953  0.7541 -2.1553
 1526SOL     OW16039   3.306   0.088  13.911  0.5980  0.0856  0.2185
 1526SOL    HW116040   3.355   0.145  13.852 -0.0755 -0.5701 -0.9654
 1526SOL    HW216041   3.260   0.149  13.968 -1.0626 -0.2344 -0.7779
 1527SOL     OW16042   1.920   3.248  10.157 -0.0922  0.2004 -0.4816
 1527SOL    HW116043   1.875   3.287  10.232 -0.4606 -0.6934 -0.2351
 1527SOL    HW216044   2.003   3.213  10.189  0.0081 -1.0754 -2.1571
 1528SOL     OW16045   4.466   0.048   2.036  0.2937 -0.2401 -0.2435
 1528SOL    HW116046   4.542   0.094   1.999  0.7041 -0.2050  0.6284
 1528SOL    HW216047   4.422   0.119   2.084 -0.6438 -1.3336  0.4917
 1529SOL     OW16048   4.413   2.912  10.442 -0.2151 -0.1146  0.2201
 1529SOL    HW116049   4.358   2.917  10.363 -1.6081  1.7731  1.3010
 1529SOL    HW216050   4.489   2.856  10.424 -1.9646 -1.0999 -4.0615
 1530SOL     OW16051   0.336   0.039   4.444  0.1534 -0.3354 -0.0580
 1530SOL    HW116052   0.302   4.671   4.435 -1.3371  0.0689  1.5135
 1530SOL    HW216053   0.303   0.086   4.366  0.5434 -0.5951 -0.3783
 1531SOL     OW16054   1.118   0.628   8.052  0.2964 -0.2564  0.0429
 1531SOL    HW116055   1.024   0.617   8.035  0.0308 -0.4498  1.6188
 1531SOL    HW216056   1.111   0.693   8.122  0.8976  0.2471 -0.3659
 1532SOL     OW16057   0.160   2.281   1.785 -0.2054 -0.3206  0.0197
 1532SOL    HW116058   0.082   2.229   1.808 -0.2609  0.3634  1.3750
 1532SOL    HW216059   0.221   2.248   1.850  0.2370 -1.3299 -0.9037
 1533SOL     OW16060   2.118   0.500   2.081  0.0292 -0.1637  0.5687
 1533SOL    HW116061   2.028   0.496   2.048 -0.2538 -0.6583  1.4029
 1533SOL    HW216062   2.130   0.574   2.141 -0.9738 -0.5721  1.2705
 1534SOL     OW16063   4.149   1.722   9.296  0.3590  0.1124  0.5521
 1534SOL    HW116064   4.215   1.684   9.355  2.0059  2.3214  0.1572
 1534SOL    HW216065   4.070   1.708   9.348  0.3376 -0.1820  0.4381
 1535SOL     OW16066   4.457   2.231   1.214 -0.4227 -0.3101 -0.0265
 1535SOL    HW116067   4.482   2.150   1.169  0.4969  0.0236 -0.1202
 1535SOL    HW216068   4.410   2.184   1.282  0.8017  2.1148  2.4978
 1536SOL     OW16069   4.553   2.276   2.818 -0.2775  0.5274 -0.4661
 1536SOL    HW116070   4.524   2.299   2.906  0.1344 -0.9697  0.0491
 1536SOL    HW216071   4.642   2.256   2.848 -0.1101  3.5776  1.1459
 1537SOL     OW16072   1.047   1.069   3.571  0.2932 -0.2345 -0.0171
 1537SOL    HW116073   1.042   1.064   3.667  0.3941 -1.0553 -0.0555
 1537SOL    HW216074   1.093   0.991   3.538 -0.2863 -0.9225  0.8133
 1538SOL     OW16075   3.461   3.462   3.659  0.5646  0.2135 -0.1464
 1538SOL    HW116076   3.515   3.396   3.703  0.5868  0.6681  0.5170
 1538SOL    HW216077   3.405   3.487   3.733  0.2439  1.9937 -0.9994
 1539SOL     OW16078   1.474   3.785  12.324  0.4972 -0.2168  0.0957
 1539SOL    HW116079   1.417   3.822  12.256  0.2728  0.3662  0.6070
 1539SOL    HW216080   1.503   3.868  12.360  1.4844 -1.2590  1.7030
 1540SOL     OW16081   1.614   4.542  14.478  0.1429 -0.2400 -0.2675
 1540SOL    HW116082   1.638   4.511  14.565  1.7215 -1.5405 -1.1547
 1540SOL    HW216083   1.690   4.502  14.436 -0.7922  0.0289 -2.2469
 1541SOL     OW16084   3.982   1.761  15.296 -0.0752 -0.3480  0.2710
 1541SOL    HW116085   3.925   1.690  15.324 -1.0184  0.5259  0.5699
 1541SOL    HW216086   3.960   1.774  15.203 -0.4911  1.6776  0.6509
 1542SOL     OW16087   2.313   1.036   6.490 -0.5366  0.2808 -0.1269
 1542SOL    HW116088   2.273   1.114   6.529  1.4232  0.1216  2.2621
 1542SOL    HW216089   2.375   1.019   6.561 -0.4998  3.5623  0.6602
 1543SOL     OW16090   0.852   2.754   3.800  0.0043  0.4103 -0.4393
 1543SOL    HW116091   0.904   2.678   3.826  3.0363  3.0392  1.1349
 1543SOL    HW216092   0.782   2.751   3.866 -0.2385  0.5980 -0.6885
 1544SOL     OW16093   3.537   0.636   3.786  0.3187 -0.4499  0.2042
 1544SOL    HW116094   3.577   0.723   3.783 -1.2127  0.2369 -0.4002
 1544SOL    HW216095   3.496   0.641   3.700  0.2321 -1.8866  0.1587
 1545SOL     OW16096   3.229   3.075   6.236  0.4227  0.5443 -0.5876
 1545SOL    HW116097   3.160   3.064   6.302  1.0485  0.7234  0.1045
 1545SOL    HW216098   3.225   2.991   6.191 -0.4666  1.0181 -1.3941
 1546SOL     OW16099   3.427   2.338   6.701 -0.5404 -0.1094 -0.3289
 1546SOL    HW116100   3.381   2.418   6.677  0.7469  0.3779 -1.1578
 1546SOL    HW216101   3.396   2.324   6.790 -0.4065  0.9609 -0.1217
 1547SOL     OW16102   0.093   2.633   7.779  0.2914 -0.0567  0.1788
 1547SOL    HW116103   0.043   2.564   7.822 -1.6676 -0.2954 -2.4365
 1547SOL    HW216104   0.053   2.657   7.695  1.0179 -0.8790 -0.4052
 1548SOL     OW16105   0.550   3.119   6.049 -0.4855 -0.0514 -0.4532
 1548SOL    HW116106   0.635   3.105   6.090  0.4300 -0.1916 -2.4194
 1548SOL    HW216107   0.542   3.214   6.062  0.3656 -0.4625  3.0866
 1549SOL     OW16108   3.833   1.889   6.973 -0.6701 -0.0376 -0.0783
 1549SOL    HW116109   3.756   1.941   6.995 -0.4736  0.6750 -1.1053
 1549SOL    HW216110   3.802   1.799   6.960  0.0285 -0.2969  0.0183
 1550SOL     OW16111   0.822   0.965  15.063  0.0052  0.0027  0.4272
 1550SOL    HW116112   0.769   0.929  15.133 -1.6048  1.8713  0.1800
 1550SOL    HW216113   0.910   0.975  15.099 -0.4099  0.0053  1.4498
 1551SOL     OW16114   3.218   0.625   2.645  0.1666  0.7866 -0.0949
 1551SOL    HW116115   3.217   0.715   2.677 -0.2665 -0.1489  2.4756
 1551SOL    HW216116   3.180   0.634   2.557 -4.2611  1.4089  1.8867
 1552SOL     OW16117   3.364   0.392  14.038 -0.1968 -0.4529 -0.1236
 1552SOL    HW116118   3.434   0.432  13.986 -2.1406  1.4754 -1.2096
 1552SOL    HW216119   3.291   0.427  13.988 -0.0271 -0.9825 -0.7462
 1553SOL     OW16120   3.318   0.079  11.813  0.1981 -0.2143  0.4033
 1553SOL    HW116121   3.377   0.078  11.889 -0.1160  1.4398  0.6768
 1553SOL    HW216122   3.369   0.044  11.741 -1.9806 -1.3489 -0.5995
 1554SOL     OW16123   1.668   0.528  10.923 -0.2530  0.5455 -0.1541
 1554SOL    HW116124   1.761   0.508  10.933  0.0192  0.0744 -3.7286
 1554SOL    HW216125   1.657   0.519  10.829 -0.0433  1.4674 -0.2635
 1555SOL     OW16126   0.960   0.533   9.257  0.1594 -0.3791 -0.5063
 1555SOL    HW116127   1.004   0.514   9.340  1.2101 -1.1195 -1.2343
 1555SOL    HW216128   0.973   0.449   9.214 -1.9291 -0.9245 -0.0612
 1556SOL     OW16129   1.875   4.228   5.661 -0.1524  0.4986  0.1702
 1556SOL    HW116130   1.830   4.196   5.739 -0.8973  0.0422 -0.4417
 1556SOL    HW216131   1.831   4.179   5.592  2.2029 -0.8807 -0.3534
 1557SOL     OW16132   2.929   1.821  11.822 -0.1930 -0.0669 -0.1544
 1557SOL    HW116133   2.923   1.915  11.810  0.2852  0.0221  0.3651
 1557SOL    HW216134   2.838   1.806  11.796 -0.0113 -0.8121 -0.3660
 1558SOL     OW16135   4.085   4.542  10.323  0.5358  0.1342 -1.0082
 1558SOL    HW116136   4.062   4.558  10.231 -1.5190 -0.7931 -0.6690
 1558SOL    HW216137   4.159   4.483  10.308  0.4967  0.3861 -2.1775
 1559SOL     OW16138   2.996   4.644   5.644  0.3678 -0.4523 -0.4172
 1559SOL    HW116139   2.997   4.559   5.600 -0.6603 -0.6365 -0.0745
 1559SOL    HW216140   2.903   4.638   5.663  0.3376  0.3001 -0.3181
 1560SOL     OW16141   1.319   3.770  10.776  0.6226  0.0534 -0.0064
 1560SOL    HW116142   1.255   3.838  10.756 -0.6526 -0.2439  3.0193
 1560SOL    HW216143   1.399   3.822  10.765 -0.6425  1.6498 -1.5290
 1561SOL     OW16144   4.045   4.370   6.883 -0.5786  0.0125 -0.1754
 1561SOL    HW116145   4.128   4.377   6.929 -1.2868 -2.1108  1.4560
 1561SOL    HW216146   4.058   4.414   6.799 -1.0812  0.1117 -0.2059
 1562SOL     OW16147   1.640   3.398   3.768 -0.0002 -0.2350 -0.3208
 1562SOL    HW116148   1.602   3.421   3.683  2.0269 -0.3925 -1.2859
 1562SOL    HW216149   1.577   3.432   3.831 -0.2814 -0.7645 -0.3226
 1563SOL     OW16150   4.066   4.087   1.838  0.1300  0.1654 -0.2419
 1563SOL    HW116151   4.152   4.116   1.869 -0.3759  1.7636 -0.3551
 1563SOL    HW216152   4.033   4.051   1.921 -1.4270 -0.6971 -1.2341
 1564SOL     OW16153   3.303   1.800   8.982 -0.2996  0.3386  0.4250
 1564SOL    HW116154   3.385   1.848   8.980  0.9602 -1.7339  2.0074
 1564SOL    HW216155   3.249   1.878   8.993  0.6859  0.9639  0.7823
 1565SOL     OW16156   0.977   4.710   5.498 -0.7230  0.3383  0.1114
 1565SOL    HW116157   1.031   0.042   5.440  0.1850  0.8475  1.4278
 1565SOL    HW216158   0.986   4.626   5.451  0.6229  0.2317  0.5508
 1566SOL     OW16159   3.534   2.847  10.916  0.2193 -0.3671 -0.2003
 1566SOL    HW116160   3.594   2.782  10.879 -0.0847 -1.6914  1.6143
 1566SOL    HW216161   3.518   2.881  10.828 -0.3825 -0.0784  0.0226
 1567SOL     OW16162   4.360   4.389   6.753  0.0800 -0.5383  0.3550
 1567SOL    HW116163   4.404   4.361   6.833  1.1844 -0.8414 -0.3637
 1567SOL    HW216164   4.418   4.455   6.715 -2.1832  1.1318 -0.2788
 1568SOL     OW16165   3.309   0.613   4.241  0.8739 -0.3438 -0.0834
 1568SOL    HW116166   3.335   0.669   4.167  0.1850 -0.7369 -0.6231
 1568SOL    HW216167   3.323   0.668   4.318  1.7260  1.7226 -1.7174
 1569SOL     OW16168   4.084   0.792   7.527 -0.0300 -0.4820 -0.5215
 1569SOL    HW116169   4.096   0.882   7.557 -2.4840 -0.5355  0.6223
 1569SOL    HW216170   3.989   0.793   7.540  0.2371 -0.2492  1.4471
 1570SOL     OW16171   1.660   1.873   8.220  0.0941 -0.0874  0.4604
 1570SOL    HW116172   1.602   1.937   8.180  0.8054  0.4042  0.2157
 1570SOL    HW216173   1.642   1.795   8.168 -0.6530 -1.7053  3.1201
 1571SOL     OW16174   2.528   2.881   1.512  0.2970 -0.3552  0.4537
 1571SOL    HW116175   2.554   2.973   1.501 -2.3780  0.4050  0.5172
 1571SOL    HW216176   2.496   2.884   1.602 -1.1249 -0.1927 -0.0640
 1572SOL     OW16177   0.142   1.539  11.273  0.2814 -0.2073 -0.4120
 1572SOL    HW116178   0.152   1.634  11.274  0.6423 -0.2370 -1.0157
 1572SOL    HW216179   0.109   1.524  11.362 -0.4241 -4.2735 -1.3308
 1573SOL     OW16180   1.427   0.843  17.125  0.0735 -0.1183  0.2474
 1573SOL    HW116181   1.462   0.845  17.037 -0.9668 -1.4358 -0.2032
 1573SOL    HW216182   1.498   0.876  17.180 -1.7281  1.4666  1.6136
 1574SOL     OW16183   4.708   1.860   2.582  0.2060  0.0699 -0.3622
 1574SOL    HW116184   4.709   1.944   2.536 -0.8294 -0.5118 -1.4422
 1574SOL    HW216185   0.034   1.797   2.528  0.9438  0.0349  0.3229
 1575SOL     OW16186   2.186   3.118  10.766  0.4214 -0.2876  0.7846
 1575SOL    HW116187   2.198   3.045  10.706 -0.9793 -0.4011  0.6333
 1575SOL    HW216188   2.218   3.079  10.847  2.2916  1.6384  0.9900
 1576SOL     OW16189   0.801   3.108   6.127  0.2470  0.4886  0.3377
 1576SOL    HW116190   0.893   3.082   6.131 -0.8737 -3.4854  0.2836
 1576SOL    HW216191   0.801   3.172   6.198 -0.3215 -0.4028  1.1445
 1577SOL     OW16192   1.414   3.419   7.150  0.4045 -0.1233 -0.0422
 1577SOL    HW116193   1.503   3.450   7.170  0.7232 -0.6131 -0.6880
 1577SOL    HW216194   1.368   3.501   7.133  2.2185  0.5224 -1.8971
 1578SOL     OW16195   1.297   0.826   3.464  0.0404 -0.3777  0.2270
 1578SOL    HW116196   1.354   0.879   3.407 -0.7487  1.1527  0.8825
 1578SOL    HW216197   1.219   0.819   3.410  0.2074 -1.8958  0.1786
 1579SOL     OW16198   1.222   1.226   3.311  0.0937  0.0175  0.0340
 1579SOL    HW116199   1.273   1.304   3.330  0.7250  0.2688 -2.7041
 1579SOL    HW216200   1.249   1.181   3.391  1.5868  0.7526 -0.0544
 1580SOL     OW16201   3.524   1.731   3.150  0.0439 -0.0704  0.4001
 1580SOL    HW116202   3.563   1.660   3.200  1.3401 -0.1723 -0.7581
 1580SOL    HW216203   3.580   1.719   3.073  0.0518  0.8579  0.2592
 1581SOL     OW16204   2.162   1.639   3.971  0.8377  0.1673 -0.2628
 1581SOL    HW116205   2.177   1.601   3.885  1.4195 -1.7430  0.6826
 1581SOL    HW216206   2.079   1.677   3.941  2.8240  4.4481 -0.4043
 1582SOL     OW16207   0.779   3.687   8.299 -0.4152 -0.6123 -0.9095
 1582SOL    HW116208   0.824   3.605   8.322 -1.8932 -0.9006  0.8811
 1582SOL    HW216209   0.816   3.713   8.214  0.1811  1.8403  0.1235
 1583SOL     OW16210   2.286   4.535  16.672 -0.0387 -0.4023  0.0005
 1583SOL    HW116211   2.255   4.534  16.581 -2.5410 -0.9159  0.8414
 1583SOL    HW216212   2.218   4.581  16.720  0.2663  0.6705 -0.5928
 1584SOL     OW16213   2.254   0.812  11.775 -0.1508  0.3493 -0.2550
 1584SOL    HW116214   2.179   0.777  11.821 -1.2602  2.6283 -0.3141
 1584SOL    HW216215   2.237   0.903  11.751  0.6468  0.6916  0.4610
 1585SOL     OW16216   1.234   3.976   0.903  0.2913  0.1605  0.1208
 1585SOL    HW116217   1.311   4.033   0.899  0.3274  0.0963 -0.1177
 1585SOL    HW216218   1.261   3.916   0.972 -1.1319  0.2058  0.6985
 1586SOL     OW16219   1.603   4.169   3.026 -0.0974 -0.0659 -0.1505
 1586SOL    HW116220   1.634   4.096   3.080  1.2278 -0.6580 -1.6944
 1586SOL    HW216221   1.681   4.225   3.024  1.6169 -2.4141  1.0046
 1587SOL     OW16222   3.793   2.442   8.027 -0.1815  0.3095 -0.6628
 1587SOL    HW116223   3.725   2.475   8.087  1.0585 -0.5497  1.2009
 1587SOL    HW216224   3.819   2.522   7.981  0.9982  1.3548  1.8505
 1588SOL     OW16225   2.606   0.703   3.795 -0.4670  0.2480  0.0204
 1588SOL    HW116226   2.671   0.641   3.828 -0.0798  1.6791  1.9268
 1588SOL    HW216227   2.622   0.787   3.838  1.5498  1.2404 -2.7021
 1589SOL     OW16228   2.241   0.701   8.086  0.6035 -0.2190 -0.6564
 1589SOL    HW116229   2.166   0.683   8.143 -0.4453  1.6765 -1.4330
 1589SOL    HW216230   2.249   0.617   8.041 -4.4400 -0.3276 -1.3074
 1590SOL     OW16231   4.118   2.552   2.106 -0.9520 -0.2463 -0.8941
 1590SOL    HW116232   4.091   2.603   2.183  1.6304  1.4459 -1.1267
 1590SOL    HW216233   4.167   2.485   2.154  2.0854  1.0444 -2.2063
 1591SOL     OW16234   0.183   1.992   6.875 -0.2785  0.2228  0.5163
 1591SOL    HW116235   0.181   2.023   6.784  0.9492 -0.0616  0.3957
 1591SOL    HW216236   0.177   1.900   6.851  0.7437  0.5666 -1.1058
 1592SOL     OW16237   0.373   4.029   8.779 -0.5910  0.1620 -0.2574
 1592SOL    HW116238   0.452   4.049   8.829 -0.1222 -0.4816 -0.7199
 1592SOL    HW216239   0.418   3.980   8.709  2.0634 -0.1999  1.6982
 1593SOL     OW16240   1.448   1.966  16.275  0.2838  0.4841  0.1052
 1593SOL    HW116241   1.357   1.985  16.252 -0.0060  0.8816  1.5435
 1593SOL    HW216242   1.453   2.011  16.359  2.4120 -1.1181  0.8409
 1594SOL     OW16243   2.680   0.010   6.802 -0.1857 -0.3810  0.1191
 1594SOL    HW116244   2.671   0.014   6.898  0.0902  1.5481  0.0745
 1594SOL    HW216245   2.733   4.653   6.789 -0.0619 -0.5555  1.6823
 1595SOL     OW16246   4.560   0.294   0.180 -0.1899  0.4084  0.1497
 1595SOL    HW116247   4.598   0.206   0.182 -0.7959  0.1707  1.2052
 1595SOL    HW216248   4.577   0.320   0.089 -2.2670 -0.2521 -0.4116
 1596SOL     OW16249   2.001   3.452   4.969  0.0402 -0.0944  0.0688
 1596SOL    HW116250   1.982   3.385   4.904 -1.3048 -1.8846  2.3063
 1596SOL    HW216251   2.073   3.411   5.016  1.9145  2.1281 -0.8942
 1597SOL     OW16252   0.520   1.554   1.164  0.7349  0.1859 -0.0421
 1597SOL    HW116253   0.579   1.623   1.136  0.5467  1.0638  1.7472
 1597SOL    HW216254   0.544   1.537   1.255 -2.3983  3.5857  1.4196
 1598SOL     OW16255   1.735   0.616   7.455 -0.0843 -0.5007 -0.1026
 1598SOL    HW116256   1.700   0.647   7.538  0.9443 -1.0686  0.5404
 1598SOL    HW216257   1.770   0.698   7.421 -1.3926 -0.6197 -1.7465
 1599SOL     OW16258   4.437   0.124  11.176  0.1345 -0.1602  0.4949
 1599SOL    HW116259   4.468   0.034  11.162  0.9249  0.2586 -0.4445
 1599SOL    HW216260   4.433   0.130  11.271 -0.6761  0.6619  0.4053
 1600SOL     OW16261   0.086   2.357   6.903  0.0697 -0.1325  0.1310
 1600SOL    HW116262   0.138   2.399   6.835  1.9758  2.4139  3.1640
 1600SOL    HW216263   0.001   2.398   6.889 -1.0326 -2.7508 -0.8576
 1601SOL     OW16264   0.458   0.070   6.699  0.2438  0.1408 -0.0913
 1601SOL    HW116265   0.386   0.024   6.743 -0.0846  1.2081  0.4976
 1601SOL    HW216266   0.523   0.082   6.768 -0.0991  1.0075  0.0886
 1602SOL     OW16267   2.268   0.633  10.026 -0.0866  0.1670 -0.1765
 1602SOL    HW116268   2.335   0.587  10.076  0.6836 -0.3808 -1.7234
 1602SOL    HW216269   2.289   0.588   9.945  1.1826 -1.3339  1.0041
 1603SOL     OW16270   2.350   1.372   7.620 -0.2978  0.2160 -0.0918
 1603SOL    HW116271   2.297   1.451   7.613  0.5334  0.7691 -0.0506
 1603SOL    HW216272   2.437   1.399   7.650  0.7177  0.4147 -3.2489
 1604SOL     OW16273   0.465   2.084   4.370  0.0231 -0.4142  0.5398
 1604SOL    HW116274   0.390   2.047   4.417  0.1571 -0.8737  0.3958
 1604SOL    HW216275   0.428   2.084   4.282 -1.7907  0.2322  1.3054
 1605SOL     OW16276   2.681   0.625   4.782 -0.4412 -0.2034  0.2610
 1605SOL    HW116277   2.690   0.608   4.688 -0.5408  1.4232 -0.0422
 1605SOL    HW216278   2.758   0.586   4.823  0.3843  1.7208  0.5262
 1606SOL     OW16279   4.588   1.247   9.767 -0.5313 -0.0940 -0.1088
 1606SOL    HW116280   4.567   1.155   9.753 -1.9569  0.3352 -0.8030
 1606SOL    HW216281   4.679   1.246   9.736 -1.0968 -1.7660 -1.7087
 1607SOL     OW16282   4.539   1.809   1.872  0.2817 -0.0636 -0.2720
 1607SOL    HW116283   4.577   1.895   1.890  0.8150  0.0913 -2.1658
 1607SOL    HW216284   4.595   1.754   1.927  0.6189 -0.3261 -0.8812
 1608SOL     OW16285   1.970   2.033   0.284 -0.2365 -0.1840  0.0403
 1608SOL    HW116286   1.985   2.104   0.222 -0.5021 -0.5131 -0.4013
 1608SOL    HW216287   2.039   2.042   0.349 -0.4893  0.6591  0.1833
 1609SOL     OW16288   1.251   1.212   8.060 -0.0961 -0.0949 -0.5750
 1609SOL    HW116289   1.199   1.183   8.135  0.2623 -1.3884 -0.8175
 1609SOL    HW216290   1.212   1.299   8.053  0.4556  0.1613 -0.4833
 1610SOL     OW16291   0.340   2.154   4.063  0.1718  0.0380 -0.5376
 1610SOL    HW116292   0.435   2.140   4.059 -0.1869 -2.2445 -1.0776
 1610SOL    HW216293   0.326   2.200   3.980 -2.2349 -0.1543 -0.2354
 1611SOL     OW16294   1.125   0.500  11.865  0.3873  0.2170  0.2301
 1611SOL    HW116295   1.090   0.588  11.855 -1.9821 -0.5120  2.2823
 1611SOL    HW216296   1.218   0.517  11.847  0.5732 -2.9594 -1.7368
 1612SOL     OW16297   3.453   1.194   4.689 -0.4029  0.1678 -0.0002
 1612SOL    HW116298   3.403   1.266   4.728 -0.1868  0.6963 -0.6984
 1612SOL    HW216299   3.456   1.215   4.596  0.5908 -1.8974 -0.4213
 1613SOL     OW16300   2.235   1.910  16.989 -0.6450  0.7883 -0.2549
 1613SOL    HW116301   2.266   1.883  16.902 -2.0514 -1.1753 -0.1580
 1613SOL    HW216302   2.145   1.878  16.994 -0.5909  0.8188  0.8993
 1614SOL     OW16303   1.744   1.046   1.674  0.3908  0.2502  0.8150
 1614SOL    HW116304   1.808   1.110   1.642  0.4121 -0.0313  0.2959
 1614SOL    HW216305   1.801   0.985   1.721  0.6052 -1.1965 -1.3581
 1615SOL     OW16306   4.368   0.824   5.630 -0.0515 -0.4003  0.0402
 1615SOL    HW116307   4.351   0.879   5.706 -0.1962  0.1795 -0.4148
 1615SOL    HW216308   4.458   0.795   5.647  0.1937  0.9438  0.9609
 1616SOL     OW16309   1.205   4.556   2.206  0.9129 -0.0292  0.1789
 1616SOL    HW116310   1.149   4.631   2.183 -0.1107 -1.3287 -1.5414
 1616SOL    HW216311   1.286   4.559   2.156  1.5768  1.4572  1.3457
 1617SOL     OW16312   2.965   0.000   2.422  0.2960  0.0911  0.1502
 1617SOL    HW116313   2.964   0.006   2.327  0.7452  0.3662  0.1634
 1617SOL    HW216314   2.971   0.094   2.442 -1.5726 -0.1178  1.7367
 1618SOL     OW16315   4.405   0.002   9.547  0.2901 -0.1244 -0.3496
 1618SOL    HW116316   4.374   0.085   9.583 -0.3117 -0.3097 -0.4426
 1618SOL    HW216317   4.485   4.711   9.598 -1.3162 -2.1217  1.7051
 1619SOL     OW16318   1.231   2.115   0.460  0.3958  0.0835 -0.2130
 1619SOL    HW116319   1.279   2.069   0.528 -0.9663 -1.3724 -0.2295
 1619SOL    HW216320   1.305   2.151   0.413 -0.0307  0.5415 -0.5382
 1620SOL     OW16321   3.398   2.001   5.101 -0.2259 -0.2781  0.6586
 1620SOL    HW116322   3.381   2.030   5.011  0.9109  1.8426  1.1366
 1620SOL    HW216323   3.366   2.071   5.158  0.2039  0.2894  0.1998
 1621SOL     OW16324   0.970   1.631   3.506 -0.3638 -0.3425 -0.0844
 1621SOL    HW116325   0.966   1.537   3.527  1.0862 -0.2531  0.6045
 1621SOL    HW216326   0.986   1.665   3.594  2.1507 -2.7347  0.3944
 1622SOL     OW16327   1.686   3.311   2.119  0.4160  0.3186 -0.4485
 1622SOL    HW116328   1.763   3.262   2.147  0.1843  0.1456 -0.1155
 1622SOL    HW216329   1.685   3.382   2.183  1.7069 -0.7402  0.7377
 1623SOL     OW16330   4.289   3.134   0.523  0.0202 -0.4111 -0.0628
 1623SOL    HW116331   4.267   3.106   0.434 -0.9975  0.5262 -0.0960
 1623SOL    HW216332   4.384   3.123   0.532  0.3239  1.6566 -1.0086
 1624SOL     OW16333   2.003   1.761   7.541  0.6193 -0.4676 -0.5490
 1624SOL    HW116334   1.918   1.717   7.535  0.9656 -1.3291  0.8286
 1624SOL    HW216335   2.029   1.790   7.453  0.1761  0.3204 -0.4254
 1625SOL     OW16336   4.514   4.389   5.209 -0.2299  0.2501 -0.2773
 1625SOL    HW116337   4.496   4.470   5.257  0.9650 -0.5082  1.4482
 1625SOL    HW216338   4.515   4.422   5.119 -1.5960  0.2651 -0.2907
 1626SOL     OW16339   3.559   3.216  11.052 -0.0758 -0.2908 -0.1995
 1626SOL    HW116340   3.483   3.195  10.997 -0.4400 -0.5256  0.3939
 1626SOL    HW216341   3.618   3.145  11.026  0.5549  0.0681  0.2701
 1627SOL     OW16342   1.585   4.065  10.244  0.1430  0.6101  0.1386
 1627SOL    HW116343   1.591   3.969  10.249 -2.0850  0.5578  1.8950
 1627SOL    HW216344   1.538   4.075  10.161  1.4625 -1.8706 -0.9301
 1628SOL     OW16345   1.505   2.911   7.711  0.0364 -0.3346 -0.6622
 1628SOL    HW116346   1.504   2.927   7.616  1.4847 -0.2041 -0.6519
 1628SOL    HW216347   1.592   2.945   7.727  0.0050 -1.7775  2.5062
 1629SOL     OW16348   0.590   1.306   7.563 -0.0666  0.2575 -0.2523
 1629SOL    HW116349   0.578   1.280   7.654  1.7508 -1.1710 -0.4157
 1629SOL    HW216350   0.501   1.331   7.540  0.0433  1.1208  0.2491
 1630SOL     OW16351   1.799   2.794   7.451  0.0794 -0.6362  0.4819
 1630SOL    HW116352   1.760   2.843   7.378 -2.3959 -2.0475  0.8418
 1630SOL    HW216353   1.874   2.849   7.472  0.5784 -1.2052  0.1794
 1631SOL     OW16354   1.719   1.573   6.573  0.0844  0.0226  0.4854
 1631SOL    HW116355   1.796   1.528   6.609  1.5428  0.9168 -1.4647
 1631SOL    HW216356   1.666   1.563   6.652 -2.3811  0.1180 -1.1660
 1632SOL     OW16357   3.021   3.764   9.797  0.2767  0.1817  0.5292
 1632SOL    HW116358   3.101   3.799   9.836  0.2856 -0.9701  1.5533
 1632SOL    HW216359   3.004   3.709   9.873 -3.4617 -0.4747 -0.8007
 1633SOL     OW16360   0.177   2.702   5.499 -0.2280  0.8893 -0.4670
 1633SOL    HW116361   0.214   2.789   5.489  1.2295  0.3999  0.6197
 1633SOL    HW216362   0.104   2.706   5.438  0.0494  0.4859 -0.8310
 1634SOL     OW16363   1.451   4.084   3.955 -0.0850 -0.0208 -0.0403
 1634SOL    HW116364   1.402   4.013   3.997  1.8968 -1.7145 -0.5918
 1634SOL    HW216365   1.389   4.157   3.956 -0.4560 -0.3077 -2.4858
 1635SOL     OW16366   4.197   2.318   9.793 -0.3910 -0.1894 -0.1100
 1635SOL    HW116367   4.284   2.307   9.755 -0.8641  0.5676 -1.4293
 1635SOL    HW216368   4.173   2.227   9.812  1.9728 -0.1665  2.9129
 1636SOL     OW16369   1.235   4.065   8.268  0.3582 -0.0970 -0.2682
 1636SOL    HW116370   1.197   3.984   8.302 -0.6352  0.1527 -0.7780
 1636SOL    HW216371   1.254   4.036   8.179 -2.0253 -1.4326 -0.3533
 1637SOL     OW16372   0.968   1.341   7.163 -0.1614  0.1659 -0.1742
 1637SOL    HW116373   0.914   1.311   7.236 -0.7699  0.6825 -0.4093
 1637SOL    HW216374   1.009   1.421   7.197 -0.3032 -0.4611  1.4871
 1638SOL     OW16375   3.095   3.680   0.351  0.3350 -0.0730  0.3494
 1638SOL    HW116376   3.083   3.625   0.429  1.1676  3.4042  2.9664
 1638SOL    HW216377   3.189   3.670   0.334  1.0179  2.0481  2.6893
 1639SOL     OW16378   4.036   0.122   3.746 -0.2685  0.1280  0.2712
 1639SOL    HW116379   4.072   0.205   3.777 -1.6180  0.5762  0.6606
 1639SOL    HW216380   4.006   0.093   3.832 -2.4894  1.4057 -0.0459
 1640SOL     OW16381   2.007   1.753   5.436  0.0307 -0.0757  0.3666
 1640SOL    HW116382   2.065   1.685   5.470 -0.5277  0.2572  1.9654
 1640SOL    HW216383   2.062   1.831   5.448  1.0402 -0.9071  1.0999
 1641SOL     OW16384   1.326   1.429   7.242  0.2253  0.4980  0.9042
 1641SOL    HW116385   1.257   1.492   7.221 -0.1294 -0.5803 -1.1671
 1641SOL    HW216386   1.272   1.385   7.307  1.4958  0.7374  2.1247
 1642SOL     OW16387   1.683   3.175  14.714 -0.3247  0.1398 -0.3469
 1642SOL    HW116388   1.619   3.105  14.703  0.0813 -0.3780  0.6205
 1642SOL    HW216389   1.767   3.130  14.711 -0.8305 -0.9800  2.6423
 1643SOL     OW16390   1.927   0.656   6.531  0.1836 -0.1654 -0.1993
 1643SOL    HW116391   1.840   0.649   6.571  0.1138  0.1620 -0.2985
 1643SOL    HW216392   1.966   0.727   6.581 -2.4092 -1.7208  4.0173
 1644SOL     OW16393   4.236   3.572  16.614  0.1745  0.0242  0.5498
 1644SOL    HW116394   4.169   3.638  16.596  0.0787 -0.3328 -0.4223
 1644SOL    HW216395   4.205   3.493  16.570  2.1944 -1.2991  1.5248
 1645SOL     OW16396   3.832   3.337  16.146  0.4909 -0.5372  0.8383
 1645SOL    HW116397   3.913   3.368  16.107 -0.4484  1.1382  0.2138
 1645SOL    HW216398   3.863   3.298  16.228 -0.8583 -0.7516  1.2463
 1646SOL     OW16399   1.852   1.550  17.039  0.2517  0.6909  0.8367
 1646SOL    HW116400   1.897   1.465  17.045  1.0407  1.0312 -0.2528
 1646SOL    HW216401   1.819   1.568  17.127  0.9891  0.7027  1.1081
 1647SOL     OW16402   2.597   2.363  15.919  0.4837 -0.5802 -0.3491
 1647SOL    HW116403   2.588   2.387  16.011 -2.0685 -0.2261 -0.6770
 1647SOL    HW216404   2.682   2.319  15.924  1.4041  1.2251 -0.1485
 1648SOL     OW16405   2.376   3.644   0.766 -0.2996  0.0714 -0.2796
 1648SOL    HW116406   2.291   3.688   0.764  0.2834  0.9825 -4.2754
 1648SOL    HW216407   2.357   3.571   0.825  0.6987 -1.5778 -1.9932
 1649SOL     OW16408   0.415   2.853   9.989 -0.3654  0.4708 -0.0125
 1649SOL    HW116409   0.449   2.941   9.976 -1.4514  0.8333 -0.3820
 1649SOL    HW216410   0.474   2.811   9.925  0.0380  0.3780  0.4164
 1650SOL     OW16411   1.282   1.635  16.193 -0.0691 -0.4035  0.3294
 1650SOL    HW116412   1.215   1.691  16.153  0.9781 -0.0687 -0.9410
 1650SOL    HW216413   1.235   1.552  16.206  2.2537 -1.7347  0.1143
 1651SOL     OW16414   1.288   4.133   6.371 -0.1437 -0.3133  0.0783
 1651SOL    HW116415   1.363   4.088   6.333  0.1976  0.3212  0.0183
 1651SOL    HW216416   1.222   4.091   6.315 -0.7231  0.2656  0.3300
 1652SOL     OW16417   2.937   0.737  14.706  0.9592  0.0308 -0.3555
 1652SOL    HW116418   2.861   0.685  14.736  1.1822 -0.3734 -0.4842
 1652SOL    HW216419   2.979   0.756  14.789 -3.0092 -1.3094  1.9916
 1653SOL     OW16420   3.513   0.058  12.014 -0.1756 -0.2037 -0.0370
 1653SOL    HW116421   3.563   4.698  12.015  0.4337  0.1822  1.7095
 1653SOL    HW216422   3.477   0.063  12.103 -0.8670 -0.2899 -0.3102
 1654SOL     OW16423   3.828   0.764  11.282  0.5916 -0.3949 -0.4919
 1654SOL    HW116424   3.748   0.753  11.231  0.6408 -0.8343 -0.4745
 1654SOL    HW216425   3.801   0.737  11.369  0.9277  1.0696  0.0592
 1655SOL     OW16426   2.738   3.728   4.016 -0.0445  0.0700 -0.4051
 1655SOL    HW116427   2.833   3.741   4.020  0.1373 -0.5926 -2.3676
 1655SOL    HW216428   2.729   3.648   4.068 -0.5712  0.6491  0.3896
 1656SOL     OW16429   3.061   1.864   8.506  0.1898  0.6719  0.1545
 1656SOL    HW116430   3.135   1.924   8.507  0.8521 -0.1371 -0.3204
 1656SOL    HW216431   2.998   1.918   8.553  0.7348 -0.1367  1.7901
 1657SOL     OW16432   1.769   1.680   3.722 -0.3795 -0.1906  0.4418
 1657SOL    HW116433   1.792   1.596   3.761 -0.5536 -0.5857 -0.3008
 1657SOL    HW216434   1.843   1.730   3.757 -0.4581 -0.5025  1.0516
 1658SOL     OW16435   3.702   1.366   5.550  0.0999  0.7470 -0.2835
 1658SOL    HW116436   3.670   1.444   5.504 -1.0454 -0.0835 -0.9044
 1658SOL    HW216437   3.780   1.347   5.498 -0.4981 -0.1001 -0.8842
 1659SOL     OW16438   2.009   1.520   3.268  0.4245  0.0446 -0.0392
 1659SOL    HW116439   2.079   1.522   3.202  0.3823 -1.7914 -0.1324
 1659SOL    HW216440   1.933   1.553   3.220 -0.1895  1.9919  2.3008
 1660SOL     OW16441   0.404   1.337   0.423 -0.7355 -0.3330  0.6848
 1660SOL    HW116442   0.407   1.335   0.519 -0.9130 -1.8912  0.6498
 1660SOL    HW216443   0.338   1.406   0.419 -0.6516 -0.2291  1.0470
 1661SOL     OW16444   1.437   3.388   5.263 -0.1659  0.3079  0.0387
 1661SOL    HW116445   1.424   3.480   5.285 -1.4571  0.1953 -0.2626
 1661SOL    HW216446   1.375   3.390   5.191  0.2888  0.6369 -0.3477
 1662SOL     OW16447   4.674   1.220  11.932  0.9593 -0.3678  0.1671
 1662SOL    HW116448   4.672   1.268  12.016  0.0699 -0.5118  0.2280
 1662SOL    HW216449   0.022   1.156  11.952  1.4013  0.3742  1.0837
 1663SOL     OW16450   2.900   2.033   7.279  0.1379  0.0949  0.6865
 1663SOL    HW116451   2.904   2.129   7.277 -0.2558  0.0750 -0.5919
 1663SOL    HW216452   2.908   2.008   7.371  3.2388  0.5896  0.5656
 1664SOL     OW16453   2.690   0.981  12.768 -0.3162 -0.5515  0.6643
 1664SOL    HW116454   2.642   1.057  12.736  0.2127 -0.1183  0.9075
 1664SOL    HW216455   2.653   0.910  12.716  0.6129  0.7112 -1.7034
 1665SOL     OW16456   1.692   1.177   8.125 -0.3753 -0.3623  0.2403
 1665SOL    HW116457   1.634   1.196   8.050  0.1338 -1.4796 -0.4387
 1665SOL    HW216458   1.636   1.206   8.197 -1.5609 -1.0587 -0.3909
 1666SOL     OW16459   3.898   2.959   2.134  0.3687  0.5747 -0.0430
 1666SOL    HW116460   3.869   2.910   2.057 -0.9628 -0.6105  1.2130
 1666SOL    HW216461   3.988   2.926   2.142 -0.1831 -1.4935 -2.4079
 1667SOL     OW16462   1.289   0.356  13.581  0.1701 -0.0037  0.3538
 1667SOL    HW116463   1.283   0.381  13.488  1.3169  2.9184  1.0542
 1667SOL    HW216464   1.210   0.304  13.597  0.3277 -0.0902  0.8457
 1668SOL     OW16465   1.221   4.357   6.148 -0.0171  0.2692 -0.2267
 1668SOL    HW116466   1.255   4.340   6.060  0.4331 -0.8414  0.1642
 1668SOL    HW216467   1.135   4.315   6.149  0.3668 -0.4920  0.5981
 1669SOL     OW16468   2.071   3.040   3.668 -0.0837  0.0746 -0.3413
 1669SOL    HW116469   2.153   3.068   3.627  0.1607 -1.9659 -1.2723
 1669SOL    HW216470   2.031   3.113   3.714  0.1071  0.6482 -1.0923
 1670SOL     OW16471   3.914   4.022   3.029  0.7299  0.6498 -0.5618
 1670SOL    HW116472   3.849   4.069   2.978 -0.4837  0.6308  0.9725
 1670SOL    HW216473   3.903   3.928   3.012 -0.1028 -0.0270  3.7104
 1671SOL     OW16474   2.006   4.401  14.880  0.5393 -0.3563 -0.0180
 1671SOL    HW116475   2.032   4.469  14.941 -3.3088  0.1114  1.0895
 1671SOL    HW216476   2.028   4.323  14.931  1.5133 -0.5654 -0.7621
 1672SOL     OW16477   0.354   2.495   1.984  0.1791  0.4978  0.1433
 1672SOL    HW116478   0.276   2.530   2.028  0.3628  0.2619  0.6647
 1672SOL    HW216479   0.336   2.525   1.895  0.3407 -2.2397 -0.8013
 1673SOL     OW16480   1.695   1.022   6.856 -0.2018 -0.2892  0.0753
 1673SOL    HW116481   1.683   1.115   6.840  1.7785  0.4613  2.9193
 1673SOL    HW216482   1.647   1.016   6.938  0.4723 -0.8497  0.4235
 1674SOL     OW16483   0.702   0.767   5.085 -0.9509  0.3716 -0.2194
 1674SOL    HW116484   0.632   0.746   5.146  0.5267  0.0740  1.3853
 1674SOL    HW216485   0.755   0.815   5.149  0.8048 -0.7047 -0.8433
 1675SOL     OW16486   4.615   4.660   4.508 -0.5799  0.3318  0.1180
 1675SOL    HW116487   4.648   4.582   4.552 -1.5116  0.4983  1.1163
 1675SOL    HW216488   4.522   4.641   4.496 -0.5977 -0.4159  1.4075
 1676SOL     OW16489   4.251   4.341   1.040  0.0645  0.1593 -0.0060
 1676SOL    HW116490   4.319   4.317   0.977 -0.3925 -1.3313  0.0753
 1676SOL    HW216491   4.259   4.436   1.042  2.0661 -0.0258  0.4649
 1677SOL     OW16492   3.084   3.497  11.293  1.2544  0.2459  0.5653
 1677SOL    HW116493   3.034   3.436  11.238  0.1569  1.2818  0.3937
 1677SOL    HW216494   3.022   3.570  11.292  2.3723  1.1917  0.2049
 1678SOL     OW16495   2.271   1.759   2.567 -0.0730 -0.3597 -0.1226
 1678SOL    HW116496   2.236   1.689   2.512  1.8456 -0.3655 -1.3718
 1678SOL    HW216497   2.358   1.720   2.581  0.3209  0.5449 -0.0658
 1679SOL     OW16498   0.343   3.825   3.324  0.2777  0.3000 -0.0574
 1679SOL    HW116499   0.361   3.882   3.249  1.3127  0.2354  0.1470
 1679SOL    HW216500   0.275   3.880   3.365 -0.3334 -0.3128 -0.2428
 1680SOL     OW16501   0.040   2.235   5.503 -0.0575 -0.3855  0.3468
 1680SOL    HW116502   0.091   2.224   5.583 -1.2890  0.4407  1.2618
 1680SOL    HW216503   4.687   2.280   5.545  0.3129 -1.0735  1.7391
 1681SOL     OW16504   3.233   2.766   3.198  0.4607  0.5532  0.0998
 1681SOL    HW116505   3.301   2.778   3.264  1.2195 -1.5691 -0.2719
 1681SOL    HW216506   3.265   2.689   3.151 -0.4851  1.1303 -1.5000
 1682SOL     OW16507   3.145   1.757  11.351  0.6446  0.1723  0.0684
 1682SOL    HW116508   3.217   1.749  11.414  2.5300 -1.0557 -2.2035
 1682SOL    HW216509   3.066   1.760  11.404  1.9640 -2.9763  2.2491
 1683SOL     OW16510   2.315   1.874  17.412  0.6319 -0.6293 -0.1672
 1683SOL    HW116511   2.411   1.866  17.418  0.6415 -0.6028 -0.2832
 1683SOL    HW216512   2.292   1.965  17.391  1.5308 -0.5719 -0.9440
 1684SOL     OW16513   2.316   1.484   5.854 -0.0531  0.2262  0.5730
 1684SOL    HW116514   2.294   1.422   5.784 -2.4703 -0.3815  1.8468
 1684SOL    HW216515   2.399   1.451   5.888  1.2344 -0.8603 -3.6873
 1685SOL     OW16516   1.587   3.763   8.059 -0.5005 -0.0562 -0.0067
 1685SOL    HW116517   1.608   3.672   8.038  0.2126 -0.1596  1.1548
 1685SOL    HW216518   1.639   3.782   8.137 -1.2268  0.0233  0.4558
 1686SOL     OW16519   2.642   4.138  11.711  1.0879  0.2519 -0.3469
 1686SOL    HW116520   2.666   4.231  11.707  1.7097  0.1566  1.0441
 1686SOL    HW216521   2.728   4.096  11.717  0.0114 -1.9847 -0.4457
 1687SOL     OW16522   0.485   2.978   8.638 -0.0852 -0.0634 -0.5319
 1687SOL    HW116523   0.489   2.957   8.545  1.3772 -0.0247 -0.4760
 1687SOL    HW216524   0.427   3.054   8.633  0.7622  0.6499  0.6708
 1688SOL     OW16525   3.790   1.512   7.862  0.1416  0.2933  0.7281
 1688SOL    HW116526   3.713   1.527   7.918  0.5955 -1.2303  1.7594
 1688SOL    HW216527   3.835   1.439   7.904 -1.2005  0.1288  1.8972
 1689SOL     OW16528   2.449   2.464   7.666  0.0912 -0.0971 -0.1764
 1689SOL    HW116529   2.441   2.443   7.759 -1.3949 -0.7210 -0.4270
 1689SOL    HW216530   2.382   2.408   7.626 -0.8822  0.9741 -0.0640
 1690SOL     OW16531   2.066   4.463   1.714 -0.6769  0.5202  0.2320
 1690SOL    HW116532   2.001   4.514   1.666 -0.7838  0.4488  0.3024
 1690SOL    HW216533   2.054   4.381   1.666  0.0842 -0.2568  1.3672
 1691SOL     OW16534   3.371   4.513   7.713 -0.0196 -0.3182  0.2815
 1691SOL    HW116535   3.365   4.576   7.784 -4.1641  1.9062 -1.9903
 1691SOL    HW216536   3.406   4.434   7.755 -3.3169 -1.0095  1.7899
 1692SOL     OW16537   1.469   3.622  12.705  0.0126 -0.2777  0.4060
 1692SOL    HW116538   1.477   3.534  12.743  2.5555 -0.5311 -0.6465
 1692SOL    HW216539   1.426   3.611  12.620 -1.7799 -1.4473  1.4596
 1693SOL     OW16540   2.283   4.085   6.937  0.0075 -0.3412  0.1091
 1693SOL    HW116541   2.199   4.130   6.948  1.6673  2.3613  1.5750
 1693SOL    HW216542   2.282   4.020   7.008  0.0062  0.3319  0.7206
 1694SOL     OW16543   2.297   4.656   7.497  0.2865 -0.2468  0.0344
 1694SOL    HW116544   2.266   4.581   7.548 -0.1445 -0.9814 -1.3085
 1694SOL    HW216545   2.215   4.685   7.459  0.3103  0.0760  0.2286
 1695SOL     OW16546   3.893   0.923   6.668  0.3753  0.0529 -0.9077
 1695SOL    HW116547   3.858   1.009   6.694  0.9253  0.6698 -2.2124
 1695SOL    HW216548   3.903   0.895   6.759 -0.6011  1.0547 -0.4922
 1696SOL     OW16549   3.559   2.843   7.104  0.6535  0.1586  0.5978
 1696SOL    HW116550   3.648   2.872   7.083  0.3502  1.3488  0.9660
 1696SOL    HW216551   3.576   2.749   7.103  2.0032  0.4063 -0.4085
 1697SOL     OW16552   3.076   2.980  13.647 -0.1893 -0.1156  0.4259
 1697SOL    HW116553   3.009   3.009  13.708 -1.9451 -1.0820 -1.0426
 1697SOL    HW216554   3.069   3.053  13.584  0.3140  0.5334  1.1262
 1698SOL     OW16555   0.169   0.199   0.845 -0.3115 -0.6040 -0.0019
 1698SOL    HW116556   0.151   0.248   0.925 -0.4168  1.5693 -1.3372
 1698SOL    HW216557   0.139   0.114   0.876 -0.6405 -0.6884 -0.5378
 1699SOL     OW16558   4.124   1.935   5.851 -0.9938 -0.0692  0.6131
 1699SOL    HW116559   4.062   2.000   5.819 -1.4443 -1.2233 -0.8671
 1699SOL    HW216560   4.091   1.923   5.940 -1.7003  2.0582  0.6321
 1700SOL     OW16561   0.978   1.409   9.702  0.0620  0.7115 -0.6234
 1700SOL    HW116562   0.936   1.324   9.695  0.5389  0.1359  3.2219
 1700SOL    HW216563   1.064   1.382   9.733 -0.5542 -2.2934 -1.6217
 1701SOL     OW16564   0.954   0.706   1.871  0.0688 -0.0270 -0.2096
 1701SOL    HW116565   1.027   0.704   1.809 -0.0525 -1.0699 -0.3153
 1701SOL    HW216566   0.955   0.618   1.909 -1.7965 -0.0476 -0.1793
 1702SOL     OW16567   4.172   2.835   6.335 -0.3654  0.1643 -0.4161
 1702SOL    HW116568   4.267   2.833   6.323 -0.5140  3.6963 -2.1682
 1702SOL    HW216569   4.162   2.862   6.426  1.9579 -0.3652  0.0194
 1703SOL     OW16570   3.511   1.705   5.767 -0.2820 -0.0341 -0.5789
 1703SOL    HW116571   3.436   1.736   5.817  0.4596 -0.8264  1.0187
 1703SOL    HW216572   3.546   1.657   5.842 -1.1116 -0.8437 -0.7003
 1704SOL     OW16573   0.687   2.021  11.857  0.5148 -0.1164  0.0587
 1704SOL    HW116574   0.749   1.950  11.841 -1.2658 -1.0842 -2.3675
 1704SOL    HW216575   0.677   2.058  11.769 -1.7568 -3.2203 -0.9549
 1705SOL     OW16576   1.886   2.858   2.033  0.1805 -0.0877  0.5443
 1705SOL    HW116577   1.823   2.910   1.983  1.5564  2.2417  1.2094
 1705SOL    HW216578   1.960   2.855   1.972  0.0355 -0.9093  0.4093
 1706SOL     OW16579   1.144   2.076   7.687  0.0498 -0.1149 -0.6321
 1706SOL    HW116580   1.088   2.095   7.612 -1.0332 -0.2280  0.1574
 1706SOL    HW216581   1.210   2.145   7.685  1.3422 -1.3347 -0.1932
 1707SOL     OW16582   0.152   1.771  14.941 -0.1650  0.7183  0.1552
 1707SOL    HW116583   0.084   1.738  15.000  1.3890 -0.4945  1.2518
 1707SOL    HW216584   0.170   1.693  14.888 -1.9256 -0.2338  0.9645
 1708SOL     OW16585   0.523   3.014   2.349  0.2549  0.6512  0.0809
 1708SOL    HW116586   0.579   2.967   2.288  1.5942  1.5806  0.5889
 1708SOL    HW216587   0.515   2.947   2.417  0.1010  1.5039  0.8949
 1709SOL     OW16588   2.931   2.163   8.358  0.4693  0.2236 -0.5438
 1709SOL    HW116589   2.880   2.238   8.390  1.0872  0.7093 -0.6809
 1709SOL    HW216590   2.916   2.097   8.425  1.2580 -1.4975 -2.0762
 1710SOL     OW16591   0.640   3.847   6.409 -0.1194  0.9548 -0.0154
 1710SOL    HW116592   0.720   3.863   6.459 -0.2743  0.3756  0.4216
 1710SOL    HW216593   0.646   3.910   6.337 -0.7746  0.3142 -0.6314
 1711SOL     OW16594   0.014   0.240   6.572  0.1472  0.2806  0.5685
 1711SOL    HW116595   0.013   0.145   6.564  2.9908  0.3633 -0.8834
 1711SOL    HW216596   4.641   0.258   6.571  0.3340  1.0868 -2.5881
 1712SOL     OW16597   0.471   4.305   5.332 -0.0364  0.4272 -0.1306
 1712SOL    HW116598   0.418   4.226   5.327 -1.5619  1.3329  1.6605
 1712SOL    HW216599   0.521   4.301   5.414 -0.3107  2.0835  0.1141
 1713SOL     OW16600   0.941   4.649   8.470  0.4603 -0.1993 -0.1188
 1713SOL    HW116601   0.978   4.604   8.546 -2.7629  0.4937  1.8678
 1713SOL    HW216602   0.963   0.021   8.477  1.0205 -0.2231 -1.4817
 1714SOL     OW16603   3.919   1.360  15.656 -0.4761 -0.2266 -0.2936
 1714SOL    HW116604   3.919   1.453  15.680  0.5805  0.1230 -1.5998
 1714SOL    HW216605   3.829   1.343  15.683 -0.1487  2.1815  2.3342
 1715SOL     OW16606   4.669   3.445   2.601 -0.4259  0.1647  0.2280
 1715SOL    HW116607   4.649   3.381   2.670 -0.2312  0.8200  0.8948
 1715SOL    HW216608   4.586   3.485   2.575 -0.7400  0.7778  2.1867
 1716SOL     OW16609   3.065   2.787  16.837  0.4954 -0.4961  0.3410
 1716SOL    HW116610   3.142   2.835  16.868  0.7934 -1.6316  1.3595
 1716SOL    HW216611   3.049   2.725  16.908  1.0116 -0.5618  0.4039
 1717SOL     OW16612   0.439   0.109   8.283 -0.0777 -0.4538  0.1152
 1717SOL    HW116613   0.474   0.199   8.283  0.6636 -0.7385  0.5936
 1717SOL    HW216614   0.481   0.079   8.202 -0.7435  0.0348 -0.4099
 1718SOL     OW16615   3.780   3.073  10.953  0.3939  0.2966 -0.3360
 1718SOL    HW116616   3.815   3.152  10.913  0.6956 -0.3974 -1.4545
 1718SOL    HW216617   3.839   3.009  10.915 -0.7477 -2.2602  2.1531
 1719SOL     OW16618   4.450   2.365   9.380 -0.2622  0.4144  0.0404
 1719SOL    HW116619   4.483   2.422   9.449 -0.0049 -0.2510  0.4697
 1719SOL    HW216620   4.355   2.366   9.392 -0.5168 -1.8525 -1.7873
 1720SOL     OW16621   2.558   4.413  14.842 -0.1045 -0.7809 -0.0051
 1720SOL    HW116622   2.538   4.334  14.792 -1.1627  0.5209 -1.6370
 1720SOL    HW216623   2.608   4.375  14.914 -1.7414 -0.6404  1.1890
 1721SOL     OW16624   2.344   2.982   0.649 -0.1795  0.3185 -0.2410
 1721SOL    HW116625   2.325   2.963   0.557  1.4649  0.0220 -0.5112
 1721SOL    HW216626   2.410   2.914   0.662 -0.9420 -0.5812 -1.0698
 1722SOL     OW16627   2.515   1.139   6.072 -0.0406  0.0277 -0.8578
 1722SOL    HW116628   2.556   1.059   6.105 -0.2960  0.6432  0.9018
 1722SOL    HW216629   2.448   1.160   6.137  0.6457  0.8276 -0.4148
 1723SOL     OW16630   1.727   4.016   0.282 -0.6404 -0.3126 -0.5988
 1723SOL    HW116631   1.728   4.096   0.334  1.0255  0.5153 -1.9083
 1723SOL    HW216632   1.676   3.951   0.331 -0.5275 -0.4242 -0.6303
 1724SOL     OW16633   3.614   2.971   8.942 -0.1950  0.8784 -0.2052
 1724SOL    HW116634   3.666   2.940   8.868 -0.0004 -1.4407  0.8963
 1724SOL    HW216635   3.523   2.970   8.914  0.3245 -0.4135 -1.8146
 1725SOL     OW16636   2.836   0.500   8.266  0.0548 -0.5574  0.0278
 1725SOL    HW116637   2.902   0.437   8.238 -0.1347 -1.8601  2.5167
 1725SOL    HW216638   2.776   0.487   8.192  2.1509 -0.0186 -1.7774
 1726SOL     OW16639   0.429   1.158   2.565 -0.0277 -0.2134 -0.1136
 1726SOL    HW116640   0.387   1.085   2.520 -0.9245  1.2840 -1.7463
 1726SOL    HW216641   0.498   1.181   2.503 -0.9434  0.0971 -1.0295
 1727SOL     OW16642   2.568   0.763  12.629  0.8333 -0.2564 -0.1053
 1727SOL    HW116643   2.632   0.701  12.596 -0.8544 -1.7475 -0.5594
 1727SOL    HW216644   2.493   0.746  12.572 -0.6685  1.9203  1.1930
 1728SOL     OW16645   4.374   1.848   8.296 -0.0198 -0.1421 -0.1069
 1728SOL    HW116646   4.326   1.915   8.248  0.7309  0.3757 -0.1265
 1728SOL    HW216647   4.455   1.897   8.301  0.7796 -1.2119 -2.7215
 1729SOL     OW16648   3.613   0.574   9.148 -0.0086  0.2133  0.3357
 1729SOL    HW116649   3.646   0.658   9.116 -1.2782  0.1250 -1.2204
 1729SOL    HW216650   3.619   0.523   9.068 -0.7565  1.5364 -0.5551
 1730SOL     OW16651   4.492   0.600   3.771 -0.1273 -0.2953  0.3663
 1730SOL    HW116652   4.542   0.523   3.797  0.1505 -0.7577 -1.4868
 1730SOL    HW216653   4.401   0.583   3.793 -0.3913 -1.8412 -1.8500
 1731SOL     OW16654   3.231   1.193   5.615 -0.3879  0.2406  0.5311
 1731SOL    HW116655   3.147   1.159   5.644  0.2054 -3.3789 -1.9076
 1731SOL    HW216656   3.244   1.254   5.688  1.1154  0.4135  0.1271
 1732SOL     OW16657   3.657   0.404   7.711 -0.7567  0.4392 -0.0978
 1732SOL    HW116658   3.593   0.335   7.698  0.5356 -0.3521 -2.2440
 1732SOL    HW216659   3.728   0.346   7.738 -2.3002 -1.6081 -0.4455
 1733SOL     OW16660   0.477   2.121   7.918 -0.3652 -0.1846 -0.6998
 1733SOL    HW116661   0.520   2.036   7.905  3.5843  2.0561 -2.3741
 1733SOL    HW216662   0.547   2.184   7.903  0.4639 -1.4464 -2.2295
 1734SOL     OW16663   3.910   2.733   8.496 -0.2755  0.4244  0.3724
 1734SOL    HW116664   3.947   2.812   8.456 -0.8818  0.3113 -0.4085
 1734SOL    HW216665   3.926   2.661   8.435  0.7709  1.1716 -0.2443
 1735SOL     OW16666   3.604   3.117   9.602 -0.0463  0.6050 -0.1961
 1735SOL    HW116667   3.579   3.039   9.650  0.2404  0.7145  0.1354
 1735SOL    HW216668   3.627   3.082   9.516  0.9145  0.8975 -0.0593
 1736SOL     OW16669   1.875   1.354  10.617  0.0993  0.0338  0.1310
 1736SOL    HW116670   1.863   1.367  10.711 -1.7755  1.4788 -0.2914
 1736SOL    HW216671   1.957   1.402  10.601  1.0465 -1.2875  1.0624
 1737SOL     OW16672   3.408   3.431   7.077 -0.5810 -0.4646 -0.4102
 1737SOL    HW116673   3.413   3.363   7.144  0.3410  1.4782  1.5069
 1737SOL    HW216674   3.489   3.428   7.027 -0.2291 -0.7673  0.1762
 1738SOL     OW16675   4.486   2.133   2.245  0.1882  0.4113 -0.2764
 1738SOL    HW116676   4.533   2.209   2.210  0.8027  0.1162 -0.0855
 1738SOL    HW216677   4.407   2.137   2.190 -1.3390  0.0881  1.8764
 1739SOL     OW16678   4.629   3.271   6.728  0.1033  0.5804 -0.1047
 1739SOL    HW116679   4.539   3.298   6.745 -0.1488 -0.0926 -0.3542
 1739SOL    HW216680   4.668   3.351   6.763 -0.6030  0.9270 -0.1129
 1740SOL     OW16681   1.417   1.569   4.601 -0.0996  0.2631  0.9808
 1740SOL    HW116682   1.416   1.597   4.693 -0.7070  0.9874  0.7596
 1740SOL    HW216683   1.487   1.504   4.608  1.0500  1.0092 -3.4709
 1741SOL     OW16684   1.440   3.936  13.082 -0.2158 -0.5083  0.8223
 1741SOL    HW116685   1.471   3.853  13.044 -0.9341 -0.3499 -0.1034
 1741SOL    HW216686   1.502   3.946  13.154  0.9160  0.7212 -0.3184
 1742SOL     OW16687   0.518   0.649  12.308  0.1410 -0.6636 -0.6027
 1742SOL    HW116688   0.441   0.675  12.257  0.5291  1.2692 -0.1992
 1742SOL    HW216689   0.582   0.719  12.292  0.2452 -0.9913 -1.6310
 1743SOL     OW16690   3.678   4.258   8.581 -0.0033  0.0252  0.7172
 1743SOL    HW116691   3.608   4.255   8.646 -0.0002  0.9704  0.7615
 1743SOL    HW216692   3.743   4.210   8.632 -0.9884 -2.3120 -0.2046
 1744SOL     OW16693   1.000   2.093   4.120 -0.3672 -0.2165 -0.2690
 1744SOL    HW116694   1.016   2.014   4.173 -2.3295  0.7719  1.8144
 1744SOL    HW216695   1.092   2.107   4.098 -0.2852  0.7366  0.6578
 1745SOL     OW16696   1.709   2.327  11.652 -0.0322  0.0076  0.5756
 1745SOL    HW116697   1.666   2.251  11.691 -1.5325  1.8655  2.5469
 1745SOL    HW216698   1.704   2.393  11.721 -1.6628 -0.3128  0.7682
 1746SOL     OW16699   2.927   2.508   7.322 -0.0352 -0.3698 -0.4016
 1746SOL    HW116700   3.002   2.526   7.379 -1.7888 -2.7779  2.6474
 1746SOL    HW216701   2.847   2.519   7.374  1.6293  1.5034  1.7607
 1747SOL     OW16702   3.117   1.589  16.864  0.0647  0.4805 -0.4709
 1747SOL    HW116703   3.052   1.519  16.857  1.5601 -0.8935 -0.5326
 1747SOL    HW216704   3.168   1.568  16.786  0.2513  0.6565 -0.3971
 1748SOL     OW16705   3.482   4.563   8.092  0.1543 -0.1000 -0.1058
 1748SOL    HW116706   3.577   4.551   8.100  0.2140  0.4823  0.0206
 1748SOL    HW216707   3.464   4.627   8.160 -0.5699 -0.5549  0.1210
 1749SOL     OW16708   3.195   3.786   5.379  0.0943 -0.2228  0.1851
 1749SOL    HW116709   3.169   3.878   5.376  1.2252  0.0864 -0.3314
 1749SOL    HW216710   3.151   3.769   5.462  0.1277 -0.0135  0.2448
 1750SOL     OW16711   2.342   1.722   7.802  0.1027 -0.1354  0.4353
 1750SOL    HW116712   2.411   1.689   7.859  0.8107 -0.4469 -0.6065
 1750SOL    HW216713   2.267   1.689   7.851 -0.7124 -1.4387 -1.6799
 1751SOL     OW16714   3.386   4.048  12.644 -0.4333  0.3918  0.4059
 1751SOL    HW116715   3.310   3.992  12.630  1.0520 -1.0572 -1.7253
 1751SOL    HW216716   3.455   3.982  12.642 -1.1609 -0.3634  0.2863
 1752SOL     OW16717   0.775   1.573   7.254 -0.1622 -0.2591 -0.5378
 1752SOL    HW116718   0.832   1.635   7.209  1.1322  1.5204  3.5303
 1752SOL    HW216719   0.713   1.570   7.181  1.0851  0.2273 -1.6126
 1753SOL     OW16720   4.357   0.451  14.727 -0.0359  0.0314 -0.0013
 1753SOL    HW116721   4.348   0.442  14.822  1.4393  3.3022  0.4450
 1753SOL    HW216722   4.265   0.431  14.710  0.9061 -2.9325 -1.6915
 1754SOL     OW16723   0.361   3.797  11.755 -0.9892 -0.2618  0.2922
 1754SOL    HW116724   0.435   3.747  11.790  1.4297  3.5403  0.6062
 1754SOL    HW216725   0.398   3.841  11.678  0.0270 -0.8433  0.4398
 1755SOL     OW16726   0.492   3.303   8.475 -0.8863  0.3751  0.8177
 1755SOL    HW116727   0.420   3.303   8.539 -1.9204  0.7238 -0.3421
 1755SOL    HW216728   0.538   3.384   8.497 -0.7318  0.5720 -0.2453
 1756SOL     OW16729   0.246   0.264   2.276  0.1437  0.2062  0.4230
 1756SOL    HW116730   0.181   0.324   2.241  1.0466  0.5001 -0.7443
 1756SOL    HW216731   0.195   0.203   2.329  0.7907 -0.1104  0.6846
 1757SOL     OW16732   4.085   3.045   6.151 -0.1966  0.6044 -0.4547
 1757SOL    HW116733   4.055   3.055   6.061  1.8573  0.2896 -1.1741
 1757SOL    HW216734   4.049   2.960   6.179  0.5059  1.2747  2.4903
 1758SOL     OW16735   3.935   1.035   5.773  0.2635 -0.2565  0.0413
 1758SOL    HW116736   3.973   0.968   5.716  2.9233  2.1121 -0.9889
 1758SOL    HW216737   3.996   1.034   5.846  1.6063  0.9878 -1.0449
 1759SOL     OW16738   1.226   3.701  14.160  0.3508  0.1500  0.3868
 1759SOL    HW116739   1.308   3.654  14.143 -0.0073 -0.0959 -0.7088
 1759SOL    HW216740   1.206   3.732  14.071 -0.8059  0.7147  0.8470
 1760SOL     OW16741   3.074   2.182  15.142  1.0199  0.0152 -0.2767
 1760SOL    HW116742   3.040   2.265  15.175  0.4345 -0.1374 -0.4935
 1760SOL    HW216743   2.999   2.122  15.146  3.5472 -3.1307 -0.3447
 1761SOL     OW16744   4.574   4.002   9.868  0.6537 -0.1290  0.6387
 1761SOL    HW116745   4.573   3.917   9.826  0.0783 -0.3458  1.0926
 1761SOL    HW216746   4.621   3.997   9.951 -0.2518 -1.7358  1.0529
 1762SOL     OW16747   4.534   2.614   5.864 -0.1209 -0.2679  0.2293
 1762SOL    HW116748   4.444   2.583   5.851  0.3686 -2.3520  1.9483
 1762SOL    HW216749   4.546   2.674   5.790 -0.7960  1.6389  1.6527
 1763SOL     OW16750   2.334   0.451  16.066  0.0322 -0.4049  0.1090
 1763SOL    HW116751   2.344   0.534  16.113  0.0863  0.2228 -1.0246
 1763SOL    HW216752   2.393   0.393  16.115 -0.1822  1.1672  2.2342
 1764SOL     OW16753   2.032   2.189   5.448  0.2213  0.4738 -0.4317
 1764SOL    HW116754   2.071   2.189   5.536  1.3265 -0.9500 -0.9183
 1764SOL    HW216755   1.951   2.222   5.486  0.5318  0.5979  0.1237
 1765SOL     OW16756   1.050   2.094   8.559  0.0573 -0.4690 -0.1400
 1765SOL    HW116757   1.125   2.076   8.615  0.0611  0.3715  0.1200
 1765SOL    HW216758   0.979   2.071   8.619 -1.1391  1.3455 -0.8594
 1766SOL     OW16759   4.462   0.608   0.525 -0.5211  0.6133  0.1604
 1766SOL    HW116760   4.505   0.618   0.440  0.2873 -0.5761  0.4375
 1766SOL    HW216761   4.519   0.665   0.576 -1.3550  1.4724  0.1564
 1767SOL     OW16762   1.524   2.015  16.643  0.0192 -0.2636 -0.3823
 1767SOL    HW116763   1.526   1.922  16.619  1.0867  0.0603 -1.5312
 1767SOL    HW216764   1.438   2.038  16.608 -0.3009 -0.6146  0.1721
 1768SOL     OW16765   3.679   2.912  12.638 -0.7676  0.3784  0.5159
 1768SOL    HW116766   3.685   3.008  12.641  2.2134  0.2695 -1.9594
 1768SOL    HW216767   3.584   2.909  12.653 -0.8665  0.0553 -0.1496
 1769SOL     OW16768   0.527   4.368   1.459 -0.1870  0.0447  0.3555
 1769SOL    HW116769   0.550   4.320   1.538  0.9487 -0.9647 -0.6084
 1769SOL    HW216770   0.502   4.454   1.493 -0.5428  0.6998 -1.5524
 1770SOL     OW16771   4.493   3.361  16.336  0.1415 -0.0049  0.0263
 1770SOL    HW116772   4.515   3.271  16.310  0.8872 -0.5661  2.6277
 1770SOL    HW216773   4.575   3.407  16.355 -0.4070  1.0204 -0.0805
 1771SOL     OW16774   3.134   4.213   3.261  0.0778 -0.6075 -0.6059
 1771SOL    HW116775   3.084   4.252   3.333  1.7908  0.8946 -0.2367
 1771SOL    HW216776   3.222   4.238   3.287 -0.8194  1.0167  0.9337
 1772SOL     OW16777   2.918   0.204   3.407 -0.0324 -0.0751  0.0520
 1772SOL    HW116778   2.974   0.242   3.340 -1.8857  0.8716 -0.9354
 1772SOL    HW216779   2.837   0.190   3.359 -0.4606  2.1595  0.1261
 1773SOL     OW16780   0.699   1.051   0.913 -0.0549 -0.5164  0.4780
 1773SOL    HW116781   0.643   1.093   0.847 -1.3941 -0.2787  1.7641
 1773SOL    HW216782   0.768   1.021   0.854 -0.3229  0.4302 -0.3160
 1774SOL     OW16783   3.049   0.658   4.923 -0.2257  0.0317  0.0142
 1774SOL    HW116784   3.020   0.733   4.872 -0.8445  0.1308  0.5196
 1774SOL    HW216785   3.143   0.662   4.905 -0.4628 -0.4693 -1.3433
 1775SOL     OW16786   4.339   3.607  17.380  0.0691 -0.1483 -0.6852
 1775SOL    HW116787   4.275   3.662  17.426 -1.8774 -2.4510 -0.6305
 1775SOL    HW216788   4.352   3.669  17.309 -2.7201  0.7683 -0.4130
 1776SOL     OW16789   1.377   0.980  17.388  0.0305  0.0188 -0.3448
 1776SOL    HW116790   1.465   1.016  17.372  0.7325 -1.8565 -0.7331
 1776SOL    HW216791   1.393   0.890  17.361 -1.0804  0.5921 -2.8838
 1777SOL     OW16792   0.832   2.961   2.904  0.2295 -0.0765 -1.0790
 1777SOL    HW116793   0.920   2.957   2.941  0.0664  2.5789 -0.3677
 1777SOL    HW216794   0.776   2.962   2.982  0.9207 -1.8075 -0.5599
 1778SOL     OW16795   3.365   0.026   3.496  0.7068 -0.2572  0.1682
 1778SOL    HW116796   3.351   0.112   3.456  0.4898 -0.8319 -0.9861
 1778SOL    HW216797   3.288   0.032   3.552  1.0685 -1.7765  0.8377
 1779SOL     OW16798   2.296   3.725  11.300 -0.2682  0.0971  0.3661
 1779SOL    HW116799   2.249   3.782  11.239 -0.5802 -1.8056 -1.1613
 1779SOL    HW216800   2.290   3.777  11.381 -2.1864  0.8717 -0.2524
 1780SOL     OW16801   4.644   1.145   5.348  0.1959 -0.2553 -0.0987
 1780SOL    HW116802   0.016   1.124   5.359  0.0036 -0.2130  1.6810
 1780SOL    HW216803   4.649   1.224   5.294 -0.6496 -1.2051 -1.5462
 1781SOL     OW16804   4.272   2.665   5.730  0.1816  0.0245  0.5507
 1781SOL    HW116805   4.283   2.572   5.710  2.8725  0.9847 -2.5345
 1781SOL    HW216806   4.339   2.704   5.674 -0.7556  1.2668  0.2919
 1782SOL     OW16807   4.258   3.197  10.533 -0.0683  0.0781  0.0967
 1782SOL    HW116808   4.228   3.162  10.617 -0.6004  0.4209  0.0506
 1782SOL    HW216809   4.183   3.167  10.481 -1.1273 -1.3258  2.4282
 1783SOL     OW16810   1.960   0.226  16.230  0.1574 -0.2914 -0.0514
 1783SOL    HW116811   1.907   0.181  16.296  0.8809 -0.0159  0.7133
 1783SOL    HW216812   2.024   0.272  16.285 -0.3096 -3.7522  3.4134
 1784SOL     OW16813   3.379   4.096   4.731  0.4774  0.1624  0.1026
 1784SOL    HW116814   3.324   4.053   4.796 -0.8278  0.2699 -0.9514
 1784SOL    HW216815   3.311   4.112   4.667  2.0940  0.4351 -1.5498
 1785SOL     OW16816   0.156   1.231  11.377 -0.2377 -0.1309 -0.2767
 1785SOL    HW116817   0.102   1.260  11.303 -1.8044 -1.1487  0.4589
 1785SOL    HW216818   0.157   1.318  11.417  0.9136 -1.0180  1.6062
 1786SOL     OW16819   2.484   1.930   0.010 -0.6639 -0.1207 -0.3415
 1786SOL    HW116820   2.495   1.879  17.616 -0.9981  0.7622 -0.9495
 1786SOL    HW216821   2.415   1.993  17.678 -1.5372 -0.8130  0.6237
 1787SOL     OW16822   0.860   1.775  13.301 -0.0433  0.4263 -0.0233
 1787SOL    HW116823   0.797   1.714  13.340  1.4804 -1.2991 -0.2451
 1787SOL    HW216824   0.943   1.727  13.306 -1.3223 -1.7866  0.2053
 1788SOL     OW16825   2.161   0.247   0.894  0.1231  0.4862  0.0069
 1788SOL    HW116826   2.115   0.291   0.822  0.0970  1.8624  0.8586
 1788SOL    HW216827   2.235   0.197   0.859  0.5953  1.6491 -0.6737
 1789SOL     OW16828   1.175   2.916   3.400  0.3228 -0.1373 -0.2997
 1789SOL    HW116829   1.259   2.921   3.446  0.6300 -0.2339 -0.8507
 1789SOL    HW216830   1.128   2.855   3.457 -3.6506  3.1085 -0.0479
 1790SOL     OW16831   0.798   2.928   4.703  0.3341 -0.0131  0.0459
 1790SOL    HW116832   0.723   2.879   4.670  0.7459 -1.3324  1.0960
 1790SOL    HW216833   0.763   3.017   4.699  2.7960  0.9465 -0.4419
 1791SOL     OW16834   0.102   2.599  10.464 -0.1875 -0.2010  0.7034
 1791SOL    HW116835   0.118   2.535  10.533 -1.0655 -0.0746  1.0226
 1791SOL    HW216836   0.096   2.549  10.383 -1.9444  1.5571 -0.2564
 1792SOL     OW16837   0.771   2.989  12.091  0.0193 -0.2941  0.5712
 1792SOL    HW116838   0.738   3.003  12.179 -0.3024 -0.7528  0.5231
 1792SOL    HW216839   0.837   3.058  12.084 -0.9027  0.2593 -2.6684
 1793SOL     OW16840   2.028   1.567   9.033  0.0722  0.3786  0.0704
 1793SOL    HW116841   2.076   1.538   8.955 -0.9400  0.2630 -0.5125
 1793SOL    HW216842   1.948   1.607   9.001  0.4410 -0.1206 -1.5124
 1794SOL     OW16843   2.372   2.988   5.753  0.3111  0.1711 -0.2067
 1794SOL    HW116844   2.289   2.963   5.714 -1.0584  1.3666  1.9564
 1794SOL    HW216845   2.347   3.021   5.840 -0.9651 -0.5946 -0.2860
 1795SOL     OW16846   3.750   0.252  11.015 -0.3410  0.2027 -0.4009
 1795SOL    HW116847   3.784   0.178  10.966  2.7592 -0.0775  2.1752
 1795SOL    HW216848   3.813   0.322  11.002  0.6929 -0.7980 -0.7342
 1796SOL     OW16849   2.652   1.258   4.984  0.5262  0.3092  0.1395
 1796SOL    HW116850   2.674   1.165   4.983 -1.2172 -0.1126  0.4269
 1796SOL    HW216851   2.686   1.278   5.071  1.4703  0.8544 -0.3574
 1797SOL     OW16852   4.082   3.029   9.323  0.3846 -0.2390  0.0492
 1797SOL    HW116853   4.170   3.058   9.297  0.9712 -2.2290 -0.1805
 1797SOL    HW216854   4.084   2.936   9.299 -1.6824 -0.5736  1.1930
 1798SOL     OW16855   1.102   4.171   8.893  0.0902 -0.6172  0.6969
 1798SOL    HW116856   1.054   4.235   8.946 -0.6394  1.4367 -2.4151
 1798SOL    HW216857   1.057   4.088   8.904  0.7989 -1.3099 -1.5909
 1799SOL     OW16858   3.668   4.086   9.996  0.3647  0.6554  0.1058
 1799SOL    HW116859   3.749   4.099  10.047  0.7304 -0.5884 -0.1595
 1799SOL    HW216860   3.669   3.993   9.977 -0.4620  0.4410  1.1121
 1800SOL     OW16861   3.848   0.057  10.872 -0.3773  0.0048 -0.3535
 1800SOL    HW116862   3.894   4.718  10.932  0.6164 -1.0420 -2.1496
 1800SOL    HW216863   3.849   4.709  10.806  0.5150 -2.0534  1.7804
 1801SOL     OW16864   2.804   1.533  16.718  0.2451  0.6161  0.0594
 1801SOL    HW116865   2.832   1.472  16.650 -0.9844  0.7203 -0.5383
 1801SOL    HW216866   2.852   1.504  16.796 -2.0961 -4.3709 -0.3158
 1802SOL     OW16867   2.035   3.207   5.754  0.0767  1.0449 -0.0660
 1802SOL    HW116868   1.940   3.211   5.744 -0.0639  0.6228  1.1227
 1802SOL    HW216869   2.070   3.131   5.706 -2.6313 -0.4924  0.4141
 1803SOL     OW16870   3.483   1.421   3.783 -0.4140 -0.2277 -0.2892
 1803SOL    HW116871   3.447   1.332   3.784  0.5224 -0.5595  2.4330
 1803SOL    HW216872   3.577   1.407   3.768 -0.0275  4.0338 -1.8760
 1804SOL     OW16873   0.794   4.350   2.631 -0.0889  0.1296 -0.0237
 1804SOL    HW116874   0.839   4.329   2.548  1.5816  0.3869  0.8123
 1804SOL    HW216875   0.863   4.332   2.695 -0.3445  1.3557  0.5955
 1805SOL     OW16876   2.163   3.910  11.750 -0.1630 -0.6807  0.2695
 1805SOL    HW116877   2.142   3.985  11.805  0.5492 -1.4181  1.5426
 1805SOL    HW216878   2.085   3.853  11.754 -1.6046  1.2521 -0.2781
 1806SOL     OW16879   4.591   0.713  17.465 -0.0926 -0.5057  0.1899
 1806SOL    HW116880   4.613   0.680  17.552 -0.1573 -1.4112 -0.1386
 1806SOL    HW216881   4.581   0.805  17.489 -1.6712 -0.4819 -0.5440
 1807SOL     OW16882   1.800   1.632  17.292  0.0038  0.4227 -0.3893
 1807SOL    HW116883   1.787   1.556  17.348  1.3552 -0.2408 -0.9790
 1807SOL    HW216884   1.813   1.707  17.350  3.4735 -0.9933  0.6381
 1808SOL     OW16885   3.119   1.662   6.965  0.0608 -0.3016  0.2219
 1808SOL    HW116886   3.053   1.615   7.016 -0.3220  0.9031  0.8386
 1808SOL    HW216887   3.147   1.598   6.900 -0.3169 -0.6851  0.4356
 1809SOL     OW16888   1.025   1.748   4.562  1.3306  0.1327  0.1468
 1809SOL    HW116889   1.055   1.822   4.614 -1.1537  1.1533  0.0947
 1809SOL    HW216890   1.111   1.732   4.522  0.7403 -0.7349 -0.7734
 1810SOL     OW16891   1.126   4.562  16.442 -0.3761  0.4121 -0.1345
 1810SOL    HW116892   1.108   4.630  16.377 -1.8067  0.8606  0.7153
 1810SOL    HW216893   1.038   4.545  16.475 -0.3766 -0.5541 -0.6384
 1811SOL     OW16894   3.880   3.034  12.821  0.0721  0.2641 -0.2733
 1811SOL    HW116895   3.826   2.961  12.790  0.2734 -0.1102  0.2371
 1811SOL    HW216896   3.836   3.106  12.776 -0.2327  1.0236  1.2112
 1812SOL     OW16897   1.039   3.121   2.188 -0.4606  0.8242 -0.5508
 1812SOL    HW116898   0.963   3.174   2.164 -1.2450 -0.1612 -0.2512
 1812SOL    HW216899   1.052   3.144   2.280  1.0182  0.1702 -0.5886
 1813SOL     OW16900   1.931   0.992   5.011 -0.0343 -0.5907 -0.0356
 1813SOL    HW116901   1.977   1.035   5.084 -3.6382 -1.2788  2.6106
 1813SOL    HW216902   1.906   1.064   4.954 -1.0856 -0.4567  0.6034
 1814SOL     OW16903   1.517   2.338  15.746  0.0018 -0.1469  0.7532
 1814SOL    HW116904   1.468   2.272  15.698 -0.9445 -0.0730  1.5980
 1814SOL    HW216905   1.582   2.285  15.792 -0.8250  0.3546  2.4988
 1815SOL     OW16906   1.487   0.460   1.076  0.2270 -0.0091  0.1456
 1815SOL    HW116907   1.555   0.407   1.036  0.4078  1.1615 -1.0815
 1815SOL    HW216908   1.500   0.546   1.036 -0.8040 -1.1570 -2.6509
 1816SOL     OW16909   1.675   4.208  17.539  0.0348 -0.3323  0.4720
 1816SOL    HW116910   1.620   4.284  17.557 -1.5512 -0.7179 -2.8131
 1816SOL    HW216911   1.719   4.243  17.461  0.3167 -0.1867  0.6954
 1817SOL     OW16912   0.910   2.655   4.672 -0.4500  0.2815 -0.0391
 1817SOL    HW116913   0.823   2.619   4.691  0.7549 -2.9403 -0.5982
 1817SOL    HW216914   0.903   2.743   4.708 -0.7457  1.2984 -2.6005
 1818SOL     OW16915   1.840   3.704   7.441 -0.3202 -0.1845  0.0646
 1818SOL    HW116916   1.922   3.726   7.396  0.7558 -2.2267  1.0380
 1818SOL    HW216917   1.876   3.652   7.512 -1.6389 -2.1752 -0.7473
 1819SOL     OW16918   2.938   4.109  15.408  0.3198  0.4359  0.2775
 1819SOL    HW116919   2.989   4.180  15.448  1.0884  0.2789 -0.4300
 1819SOL    HW216920   2.944   4.036  15.469 -0.4369 -0.4085 -0.6629
 1820SOL     OW16921   2.432   2.240  14.066  0.1749  1.0355 -0.8415
 1820SOL    HW116922   2.390   2.169  14.115 -1.3833  3.0684  0.7540
 1820SOL    HW216923   2.413   2.204  13.979 -1.7069  0.3881 -0.1630
 1821SOL     OW16924   3.277   0.480   2.995 -0.2946 -0.2886  0.5163
 1821SOL    HW116925   3.340   0.552   3.000 -1.2308  0.4799  1.2628
 1821SOL    HW216926   3.335   0.404   2.989 -1.5492 -1.3437  1.8260
 1822SOL     OW16927   2.457   4.566  13.338 -0.2040  0.3569 -0.9841
 1822SOL    HW116928   2.390   4.512  13.380  0.8346 -0.1111  0.0766
 1822SOL    HW216929   2.496   4.510  13.270  1.0695  2.6184 -2.1216
 1823SOL     OW16930   4.379   3.385   4.360 -0.8694  0.5436 -0.6085
 1823SOL    HW116931   4.365   3.326   4.287 -2.8243 -1.6852  1.5655
 1823SOL    HW216932   4.293   3.383   4.403 -0.1921  0.6081  0.7589
 1824SOL     OW16933   0.722   3.476   3.289  0.0555  0.3105 -0.5902
 1824SOL    HW116934   0.740   3.389   3.326  1.1245  0.4818 -0.7163
 1824SOL    HW216935   0.781   3.536   3.334  0.9900 -1.7694  0.9581
 1825SOL     OW16936   3.708   2.098   5.174 -0.2873  0.0264 -0.4577
 1825SOL    HW116937   3.763   2.022   5.154 -0.5907 -0.4240  0.4590
 1825SOL    HW216938   3.622   2.059   5.187 -0.0446 -0.5756 -0.6636
 1826SOL     OW16939   1.344   2.143   4.295  0.6030 -0.3854 -0.7778
 1826SOL    HW116940   1.355   2.052   4.268 -0.0035 -1.2430  1.9620
 1826SOL    HW216941   1.362   2.189   4.212 -0.2780  0.7267 -0.3665
 1827SOL     OW16942   0.746   1.998   6.900  0.6799  0.0577  0.5951
 1827SOL    HW116943   0.752   1.923   6.841 -0.0928 -0.0326  0.6192
 1827SOL    HW216944   0.685   1.958   6.962  1.4066 -1.4851  0.3214
 1828SOL     OW16945   0.708   0.537   9.109 -0.7335 -0.6041 -0.4193
 1828SOL    HW116946   0.797   0.547   9.143 -0.1079 -0.6971 -2.0500
 1828SOL    HW216947   0.693   0.445   9.129  1.4944 -1.2672 -1.8782
 1829SOL     OW16948   2.930   3.641   7.083 -0.3047 -0.1549  0.2718
 1829SOL    HW116949   2.952   3.595   7.164 -0.1626  1.6354  1.2509
 1829SOL    HW216950   2.868   3.710   7.108  0.4005  1.4903 -2.5190
 1830SOL     OW16951   0.430   0.020   3.319 -0.3670 -0.2300  0.3285
 1830SOL    HW116952   0.381   0.099   3.298 -2.0388 -1.8211 -1.6875
 1830SOL    HW216953   0.453   4.702   3.235  0.9396 -1.9717  1.4831
 1831SOL     OW16954   3.411   1.404   9.048  0.1767 -0.6695 -0.1784
 1831SOL    HW116955   3.469   1.415   8.973  0.3235 -0.7105 -0.0716
 1831SOL    HW216956   3.383   1.317   9.021 -0.2858 -1.0405  1.5368
 1832SOL     OW16957   0.630   0.477   2.718  0.6053  0.1182  0.4845
 1832SOL    HW116958   0.711   0.523   2.694 -0.1765  1.4368  0.3875
 1832SOL    HW216959   0.671   0.391   2.722  2.3779  0.9449  0.3421
 1833SOL     OW16960   0.053   3.231  11.738  0.1945 -0.1987  0.3133
 1833SOL    HW116961   0.021   3.148  11.774 -0.2409 -0.3143 -0.3428
 1833SOL    HW216962   0.011   3.291  11.799 -4.5932 -1.0972 -2.0744
 1834SOL     OW16963   1.147   0.243   0.727 -0.4682 -0.2733  0.1099
 1834SOL    HW116964   1.136   0.165   0.781 -0.2096  0.2728  0.9565
 1834SOL    HW216965   1.080   0.298   0.768  0.1990 -0.3641  1.3255
 1835SOL     OW16966   2.166   2.132   4.400  0.1385  0.2227  0.2957
 1835SOL    HW116967   2.208   2.142   4.485 -2.5560  0.4837  1.5864
 1835SOL    HW216968   2.157   2.037   4.411  1.6074  0.0539  0.0425
 1836SOL     OW16969   2.196   1.649   9.268  0.5343  0.0485  0.0299
 1836SOL    HW116970   2.285   1.676   9.248  0.5825 -0.8991 -1.0541
 1836SOL    HW216971   2.175   1.605   9.186 -4.1293 -2.0671  2.3353
 1837SOL     OW16972   1.688   3.785  15.400 -0.1135 -0.0772 -0.3337
 1837SOL    HW116973   1.701   3.744  15.314 -0.5226 -2.1720  0.5911
 1837SOL    HW216974   1.751   3.730  15.448 -0.6637  1.0610  1.6407
 1838SOL     OW16975   1.578   4.707   2.418 -0.0591  0.3291  0.0469
 1838SOL    HW116976   1.593   4.720   2.512  0.6189  1.2100 -0.1843
 1838SOL    HW216977   1.638   0.053   2.386 -0.8810  1.0578  0.0321
 1839SOL     OW16978   4.492   0.380   7.361 -0.4137 -0.1608  1.2325
 1839SOL    HW116979   4.513   0.337   7.444  1.0119  1.0380  1.4939
 1839SOL    HW216980   4.458   0.304   7.313  2.0185 -0.7844  0.4840
 1840SOL     OW16981   2.423   0.692   5.000 -0.9426 -0.6176 -0.1157
 1840SOL    HW116982   2.496   0.707   5.060 -1.1720 -3.7426  0.9401
 1840SOL    HW216983   2.387   0.605   5.019 -1.2368 -0.6032 -0.6003
 1841SOL     OW16984   4.405   0.221  12.996 -0.0120 -0.7818 -0.4037
 1841SOL    HW116985   4.500   0.217  12.986 -0.1873  2.5453 -3.1339
 1841SOL    HW216986   4.388   0.130  12.971  0.8664 -0.0738 -3.5403
 1842SOL     OW16987   3.395   0.139   6.549  0.1770 -0.1840 -0.4829
 1842SOL    HW116988   3.441   0.222   6.559 -1.1069  0.8286 -2.8491
 1842SOL    HW216989   3.365   0.110   6.636  1.4634  3.5153  1.1771
 1843SOL     OW16990   2.444   2.664   6.583 -0.0276  0.2844 -0.2450
 1843SOL    HW116991   2.536   2.684   6.594 -0.1765  0.1334  1.2662
 1843SOL    HW216992   2.468   2.571   6.585  1.6444  0.6644 -2.8347
 1844SOL     OW16993   2.517   1.497   1.391  0.3756  0.1677  0.4333
 1844SOL    HW116994   2.593   1.447   1.422  0.1841 -1.3110 -1.4801
 1844SOL    HW216995   2.462   1.497   1.469  0.7152  2.4320  0.6683
 1845SOL     OW16996   0.560   0.698   2.106  0.0726 -0.2294 -0.1044
 1845SOL    HW116997   0.596   0.772   2.058  1.0740 -0.0271  0.9496
 1845SOL    HW216998   0.474   0.734   2.128  1.0297  1.9959 -0.0483
 1846SOL     OW16999   0.460   4.369  15.178  0.1976  0.1198  0.0178
 1846SOL    HW117000   0.491   4.384  15.267 -0.7388 -0.2675  0.4038
 1846SOL    HW217001   0.531   4.413  15.130  1.5716 -3.7938 -1.5404
 1847SOL     OW17002   2.712   0.796  13.539 -0.9555 -0.2011 -0.3456
 1847SOL    HW117003   2.695   0.890  13.547  0.9250  0.0976  0.2067
 1847SOL    HW217004   2.674   0.774  13.623  1.4770  0.8908  1.0382
 1848SOL     OW17005   2.174   1.709   8.300 -0.2686  0.5103 -0.0216
 1848SOL    HW117006   2.251   1.656   8.283  0.8528  1.9275  0.6314
 1848SOL    HW217007   2.218   1.781   8.345  0.9850 -0.0567 -0.3635
 1849SOL     OW17008   1.216   1.019  16.580 -0.3572  0.2825  0.2095
 1849SOL    HW117009   1.121   1.032  16.578 -0.1565  1.4661 -1.2856
 1849SOL    HW217010   1.234   1.112  16.569  3.8448 -0.4138  1.1419
 1850SOL     OW17011   1.125   3.514  10.540 -0.5219 -0.8679  0.3808
 1850SOL    HW117012   1.154   3.424  10.552 -1.1323 -1.1531 -0.2239
 1850SOL    HW217013   1.093   3.540  10.626 -0.1447  0.9269 -0.0188
 1851SOL     OW17014   0.543   1.402   3.689  0.2686 -0.2584 -0.6503
 1851SOL    HW117015   0.521   1.359   3.606 -2.7441 -0.4727  0.2429
 1851SOL    HW217016   0.586   1.479   3.652  2.5058 -0.6963  1.0178
 1852SOL     OW17017   1.080   3.413  11.708  0.1819  0.6087 -0.3607
 1852SOL    HW117018   1.173   3.420  11.727  0.2969 -0.0904 -0.6551
 1852SOL    HW217019   1.089   3.387  11.616  3.6645  1.0357 -0.1154
 1853SOL     OW17020   2.013   0.800   2.622  0.0836 -0.3477  0.1193
 1853SOL    HW117021   1.988   0.882   2.664 -0.0423 -0.3305  0.0115
 1853SOL    HW217022   2.020   0.832   2.532  2.9731 -0.2082  0.3879
 1854SOL     OW17023   0.114   1.298   8.840  0.8848 -0.2178 -0.2585
 1854SOL    HW117024   0.179   1.345   8.787  1.7132  1.2659  2.1041
 1854SOL    HW217025   0.051   1.368   8.857  0.9656 -0.9872  3.1569
 1855SOL     OW17026   2.574   1.400   0.785 -0.6799  0.2380 -0.5870
 1855SOL    HW117027   2.648   1.432   0.734 -2.4933  1.8325 -2.2264
 1855SOL    HW217028   2.565   1.467   0.853 -2.3926 -0.3541 -0.2447
 1856SOL     OW17029   0.185   2.840   3.322  0.4268 -0.3570  0.5208
 1856SOL    HW117030   0.185   2.787   3.243  1.0496 -0.7055  0.7621
 1856SOL    HW217031   0.266   2.889   3.312  2.2007 -2.8647  2.6160
 1857SOL     OW17032   2.883   3.925  15.695 -0.7777  0.5413  0.0105
 1857SOL    HW117033   2.863   3.837  15.662 -1.3975 -0.1359  2.1915
 1857SOL    HW217034   2.975   3.928  15.669 -0.5607 -1.8083  0.4860
 1858SOL     OW17035   0.102   0.015   5.645  0.1312  0.1239 -0.1874
 1858SOL    HW117036   0.153   0.096   5.651 -0.6375  0.6753 -1.0599
 1858SOL    HW217037   0.016   0.052   5.665  0.1701  0.0029  0.2131
 1859SOL     OW17038   1.710   2.709   0.295  0.0828 -0.1471  0.6332
 1859SOL    HW117039   1.693   2.640   0.232  1.7338  0.1504 -0.1434
 1859SOL    HW217040   1.787   2.677   0.341 -1.2162 -1.3589  1.9478
 1860SOL     OW17041   4.009   4.628   6.741 -0.3861 -0.0589 -0.4805
 1860SOL    HW117042   4.091   4.628   6.691 -0.5425 -2.6556 -0.7233
 1860SOL    HW217043   3.963   4.698   6.695  0.4341  1.6977  1.3117
 1861SOL     OW17044   4.551   1.649   6.001 -0.1347 -0.9837  0.3121
 1861SOL    HW117045   4.612   1.713   6.037 -2.6004  2.0677 -0.9542
 1861SOL    HW217046   4.606   1.571   5.996 -1.2930 -1.8333  0.7455
 1862SOL     OW17047   1.822   2.305   9.263 -0.0652 -0.4276 -0.1318
 1862SOL    HW117048   1.879   2.375   9.232 -3.5021  2.5112  0.1274
 1862SOL    HW217049   1.856   2.284   9.350  4.4975 -0.7652 -2.0093
 1863SOL     OW17050   0.437   2.537   2.614  0.0754 -0.4624 -0.0836
 1863SOL    HW117051   0.487   2.508   2.537  2.3477 -0.1344  1.2612
 1863SOL    HW217052   0.352   2.505   2.584 -0.8544  0.4268  1.6079
 1864SOL     OW17053   1.350   1.744   5.656  0.0530 -0.0143 -0.3002
 1864SOL    HW117054   1.315   1.832   5.638 -1.6728 -1.1927 -2.8239
 1864SOL    HW217055   1.269   1.697   5.636 -0.8516  0.2905  2.6041
 1865SOL     OW17056   1.112   0.090   3.737 -0.2956  0.0027  0.1233
 1865SOL    HW117057   1.107   0.007   3.690 -2.4446  0.8969 -1.2194
 1865SOL    HW217058   1.062   0.152   3.684  1.3496  1.3090  0.1020
 1866SOL     OW17059   1.194   1.905   4.721 -0.3954 -0.1115  0.1763
 1866SOL    HW117060   1.219   1.844   4.791 -1.1871 -0.9862 -0.3095
 1866SOL    HW217061   1.280   1.920   4.680 -0.6987  2.3221  0.4709
 1867SOL     OW17062   4.542   1.644  16.776 -0.0065  0.4061 -0.4985
 1867SOL    HW117063   4.466   1.646  16.718  0.1844 -1.1697 -0.7896
 1867SOL    HW217064   4.617   1.632  16.718  0.2047 -1.5839  0.1788
 1868SOL     OW17065   4.073   1.620   6.759 -0.1529 -0.6260 -0.3104
 1868SOL    HW117066   4.041   1.581   6.678  0.7186  1.7835 -1.8229
 1868SOL    HW217067   4.120   1.547   6.800  0.5057  0.5436  1.0072
 1869SOL     OW17068   4.283   2.415   4.661 -0.1093  0.2554 -0.1256
 1869SOL    HW117069   4.358   2.413   4.720  1.6311  1.0091 -2.3297
 1869SOL    HW217070   4.282   2.323   4.635  0.6014  0.4257 -0.7565
 1870SOL     OW17071   0.588   1.964   2.969  0.2413 -0.2281  0.1814
 1870SOL    HW117072   0.628   2.030   2.912 -1.8723 -1.3343 -2.5883
 1870SOL    HW217073   0.569   1.896   2.904  0.1685  0.3882 -0.4376
 1871SOL     OW17074   3.165   3.509   8.133  0.4577 -0.2108 -0.3904
 1871SOL    HW117075   3.117   3.477   8.209  0.1068  0.0290 -0.5071
 1871SOL    HW217076   3.254   3.512   8.167  0.2667  0.3879  0.0742
 1872SOL     OW17077   2.396   0.718  12.892  0.5043  0.3979  0.0814
 1872SOL    HW117078   2.450   0.773  12.835 -2.4663  3.1421 -0.0999
 1872SOL    HW217079   2.453   0.641  12.892 -1.8735 -1.3857  0.3428
 1873SOL     OW17080   2.904   0.050   2.898 -0.0744  0.4188 -0.3425
 1873SOL    HW117081   2.830   0.006   2.855 -1.1591  1.6505  0.2683
 1873SOL    HW217082   2.865   0.113   2.958 -1.0796  1.6922 -2.3375
 1874SOL     OW17083   1.719   0.900   0.572 -0.1865  0.5507 -0.2767
 1874SOL    HW117084   1.683   0.855   0.496  2.4195 -0.3002 -1.0063
 1874SOL    HW217085   1.805   0.858   0.578  0.2718  1.3913 -0.9516
 1875SOL     OW17086   3.974   2.734   4.206 -0.6682 -0.6789  0.3102
 1875SOL    HW117087   3.888   2.695   4.220 -0.1916 -1.4352  1.1843
 1875SOL    HW217088   3.987   2.723   4.112  2.4677  1.3853  0.4804
 1876SOL     OW17089   2.185   0.048   9.208 -0.2338  0.5686 -0.0691
 1876SOL    HW117090   2.093   0.055   9.183 -0.7947 -0.9019  1.5101
 1876SOL    HW217091   2.181   4.707   9.282  1.2138 -0.3605 -0.7769
 1877SOL     OW17092   2.730   4.027  16.138 -0.0193  0.1270  0.3468
 1877SOL    HW117093   2.734   3.931  16.136 -2.4315 -0.0484  2.5848
 1877SOL    HW217094   2.763   4.036  16.049  0.4857  0.4780  0.5735
 1878SOL     OW17095   3.313   3.170  14.942 -0.0279 -0.0516 -0.0586
 1878SOL    HW117096   3.403   3.166  14.975  0.1154  0.8415 -0.3411
 1878SOL    HW217097   3.299   3.076  14.930 -0.7680  0.2391 -1.4183
 1879SOL     OW17098   1.326   3.069  13.379 -0.1946 -0.4094 -0.2175
 1879SOL    HW117099   1.398   3.099  13.434 -0.7544  0.4749  0.0464
 1879SOL    HW217100   1.359   3.051  13.291  0.6050 -2.2968  0.4779
 1880SOL     OW17101   3.550   3.927   2.629  0.0665 -0.3494 -0.3848
 1880SOL    HW117102   3.521   4.019   2.633 -0.4521 -0.5234 -0.1257
 1880SOL    HW217103   3.500   3.895   2.705  1.8872  1.4061  1.5546
 1881SOL     OW17104   3.594   3.033   6.758 -0.3086  0.1931  0.5990
 1881SOL    HW117105   3.653   2.978   6.707  0.9315  2.5510 -0.4857
 1881SOL    HW217106   3.522   2.975   6.782 -1.0383  0.6912 -0.3482
 1882SOL     OW17107   2.478   1.663   9.212 -0.3875  0.3464  0.1469
 1882SOL    HW117108   2.506   1.573   9.196 -3.0914 -0.8011  1.8178
 1882SOL    HW217109   2.562   1.708   9.213  0.2758 -0.7880 -3.3104
 1883SOL     OW17110   1.380   3.577  10.522  0.2376 -0.5079  0.4286
 1883SOL    HW117111   1.353   3.633  10.595 -1.9252  0.5428 -1.1765
 1883SOL    HW217112   1.301   3.555  10.473  0.6987  0.0318 -0.5656
 1884SOL     OW17113   4.150   0.530   7.410  0.2068  0.1737 -0.1132
 1884SOL    HW117114   4.081   0.484   7.363  1.7834 -2.0600 -0.2819
 1884SOL    HW217115   4.118   0.620   7.410  2.8394  1.1125  0.2495
 1885SOL     OW17116   1.474   4.321   6.308  0.3502  0.4716 -0.2718
 1885SOL    HW117117   1.380   4.305   6.305  0.1637  1.6964 -1.4889
 1885SOL    HW217118   1.477   4.365   6.223  1.4543  1.3515  0.2233
 1886SOL     OW17119   2.620   2.694   9.379  0.1235 -0.1178  0.0923
 1886SOL    HW117120   2.672   2.729   9.452 -1.0988  0.1893  0.8230
 1886SOL    HW217121   2.663   2.611   9.358 -1.4337 -0.7459 -0.5468
 1887SOL     OW17122   1.248   2.877  10.848 -0.5399  0.6482  0.2720
 1887SOL    HW117123   1.264   2.966  10.879  0.3716  1.0593 -1.3860
 1887SOL    HW217124   1.317   2.828  10.893 -0.8712  0.8739  1.0346
 1888SOL     OW17125   2.996   4.274   0.158  0.2637 -0.2597 -0.3860
 1888SOL    HW117126   2.905   4.244   0.160 -0.5217  2.2598  1.6557
 1888SOL    HW217127   3.012   4.282   0.252 -0.4461 -0.4875 -0.2465
 1889SOL     OW17128   4.496   2.928   7.014  0.0201  0.1771  0.1732
 1889SOL    HW117129   4.567   2.976   7.056  1.0913 -1.0126 -0.2768
 1889SOL    HW217130   4.451   2.999   6.968  1.5867  1.2618  0.3200
 1890SOL     OW17131   2.740   0.165   6.516  0.2836 -0.1556  0.3568
 1890SOL    HW117132   2.756   0.076   6.483  1.1812  0.6541 -1.4451
 1890SOL    HW217133   2.651   0.152   6.547  0.0610  0.3634 -0.0608
 1891SOL     OW17134   3.349   1.677   5.404  0.0583 -0.2658  0.6502
 1891SOL    HW117135   3.328   1.760   5.446  0.4821  1.1839 -1.9454
 1891SOL    HW217136   3.314   1.694   5.316  0.9416  0.5032  0.4447
 1892SOL     OW17137   3.326   3.308   3.246  0.0537  0.3344  0.5272
 1892SOL    HW117138   3.407   3.261   3.226 -0.5684  1.0413 -3.6630
 1892SOL    HW217139   3.367   3.392   3.270 -1.2805  1.2127 -0.3266
 1893SOL     OW17140   1.075   0.950   0.682  0.5816 -0.5413 -0.3265
 1893SOL    HW117141   1.060   1.042   0.703 -2.4838 -1.0880 -0.2095
 1893SOL    HW217142   0.985   0.919   0.674  0.7081 -0.1803 -3.1299
 1894SOL     OW17143   3.465   4.154   5.302  0.5721 -0.1021  0.1429
 1894SOL    HW117144   3.498   4.064   5.302  0.6533 -0.0709 -3.4812
 1894SOL    HW217145   3.504   4.180   5.385 -0.1198  0.8686  0.1626
 1895SOL     OW17146   3.130   1.948   4.654 -0.2486  0.5966  0.2618
 1895SOL    HW117147   3.066   2.019   4.648  1.4012  1.9636 -0.9632
 1895SOL    HW217148   3.092   1.900   4.728 -0.6221 -0.9200 -0.9230
 1896SOL     OW17149   4.691   3.077   3.803 -0.3278 -0.0115 -0.1999
 1896SOL    HW117150   0.025   3.128   3.743  1.3105 -0.7698  0.6700
 1896SOL    HW217151   0.028   3.077   3.879  1.3307 -0.2397 -1.4707
 1897SOL     OW17152   3.267   3.506   3.823 -0.2352  0.1952 -0.3921
 1897SOL    HW117153   3.222   3.458   3.754 -1.4993 -0.9929  1.2328
 1897SOL    HW217154   3.197   3.525   3.886  2.1396  1.4310  1.8512
 1898SOL     OW17155   1.732   1.839   3.345 -0.1766 -0.1791 -0.9544
 1898SOL    HW117156   1.649   1.883   3.330  0.5888  0.8221 -2.2406
 1898SOL    HW217157   1.707   1.799   3.428 -0.0768 -0.3192 -0.9911
 1899SOL     OW17158   3.594   3.923   6.701  0.5200 -0.3333 -0.0766
 1899SOL    HW117159   3.604   3.847   6.757 -0.0451 -0.4117 -0.0829
 1899SOL    HW217160   3.583   3.985   6.773  0.8633 -0.6122  0.2138
 1900SOL     OW17161   4.477   3.048   3.106 -0.1728  0.3844 -0.0327
 1900SOL    HW117162   4.435   3.081   3.027 -0.3569 -0.2361 -0.1901
 1900SOL    HW217163   4.520   2.971   3.069  0.3285  1.5371 -1.8427
 1901SOL     OW17164   1.648   1.401   2.796 -0.8308 -0.2166 -0.2733
 1901SOL    HW117165   1.649   1.473   2.733 -2.1672 -0.7104 -0.8690
 1901SOL    HW217166   1.606   1.325   2.757 -1.2056  0.4346 -1.1557
 1902SOL     OW17167   3.367   3.508   5.563  0.3164 -0.4743 -0.0053
 1902SOL    HW117168   3.372   3.414   5.580  0.6445 -0.7613 -1.7621
 1902SOL    HW217169   3.378   3.520   5.469  1.2669  1.6917  0.3893
 1903SOL     OW17170   0.365   2.906  15.782  0.2462  0.2421 -0.4332
 1903SOL    HW117171   0.443   2.943  15.823  0.3619  1.4718 -1.7512
 1903SOL    HW217172   0.378   2.956  15.702  1.6967  0.1828 -0.2381
 1904SOL     OW17173   0.319   4.595  13.406 -0.1567 -0.5965 -0.5835
 1904SOL    HW117174   0.389   4.532  13.390  1.1232  0.0037  2.7165
 1904SOL    HW217175   0.330   4.588  13.501 -1.6273  0.0656 -0.3602
 1905SOL     OW17176   3.407   2.850   0.877 -0.0038  0.3252  0.1021
 1905SOL    HW117177   3.466   2.925   0.881 -1.0071  0.9957  2.2480
 1905SOL    HW217178   3.446   2.807   0.953  0.2022  2.6252  1.2814
 1906SOL     OW17179   1.073   0.068   4.164 -0.6088  0.3121 -0.1612
 1906SOL    HW117180   1.069   0.130   4.092 -1.6279  0.6102  0.1597
 1906SOL    HW217181   1.032   4.710   4.127 -1.9971  0.5083  0.9526
 1907SOL     OW17182   1.302   1.446   2.194 -0.2441 -0.2741 -0.3888
 1907SOL    HW117183   1.354   1.382   2.146  2.8560  1.3519  0.7614
 1907SOL    HW217184   1.358   1.523   2.207 -3.6540  2.3694 -1.1465
 1908SOL     OW17185   3.833   3.894   2.759  0.0597 -0.6638 -0.1598
 1908SOL    HW117186   3.804   3.850   2.839  1.4481 -0.2788  0.5463
 1908SOL    HW217187   3.767   3.960   2.738  2.6038  1.3320 -1.8382
 1909SOL     OW17188   3.576   3.079   1.713  0.4679 -0.3882 -0.3133
 1909SOL    HW117189   3.587   3.012   1.645  1.0311  0.6134 -1.2173
 1909SOL    HW217190   3.651   3.049   1.764 -0.6338 -2.3072  0.1885
 1910SOL     OW17191   4.037   1.746   6.166  0.3637  0.1974 -0.5335
 1910SOL    HW117192   4.121   1.701   6.158 -0.5357 -1.3311 -1.2739
 1910SOL    HW217193   4.068   1.818   6.222  0.8080 -1.5004  1.3981
 1911SOL     OW17194   4.084   3.095   5.295  0.2928 -0.2026 -0.6169
 1911SOL    HW117195   4.056   3.016   5.248  2.3677 -0.8752 -0.7533
 1911SOL    HW217196   4.032   3.162   5.250  0.0225 -0.3707 -0.5524
 1912SOL     OW17197   3.378   1.695   2.058  0.4374  0.0889  0.3532
 1912SOL    HW117198   3.356   1.709   1.966  1.5797  0.7347  0.1842
 1912SOL    HW217199   3.437   1.769   2.067 -0.0671  0.6579 -1.0600
 1913SOL     OW17200   4.247   1.859   5.409 -0.0561 -0.3482 -0.0741
 1913SOL    HW117201   4.217   1.885   5.496  0.3915  2.1920 -0.6910
 1913SOL    HW217202   4.184   1.912   5.360 -1.9455 -1.4365  1.1954
 1914SOL     OW17203   0.247   1.016   8.054  0.2110 -0.2574 -0.3078
 1914SOL    HW117204   0.330   0.970   8.065  0.4775  0.8198  2.2805
 1914SOL    HW217205   0.195   0.960   7.997  0.3784 -0.2047 -0.5165
 1915SOL     OW17206   0.647   1.543   2.998  0.0175  0.0851 -0.0872
 1915SOL    HW117207   0.625   1.450   2.997  0.8387 -0.1227  0.6620
 1915SOL    HW217208   0.669   1.557   2.906  1.5444 -2.4048 -0.0912
 1916SOL     OW17209   2.229   2.291   9.859 -0.2925  0.0549 -0.0696
 1916SOL    HW117210   2.147   2.256   9.893 -0.4284  0.4503 -0.0026
 1916SOL    HW217211   2.239   2.243   9.776  0.6223 -0.0934  0.1281
 1917SOL     OW17212   0.091   1.508   9.938  0.0881  0.6160 -0.3797
 1917SOL    HW117213   0.171   1.466   9.969 -0.5046 -1.8754 -2.1994
 1917SOL    HW217214   0.127   1.542   9.857 -1.8593 -0.0602 -1.5275
 1918SOL     OW17215   1.229   4.621   2.535 -0.2676 -0.0829 -0.3859
 1918SOL    HW117216   1.257   4.691   2.594 -2.8740  0.5018  0.1493
 1918SOL    HW217217   1.168   4.664   2.476 -0.2888  2.4282  1.4710
 1919SOL     OW17218   1.111   1.419  16.285  0.7627 -0.1957 -0.8169
 1919SOL    HW117219   1.111   1.445  16.377  0.3171  1.0511 -1.1713
 1919SOL    HW217220   1.030   1.453  16.248  0.8210  1.8075  0.9591
 1920SOL     OW17221   3.166   0.002  11.381 -0.0925  0.2425 -0.3870
 1920SOL    HW117222   3.073   0.014  11.363 -0.3832  0.4831  1.2630
 1920SOL    HW217223   3.197   0.022  11.292 -0.6143 -0.9754 -0.8390
 1921SOL     OW17224   1.431   1.374   7.000 -0.2470  0.1341 -0.1308
 1921SOL    HW117225   1.485   1.308   7.044  0.6133  0.2713 -0.9885
 1921SOL    HW217226   1.369   1.393   7.071  1.4804  1.9837  0.8659
 1922SOL     OW17227   3.829   4.608   6.458  0.5414  0.5443  0.2930
 1922SOL    HW117228   3.745   4.600   6.413  0.6626 -1.1043  0.3498
 1922SOL    HW217229   3.799   4.650   6.539 -3.6883 -2.2877  0.2265
 1923SOL     OW17230   1.142   4.664   1.852  0.1424  0.0867 -0.0073
 1923SOL    HW117231   1.203   4.701   1.789  1.0380 -1.5318 -0.1051
 1923SOL    HW217232   1.095   0.023   1.875  0.9352  0.3128  0.8422
 1924SOL     OW17233   3.196   4.153   8.331 -0.0583 -0.3475  0.4504
 1924SOL    HW117234   3.152   4.183   8.410 -0.2257 -1.7029  0.8660
 1924SOL    HW217235   3.287   4.154   8.360  0.1335 -1.1576 -0.0928
 1925SOL     OW17236   2.499   1.965  13.413 -0.2086 -0.4848 -0.1175
 1925SOL    HW117237   2.581   2.007  13.440 -0.5795  0.9350 -1.2026
 1925SOL    HW217238   2.542   1.882  13.395  3.2657  1.3613 -0.3909
 1926SOL     OW17239   4.480   1.117  11.059 -0.2720 -0.1743 -1.0784
 1926SOL    HW117240   4.499   1.197  11.009 -0.7572  0.9533  0.5469
 1926SOL    HW217241   4.565   1.075  11.075 -1.9615 -1.7325  3.6632
 1927SOL     OW17242   1.915   1.960   4.189  0.1266  1.0201 -0.4739
 1927SOL    HW117243   1.994   1.964   4.136 -0.0610 -1.4107 -0.8928
 1927SOL    HW217244   1.907   2.050   4.221  3.0005  1.3484 -0.6942
 1928SOL     OW17245   0.446   3.394  12.378 -0.4053  0.1138  0.3455
 1928SOL    HW117246   0.447   3.435  12.465 -0.5733  0.7172  0.0599
 1928SOL    HW217247   0.522   3.432  12.333 -0.6394  0.2706  0.0867
 1929SOL     OW17248   3.945   1.830   6.496 -0.2528  0.2685  0.5689
 1929SOL    HW117249   3.880   1.897   6.474 -2.6929 -2.7905 -1.5424
 1929SOL    HW217250   4.026   1.871   6.467 -0.1920 -0.2249  0.0321
 1930SOL     OW17251   3.569   3.257  15.194 -0.6202  0.1482  0.1447
 1930SOL    HW117252   3.622   3.180  15.213  0.3234  0.9618  0.8044
 1930SOL    HW217253   3.542   3.280  15.283  1.2358  1.9213  0.2454
 1931SOL     OW17254   0.666   1.449  14.223  0.3626 -0.5787  0.5863
 1931SOL    HW117255   0.582   1.422  14.259 -0.8498  2.6184  0.1539
 1931SOL    HW217256   0.723   1.415  14.292  2.4654  0.4671 -0.6278
 1932SOL     OW17257   0.494   1.804  13.049  0.0247 -0.1807  0.2387
 1932SOL    HW117258   0.560   1.738  13.027  0.1183  0.2777 -0.8136
 1932SOL    HW217259   0.544   1.884  13.033 -0.5734  0.6945  2.7019
 1933SOL     OW17260   1.870   0.858  14.769 -0.5698 -0.6647 -0.2548
 1933SOL    HW117261   1.892   0.946  14.740  1.8838 -1.4400 -0.8149
 1933SOL    HW217262   1.955   0.818  14.790 -0.5517 -0.3186  0.3321
 1934SOL     OW17263   3.473   4.227   8.769  0.0072  0.1554 -0.3202
 1934SOL    HW117264   3.449   4.177   8.848 -0.0935  1.3900  0.4303
 1934SOL    HW217265   3.415   4.302   8.780  0.4122  0.5851 -1.1930
 1935SOL     OW17266   0.024   3.792  13.108  0.1342  0.0094 -0.7674
 1935SOL    HW117267   0.119   3.791  13.121 -0.1922  0.0324  1.5537
 1935SOL    HW217268   4.716   3.812  13.197  0.5575 -1.7425 -0.2433
 1936SOL     OW17269   2.314   1.165   6.246 -0.7936  1.2686  0.2840
 1936SOL    HW117270   2.316   1.124   6.332 -1.1883  2.1527  0.7069
 1936SOL    HW217271   2.226   1.197   6.230 -2.0716 -1.5657  1.5830
 1937SOL     OW17272   0.951   0.799   4.916 -0.0895  0.1884 -0.1155
 1937SOL    HW117273   1.006   0.770   4.988  1.0756  0.4909 -0.8806
 1937SOL    HW217274   1.017   0.811   4.847  1.1190 -2.5276  0.5366
 1938SOL     OW17275   3.986   3.985  16.399  0.1055 -0.2506  0.3177
 1938SOL    HW117276   3.893   3.965  16.387  0.8652 -1.8082 -3.0632
 1938SOL    HW217277   3.999   4.005  16.306  1.0412 -3.2982 -0.1909
 1939SOL     OW17278   3.440   1.585   2.937 -0.0440  0.0445  0.7011
 1939SOL    HW117279   3.396   1.505   2.908  0.9368 -0.9077  1.8712
 1939SOL    HW217280   3.447   1.559   3.029  2.0300 -1.1433  0.1924
 1940SOL     OW17281   1.126   3.910   5.309 -0.0921 -0.2065  0.0030
 1940SOL    HW117282   1.167   3.984   5.355 -0.1826 -0.6697  0.8278
 1940SOL    HW217283   1.169   3.924   5.225  1.0039  1.5244  0.8340
 1941SOL     OW17284   4.681   0.126   2.263  0.3898 -0.1511  0.0634
 1941SOL    HW117285   4.699   0.130   2.168  0.3003  0.9142  0.0862
 1941SOL    HW217286   4.633   0.208   2.278  1.4060  0.6329 -0.9321
 1942SOL     OW17287   4.661   0.633   0.994 -0.0107  0.2354  0.5379
 1942SOL    HW117288   0.035   0.632   0.984 -0.0484 -0.2205  0.1920
 1942SOL    HW217289   4.626   0.704   0.940 -0.8195 -0.7884 -0.2842
 1943SOL     OW17290   2.031   3.808   2.210 -0.2486  0.4087  0.5905
 1943SOL    HW117291   2.076   3.748   2.151  1.6233  2.1297  0.2333
 1943SOL    HW217292   2.024   3.757   2.290 -0.1712  0.2674  0.5066
 1944SOL     OW17293   3.150   3.802   4.684  0.3928 -0.0034 -0.4732
 1944SOL    HW117294   3.100   3.721   4.689 -0.1132  0.2684 -1.2616
 1944SOL    HW217295   3.235   3.764   4.659  1.2926  1.6167  0.1258
 1945SOL     OW17296   1.802   0.268  13.561 -0.2882 -0.6008  0.1189
 1945SOL    HW117297   1.730   0.303  13.613  2.2710  0.2147  3.0821
 1945SOL    HW217298   1.867   0.285  13.629  0.6635 -1.5547 -0.5325
 1946SOL     OW17299   4.189   0.228   7.877  0.2324  0.2167  0.7080
 1946SOL    HW117300   4.193   0.261   7.788  2.1508 -1.6374  0.1065
 1946SOL    HW217301   4.212   0.312   7.917 -2.5118  0.6680  1.3727
 1947SOL     OW17302   0.160   3.928   0.448  0.0213  0.2014  0.0275
 1947SOL    HW117303   0.133   3.837   0.436 -0.2127  0.1013  1.3554
 1947SOL    HW217304   0.100   3.975   0.390  0.5788 -2.2382 -2.5169
 1948SOL     OW17305   0.798   3.411   8.379 -0.5208 -0.7000 -0.1481
 1948SOL    HW117306   0.796   3.319   8.407 -3.2640 -0.4130  0.5712
 1948SOL    HW217307   0.892   3.412   8.358  0.3422 -0.2482  3.7902
 1949SOL     OW17308   0.970   1.276   7.638  0.1051  0.0619 -0.5334
 1949SOL    HW117309   0.918   1.295   7.560  1.4307 -0.0089 -1.4230
 1949SOL    HW217310   0.970   1.181   7.636  1.6781  0.0432  0.2611
 1950SOL     OW17311   4.160   0.729  15.326 -0.5092 -0.7205  0.3787
 1950SOL    HW117312   4.067   0.748  15.336 -0.1492  0.6203  1.2299
 1950SOL    HW217313   4.163   0.723  15.231 -0.3265  0.0671  0.3335
 1951SOL     OW17314   1.446   2.869  10.233  0.1068 -0.5562  0.2683
 1951SOL    HW117315   1.524   2.916  10.202  1.7977 -1.2851  3.3648
 1951SOL    HW217316   1.387   2.923  10.181  1.2388  1.0085  0.6347
 1952SOL     OW17317   1.826   2.643   2.174 -0.2872  0.3467 -0.1237
 1952SOL    HW117318   1.861   2.723   2.135  1.8560 -0.4230  0.1881
 1952SOL    HW217319   1.886   2.578   2.137 -2.2286 -3.4448  3.4374
 1953SOL     OW17320   3.016   4.110   5.291  0.4345 -0.2292 -0.4344
 1953SOL    HW117321   3.085   4.160   5.247 -0.3490  0.7933 -0.4989
 1953SOL    HW217322   3.006   4.031   5.237 -0.0397 -1.8314  2.0116
 1954SOL     OW17323   3.501   2.362   6.366 -0.3179 -0.3520 -0.3680
 1954SOL    HW117324   3.596   2.365   6.358 -0.2314  2.7303  1.9867
 1954SOL    HW217325   3.494   2.307   6.288  0.9513  0.2421 -0.8932
 1955SOL     OW17326   2.770   4.423   8.123  0.0264 -0.1364 -0.5803
 1955SOL    HW117327   2.780   4.466   8.208  1.9955 -2.2735  0.2904
 1955SOL    HW217328   2.863   4.403   8.109  0.5485  2.7732 -1.1984
 1956SOL     OW17329   2.964   2.730   3.712  0.4518 -0.7216  0.3507
 1956SOL    HW117330   3.004   2.681   3.784 -0.0242 -1.0341  0.3986
 1956SOL    HW217331   3.026   2.803   3.710 -0.3732 -0.0490 -0.9924
 1957SOL     OW17332   3.101   0.385  11.945 -0.2851  0.4477 -0.5551
 1957SOL    HW117333   3.090   0.329  12.021 -1.8208  0.3356 -0.8687
 1957SOL    HW217334   3.196   0.378  11.935 -0.4355 -3.4138  0.7526
 1958SOL     OW17335   4.598   0.281   8.470 -0.1063  0.1104  0.3450
 1958SOL    HW117336   4.534   0.300   8.539 -0.6288 -0.1192 -0.0869
 1958SOL    HW217337   4.663   0.232   8.522 -3.7479 -2.3680  2.5619
 1959SOL     OW17338   2.519   1.354   3.101  0.6918 -0.3443  0.3877
 1959SOL    HW117339   2.445   1.343   3.041  0.7547  0.8869  0.0961
 1959SOL    HW217340   2.455   1.354   3.172  0.0379  0.2269 -0.2079
 1960SOL     OW17341   3.260   3.716  15.047  0.6191 -0.3583  0.0620
 1960SOL    HW117342   3.188   3.659  15.076 -0.8030  2.3701  1.8094
 1960SOL    HW217343   3.284   3.652  14.979 -0.3518  1.7949 -2.2893
 1961SOL     OW17344   4.169   3.100   2.483  0.3738 -0.2707  0.5634
 1961SOL    HW117345   4.157   3.011   2.449  0.0526 -0.2938  0.7391
 1961SOL    HW217346   4.129   3.157   2.418  2.2950  0.5595  0.1234
 1962SOL     OW17347   4.082   2.847   5.805 -0.3696  0.1175  0.0652
 1962SOL    HW117348   4.154   2.796   5.767 -2.1353 -0.4526 -2.4807
 1962SOL    HW217349   4.101   2.934   5.771  2.2479 -0.9501 -1.2366
 1963SOL     OW17350   2.480   2.117   4.110 -0.5377  0.1645  0.6824
 1963SOL    HW117351   2.564   2.154   4.081  1.0891 -3.0085  1.3370
 1963SOL    HW217352   2.472   2.119   4.205 -2.1901 -0.1192  0.5421
 1964SOL     OW17353   1.977   4.485   2.770 -0.3874 -0.0567  0.0798
 1964SOL    HW117354   1.935   4.565   2.739 -2.2728 -1.0183  0.1650
 1964SOL    HW217355   2.053   4.528   2.809 -1.3930  2.5026 -0.7685
 1965SOL     OW17356   4.102   2.397   1.624 -0.1196 -0.3525 -0.2903
 1965SOL    HW117357   4.021   2.443   1.646  1.1894  0.2355  3.1884
 1965SOL    HW217358   4.106   2.402   1.528  3.7513  1.0721 -0.0558
 1966SOL     OW17359   0.180   1.527   7.167  0.0422 -0.6673 -0.1591
 1966SOL    HW117360   0.204   1.437   7.143  1.0367 -0.0333 -1.5703
 1966SOL    HW217361   0.093   1.515   7.204  0.9597 -0.1943  2.1187
 1967SOL     OW17362   1.249   3.328   7.347  0.0224 -0.1029 -0.9543
 1967SOL    HW117363   1.300   3.375   7.281 -0.0370 -0.1210 -1.0127
 1967SOL    HW217364   1.309   3.335   7.421 -1.2447  0.1795  0.0473
 1968SOL     OW17365   1.624   2.521   0.095 -0.4306  0.7720  0.4594
 1968SOL    HW117366   1.545   2.574   0.104 -0.4497  1.1127 -1.6894
 1968SOL    HW217367   1.581   2.464   0.032  2.2202 -0.4191 -0.2912
 1969SOL     OW17368   2.415   2.904  16.872  0.2815  0.3558  0.4353
 1969SOL    HW117369   2.387   2.885  16.961  0.7335 -0.0489  0.4942
 1969SOL    HW217370   2.366   2.836  16.825  2.2022 -1.2335  0.7309
 1970SOL     OW17371   3.605   2.771   3.044 -0.1457  0.2705  0.6251
 1970SOL    HW117372   3.674   2.838   3.049  0.0466 -0.0464  2.3494
 1970SOL    HW217373   3.558   2.807   2.969  0.9531  1.0193  0.2992
 1971SOL     OW17374   0.402   1.601  17.220 -0.5731  0.4325  0.6197
 1971SOL    HW117375   0.349   1.526  17.196  0.3512 -0.1655  0.4445
 1971SOL    HW217376   0.438   1.574  17.304  1.2441  3.4514  0.8293
 1972SOL     OW17377   0.062   0.345  17.262  0.5008  0.5106 -0.0929
 1972SOL    HW117378   0.112   0.317  17.186  2.1947  0.5678  0.9985
 1972SOL    HW217379   0.111   0.424  17.284  0.1580  0.6819  0.0685
 1973SOL     OW17380   2.286   1.370  13.205 -0.2191 -0.0075  0.0339
 1973SOL    HW117381   2.222   1.420  13.154 -1.0582  1.7122  2.7782
 1973SOL    HW217382   2.238   1.374  13.288 -0.0015  1.7986  0.0817
 1974SOL     OW17383   3.189   0.311   6.459  0.3483 -0.5514 -0.0749
 1974SOL    HW117384   3.146   0.296   6.375 -0.1409  0.6131 -0.0292
 1974SOL    HW217385   3.246   0.234   6.463 -0.5446 -1.2346 -0.4400
 1975SOL     OW17386   0.369   3.910  16.618  0.3658 -0.2309  0.5505
 1975SOL    HW117387   0.315   3.873  16.688 -0.0726  0.0585  0.3618
 1975SOL    HW217388   0.305   3.913  16.547  0.7283 -1.2272  0.1771
 1976SOL     OW17389   1.398   3.625  10.097  0.3719 -0.0274 -0.2152
 1976SOL    HW117390   1.342   3.698  10.123  0.3970 -0.4190  0.9249
 1976SOL    HW217391   1.345   3.562  10.146  0.0305  0.7411  0.4157
 1977SOL     OW17392   2.235   0.825   4.338 -0.2662 -0.0308  0.1401
 1977SOL    HW117393   2.214   0.819   4.245 -1.4811 -0.9380  0.4742
 1977SOL    HW217394   2.304   0.891   4.325 -1.6224  1.1132 -1.2919
 1978SOL     OW17395   3.577   1.067   7.954 -0.7998 -0.1462 -0.7560
 1978SOL    HW117396   3.513   1.004   7.990 -2.3034  0.5407 -2.2284
 1978SOL    HW217397   3.661   1.052   7.997 -0.3051  1.1161 -1.3098
 1979SOL     OW17398   1.580   3.771  10.258  0.1501 -0.0461  0.7996
 1979SOL    HW117399   1.584   3.689  10.308  0.3764  0.7684  2.1178
 1979SOL    HW217400   1.513   3.752  10.192  0.8611 -1.6903  0.5463
 1980SOL     OW17401   3.518   2.002  12.939  0.1036  0.7477 -0.0007
 1980SOL    HW117402   3.508   2.080  12.884  0.4647 -0.0504 -1.1958
 1980SOL    HW217403   3.520   1.939  12.867 -2.8426  2.8519 -1.9899
 1981SOL     OW17404   1.440   1.897  15.475 -0.4073 -1.0652 -0.8108
 1981SOL    HW117405   1.393   1.933  15.400  0.3796  1.8931  0.1350
 1981SOL    HW217406   1.413   1.806  15.466 -0.7038 -1.0602  0.0050
 1982SOL     OW17407   4.549   3.226   5.400  0.0348 -0.1097 -0.5282
 1982SOL    HW117408   4.613   3.278   5.351 -2.4095  3.5502  0.1194
 1982SOL    HW217409   4.510   3.176   5.329  3.0232 -1.6725 -1.0770
 1983SOL     OW17410   2.929   2.037   4.340  0.0654  0.4337  0.1013
 1983SOL    HW117411   2.919   2.125   4.376  0.9698  0.8069 -0.5652
 1983SOL    HW217412   2.940   2.057   4.247 -1.8936 -0.3883 -0.3083
 1984SOL     OW17413   4.630   1.907   5.740  0.1117 -0.3389  0.0617
 1984SOL    HW117414   4.660   1.880   5.826 -0.0719 -0.2358  0.1579
 1984SOL    HW217415   4.709   1.904   5.686 -1.2147  1.3734 -2.0039
 1985SOL     OW17416   3.820   4.541   2.945  0.4505  0.0471  0.1306
 1985SOL    HW117417   3.854   4.480   2.880 -0.6687 -0.0504 -0.3684
 1985SOL    HW217418   3.794   4.616   2.891 -0.8765  0.3470  1.1780
 1986SOL     OW17419   1.941   3.339   8.087 -0.5537 -0.7273  0.2154
 1986SOL    HW117420   1.887   3.418   8.091 -1.0456 -0.9442 -2.4646
 1986SOL    HW217421   1.985   3.362   8.006  0.0684  0.4858  0.8991
 1987SOL     OW17422   4.092   3.620   9.264 -0.2946  0.6648  0.7243
 1987SOL    HW117423   4.025   3.590   9.202 -0.3807  0.8756  0.7137
 1987SOL    HW217424   4.033   3.644   9.336 -0.7064  0.6921  0.3803
 1988SOL     OW17425   1.471   0.540  13.779  0.0053 -0.4229 -0.0074
 1988SOL    HW117426   1.409   0.494  13.721 -1.8508  0.1205  1.5395
 1988SOL    HW217427   1.532   0.551  13.706  2.4766  0.8045  2.2407
 1989SOL     OW17428   2.302   1.007   1.514 -0.4435 -0.5268 -0.1907
 1989SOL    HW117429   2.318   0.926   1.563  1.3269 -1.0077 -1.5326
 1989SOL    HW217430   2.239   0.978   1.448 -0.6407  0.6892 -0.5353
 1990SOL     OW17431   2.340   3.785  16.930 -0.0699 -0.2864  0.1332
 1990SOL    HW117432   2.401   3.726  16.884  0.0696 -0.5230  0.6267
 1990SOL    HW217433   2.335   3.731  17.009  1.3957 -0.6342 -0.0033
 1991SOL     OW17434   0.220   3.624   6.042 -0.3878 -0.4724  0.6848
 1991SOL    HW117435   0.298   3.669   6.072 -1.6230  1.2539  1.2931
 1991SOL    HW217436   0.259   3.552   5.992  0.8904 -0.3727  1.5564
 1992SOL     OW17437   3.040   2.709  11.946 -0.0693 -0.5205 -0.1430
 1992SOL    HW117438   2.983   2.692  12.021  1.3860  0.3109  1.1276
 1992SOL    HW217439   3.096   2.632  11.940 -0.3880 -0.8423  1.0490
 1993SOL     OW17440   2.158   1.460   9.500 -0.0016 -0.6897 -0.3902
 1993SOL    HW117441   2.179   1.370   9.474 -0.9894 -0.9105 -0.4030
 1993SOL    HW217442   2.200   1.511   9.430 -1.3851 -0.0923 -0.7784
 1994SOL     OW17443   0.328   3.401   5.869 -0.6727 -0.0075 -0.4229
 1994SOL    HW117444   0.276   3.328   5.903 -1.1788  1.2147  1.4089
 1994SOL    HW217445   0.410   3.378   5.912 -0.3507  0.2905 -0.8830
 1995SOL     OW17446   2.312   4.674   3.520 -0.0454  0.5994  0.3769
 1995SOL    HW117447   2.278   4.681   3.430 -0.5194 -0.8072  0.4482
 1995SOL    HW217448   2.388   0.010   3.510 -0.2822  0.8866  0.1702
 1996SOL     OW17449   2.637   1.215   5.376 -0.3638 -0.0215  0.1189
 1996SOL    HW117450   2.559   1.184   5.330  0.6276  0.3849 -1.8049
 1996SOL    HW217451   2.598   1.293   5.416 -1.2783 -0.2049 -0.4084
 1997SOL     OW17452   0.037   3.747  12.516  0.0135  0.0900  0.4994
 1997SOL    HW117453   0.082   3.684  12.460 -1.8118 -1.2563  0.5485
 1997SOL    HW217454   0.082   3.715  12.594  1.3839  1.7238  0.3833
 1998SOL     OW17455   0.436   4.693   1.841  0.0213 -0.8641  0.3120
 1998SOL    HW117456   0.462   4.628   1.907  1.4614  0.6777  1.2716
 1998SOL    HW217457   0.488   0.051   1.859 -0.5919 -0.6919  1.3278
 1999SOL     OW17458   0.933   3.640  15.717  0.5201 -0.4935 -0.1540
 1999SOL    HW117459   0.954   3.728  15.684  1.0567 -0.7472 -0.4978
 1999SOL    HW217460   1.013   3.594  15.692  0.1418  0.1615 -2.5885
 2000SOL     OW17461   0.409   2.512   3.161  0.1372 -0.0209  0.0455
 2000SOL    HW117462   0.386   2.420   3.155  0.8751 -0.2590  1.0452
 2000SOL    HW217463   0.450   2.519   3.074  1.6187 -0.3783  0.7233
 2001SOL     OW17464   2.277   2.661   7.344  0.1462  0.0733 -0.3902
 2001SOL    HW117465   2.215   2.595   7.374  1.2029 -0.3704  0.8450
 2001SOL    HW217466   2.230   2.687   7.265 -1.8619  1.5896  1.3161
 2002SOL     OW17467   0.369   1.870   6.627 -0.2238  0.0668  0.2340
 2002SOL    HW117468   0.398   1.960   6.615  0.2618 -0.2121 -0.6420
 2002SOL    HW217469   0.301   1.868   6.559 -0.0902 -2.3230  0.1513
 2003SOL     OW17470   3.929   2.447   5.487 -0.6204  0.0407 -0.1492
 2003SOL    HW117471   3.933   2.367   5.540 -0.0313 -0.2470 -0.6144
 2003SOL    HW217472   3.872   2.422   5.414 -0.5220  0.1513 -0.2631
 2004SOL     OW17473   3.687   2.075   1.752 -0.1174 -0.0049 -0.7878
 2004SOL    HW117474   3.639   2.156   1.737 -0.9202 -0.1626  0.8662
 2004SOL    HW217475   3.774   2.109   1.773  0.3222 -1.3864 -0.3809
 2005SOL     OW17476   3.001   4.261   7.282  0.0660  0.7587  0.5392
 2005SOL    HW117477   2.974   4.243   7.372 -0.8209  0.6542  0.2603
 2005SOL    HW217478   2.941   4.331   7.255  0.9366  2.4401  2.9204
 2006SOL     OW17479   1.235   0.716   2.490 -0.1264 -0.2037  0.2668
 2006SOL    HW117480   1.326   0.714   2.458  0.0198  0.1277  0.6588
 2006SOL    HW217481   1.199   0.755   2.410 -0.8016 -1.3938 -0.0069
 2007SOL     OW17482   0.360   1.848  15.175 -0.4617 -0.4834  0.0291
 2007SOL    HW117483   0.268   1.858  15.150  0.0122  4.1494  0.0791
 2007SOL    HW217484   0.396   1.791  15.107 -0.5911 -0.0974 -0.3616
 2008SOL     OW17485   2.775   1.353   5.211  0.2101  0.5070 -0.7421
 2008SOL    HW117486   2.734   1.298   5.278  0.0031  1.1271 -0.3589
 2008SOL    HW217487   2.828   1.411   5.265  0.9244  0.0663 -0.9643
 2009SOL     OW17488   2.562   0.331   9.738 -0.1653  0.4803  0.2902
 2009SOL    HW117489   2.542   0.382   9.660  0.9985 -0.5616 -0.6706
 2009SOL    HW217490   2.657   0.342   9.747  0.1076  0.1052 -2.2573
 2010SOL     OW17491   1.146   3.414  17.146  0.3219  0.3715  0.1584
 2010SOL    HW117492   1.213   3.453  17.203  1.7376 -0.7689 -0.7293
 2010SOL    HW217493   1.075   3.398  17.208  0.8385  0.5675  0.8056
 2011SOL     OW17494   2.475   2.794   5.297  0.0898 -0.0733 -0.0302
 2011SOL    HW117495   2.550   2.841   5.332  2.2864 -1.3591 -2.9467
 2011SOL    HW217496   2.438   2.762   5.379 -0.6319 -1.1281 -0.7697
 2012SOL     OW17497   2.795   0.185   6.259 -0.1791  0.0250 -0.1378
 2012SOL    HW117498   2.875   0.238   6.256  0.3329 -0.7206  0.3634
 2012SOL    HW217499   2.769   0.208   6.348 -1.5332 -2.2145  0.0390
 2013SOL     OW17500   0.165   0.828  17.133 -0.4146  0.0391  0.3161
 2013SOL    HW117501   0.191   0.858  17.221  3.2205 -0.5695 -0.5621
 2013SOL    HW217502   0.252   0.811  17.098 -1.3181  0.0580 -1.9118
 2014SOL     OW17503   1.892   1.214   6.065 -0.6769  0.0957  0.2494
 2014SOL    HW117504   1.813   1.257   6.098 -1.1277 -0.4749 -0.0789
 2014SOL    HW217505   1.947   1.221   6.143 -2.1044  0.0493  1.2493
 2015SOL     OW17506   1.493   2.070   1.634  0.2305  0.1663  0.5232
 2015SOL    HW117507   1.485   2.020   1.553 -0.0599 -2.3054  2.0838
 2015SOL    HW217508   1.417   2.039   1.684 -0.5978  1.2765 -0.0461
 2016SOL     OW17509   0.413   3.755   7.861  0.3068 -0.1291  0.1022
 2016SOL    HW117510   0.348   3.703   7.814 -0.4128  0.0882  0.8432
 2016SOL    HW217511   0.396   3.735   7.953 -1.5395 -2.0893 -0.6868
 2017SOL     OW17512   3.811   0.851   0.318 -0.2612 -0.4432  0.1061
 2017SOL    HW117513   3.720   0.820   0.311 -0.6810  0.6140  0.8254
 2017SOL    HW217514   3.792   0.941   0.289  1.6881  0.4497  1.5848
 2018SOL     OW17515   4.182   1.262  10.425 -0.3339 -0.2203 -0.1955
 2018SOL    HW117516   4.253   1.268  10.361  2.0809 -2.2297  2.2369
 2018SOL    HW217517   4.175   1.356  10.442 -2.5992 -0.7927  2.0419
 2019SOL     OW17518   1.722   4.439   6.726 -0.1963 -0.0383 -0.0064
 2019SOL    HW117519   1.687   4.377   6.662  1.1440  0.4403 -1.1890
 2019SOL    HW217520   1.650   4.458   6.786 -1.0462 -0.1661 -0.9906
 2020SOL     OW17521   1.348   1.021   2.252  0.5012  0.2590 -0.4729
 2020SOL    HW117522   1.381   1.090   2.309  0.2767  0.3095 -0.4030
 2020SOL    HW217523   1.328   1.075   2.175 -0.6147 -0.6769 -0.8376
 2021SOL     OW17524   3.023   2.513   5.357 -0.4431  0.8645 -0.0806
 2021SOL    HW117525   2.966   2.456   5.305 -2.0289  3.4012 -1.1407
 2021SOL    HW217526   2.977   2.514   5.440 -1.7143  0.0653 -0.7858
 2022SOL     OW17527   0.990   4.193   2.810 -0.0260  0.0978 -0.2228
 2022SOL    HW117528   1.002   4.179   2.904 -0.0302  1.9649  0.0563
 2022SOL    HW217529   1.070   4.239   2.785  1.3184 -1.6837  0.8074
 2023SOL     OW17530   1.474   3.416  17.051 -0.0173  0.4240  0.4236
 2023SOL    HW117531   1.540   3.410  16.982 -0.4950  1.3760 -0.1218
 2023SOL    HW217532   1.531   3.427  17.127  3.3990 -1.1042 -1.8983
 2024SOL     OW17533   2.795   4.608  14.858 -0.0379 -0.0824  0.1800
 2024SOL    HW117534   2.831   4.520  14.851  0.0704 -0.0323  0.0990
 2024SOL    HW217535   2.795   4.643  14.769 -0.2999 -0.5066  0.0177
 2025SOL     OW17536   1.813   2.481   3.079  0.0048  0.6811 -0.0210
 2025SOL    HW117537   1.867   2.421   3.028 -0.2303  0.3165  0.1627
 2025SOL    HW217538   1.794   2.552   3.018 -0.3506 -0.2703 -1.0132
 2026SOL     OW17539   2.794   1.996   5.266  0.0303  0.3479  0.3289
 2026SOL    HW117540   2.795   2.091   5.256 -0.1834  0.3465  0.2923
 2026SOL    HW217541   2.716   1.977   5.213  2.2403  0.0709 -2.8679
 2027SOL     OW17542   0.264   1.642   3.618 -0.0825 -0.2274 -0.0663
 2027SOL    HW117543   0.266   1.591   3.699 -0.0390  0.9197  0.6479
 2027SOL    HW217544   0.315   1.585   3.560 -1.7978 -2.9590  1.1219
 2028SOL     OW17545   4.409   2.323   6.052 -0.1961  0.2058 -0.5469
 2028SOL    HW117546   4.391   2.258   6.120 -1.6367  2.1789  0.9243
 2028SOL    HW217547   4.503   2.335   6.064  0.0590 -0.5870 -1.7735
 2029SOL     OW17548   1.740   0.776   4.622 -0.5034 -0.0482 -0.0896
 2029SOL    HW117549   1.731   0.685   4.596  1.6082 -0.4144  0.4521
 2029SOL    HW217550   1.826   0.793   4.583  0.2350 -0.2441  1.4458
 2030SOL     OW17551   1.739   2.461   1.107  0.2087 -0.1126 -0.1658
 2030SOL    HW117552   1.686   2.424   1.179 -1.2315  0.9037 -0.6932
 2030SOL    HW217553   1.708   2.551   1.099  1.2087  0.2933  0.5754
 2031SOL     OW17554   3.316   2.875  13.525 -0.1902 -0.2143 -0.0605
 2031SOL    HW117555   3.303   2.792  13.478  0.0623 -0.5953  0.5466
 2031SOL    HW217556   3.234   2.924  13.529  1.1554  2.1908 -2.0473
 2032SOL     OW17557   2.654   4.628   3.628 -0.3951  0.1454  0.7279
 2032SOL    HW117558   2.602   4.585   3.560  0.3745 -0.1133  0.2973
 2032SOL    HW217559   2.613   4.606   3.711 -0.8680 -0.1164  0.4287
 2033SOL     OW17560   1.083   1.136  16.237  0.1371  0.1138 -0.1165
 2033SOL    HW117561   0.989   1.129  16.256  0.3014  0.5507  0.8848
 2033SOL    HW217562   1.080   1.230  16.252 -0.0155 -0.0708  1.0597
 2034SOL     OW17563   4.242   3.918   8.670  0.6246  0.1639  0.4042
 2034SOL    HW117564   4.290   3.951   8.593  0.1750 -0.5458 -0.1792
 2034SOL    HW217565   4.312   3.887   8.727  3.5425  1.6384 -2.3283
 2035SOL     OW17566   3.455   2.898  15.217  0.0290  0.3848  0.1301
 2035SOL    HW117567   3.449   2.944  15.133  0.0724 -0.5064 -0.3675
 2035SOL    HW217568   3.411   2.964  15.270 -1.9497  0.7369 -1.9204
 2036SOL     OW17569   4.292   2.555   1.451 -0.0558 -0.9683  0.2408
 2036SOL    HW117570   4.237   2.633   1.443  1.0219 -0.1516  0.7450
 2036SOL    HW217571   4.226   2.490   1.429  1.1501 -1.9920 -0.3528
 2037SOL     OW17572   2.930   1.841   8.842  0.1860 -0.8374  0.1525
 2037SOL    HW117573   2.994   1.910   8.860 -1.4561  0.7287 -0.1116
 2037SOL    HW217574   2.881   1.885   8.772  3.7052 -1.1719 -2.5486
 2038SOL     OW17575   0.397   1.373  12.996  0.2325  0.6584  0.9228
 2038SOL    HW117576   0.340   1.448  13.012  1.6224  2.0691 -0.6431
 2038SOL    HW217577   0.482   1.398  13.034  0.3510 -0.3370  1.3221
 2039SOL     OW17578   0.511   4.479   2.025 -0.5315 -0.0905  0.6342
 2039SOL    HW117579   0.491   4.500   2.116 -0.9429  1.7352  0.1351
 2039SOL    HW217580   0.551   4.392   2.027 -1.1863 -0.4062 -0.1775
 2040SOL     OW17581   0.219   1.794   3.226  0.3624  0.2491  0.0837
 2040SOL    HW117582   0.311   1.813   3.205 -0.7311  2.4640 -2.6019
 2040SOL    HW217583   0.181   1.881   3.221  0.0818  0.0965 -0.4307
 2041SOL     OW17584   4.319   0.662   6.445 -0.0103  0.1401  0.6612
 2041SOL    HW117585   4.254   0.723   6.479 -0.9898  0.3716 -1.6477
 2041SOL    HW217586   4.320   0.696   6.356  3.3960 -0.5600  0.4189
 2042SOL     OW17587   0.687   2.818   2.254 -0.8200 -0.5378 -0.0649
 2042SOL    HW117588   0.642   2.748   2.301 -1.9919  1.7777  2.2466
 2042SOL    HW217589   0.736   2.755   2.202 -1.3204 -0.2199 -0.9149
 2043SOL     OW17590   3.054   0.321  11.063 -0.4814 -0.0052  0.1664
 2043SOL    HW117591   3.009   0.340  11.145 -0.0676  0.9769  0.1689
 2043SOL    HW217592   2.994   0.340  10.991 -0.1914 -2.2500 -0.6727
 2044SOL     OW17593   2.837   1.858   6.219 -0.1173 -0.0865 -0.1716
 2044SOL    HW117594   2.824   1.837   6.127  4.1625 -2.7361 -0.1560
 2044SOL    HW217595   2.863   1.950   6.215 -0.8560  0.1819  1.4522
 2045SOL     OW17596   0.673   1.922   7.841 -0.5553  0.1615  0.2252
 2045SOL    HW117597   0.695   1.831   7.862  0.2831  0.0407 -1.2038
 2045SOL    HW217598   0.726   1.960   7.911 -1.3651  1.1386  0.3155
 2046SOL     OW17599   1.523   2.175   6.950 -0.6478 -0.5460 -0.4054
 2046SOL    HW117600   1.436   2.169   6.911 -0.5754  1.7896 -0.9434
 2046SOL    HW217601   1.501   2.224   7.029 -1.1555 -0.8584 -0.3530
 2047SOL     OW17602   4.019   0.176   8.271  0.1467  0.0641 -0.3092
 2047SOL    HW117603   4.062   0.127   8.200  0.4755 -0.9522  0.5905
 2047SOL    HW217604   4.068   0.177   8.353  0.2483  2.0785 -0.4020
 2048SOL     OW17605   4.700   0.680   7.032 -0.1171 -0.3288 -0.3162
 2048SOL    HW117606   4.639   0.623   7.079  0.1903  1.1979  1.9310
 2048SOL    HW217607   4.718   0.741   7.104  2.7767 -0.0028 -1.2938
 2049SOL     OW17608   1.183   0.084   0.509 -0.0399 -0.3183  0.0644
 2049SOL    HW117609   1.187   0.153   0.576  0.1060  0.2620 -0.5350
 2049SOL    HW217610   1.112   0.028   0.539 -2.1373  1.8043 -0.9097
 2050SOL     OW17611   2.261   1.817   6.340 -0.3240 -0.1217  0.4327
 2050SOL    HW117612   2.353   1.793   6.333 -0.7556 -0.9581 -2.4512
 2050SOL    HW217613   2.232   1.785   6.426  2.9600  0.8812  1.9167
 2051SOL     OW17614   0.615   3.097  12.351 -0.1171 -0.1421  0.1965
 2051SOL    HW117615   0.624   3.192  12.348 -1.7419  0.0825  2.7538
 2051SOL    HW217616   0.638   3.082  12.442  1.8859 -1.0407 -0.4597
 2052SOL     OW17617   0.755   0.444   7.020 -0.1589  0.2042 -0.1172
 2052SOL    HW117618   0.675   0.473   6.976 -0.8190  0.5045  1.2764
 2052SOL    HW217619   0.791   0.526   7.054  1.4392 -0.6099  0.1314
 2053SOL     OW17620   3.096   4.353   3.729  0.1442  0.4098 -0.7305
 2053SOL    HW117621   3.164   4.311   3.783  0.9398  1.6015 -0.8227
 2053SOL    HW217622   3.040   4.384   3.800 -0.8237 -2.1387 -0.3489
 2054SOL     OW17623   4.043   1.038   7.635  0.1292  0.6597  0.2932
 2054SOL    HW117624   3.964   1.001   7.675  0.0547  1.5309  0.9461
 2054SOL    HW217625   4.010   1.098   7.568 -0.3154 -0.9787 -0.9418
 2055SOL     OW17626   2.372   0.391  14.329 -0.3090 -0.1138 -0.2078
 2055SOL    HW117627   2.342   0.311  14.285  0.4069  0.4445 -1.7397
 2055SOL    HW217628   2.439   0.352  14.385  0.2196  0.8787 -0.1498
 2056SOL     OW17629   1.373   3.558   4.574  0.2184  0.5754  0.0205
 2056SOL    HW117630   1.323   3.594   4.647  1.3613 -0.0814  1.1393
 2056SOL    HW217631   1.316   3.490   4.538  1.9793 -0.4499 -0.8549
 2057SOL     OW17632   0.378   1.413   6.452 -0.0435 -0.6049 -0.1217
 2057SOL    HW117633   0.458   1.444   6.496 -0.0831 -1.8460  0.8294
 2057SOL    HW217634   0.355   1.488   6.397  0.8241  0.5527  1.0878
 2058SOL     OW17635   3.167   4.463   1.501  0.2521 -0.1098 -0.3938
 2058SOL    HW117636   3.099   4.522   1.469 -0.5460 -1.0908 -0.5362
 2058SOL    HW217637   3.119   4.418   1.570 -0.7061 -2.2061 -2.4310
 2059SOL     OW17638   0.091   2.023  15.084  0.3621 -0.2095  0.2769
 2059SOL    HW117639   0.027   2.082  15.045  0.8519 -0.1296 -0.4037
 2059SOL    HW217640   0.090   1.943  15.033 -0.8540 -0.3736  0.5661
 2060SOL     OW17641   3.664   1.990  15.729 -0.1528 -0.0181  0.5911
 2060SOL    HW117642   3.758   1.991  15.712  0.1171 -0.5582  2.0251
 2060SOL    HW217643   3.653   1.915  15.788  1.9878  0.6768  1.8921
 2061SOL     OW17644   2.421   1.439   6.343 -0.3194  0.0046 -0.3208
 2061SOL    HW117645   2.461   1.450   6.430  0.1781  2.1115 -0.8185
 2061SOL    HW217646   2.329   1.447   6.370  0.1547 -2.0015  1.9170
 2062SOL     OW17647   3.059   0.526   9.356 -0.5619 -0.2910  0.2436
 2062SOL    HW117648   3.124   0.469   9.398 -0.3880  0.1616  0.5856
 2062SOL    HW217649   2.983   0.471   9.375 -2.1406  1.1242 -2.0635
 2063SOL     OW17650   4.117   3.594   3.752 -0.6801  0.8099 -0.1044
 2063SOL    HW117651   4.072   3.628   3.830  0.9448 -2.1767  2.1458
 2063SOL    HW217652   4.187   3.539   3.787 -0.8546 -1.1652 -2.9000
 2064SOL     OW17653   0.252   4.624   2.217 -0.7499  0.2100 -0.2705
 2064SOL    HW117654   0.208   4.553   2.263 -0.6965 -0.3949 -1.1563
 2064SOL    HW217655   0.219   4.629   2.128  0.2838  0.3398 -0.6464
 2065SOL     OW17656   3.263   0.524  15.727 -0.3415  1.0937  0.1403
 2065SOL    HW117657   3.280   0.616  15.708  0.5365  1.2309  1.5951
 2065SOL    HW217658   3.196   0.514  15.660 -0.3234 -0.3430  0.3244
 2066SOL     OW17659   4.670   1.273   7.497  0.0973  0.7745  0.9203
 2066SOL    HW117660   0.037   1.309   7.486 -0.7572  2.9122  1.0561
 2066SOL    HW217661   4.637   1.263   7.408  1.0656  0.7261  0.5747
 2067SOL     OW17662   3.099   1.256   3.325  0.3854  0.2789  0.1507
 2067SOL    HW117663   3.090   1.224   3.236 -1.2295 -0.8858  0.7212
 2067SOL    HW217664   3.109   1.350   3.312 -1.5587  0.1563 -2.2321
 2068SOL     OW17665   4.321   1.005   5.849  0.3274 -0.2247 -0.3653
 2068SOL    HW117666   4.271   0.950   5.909 -0.9068 -0.5623 -1.6949
 2068SOL    HW217667   4.356   1.065   5.915 -0.2555 -2.2065  1.7204
 2069SOL     OW17668   0.821   3.198   2.553 -0.3410 -0.4214 -0.4005
 2069SOL    HW117669   0.891   3.133   2.563  0.1472  0.2233  0.4240
 2069SOL    HW217670   0.790   3.215   2.642  2.0639 -0.0237  0.3612
 2070SOL     OW17671   0.252   0.862  11.022 -0.1219  0.1276  0.1484
 2070SOL    HW117672   0.245   0.772  10.991 -0.6301 -0.6665  2.5331
 2070SOL    HW217673   0.190   0.854  11.095 -0.1385 -2.3734 -0.1423
 2071SOL     OW17674   0.498   0.368   4.904  0.2089 -0.5535 -0.3114
 2071SOL    HW117675   0.433   0.321   4.852 -1.5489  0.3606  1.0685
 2071SOL    HW217676   0.479   0.318   4.983 -2.3037 -0.2092 -0.7074
 2072SOL     OW17677   1.599   3.574   5.006 -0.3306  0.2328  0.6951
 2072SOL    HW117678   1.594   3.500   4.945  0.7960 -1.2160  2.3429
 2072SOL    HW217679   1.633   3.529   5.084 -1.0026 -1.9829 -0.2823
 2073SOL     OW17680   3.177   1.281   8.651 -0.3739 -0.3056 -0.1826
 2073SOL    HW117681   3.207   1.307   8.737 -0.9800 -0.7030  0.1504
 2073SOL    HW217682   3.247   1.243   8.599  1.6348  1.0840  1.5084
 2074SOL     OW17683   0.847   3.518  12.092  0.0717  0.4615 -0.2192
 2074SOL    HW117684   0.937   3.509  12.062  0.7300  1.2912  1.5238
 2074SOL    HW217685   0.817   3.593  12.041 -3.0413 -0.2496  0.5435
 2075SOL     OW17686   3.614   3.682  12.497  0.0427 -0.1329 -0.5062
 2075SOL    HW117687   3.701   3.672  12.534 -1.1608  2.3914  3.0201
 2075SOL    HW217688   3.627   3.739  12.421  1.0658  1.5490  0.9372
 2076SOL     OW17689   2.503   3.903   2.249 -0.0077 -0.2242  0.7393
 2076SOL    HW117690   2.440   3.974   2.261 -0.6639 -0.5759 -0.6146
 2076SOL    HW217691   2.451   3.837   2.295 -2.3983  0.4464 -1.0182
 2077SOL     OW17692   0.919   0.267   2.615  0.2843 -0.0217 -0.9786
 2077SOL    HW117693   0.905   0.358   2.587 -2.9022 -0.9519 -2.4876
 2077SOL    HW217694   0.838   0.242   2.660  2.0165 -1.8971  1.0998
 2078SOL     OW17695   3.505   3.262  11.320  0.1845  0.0687 -0.1366
 2078SOL    HW117696   3.553   3.229  11.245  1.3810 -0.3309  0.8012
 2078SOL    HW217697   3.427   3.207  11.313 -0.0600  0.6246 -1.8019
 2079SOL     OW17698   1.249   0.166   8.371 -0.0568  0.3572 -0.3390
 2079SOL    HW117699   1.246   0.202   8.282  1.2664  0.2235 -0.4447
 2079SOL    HW217700   1.158   0.176   8.396  0.5590  0.6000  1.7716
 2080SOL     OW17701   2.842   3.602   6.120 -0.2399  0.4030  0.3480
 2080SOL    HW117702   2.804   3.557   6.044 -1.6245  1.0274  0.6676
 2080SOL    HW217703   2.935   3.597   6.100  0.0010  2.0274  1.0958
 2081SOL     OW17704   2.269   0.740  13.235 -0.4980  0.8504 -0.0972
 2081SOL    HW117705   2.246   0.649  13.255 -2.4996  0.7095 -3.0563
 2081SOL    HW217706   2.359   0.728  13.264 -0.1357 -1.7870 -2.2228
 2082SOL     OW17707   0.537   3.446  16.172 -0.0219 -0.6166  0.3705
 2082SOL    HW117708   0.540   3.429  16.266 -0.8018  0.1424  0.5282
 2082SOL    HW217709   0.546   3.356  16.140  0.0414  0.3549 -2.3238
 2083SOL     OW17710   4.645   3.959  11.211 -0.6097 -0.4606 -0.1407
 2083SOL    HW117711   4.580   3.895  11.180 -0.1567 -1.6592  1.3931
 2083SOL    HW217712   4.615   3.987  11.297 -0.2806 -0.4308 -0.0361
 2084SOL     OW17713   0.706   2.313  16.739  0.1532 -0.2911 -0.1889
 2084SOL    HW117714   0.660   2.230  16.749  0.1217 -0.5381 -2.3695
 2084SOL    HW217715   0.634   2.375  16.729 -1.2098 -2.2624 -2.7612
 2085SOL     OW17716   4.181   0.131   2.631 -0.0038 -0.6170  0.2510
 2085SOL    HW117717   4.180   0.044   2.592  0.1786  0.0881 -1.3494
 2085SOL    HW217718   4.203   0.180   2.552  2.0129 -2.6991 -0.4554
 2086SOL     OW17719   3.366   4.517   1.671  0.1980 -0.1030 -0.3085
 2086SOL    HW117720   3.387   4.610   1.658 -0.6017  0.3486  1.6273
 2086SOL    HW217721   3.295   4.508   1.607  0.4144 -0.9570 -0.4245
 2087SOL     OW17722   0.429   2.458   4.294  0.0825 -0.2634  0.3996
 2087SOL    HW117723   0.360   2.393   4.304  0.8062 -0.7680  2.1644
 2087SOL    HW217724   0.379   2.529   4.255  1.0364 -0.1484 -0.6168
 2088SOL     OW17725   0.084   2.977   9.984 -0.0913 -0.0690  0.7339
 2088SOL    HW117726   0.155   3.040   9.992  0.9010 -1.0583 -0.2341
 2088SOL    HW217727   0.004   3.029   9.997 -0.0381  0.4066 -0.8460
 2089SOL     OW17728   4.365   3.359   8.377  0.1883 -0.4160 -0.1374
 2089SOL    HW117729   4.438   3.296   8.373  1.6996  1.3635 -0.4846
 2089SOL    HW217730   4.404   3.426   8.321  1.0467 -1.4973 -0.8382
 2090SOL     OW17731   1.588   2.425   8.256 -0.2856  0.2584 -0.3748
 2090SOL    HW117732   1.574   2.517   8.280 -1.8509 -0.3608  1.1556
 2090SOL    HW217733   1.620   2.388   8.339  0.0274 -0.3606 -0.7713
 2091SOL     OW17734   4.678   1.610   5.634 -0.3632  0.6749  0.4521
 2091SOL    HW117735   4.594   1.650   5.656 -1.7067 -1.5645 -0.5634
 2091SOL    HW217736   4.690   1.652   5.549 -1.2487  1.5419  0.7629
 2092SOL     OW17737   4.291   4.043   6.454  0.3719  0.2543  0.4485
 2092SOL    HW117738   4.207   4.046   6.407 -0.3277 -1.6365  1.5845
 2092SOL    HW217739   4.339   3.986   6.394 -0.3511 -0.9644  1.0147
 2093SOL     OW17740   0.602   4.408   4.826  0.7562 -0.2125 -0.0366
 2093SOL    HW117741   0.626   4.405   4.919  0.3000 -1.6959  0.0463
 2093SOL    HW217742   0.593   4.499   4.800 -0.5767  0.0809  1.4496
 2094SOL     OW17743   0.578   1.692   6.627  0.1741  0.3011  0.1372
 2094SOL    HW117744   0.516   1.764   6.615 -1.3447 -0.5157  2.9602
 2094SOL    HW217745   0.544   1.637   6.698 -4.5602  2.0080 -0.7633
 2095SOL     OW17746   4.714   3.091   7.408 -0.1644 -0.1034  0.0484
 2095SOL    HW117747   4.628   3.054   7.428 -0.8235  1.7709  0.6942
 2095SOL    HW217748   4.700   3.180   7.440 -2.1153 -0.0894 -0.8122
 2096SOL     OW17749   4.261   2.939  15.378 -0.2145  0.8152  0.8505
 2096SOL    HW117750   4.327   2.899  15.435  0.2015  1.5174  0.8567
 2096SOL    HW217751   4.298   3.013  15.330  0.0858 -0.5294 -0.9737
 2097SOL     OW17752   1.776   1.817  16.854 -0.9000  0.3316 -0.5310
 2097SOL    HW117753   1.859   1.802  16.809 -0.2734 -1.9582  1.3439
 2097SOL    HW217754   1.798   1.768  16.933  2.6373  0.9676 -1.1211
 2098SOL     OW17755   1.718   4.066  15.450 -0.7893  0.1477 -0.3707
 2098SOL    HW117756   1.658   3.993  15.436  1.5944 -1.5477 -1.5903
 2098SOL    HW217757   1.755   4.040  15.535  1.1176  1.4931 -0.7995
 2099SOL     OW17758   4.157   2.049   7.892 -0.0137  0.4456 -0.1644
 2099SOL    HW117759   4.218   1.982   7.860  0.1268  0.2201  0.5759
 2099SOL    HW217760   4.129   2.102   7.818 -5.0706 -0.5552  1.0674
 2100SOL     OW17761   2.610   2.088   6.069  0.4449 -0.6576  0.2277
 2100SOL    HW117762   2.635   1.996   6.054 -3.0473 -1.0797 -2.9942
 2100SOL    HW217763   2.533   2.077   6.125 -0.6051  2.4504 -0.6075
 2101SOL     OW17764   0.354   2.972  12.750 -0.0639  0.4665  0.2326
 2101SOL    HW117765   0.283   3.034  12.735  0.6221  1.7365  2.2124
 2101SOL    HW217766   0.328   2.896  12.698 -1.0463  0.3420  0.8863
 2102SOL     OW17767   4.197   1.382   6.327 -0.9931 -0.1159 -0.0200
 2102SOL    HW117768   4.260   1.389   6.255 -1.1827 -0.5044 -0.2271
 2102SOL    HW217769   4.253   1.372   6.404 -2.9833 -1.4618  1.2692
 2103SOL     OW17770   1.949   1.846  17.087 -0.2774  0.6647  0.3416
 2103SOL    HW117771   2.028   1.839  17.140 -0.0182 -0.3923 -0.1968
 2103SOL    HW217772   1.886   1.858  17.159  0.5087 -0.0187  1.1313
 2104SOL     OW17773   2.638   0.629  12.146  0.4254  0.0741  0.2134
 2104SOL    HW117774   2.718   0.579  12.132  0.1647 -0.3837  0.3601
 2104SOL    HW217775   2.575   0.572  12.101  0.7023  0.3490 -0.5242
 2105SOL     OW17776   1.152   2.552  11.539 -0.3791  0.1448  0.0487
 2105SOL    HW117777   1.099   2.580  11.614 -1.6782  0.4276 -0.9643
 2105SOL    HW217778   1.100   2.483  11.497  0.5914  0.1084 -1.0860
 2106SOL     OW17779   3.618   0.442   6.210 -0.0870 -0.0253  0.4853
 2106SOL    HW117780   3.583   0.397   6.133 -1.6028  1.4986  0.2808
 2106SOL    HW217781   3.640   0.526   6.167  2.4613 -1.0148 -0.1308
 2107SOL     OW17782   2.643   3.407  11.466  0.0850  0.0626  0.0261
 2107SOL    HW117783   2.567   3.390  11.521 -0.5673  1.9472 -0.3121
 2107SOL    HW217784   2.695   3.326  11.464  1.1321  0.7471 -0.7120
 2108SOL     OW17785   4.234   3.378   1.110 -0.4507 -0.8371  0.6243
 2108SOL    HW117786   4.282   3.462   1.108  0.2598 -1.2605 -0.4633
 2108SOL    HW217787   4.159   3.401   1.055  1.4601 -0.5566 -1.8501
 2109SOL     OW17788   3.933   3.770   3.956  0.1758 -0.1423  0.0292
 2109SOL    HW117789   3.902   3.778   3.866 -1.1614  1.7507  0.6519
 2109SOL    HW217790   3.868   3.825   3.999 -0.5752 -0.3315 -0.8488
 2110SOL     OW17791   3.017   4.053   7.068  0.0791  0.0395 -0.1632
 2110SOL    HW117792   3.105   4.017   7.079  0.4914  0.4130 -2.3699
 2110SOL    HW217793   3.012   4.109   7.145  1.2492 -0.4858  0.2919
 2111SOL     OW17794   4.150   1.638   7.806 -0.1725  0.8439  0.6421
 2111SOL    HW117795   4.178   1.548   7.795  2.1740  1.6545  0.1368
 2111SOL    HW217796   4.148   1.648   7.901 -0.0729  2.1088  0.5180
 2112SOL     OW17797   2.858   4.545   8.612 -0.5633 -0.2730 -0.3502
 2112SOL    HW117798   2.950   4.520   8.610 -0.1600  1.2442 -1.3551
 2112SOL    HW217799   2.854   4.578   8.702 -4.2353  1.4588 -1.1480
 2113SOL     OW17800   3.293   3.948  15.272 -0.6162 -0.1827 -0.2943
 2113SOL    HW117801   3.276   3.860  15.241 -2.5013 -1.0333  3.2387
 2113SOL    HW217802   3.267   3.936  15.363  1.5856 -4.3411 -0.2312
 2114SOL     OW17803   1.335   0.463   3.645 -0.0710  0.4534 -0.2729
 2114SOL    HW117804   1.413   0.516   3.661  1.0707 -1.0301 -0.8822
 2114SOL    HW217805   1.348   0.374   3.679 -2.7226 -0.7514 -2.4164
 2115SOL     OW17806   2.546   1.642  12.549  0.0785 -0.1262 -0.3749
 2115SOL    HW117807   2.473   1.699  12.528 -1.0650 -1.9252 -1.3008
 2115SOL    HW217808   2.544   1.579  12.477  1.7904  0.6842 -1.1278
 2116SOL     OW17809   0.500   1.347   3.990  0.5315  0.1843  0.6924
 2116SOL    HW117810   0.516   1.376   3.899  2.2768 -1.7602  0.3825
 2116SOL    HW217811   0.434   1.407   4.025 -0.6921  0.5206 -2.1680
 2117SOL     OW17812   4.612   1.045  16.451  0.5637  0.1755  0.2758
 2117SOL    HW117813   4.673   1.036  16.377 -1.2984  0.5659 -1.2999
 2117SOL    HW217814   4.595   0.955  16.478  0.8321 -0.1123 -0.5139
 2118SOL     OW17815   3.753   4.107   5.928  0.8824  0.0997  0.2099
 2118SOL    HW117816   3.795   4.037   5.979  0.1746 -0.6728 -0.2506
 2118SOL    HW217817   3.683   4.129   5.990  0.2998 -0.0810 -0.3817
 2119SOL     OW17818   2.563   1.151   0.949  0.2177  0.1176 -0.0162
 2119SOL    HW117819   2.622   1.119   1.018  1.1615 -0.3131 -1.0150
 2119SOL    HW217820   2.622   1.183   0.881  0.0106  1.1483  0.2887
 2120SOL     OW17821   2.222   1.216  15.780 -0.4110  0.4257  0.4947
 2120SOL    HW117822   2.199   1.263  15.700  2.9654 -1.1138 -1.4225
 2120SOL    HW217823   2.214   1.291  15.839  1.1025 -0.5381  1.9365
 2121SOL     OW17824   3.821   4.453   2.446 -0.1409 -0.2695 -0.3831
 2121SOL    HW117825   3.815   4.543   2.413 -1.6108  0.0350  0.6849
 2121SOL    HW217826   3.801   4.397   2.372 -0.1694 -0.5542 -0.1600
 2122SOL     OW17827   4.363   2.534   6.526 -0.9093  0.0107 -0.2666
 2122SOL    HW117828   4.306   2.544   6.450 -2.0041  1.2233  0.7334
 2122SOL    HW217829   4.292   2.520   6.588 -0.9230 -3.9407 -1.1692
 2123SOL     OW17830   1.308   0.162   5.526  0.4172  0.2999  0.0137
 2123SOL    HW117831   1.385   0.158   5.583 -0.7806  0.0278  1.6088
 2123SOL    HW217832   1.345   0.140   5.441  0.6447 -2.9335  0.9616
 2124SOL     OW17833   4.495   4.605   6.652  0.2168 -0.1897  0.2134
 2124SOL    HW117834   4.541   4.640   6.729 -0.6512  0.0685  0.6178
 2124SOL    HW217835   4.573   4.594   6.598  0.2384  0.7705  0.0451
 2125SOL     OW17836   2.972   1.264   5.020  0.9067  0.2415 -0.6000
 2125SOL    HW117837   2.889   1.294   5.057  1.2458  1.3861 -0.7539
 2125SOL    HW217838   3.014   1.349   5.036 -0.0612  0.6944 -0.4491
 2126SOL     OW17839   0.230   0.121   5.284 -0.2566  0.5474  0.4229
 2126SOL    HW117840   0.136   0.100   5.280  0.8511 -4.4259  0.2012
 2126SOL    HW217841   0.261   0.050   5.340  0.5914  0.6082  0.0215
 2127SOL     OW17842   3.068   1.591   2.867 -0.0159  0.5112 -0.1995
 2127SOL    HW117843   3.017   1.562   2.942 -0.2881  0.3553 -0.4465
 2127SOL    HW217844   3.064   1.685   2.886 -2.3526  0.1951  0.8619
 2128SOL     OW17845   4.106   1.600   3.295 -0.1433 -0.3397  0.1232
 2128SOL    HW117846   4.068   1.565   3.376 -2.8582  0.5430 -0.7840
 2128SOL    HW217847   4.164   1.525   3.282  0.2223  0.5465 -3.1635
 2129SOL     OW17848   1.930   0.321   5.045  0.0512 -0.2206  0.3751
 2129SOL    HW117849   1.853   0.273   5.014 -0.2079 -0.1208  0.8723
 2129SOL    HW217850   1.947   0.395   4.986 -0.7320 -1.0919 -0.9738
 2130SOL     OW17851   4.380   1.888  11.582  0.4573 -0.4025  0.1733
 2130SOL    HW117852   4.329   1.957  11.541  2.0029 -0.7524 -2.3382
 2130SOL    HW217853   4.465   1.931  11.587  0.4770 -0.1958 -2.0397
 2131SOL     OW17854   2.503   0.750   6.835  0.3412 -0.0375  0.6285
 2131SOL    HW117855   2.557   0.772   6.759 -0.4169  0.1231  0.1282
 2131SOL    HW217856   2.546   0.808   6.898 -1.6695  1.4237  0.6678
 2132SOL     OW17857   3.624   3.391  13.698 -0.3310  0.4283 -0.2443
 2132SOL    HW117858   3.698   3.379  13.757  0.3036  1.3977 -0.8446
 2132SOL    HW217859   3.587   3.304  13.715  0.6834 -0.1807 -1.2207
 2133SOL     OW17860   1.639   4.226   5.402  0.4235  0.2209 -0.1051
 2133SOL    HW117861   1.599   4.228   5.489 -2.9900  1.1790 -1.6904
 2133SOL    HW217862   1.704   4.157   5.413 -1.9569 -2.4126 -2.4056
 2134SOL     OW17863   3.193   3.595  12.394 -0.2959  0.6087  0.4067
 2134SOL    HW117864   3.142   3.600  12.313 -0.6505  1.1659  0.6646
 2134SOL    HW217865   3.282   3.576  12.366 -0.3280  1.3345 -0.2050
 2135SOL     OW17866   1.988   3.076  11.526 -0.3030 -0.2158  0.4093
 2135SOL    HW117867   1.907   3.057  11.572 -0.2394 -1.0222  0.1963
 2135SOL    HW217868   1.954   3.143  11.467  1.0945 -1.0643 -1.3691
 2136SOL     OW17869   0.983   4.424   9.007  0.0933  0.2009 -0.5209
 2136SOL    HW117870   0.912   4.479   8.973 -0.1414  0.2210  0.0019
 2136SOL    HW217871   0.975   4.442   9.101  1.2740 -2.3672  0.0702
 2137SOL     OW17872   3.712   0.085  16.719  0.1553 -0.2839  0.0171
 2137SOL    HW117873   3.635   0.044  16.759 -0.7554  1.4767  0.0839
 2137SOL    HW217874   3.753   0.132  16.792 -0.0408 -0.3893  0.1980
 2138SOL     OW17875   3.063   1.304   3.073  0.6268  0.0245  0.0841
 2138SOL    HW117876   3.021   1.221   3.052 -2.0643  1.2438  0.6495
 2138SOL    HW217877   2.999   1.342   3.133  1.4727 -0.1342  1.1105
 2139SOL     OW17878   3.356   0.217   8.411  0.4607 -0.4247 -0.3321
 2139SOL    HW117879   3.408   0.187   8.486  0.3924 -4.0708 -1.7353
 2139SOL    HW217880   3.407   0.165   8.349  0.8389 -0.3150 -0.1152
 2140SOL     OW17881   1.551   3.406   8.288  0.4237 -0.2147 -0.3464
 2140SOL    HW117882   1.593   3.324   8.315 -0.5737 -0.3087  0.9244
 2140SOL    HW217883   1.618   3.463   8.250 -0.0307  1.4878  1.3634
 2141SOL     OW17884   4.078   4.287   9.865  0.1148 -0.4616 -0.0327
 2141SOL    HW117885   4.015   4.310   9.797  0.3666 -2.2434 -0.8538
 2141SOL    HW217886   4.022   4.275   9.942  1.2903  2.3603  1.2737
 2142SOL     OW17887   2.031   2.440   2.179 -0.4137  0.6940  0.0255
 2142SOL    HW117888   2.078   2.523   2.189 -0.3930  0.7663 -0.6692
 2142SOL    HW217889   2.035   2.419   2.272 -2.0739  1.9078  0.3935
 2143SOL     OW17890   2.889   4.053   4.060  0.0769 -0.2473  0.0833
 2143SOL    HW117891   2.918   4.141   4.035 -0.7691  0.0721  0.2251
 2143SOL    HW217892   2.878   4.073   4.153  0.4558 -1.9748  0.5066
 2144SOL     OW17893   3.649   4.084   5.690  0.2341 -0.1201  0.7314
 2144SOL    HW117894   3.571   4.041   5.724 -1.8020  3.2256  0.2429
 2144SOL    HW217895   3.690   4.091   5.776  1.5575 -1.2004  0.1951
 2145SOL     OW17896   3.852   4.621   0.716  0.0134 -0.0751  0.2921
 2145SOL    HW117897   3.851   4.527   0.699 -2.0660  0.1270 -0.8156
 2145SOL    HW217898   3.896   4.658   0.639  1.8442 -0.5339  1.1262
 2146SOL     OW17899   1.119   0.739  12.133  0.3931  0.0762 -0.5091
 2146SOL    HW117900   1.046   0.694  12.176 -0.5418 -0.0679 -2.2665
 2146SOL    HW217901   1.114   0.822  12.180 -0.3683 -0.0514 -0.3754
 2147SOL     OW17902   1.190   1.723   0.801 -1.1427 -0.4410 -0.3241
 2147SOL    HW117903   1.130   1.796   0.787  0.6931  0.9746 -0.7512
 2147SOL    HW217904   1.168   1.669   0.725 -1.6961 -0.3794 -0.2107
 2148SOL     OW17905   1.369   4.504  12.109 -0.0227  0.0329  0.3083
 2148SOL    HW117906   1.303   4.554  12.157 -2.2540 -3.4234  0.7698
 2148SOL    HW217907   1.410   4.461  12.184  0.2070 -1.3927 -0.6473
 2149SOL     OW17908   0.765   2.821   6.385 -0.7163  0.4685  0.5164
 2149SOL    HW117909   0.684   2.866   6.411 -0.8865 -0.3252  1.3491
 2149SOL    HW217910   0.814   2.828   6.467 -0.6547  0.5899  0.4693
 2150SOL     OW17911   0.428   1.292   7.222  0.4901  1.0268  0.2381
 2150SOL    HW117912   0.519   1.281   7.195  0.8771  0.9695  1.5474
 2150SOL    HW217913   0.387   1.299   7.136 -0.7215 -2.7643  0.5077
 2151SOL     OW17914   1.967   2.100  17.343 -0.1139  0.1673 -0.6411
 2151SOL    HW117915   1.956   2.193  17.363  0.9300  0.3345 -0.8388
 2151SOL    HW217916   2.060   2.103  17.320 -0.3363  1.0198 -1.4776
 2152SOL     OW17917   4.394   1.111   4.502  0.3744 -0.3849  0.3051
 2152SOL    HW117918   4.358   1.133   4.588  2.7085  1.6197  0.7724
 2152SOL    HW217919   4.321   1.142   4.448 -0.7143 -0.4759  1.7170
 2153SOL     OW17920   4.570   0.071   9.063 -0.2188  0.2215 -0.0888
 2153SOL    HW117921   4.513   0.061   8.987  0.0378  0.8474 -0.3655
 2153SOL    HW217922   4.629   0.133   9.021 -0.3666  0.1462 -0.4067
 2154SOL     OW17923   0.731   3.394  14.496 -0.2537 -0.0180 -0.2366
 2154SOL    HW117924   0.673   3.451  14.446 -1.0075  0.6426  1.4029
 2154SOL    HW217925   0.688   3.308  14.497 -3.8208  1.8146  1.6587
 2155SOL     OW17926   1.618   0.541   5.000 -0.2004 -0.0098 -0.3304
 2155SOL    HW117927   1.697   0.594   4.992  1.3654 -1.9327  2.3303
 2155SOL    HW217928   1.633   0.486   5.077  0.9672  1.4087  0.4659
 2156SOL     OW17929   0.119   2.206   5.058 -0.4294  0.2102 -0.2497
 2156SOL    HW117930   0.120   2.302   5.053  2.6364  0.2637  1.2662
 2156SOL    HW217931   0.202   2.190   5.103 -0.0684  0.0961 -0.9643
 2157SOL     OW17932   2.710   3.072   1.121  0.7165  0.2062  0.4471
 2157SOL    HW117933   2.767   3.025   1.061 -1.0395 -0.6979 -0.5003
 2157SOL    HW217934   2.718   3.160   1.083 -0.8338  0.1215 -0.1084
 2158SOL     OW17935   0.034   4.677  17.640 -0.2121  0.0925 -0.3155
 2158SOL    HW117936   4.664   4.651  17.653 -0.0929  0.2338  0.7716
 2158SOL    HW217937   0.034   0.022  17.569  0.2050  0.3714 -0.0618
 2159SOL     OW17938   0.414   2.965   4.175 -0.1041  0.8401  0.2509
 2159SOL    HW117939   0.390   3.009   4.256  0.6478  1.5445  0.0895
 2159SOL    HW217940   0.507   2.987   4.164 -0.1196  1.3223  1.0784
 2160SOL     OW17941   4.189   1.838   3.889  0.1783  0.3757 -0.1856
 2160SOL    HW117942   4.257   1.892   3.930  2.1247 -0.7596 -1.9326
 2160SOL    HW217943   4.231   1.753   3.908 -1.2985 -0.5414 -1.0768
 2161SOL     OW17944   3.632   2.589  11.068  0.2543 -0.5359 -0.4592
 2161SOL    HW117945   3.646   2.495  11.056  1.6073 -0.4923  0.7583
 2161SOL    HW217946   3.639   2.629  10.982 -0.0726 -0.2753 -0.3661
 2162SOL     OW17947   1.449   0.945   3.727  0.6229 -0.0150  0.0913
 2162SOL    HW117948   1.532   0.993   3.715 -0.7867  2.3019 -0.3928
 2162SOL    HW217949   1.436   0.901   3.643 -0.0205 -2.7265  1.6175
 2163SOL     OW17950   1.884   3.947   4.715 -0.6573 -0.5286  0.0580
 2163SOL    HW117951   1.872   3.865   4.764  1.5946 -1.3231 -0.7128
 2163SOL    HW217952   1.901   4.012   4.783  0.1664 -0.7073  0.0257
 2164SOL     OW17953   3.781   2.621   2.800  0.4766  0.2789 -0.0274
 2164SOL    HW117954   3.686   2.620   2.802  0.5113 -1.4758  1.3695
 2164SOL    HW217955   3.804   2.571   2.722  5.0749  0.6502  1.0455
 2165SOL     OW17956   2.512   4.529  14.525  0.3781 -0.6568 -0.1409
 2165SOL    HW117957   2.504   4.440  14.490 -1.5801  0.3584 -2.3171
 2165SOL    HW217958   2.510   4.585  14.447 -0.2313 -0.2248  0.1813
 2166SOL     OW17959   0.734   2.614   3.004  0.1004 -0.2276  0.3983
 2166SOL    HW117960   0.736   2.522   3.030 -1.8382 -0.9422 -1.9471
 2166SOL    HW217961   0.827   2.637   3.000  0.2792 -0.8243  1.0879
 2167SOL     OW17962   2.417   4.021  10.033 -0.3037 -0.2651  0.0841
 2167SOL    HW117963   2.403   4.011   9.939 -0.3732 -1.0213  0.1755
 2167SOL    HW217964   2.368   4.103  10.037 -2.6045 -1.7709  2.3775
 2168SOL     OW17965   1.830   3.072   7.290  0.2511  0.2579 -0.1407
 2168SOL    HW117966   1.902   3.060   7.353  0.2846  0.9983 -0.0371
 2168SOL    HW217967   1.817   3.166   7.297  1.1687  0.5571 -2.5191
 2169SOL     OW17968   1.801   1.133   3.972 -0.1118  0.1350 -0.3985
 2169SOL    HW117969   1.718   1.180   3.985  0.1301  0.2688  0.6185
 2169SOL    HW217970   1.777   1.042   3.988  1.7641 -0.3629 -0.4141
 2170SOL     OW17971   0.753   0.051   4.435  0.3848 -0.4425  0.1483
 2170SOL    HW117972   0.831   0.049   4.490  0.7307 -0.8418 -0.3415
 2170SOL    HW217973   0.690   4.714   4.478 -1.4081  1.7950  0.5003
 2171SOL     OW17974   0.791   0.953   8.817  0.1195 -0.1591 -0.0354
 2171SOL    HW117975   0.865   1.002   8.851 -0.5365  0.5940  0.2839
 2171SOL    HW217976   0.835   0.869   8.805 -0.4034 -0.2866 -1.0993
 2172SOL     OW17977   3.126   3.694   7.878  0.1909  0.7052  0.3274
 2172SOL    HW117978   3.050   3.694   7.819  0.1352 -1.1181  0.3960
 2172SOL    HW217979   3.094   3.653   7.958  1.5281  0.3724  0.6928
 2173SOL     OW17980   1.184   0.815   3.942  0.1115 -0.3591  0.0627
 2173SOL    HW117981   1.220   0.761   4.012  0.7257  0.3022  0.2575
 2173SOL    HW217982   1.109   0.855   3.985 -0.9171 -1.4598 -0.6920
 2174SOL     OW17983   1.051   0.216   3.961 -0.5881  0.0185  0.4495
 2174SOL    HW117984   1.052   0.309   3.937 -1.2996 -0.3022 -0.8226
 2174SOL    HW217985   1.082   0.186   3.876 -0.0894 -0.3472  0.7587
 2175SOL     OW17986   3.437   1.311   7.511  0.7568 -0.5246 -0.4187
 2175SOL    HW117987   3.510   1.370   7.528 -1.1204  1.5009  0.6210
 2175SOL    HW217988   3.476   1.237   7.557  1.9029  0.7764  0.6677
 2176SOL     OW17989   4.306   4.081   4.468  0.2176 -0.2694  0.1166
 2176SOL    HW117990   4.282   4.026   4.393  0.3341 -0.4831  0.2347
 2176SOL    HW217991   4.302   4.020   4.543  2.7088 -1.6761 -0.8958
 2177SOL     OW17992   3.217   3.819   8.820  0.2589 -0.0662 -0.4592
 2177SOL    HW117993   3.135   3.770   8.823  2.1212 -3.1788 -0.4097
 2177SOL    HW217994   3.194   3.904   8.857  0.8964  0.1228 -0.4870
 2178SOL     OW17995   3.772   0.063  10.163 -0.1721 -0.6093  0.2101
 2178SOL    HW117996   3.788   0.097  10.075 -0.0155  0.7755  0.7765
 2178SOL    HW217997   3.712   0.128  10.200  0.3567  0.4824 -0.8649
 2179SOL     OW17998   3.430   1.136   8.285 -0.3134  0.3299  0.9591
 2179SOL    HW117999   3.334   1.135   8.294 -0.4670  0.0033 -0.6953
 2179SOL    HW218000   3.445   1.041   8.283 -0.8172  0.2463  1.2117
 2180SOL     OW18001   2.888   2.211  15.896  0.4230  0.1930 -0.5035
 2180SOL    HW118002   2.960   2.226  15.835 -0.4987  0.3559 -1.5539
 2180SOL    HW218003   2.936   2.157  15.959 -2.0572 -1.4933 -0.0358
 2181SOL     OW18004   1.871   0.095   7.694 -0.3812  0.3286 -0.3459
 2181SOL    HW118005   1.903   0.109   7.605 -0.7078 -1.9785 -0.8260
 2181SOL    HW218006   1.921   0.014   7.708 -2.1750 -0.4354  1.6021
 2182SOL     OW18007   3.661   1.072  17.304  0.2372 -0.0449 -0.0630
 2182SOL    HW118008   3.655   1.150  17.249  0.1611 -0.4335 -0.6131
 2182SOL    HW218009   3.725   1.098  17.370 -0.3627  0.1080  0.4604
 2183SOL     OW18010   4.102   3.056   2.758  0.2645 -0.4402  0.3871
 2183SOL    HW118011   4.125   3.066   2.665 -0.8289  0.5632  0.2263
 2183SOL    HW218012   4.059   2.971   2.754 -2.0787  0.7496  0.4813
 2184SOL     OW18013   1.848   3.446   3.930 -0.2763  0.4517 -0.0497
 2184SOL    HW118014   1.846   3.534   3.893  1.9630  1.0918  1.2907
 2184SOL    HW218015   1.782   3.406   3.873 -1.6577  0.8232  1.2906
 2185SOL     OW18016   1.111   0.731   1.438  0.1848 -0.0646 -0.0354
 2185SOL    HW118017   1.044   0.760   1.376 -0.4319 -1.6298 -0.1051
 2185SOL    HW218018   1.146   0.659   1.385 -0.5195  0.1178 -0.7459
 2186SOL     OW18019   0.355   2.435   5.036  0.3828  0.4113 -0.0379
 2186SOL    HW118020   0.367   2.360   5.094 -0.1375  0.9924  0.8107
 2186SOL    HW218021   0.368   2.400   4.947  1.0005 -0.0096  0.2155
 2187SOL     OW18022   1.450   0.602   4.337 -0.2928 -0.3988  0.0088
 2187SOL    HW118023   1.408   0.620   4.421  0.1300 -0.9417  0.3336
 2187SOL    HW218024   1.492   0.516   4.340 -0.3398 -0.4288 -0.1973
 2188SOL     OW18025   3.197   4.601   2.582 -0.5511  0.5545  0.4252
 2188SOL    HW118026   3.132   4.648   2.530  0.7562  1.1180 -0.6773
 2188SOL    HW218027   3.238   4.528   2.535 -3.5616 -1.0411  0.2524
 2189SOL     OW18028   1.260   4.159   8.512 -0.5879  0.5215 -0.0572
 2189SOL    HW118029   1.201   4.232   8.532  0.3997  0.7910  1.9090
 2189SOL    HW218030   1.236   4.133   8.423 -0.7034 -0.7059  0.3415
 2190SOL     OW18031   2.089   0.304   6.667 -0.1632 -0.1949 -0.5031
 2190SOL    HW118032   2.132   0.343   6.592  0.3295  0.9618  0.3845
 2190SOL    HW218033   2.168   0.306   6.721 -0.9229  2.9268  0.4947
 2191SOL     OW18034   3.208   2.707   5.268  0.1860 -0.2909  0.5111
 2191SOL    HW118035   3.272   2.637   5.281  0.1928 -0.4795 -0.5433
 2191SOL    HW218036   3.129   2.653   5.267 -0.2032  0.2775  0.6117
 2192SOL     OW18037   3.513   4.021  11.707  0.7922  0.5729 -0.7748
 2192SOL    HW118038   3.460   3.942  11.699 -1.0809  1.8286 -0.7889
 2192SOL    HW218039   3.447   4.082  11.738  2.3060  0.4819  2.6085
 2193SOL     OW18040   1.181   0.819   2.260  0.3509  0.4663 -0.2352
 2193SOL    HW118041   1.239   0.895   2.257  0.2025  0.5889  0.0047
 2193SOL    HW218042   1.110   0.851   2.205  1.3082  2.0866 -0.5495
 2194SOL     OW18043   0.969   1.720  12.180 -0.1835 -0.5619 -0.1120
 2194SOL    HW118044   0.968   1.680  12.093  1.1455 -1.3419  0.2172
 2194SOL    HW218045   0.879   1.729  12.209 -0.5138 -3.1365 -0.3037
 2195SOL     OW18046   2.311   0.439   7.927 -0.5377  0.5899  0.0522
 2195SOL    HW118047   2.365   0.410   7.853  1.6270 -0.7952  2.1833
 2195SOL    HW218048   2.364   0.416   8.003  1.1012 -0.4422 -1.3858
 2196SOL     OW18049   2.628   2.349  17.594 -0.1062 -0.1183 -0.4206
 2196SOL    HW118050   2.664   2.436  17.607  0.3264 -0.3602  0.0268
 2196SOL    HW218051   2.535   2.368  17.584  0.3512  1.1885 -2.1325
 2197SOL     OW18052   2.016   2.384   8.597 -0.0618  0.2668  0.3322
 2197SOL    HW118053   2.083   2.317   8.582  0.2904  0.7072 -0.0221
 2197SOL    HW218054   1.983   2.386   8.508 -0.1094  2.2042  0.4105
 2198SOL     OW18055   3.537   2.524  13.267 -0.2000 -0.4723 -0.1210
 2198SOL    HW118056   3.621   2.565  13.285 -1.0882  2.0135 -1.7817
 2198SOL    HW218057   3.557   2.466  13.194  1.0831 -0.7947  0.4854
 2199SOL     OW18058   0.765   4.251   1.346 -0.4575  0.4470 -0.1184
 2199SOL    HW118059   0.794   4.264   1.437 -2.3728 -1.8440  0.8214
 2199SOL    HW218060   0.686   4.306   1.352 -0.2814  0.6412  0.4442
 2200SOL     OW18061   4.506   0.576   8.864 -0.3667 -0.6577 -0.2628
 2200SOL    HW118062   4.588   0.609   8.901 -0.1947 -0.7689 -0.5459
 2200SOL    HW218063   4.503   0.615   8.776  0.2830 -2.2163 -0.9794
 2201SOL     OW18064   2.526   0.739   8.119  0.4288 -0.0541  0.0884
 2201SOL    HW118065   2.431   0.729   8.119  0.4046  0.1933 -0.1005
 2201SOL    HW218066   2.541   0.762   8.211 -2.7543 -0.7177  0.7842
 2202SOL     OW18067   3.134   4.258   8.574 -0.4655 -0.3962  0.2508
 2202SOL    HW118068   3.113   4.239   8.665 -1.6662  2.2856  0.5326
 2202SOL    HW218069   3.129   4.353   8.587 -1.8212 -0.3230 -0.8360
 2203SOL     OW18070   4.542   4.444  12.545 -0.5113 -0.4561  0.6111
 2203SOL    HW118071   4.601   4.479  12.478 -0.0315 -0.7167  0.8945
 2203SOL    HW218072   4.489   4.382  12.496 -2.2889  0.6054  1.1782
 2204SOL     OW18073   0.376   3.035   2.666  0.1860 -0.3627 -0.2473
 2204SOL    HW118074   0.379   2.964   2.601 -1.3221 -0.0322 -0.6698
 2204SOL    HW218075   0.351   2.987   2.745  1.6907  0.3233  0.6495
 2205SOL     OW18076   0.986   4.398   1.098 -0.4432 -0.5030 -0.1781
 2205SOL    HW118077   1.007   4.336   1.028  0.2427 -0.2387 -0.2098
 2205SOL    HW218078   0.933   4.354   1.164 -2.7066 -1.2915 -2.5225
 2206SOL     OW18079   3.355   4.092   9.992  0.2564 -0.2394  0.1290
 2206SOL    HW118080   3.325   4.002  10.007  2.0079 -1.4338 -3.5650
 2206SOL    HW218081   3.451   4.087  10.002  0.3966  0.5310 -0.8622
 2207SOL     OW18082   2.076   1.335   0.551 -0.2364  0.3740 -0.1659
 2207SOL    HW118083   2.139   1.405   0.532 -0.1111  0.3436  0.1447
 2207SOL    HW218084   2.125   1.254   0.539  1.2834  1.2604  0.0759
 2208SOL     OW18085   4.100   0.878  13.033  0.1315  0.4896  0.2290
 2208SOL    HW118086   4.097   0.829  13.116  1.9886 -1.4667 -0.8262
 2208SOL    HW218087   4.011   0.860  13.005 -0.3656  1.9408  0.8730
 2209SOL     OW18088   2.245   3.689   2.073 -0.3951  0.3181 -0.3402
 2209SOL    HW118089   2.307   3.719   2.006 -0.1464 -1.2867 -0.8385
 2209SOL    HW218090   2.276   3.728   2.155 -0.3439 -1.0887  0.2966
 2210SOL     OW18091   0.327   4.474   6.559  0.1925 -0.4521 -0.2266
 2210SOL    HW118092   0.349   4.381   6.550  1.6421 -0.1881  0.6339
 2210SOL    HW218093   0.317   4.485   6.465  1.0337 -0.0830 -0.2646
 2211SOL     OW18094   1.690   4.571   9.524  0.1012  0.1208 -0.1335
 2211SOL    HW118095   1.634   4.636   9.567  0.3305 -0.1028  0.5064
 2211SOL    HW218096   1.631   4.495   9.530 -2.5626  2.3781  2.5162
 2212SOL     OW18097   1.180   4.290   2.245 -0.3955 -0.2928  0.2525
 2212SOL    HW118098   1.269   4.255   2.249  0.3029  1.2613 -1.6848
 2212SOL    HW218099   1.189   4.384   2.258 -1.5221  0.0106 -1.1098
 2213SOL     OW18100   3.521   0.833   7.618  0.3261  0.2548 -0.0748
 2213SOL    HW118101   3.440   0.842   7.668  0.2620 -2.0669  0.2120
 2213SOL    HW218102   3.506   0.749   7.575  0.1898  0.2830 -0.0802
 2214SOL     OW18103   0.213   3.904   4.756  0.2732 -0.3943 -0.5182
 2214SOL    HW118104   0.133   3.887   4.708  0.9051 -2.7620 -0.7358
 2214SOL    HW218105   0.279   3.844   4.720 -0.1578 -0.3510 -1.3617
 2215SOL     OW18106   2.600   1.314   2.067 -0.8853  0.0529 -0.5298
 2215SOL    HW118107   2.565   1.398   2.098  2.4034  0.1791  2.9140
 2215SOL    HW218108   2.613   1.262   2.146 -2.4337 -0.8102 -0.8436
 2216SOL     OW18109   4.441   4.174   3.679 -0.1954 -0.1823 -0.7972
 2216SOL    HW118110   4.348   4.181   3.655  0.1013  3.0629 -0.9752
 2216SOL    HW218111   4.446   4.252   3.733 -1.7857  0.0207 -0.9351
 2217SOL     OW18112   0.231   4.455   8.920 -0.1894  0.3914 -0.8188
 2217SOL    HW118113   0.140   4.482   8.931 -0.7759 -1.1651 -1.8237
 2217SOL    HW218114   0.217   4.413   8.835  0.1240  1.8742 -1.6107
 2218SOL     OW18115   2.406   1.022  12.422  0.2102  0.2500  0.3242
 2218SOL    HW118116   2.476   0.991  12.365 -0.9318 -1.0740 -0.3523
 2218SOL    HW218117   2.375   0.933  12.436 -3.8813  1.5557 -0.1940
 2219SOL     OW18118   2.188   2.600  10.168 -0.5898  0.0416  0.2434
 2219SOL    HW118119   2.138   2.590  10.087  1.3730 -3.1149 -0.5992
 2219SOL    HW218120   2.199   2.511  10.204  1.4023 -0.9185 -2.7875
 2220SOL     OW18121   3.452   0.524   8.235 -0.3167 -0.5800  0.1546
 2220SOL    HW118122   3.483   0.439   8.266  1.0878  0.7575  2.4146
 2220SOL    HW218123   3.537   0.566   8.246 -1.4566  2.0070 -0.8951
 2221SOL     OW18124   3.030   0.269   7.223  0.1413 -0.1619  0.3579
 2221SOL    HW118125   2.991   0.341   7.173  0.6408  0.3670  0.7270
 2221SOL    HW218126   3.019   0.289   7.316 -2.6886 -0.0875  0.0144
 2222SOL     OW18127   2.168   4.660   6.678  0.2484  0.0429 -0.0192
 2222SOL    HW118128   2.074   4.676   6.683  0.1061 -1.3223  1.6868
 2222SOL    HW218129   2.199   4.716   6.607  2.2427  0.7465  1.3962
 2223SOL     OW18130   0.871   4.650   2.693  0.1637 -0.1890 -0.7545
 2223SOL    HW118131   0.935   4.677   2.627 -1.1519  0.1356 -1.8691
 2223SOL    HW218132   0.929   4.591   2.742  0.5864  2.1657  1.5999
 2224SOL     OW18133   1.396   2.992  13.130 -0.4429 -0.0430 -0.0806
 2224SOL    HW118134   1.478   2.943  13.140 -0.8943 -0.9761 -0.9293
 2224SOL    HW218135   1.339   2.937  13.078  3.5644 -1.2699 -3.1764
 2225SOL     OW18136   3.469   1.120   8.651 -0.1158  0.2930  0.0976
 2225SOL    HW118137   3.539   1.171   8.612  0.0007 -0.5500 -0.7976
 2225SOL    HW218138   3.450   1.051   8.587  1.6655  0.3992 -0.5348
 2226SOL     OW18139   2.846   2.196   8.951  0.0719 -0.3131  0.2474
 2226SOL    HW118140   2.917   2.163   8.894 -0.6620 -1.0954 -0.2112
 2226SOL    HW218141   2.857   2.291   8.948  1.3943 -0.4280  1.4927
 2227SOL     OW18142   0.029   0.418   7.987 -0.6243 -0.2796  0.0818
 2227SOL    HW118143   0.026   0.323   7.983  0.5971 -0.3872  2.1255
 2227SOL    HW218144   4.665   0.438   8.027 -0.3720 -2.9078  1.9462
 2228SOL     OW18145   3.306   2.974   4.278  0.3675  0.2722 -0.0413
 2228SOL    HW118146   3.310   2.880   4.298 -1.1899  0.2067 -0.0654
 2228SOL    HW218147   3.385   3.010   4.317  0.6580  2.2641 -2.4883
 2229SOL     OW18148   4.019   1.984   4.457 -0.7187  0.4253  0.6457
 2229SOL    HW118149   3.942   1.972   4.512 -0.7729 -1.9296  0.0335
 2229SOL    HW218150   4.079   1.923   4.500 -0.1551  0.0982 -0.5795
 2230SOL     OW18151   3.607   1.178   7.155 -0.5773  0.0395  0.3396
 2230SOL    HW118152   3.574   1.130   7.231 -1.4387 -1.0641 -0.7464
 2230SOL    HW218153   3.590   1.270   7.175  1.3253  0.4618  0.0030
 2231SOL     OW18154   0.984   3.307  15.787  0.1477 -0.9879 -0.3745
 2231SOL    HW118155   1.057   3.368  15.782 -0.7903  0.0363 -1.6450
 2231SOL    HW218156   1.021   3.242  15.847  0.4958 -0.6758 -0.2511
 2232SOL     OW18157   3.768   0.590   7.172 -0.0308 -0.5085  0.4632
 2232SOL    HW118158   3.748   0.676   7.210  0.7202  0.6015 -1.6527
 2232SOL    HW218159   3.863   0.599   7.171 -0.2490  1.5323 -1.6733
 2233SOL     OW18160   0.226   2.660   6.919 -0.3442 -0.1317  0.3892
 2233SOL    HW118161   0.198   2.739   6.966  0.2085  0.6614 -0.6043
 2233SOL    HW218162   0.273   2.618   6.990 -1.2289  0.1767  1.1558
 2234SOL     OW18163   0.237   0.100   6.366  0.0820  0.1393 -0.0233
 2234SOL    HW118164   0.311   0.152   6.333  0.4962  0.2920  1.1384
 2234SOL    HW218165   0.208   0.148   6.443  1.1643 -0.2458  0.6323
 2235SOL     OW18166   1.475   2.614   7.661 -0.0568  0.3312 -0.1955
 2235SOL    HW118167   1.464   2.610   7.756  1.9663 -0.3691  0.0031
 2235SOL    HW218168   1.524   2.696   7.654  0.1292  0.1708 -0.7276
 2236SOL     OW18169   1.254   1.475   8.888 -0.4132  0.2870  0.1398
 2236SOL    HW118170   1.272   1.569   8.892 -1.1244  0.3540  1.7155
 2236SOL    HW218171   1.340   1.435   8.898  0.2262  1.5382 -0.3799
 2237SOL     OW18172   2.856   0.498   2.926 -0.0074  0.4937  0.2646
 2237SOL    HW118173   2.938   0.494   2.877  0.3941 -0.1569  0.9984
 2237SOL    HW218174   2.857   0.591   2.950 -0.6482  1.0229 -1.7460
 2238SOL     OW18175   1.637   2.472  17.282 -0.2735  0.2530 -0.3485
 2238SOL    HW118176   1.560   2.524  17.260 -1.1801 -1.2807 -0.7684
 2238SOL    HW218177   1.622   2.388  17.240  1.2197 -0.5370  0.7035
 2239SOL     OW18178   4.006   0.043   3.492  0.9006 -0.9933  0.1634
 2239SOL    HW118179   4.036   0.054   3.582  1.5781 -1.4930 -0.0009
 2239SOL    HW218180   4.090   0.061   3.448  1.0818  2.0911  1.8266
 2240SOL     OW18181   2.685   0.999  17.480 -0.0864  0.7115 -0.4414
 2240SOL    HW118182   2.646   1.086  17.467 -1.5990  0.1200  0.1029
 2240SOL    HW218183   2.628   0.947  17.422  1.1160  0.4603 -1.3946
 2241SOL     OW18184   1.144   2.839  15.237  0.4980  0.1235 -0.1886
 2241SOL    HW118185   1.117   2.892  15.312 -0.9035  1.6103 -1.7643
 2241SOL    HW218186   1.072   2.866  15.180 -0.5442 -0.4719  0.8285
 2242SOL     OW18187   2.304   1.311   2.925  0.1199  0.2324  0.7638
 2242SOL    HW118188   2.217   1.276   2.906  0.0741  0.3935  0.6742
 2242SOL    HW218189   2.356   1.286   2.848  0.9502  1.3461  0.9556
 2243SOL     OW18190   3.970   0.331   4.498 -0.0133 -0.1258 -0.4338
 2243SOL    HW118191   3.996   0.384   4.422  1.2511 -1.2268 -0.7774
 2243SOL    HW218192   3.955   0.398   4.564  1.1660 -0.9023  0.6339
 2244SOL     OW18193   3.947   0.092   0.532 -0.3084  0.2252  0.0200
 2244SOL    HW118194   3.931   0.126   0.444  1.5256 -0.3978 -0.5627
 2244SOL    HW218195   4.041   0.106   0.546  0.1222 -0.6065 -1.9392
 2245SOL     OW18196   1.353   4.463   4.879  0.2074  0.6532  0.2181
 2245SOL    HW118197   1.345   4.552   4.913 -0.8941  0.2508  1.0310
 2245SOL    HW218198   1.324   4.422   4.961 -0.6741 -1.0531 -0.9718
 2246SOL     OW18199   2.694   0.862   7.314 -0.3996 -0.8551  0.1718
 2246SOL    HW118200   2.715   0.885   7.405  0.1471  2.2047 -0.6996
 2246SOL    HW218201   2.781   0.831   7.289  0.9937  4.2785 -1.4585
 2247SOL     OW18202   0.919   2.367   9.168 -0.3371 -0.5909 -0.0429
 2247SOL    HW118203   1.001   2.349   9.215 -1.2384  0.5953  2.0146
 2247SOL    HW218204   0.944   2.440   9.112  1.2203  0.7807  2.4514
 2248SOL     OW18205   0.705   2.905   2.667  0.6941 -0.1974  0.0373
 2248SOL    HW118206   0.753   2.898   2.750  1.2253 -1.0523 -0.3393
 2248SOL    HW218207   0.764   2.971   2.632  0.4213 -1.6087 -3.0663
 2249SOL     OW18208   2.687   1.107   8.813  0.4499 -0.3866  0.8910
 2249SOL    HW118209   2.658   1.018   8.832 -0.6464  0.2549  2.2077
 2249SOL    HW218210   2.770   1.114   8.861  1.6445  3.5375 -1.7358
 2250SOL     OW18211   1.904   1.121  14.729 -0.6380  0.2200  0.0789
 2250SOL    HW118212   1.810   1.133  14.738 -0.7044 -0.0363 -0.2955
 2250SOL    HW218213   1.929   1.185  14.662 -0.7816 -0.2369 -0.4144
 2251SOL     OW18214   2.192   2.428  17.568  0.2232 -0.2106 -0.2562
 2251SOL    HW118215   2.201   2.365  17.497  1.3443 -0.0811 -0.2319
 2251SOL    HW218216   2.272   2.477  17.550  0.2634 -0.5017 -0.8639
 2252SOL     OW18217   3.039   3.909  11.459 -0.6148  0.0655  0.1170
 2252SOL    HW118218   3.010   3.984  11.408  0.1461 -1.5482 -2.6915
 2252SOL    HW218219   3.123   3.880  11.425 -0.6157 -1.2670  1.2658
 2253SOL     OW18220   2.557   4.606  14.270 -0.4033 -0.0894  0.4225
 2253SOL    HW118221   2.644   4.565  14.267 -0.4270 -0.1232  0.1799
 2253SOL    HW218222   2.584   4.691  14.234 -0.8749 -0.1920 -0.1754
 2254SOL     OW18223   3.276   4.390   8.881 -0.6109  0.1072 -0.0962
 2254SOL    HW118224   3.205   4.373   8.943 -0.1373 -1.1035  0.1100
 2254SOL    HW218225   3.277   4.486   8.881  1.7175  0.0895 -0.3752
 2255SOL     OW18226   1.960   0.050  10.572  0.2930  0.0387  0.0587
 2255SOL    HW118227   1.919   4.685  10.580  0.5332 -0.1802 -1.0597
 2255SOL    HW218228   1.887   0.109  10.588  0.4355  0.2056  0.0991
 2256SOL     OW18229   4.025   4.592  11.529 -0.1965 -0.6166 -0.0986
 2256SOL    HW118230   3.970   4.580  11.607  0.8610  1.1757  0.9135
 2256SOL    HW218231   4.090   4.653  11.562  0.0979 -0.4429 -1.0126
 2257SOL     OW18232   3.946   3.737  11.309  0.0993  0.1819 -0.1780
 2257SOL    HW118233   3.852   3.724  11.319  0.4198 -3.1657 -1.7405
 2257SOL    HW218234   3.974   3.673  11.375  0.3867  2.1732  1.6578
 2258SOL     OW18235   1.588   4.282   6.540 -0.7018 -0.1370  0.5261
 2258SOL    HW118236   1.575   4.188   6.544 -1.2295 -0.0453  0.9084
 2258SOL    HW218237   1.543   4.305   6.459 -1.2598  1.2784  1.2307
 2259SOL     OW18238   1.619   3.841   2.163 -0.2101 -0.1162 -0.4401
 2259SOL    HW118239   1.664   3.796   2.234 -0.4470 -0.2540 -0.3774
 2259SOL    HW218240   1.634   3.935   2.170  0.0826 -0.2020  0.0805
 2260SOL     OW18241   2.560   0.645  13.346 -0.4864 -0.0021  0.3094
 2260SOL    HW118242   2.612   0.695  13.410 -0.2832 -0.9754  0.9008
 2260SOL    HW218243   2.633   0.629  13.287 -0.1269  0.2300  0.6893
 2261SOL     OW18244   1.338   3.679  11.800 -0.5726 -0.1811 -0.1588
 2261SOL    HW118245   1.317   3.660  11.708 -1.8624  3.0576 -0.5426
 2261SOL    HW218246   1.312   3.769  11.816  1.6875  0.7815 -1.8630
 2262SOL     OW18247   1.985   2.391  17.349 -0.2766 -0.4438 -0.1817
 2262SOL    HW118248   1.929   2.385  17.272  0.2211  1.6922 -0.6982
 2262SOL    HW218249   1.931   2.420  17.423  2.5740  2.4162  0.7795
 2263SOL     OW18250   3.965   2.113   7.577  1.0075 -0.0062  0.7793
 2263SOL    HW118251   3.918   2.045   7.528  0.6905  0.9947 -0.3267
 2263SOL    HW218252   3.896   2.155   7.627 -0.8302 -2.4866  0.3386
 2264SOL     OW18253   0.211   1.070   5.331  0.4687  0.4275  0.2380
 2264SOL    HW118254   0.187   0.977   5.330  0.4709  0.4314 -0.0313
 2264SOL    HW218255   0.305   1.072   5.347  0.6089 -0.4615 -0.4780
 2265SOL     OW18256   1.421   4.406   8.552  0.5445 -0.4210  0.7014
 2265SOL    HW118257   1.443   4.377   8.464 -0.3484  1.1479 -0.0470
 2265SOL    HW218258   1.391   4.323   8.589  0.9696 -1.1982 -0.6948
 2266SOL     OW18259   2.814   4.456   6.858  0.2187 -0.2906  0.3234
 2266SOL    HW118260   2.907   4.443   6.880 -0.0619  0.7961  2.1268
 2266SOL    HW218261   2.784   4.393   6.793 -1.2374  0.1948  0.5287
 2267SOL     OW18262   0.993   2.444  14.892 -0.2331  0.8354 -0.3079
 2267SOL    HW118263   1.004   2.424  14.799  2.1530 -1.0554  0.3680
 2267SOL    HW218264   1.047   2.386  14.947 -0.0070  1.5372  0.2198
 2268SOL     OW18265   2.851   2.034   6.864 -0.3620  0.4362  0.1505
 2268SOL    HW118266   2.896   2.111   6.830  1.4614 -0.7152 -0.0176
 2268SOL    HW218267   2.894   2.020   6.948  1.5725 -1.5674 -1.1666
 2269SOL     OW18268   1.063   0.933  14.696 -0.3222  0.2247 -0.1025
 2269SOL    HW118269   1.044   0.945  14.603  1.3314  1.8442 -0.2296
 2269SOL    HW218270   1.072   0.838  14.701 -1.5544  0.0470 -1.4112
 2270SOL     OW18271   1.551   1.078   6.075  0.3811 -0.0548  0.0500
 2270SOL    HW118272   1.484   1.068   6.008  0.4274  1.6247 -0.2485
 2270SOL    HW218273   1.579   0.987   6.080 -2.7556 -1.0816 -1.2782
 2271SOL     OW18274   1.616   2.439   8.882  0.3400  0.1103 -0.3677
 2271SOL    HW118275   1.606   2.448   8.788 -1.3195 -4.2621 -0.6388
 2271SOL    HW218276   1.611   2.531   8.905 -0.7704 -0.0104 -0.1204
 2272SOL     OW18277   1.775   3.569   8.224 -0.0663  0.0070  0.5373
 2272SOL    HW118278   1.815   3.572   8.311  2.2868 -0.5079 -0.5100
 2272SOL    HW218279   1.832   3.636   8.184  1.8284 -0.2516  2.8284
 2273SOL     OW18280   3.271   3.822   9.900 -0.4233 -0.0201  0.3399
 2273SOL    HW118281   3.298   3.873   9.823  1.0920 -0.8418  0.3283
 2273SOL    HW218282   3.339   3.754   9.898  0.8309  1.2334 -0.2388
 2274SOL     OW18283   0.951   2.913  10.809 -0.1493 -0.0765 -0.6243
 2274SOL    HW118284   1.004   2.855  10.863  0.5138  1.6555  0.5501
 2274SOL    HW218285   0.864   2.875  10.826 -0.8786  0.9153 -2.0935
 2275SOL     OW18286   4.072   1.134  14.070 -0.1729 -0.1516  0.1501
 2275SOL    HW118287   4.015   1.083  14.012 -0.3478  0.0562  0.1427
 2275SOL    HW218288   4.085   1.209  14.012 -1.5551 -0.0655 -0.0411
 2276SOL     OW18289   1.696   3.863  11.574  0.2827  0.0015  0.2586
 2276SOL    HW118290   1.646   3.865  11.656  0.2038 -0.6580  0.2327
 2276SOL    HW218291   1.638   3.917  11.520  1.4105  1.7837  0.8490
 2277SOL     OW18292   3.946   1.951   4.220 -0.5495 -0.0855 -0.0369
 2277SOL    HW118293   3.985   1.955   4.308 -1.1256  0.4034  0.1973
 2277SOL    HW218294   3.997   2.013   4.168  1.1396 -0.0397  1.6654
 2278SOL     OW18295   3.432   3.489  11.681  0.2703  0.1329 -0.1839
 2278SOL    HW118296   3.342   3.513  11.656 -0.0204  0.3411  1.0768
 2278SOL    HW218297   3.485   3.518  11.607  1.6803  0.0829  0.8128
 2279SOL     OW18298   3.192   2.443   4.899  0.4462 -0.0662 -0.4710
 2279SOL    HW118299   3.125   2.501   4.935  2.3416  2.2648 -0.7145
 2279SOL    HW218300   3.187   2.475   4.809 -0.6771 -0.6424 -0.6160
 2280SOL     OW18301   0.737   3.652   5.790  0.2855  0.0661  0.1367
 2280SOL    HW118302   0.764   3.647   5.699  1.2511 -0.5080  0.4574
 2280SOL    HW218303   0.687   3.570   5.800 -0.4008  0.4733  0.0437
 2281SOL     OW18304   0.670   3.876   7.829  0.0059  0.4552 -0.3433
 2281SOL    HW118305   0.605   3.807   7.841 -0.5368  0.8458 -0.9560
 2281SOL    HW218306   0.607   3.948   7.834 -0.4269  0.1789 -1.8440
 2282SOL     OW18307   2.012   4.341  17.499 -0.3728 -0.3845  0.0036
 2282SOL    HW118308   2.049   4.400  17.433  2.0394 -1.7734  0.1238
 2282SOL    HW218309   1.964   4.282  17.441  1.3906 -0.9024 -0.9343
 2283SOL     OW18310   0.963   3.973  16.971  0.0187 -0.4569 -1.1605
 2283SOL    HW118311   0.890   4.010  16.921 -0.5064 -0.2671 -0.2381
 2283SOL    HW218312   0.977   4.047  17.029  2.6747 -2.0163  0.1766
 2284SOL     OW18313   4.434   1.554   6.541 -0.6656 -0.2454 -0.1445
 2284SOL    HW118314   4.529   1.546   6.543 -0.5586  0.5253 -1.7717
 2284SOL    HW218315   4.424   1.612   6.466  0.6912 -0.1066 -0.2219
 2285SOL     OW18316   0.592   1.830   1.951  0.4365 -0.0332 -0.7224
 2285SOL    HW118317   0.589   1.917   1.910  0.8464  1.2699  1.9351
 2285SOL    HW218318   0.588   1.771   1.876 -0.0436 -0.6738 -0.1872
 2286SOL     OW18319   3.617   3.881  12.306  0.0691  0.4480 -0.2339
 2286SOL    HW118320   3.683   3.946  12.284  0.5346 -0.4574 -1.5450
 2286SOL    HW218321   3.534   3.912  12.271 -0.3085 -0.8337 -0.4949
 2287SOL     OW18322   0.263   3.072   2.312 -0.3380 -0.5138 -0.5720
 2287SOL    HW118323   0.258   3.133   2.239  0.4481  0.9277  0.5739
 2287SOL    HW218324   0.358   3.064   2.313 -0.3591 -0.6886  0.1942
 2288SOL     OW18325   2.549   2.365   6.885  0.2115 -1.1286  0.0013
 2288SOL    HW118326   2.579   2.331   6.970  1.5250  0.3519  0.1320
 2288SOL    HW218327   2.459   2.377   6.916  0.3345  0.1231 -0.1364
 2289SOL     OW18328   2.469   0.955   9.480  0.6038  0.3011  0.1949
 2289SOL    HW118329   2.466   1.051   9.481  1.0024  0.3098  1.0803
 2289SOL    HW218330   2.527   0.952   9.404  0.4614  0.8783  0.0607
 2290SOL     OW18331   0.671   0.711   5.979  0.5650  0.2834  0.4046
 2290SOL    HW118332   0.762   0.707   5.950 -0.5811 -0.6712 -3.0471
 2290SOL    HW218333   0.628   0.649   5.920 -2.2689 -0.2639  3.0306
 2291SOL     OW18334   2.356   2.381  10.750  0.2161  0.0069 -0.5896
 2291SOL    HW118335   2.382   2.428  10.829  0.9759 -1.5300  0.0790
 2291SOL    HW218336   2.417   2.310  10.770  1.3438  0.6916 -1.5990
 2292SOL     OW18337   3.348   3.391   9.057  0.1351  0.2165 -0.1034
 2292SOL    HW118338   3.315   3.442   9.131  1.5308 -0.7883  1.2290
 2292SOL    HW218339   3.298   3.311   9.073  1.0700 -0.9503 -2.9628
 2293SOL     OW18340   0.583   2.715  10.305  0.5567  0.2127  0.0943
 2293SOL    HW118341   0.626   2.780  10.361 -1.6231 -0.4628  2.5439
 2293SOL    HW218342   0.505   2.769  10.291 -0.9048 -1.7002  0.8002
 2294SOL     OW18343   2.742   0.486   5.738 -0.2320 -0.2960  0.1353
 2294SOL    HW118344   2.681   0.432   5.788 -1.7809  0.2045 -1.1702
 2294SOL    HW218345   2.729   0.442   5.653  1.2220 -1.0294  0.3002
 2295SOL     OW18346   2.286   3.921   8.253  0.1934  0.1327 -0.1837
 2295SOL    HW118347   2.295   3.972   8.334 -0.0929  1.7692 -1.1614
 2295SOL    HW218348   2.204   3.953   8.215  0.3139  0.0804 -0.4902
 2296SOL     OW18349   3.470   1.337   8.113 -0.2549 -0.1686  0.0167
 2296SOL    HW118350   3.464   1.254   8.162 -3.0494  0.1721  0.2192
 2296SOL    HW218351   3.457   1.306   8.023  1.2961 -0.5246 -0.0914
 2297SOL     OW18352   2.582   2.190   7.517 -0.1516  0.5978 -0.2115
 2297SOL    HW118353   2.488   2.206   7.515 -0.2186 -0.1651 -2.3363
 2297SOL    HW218354   2.582   2.193   7.613  1.5676  0.0982 -0.2014
 2298SOL     OW18355   1.390   0.887  16.729 -0.3326 -0.5181  0.0413
 2298SOL    HW118356   1.323   0.926  16.673 -1.4711  0.1855  1.8832
 2298SOL    HW218357   1.461   0.879  16.665 -0.5008  1.0486 -0.3398
 2299SOL     OW18358   1.329   4.183   4.537  0.1383  0.5973 -0.2693
 2299SOL    HW118359   1.378   4.160   4.616 -1.6233  0.0985  0.6682
 2299SOL    HW218360   1.354   4.275   4.529  1.6126  0.2086 -0.2232
 2300SOL     OW18361   1.136   0.862  17.187 -0.2850  0.3579 -0.1262
 2300SOL    HW118362   1.100   0.947  17.212 -0.6123 -0.1091  0.9555
 2300SOL    HW218363   1.212   0.891  17.137  0.9884 -0.1044  1.5598
 2301SOL     OW18364   3.329   0.900   3.079 -0.3402  0.2955  0.7124
 2301SOL    HW118365   3.360   0.817   3.044 -0.7700  1.0485 -1.4843
 2301SOL    HW218366   3.237   0.884   3.102 -0.1033 -0.9604  0.7720
 2302SOL     OW18367   0.138   3.621   3.847 -1.0522 -0.1927  0.0067
 2302SOL    HW118368   0.095   3.546   3.806  0.1300 -1.3919  0.9644
 2302SOL    HW218369   0.134   3.683   3.774 -0.6627 -1.8505 -1.4399
 2303SOL     OW18370   1.422   4.091   1.400 -0.2384 -0.0853 -0.2040
 2303SOL    HW118371   1.419   4.016   1.459  1.3898  1.5550  1.9534
 2303SOL    HW218372   1.332   4.095   1.368 -1.0648  0.3777  2.2403
 2304SOL     OW18373   3.600   4.431  14.337 -0.0248 -0.0515  0.5333
 2304SOL    HW118374   3.589   4.375  14.260  2.1461  0.2616 -0.0031
 2304SOL    HW218375   3.562   4.370  14.400 -1.2159  0.3934  0.2502
 2305SOL     OW18376   4.548   3.584  17.522  0.5386  0.3415 -0.0083
 2305SOL    HW118377   4.461   3.582  17.481  0.7439 -0.0756 -0.4177
 2305SOL    HW218378   4.535   3.674  17.554 -0.1964  0.3053 -0.2043
 2306SOL     OW18379   4.015   3.174   1.717 -0.3207 -0.1366 -0.8543
 2306SOL    HW118380   4.038   3.090   1.678  3.1682 -0.0873  1.0489
 2306SOL    HW218381   3.964   3.150   1.794  2.8907 -1.2304  0.9170
 2307SOL     OW18382   2.149   1.678   8.015  0.1484  0.3681 -0.3480
 2307SOL    HW118383   2.072   1.621   8.015 -1.0107  1.9398 -1.6560
 2307SOL    HW218384   2.168   1.691   8.108 -0.4509  1.5259 -0.3897
 2308SOL     OW18385   0.547   0.331   3.053 -0.5387 -0.1851 -0.0227
 2308SOL    HW118386   0.605   0.378   2.993  0.1572 -0.1228  0.6982
 2308SOL    HW218387   0.540   0.401   3.118  1.8647 -0.9003  1.0251
 2309SOL     OW18388   3.598   0.010   4.005 -0.1482 -0.4754  0.4155
 2309SOL    HW118389   3.628   4.683   4.083 -1.5532  1.4564  2.1323
 2309SOL    HW218390   3.663   0.081   4.007 -1.6902  0.8965  1.6283
 2310SOL     OW18391   3.619   4.631  10.771 -0.5030 -0.2247  0.2814
 2310SOL    HW118392   3.659   4.716  10.788  0.6093 -0.2538 -2.2092
 2310SOL    HW218393   3.698   4.590  10.737 -0.1897 -0.1842  0.9596
 2311SOL     OW18394   2.165   0.318   5.923  0.1851  0.3523  0.1087
 2311SOL    HW118395   2.258   0.332   5.905  1.0423 -1.0603  3.4140
 2311SOL    HW218396   2.132   0.381   5.860  0.6564  2.1705  1.6657
 2312SOL     OW18397   2.429   1.938   2.980 -0.1003  0.0574  0.0289
 2312SOL    HW118398   2.394   1.874   3.042 -0.4970 -0.6686 -0.9379
 2312SOL    HW218399   2.347   1.955   2.933 -0.6783 -0.9664  0.6583
 2313SOL     OW18400   0.219   1.914   2.354  0.3964  0.3414  0.4705
 2313SOL    HW118401   0.172   1.997   2.363 -0.5837 -0.0207 -1.2559
 2313SOL    HW218402   0.154   1.857   2.312  0.1479  2.0422 -1.4699
 2314SOL     OW18403   0.773   4.577   8.939 -0.5278 -0.6398 -0.4670
 2314SOL    HW118404   0.715   4.551   8.868  0.9921 -1.7661 -1.3071
 2314SOL    HW218405   0.808   4.661   8.910  1.4680 -1.4723 -0.5126
 2315SOL     OW18406   0.402   0.133   4.178 -0.6529 -0.1013  0.4367
 2315SOL    HW118407   0.373   0.153   4.089 -2.1944  2.7516  1.5878
 2315SOL    HW218408   0.494   0.125   4.154 -0.5597 -2.0730  1.4110
 2316SOL     OW18409   1.947   3.625   5.817 -0.0984 -0.1645 -0.3694
 2316SOL    HW118410   1.943   3.711   5.859 -0.1521  0.2720 -1.2762
 2316SOL    HW218411   1.953   3.570   5.895 -1.2599 -0.9430 -0.8165
 2317SOL     OW18412   1.785   0.164   4.083 -0.2064  0.0290  0.7862
 2317SOL    HW118413   1.831   0.093   4.039 -0.8952 -0.2525  0.5272
 2317SOL    HW218414   1.711   0.128   4.132  0.8195  2.1630  3.9299
 2318SOL     OW18415   1.695   2.519   7.224 -0.1664 -0.2234 -0.3647
 2318SOL    HW118416   1.626   2.584   7.234 -0.9422 -0.9799 -0.7126
 2318SOL    HW218417   1.701   2.510   7.128 -0.2468  0.5412 -0.4365
 2319SOL     OW18418   3.170   1.814   4.186 -0.1232  0.3664  0.3606
 2319SOL    HW118419   3.087   1.828   4.140 -0.1636 -1.5183 -0.1355
 2319SOL    HW218420   3.208   1.746   4.130  0.6231 -0.2165  1.5718
 2320SOL     OW18421   0.338   0.395   8.117 -0.1464 -0.1931 -0.1235
 2320SOL    HW118422   0.313   0.330   8.052 -1.0134 -0.9526  0.9733
 2320SOL    HW218423   0.272   0.379   8.184  0.6467 -0.9959  0.4538
 2321SOL     OW18424   4.504   4.503   4.981 -0.7247 -0.0230  0.0353
 2321SOL    HW118425   4.462   4.451   4.912  0.3877  0.6527 -1.1672
 2321SOL    HW218426   4.461   4.586   4.963 -1.5575 -0.5529 -0.4452
 2322SOL     OW18427   0.469   3.432  10.208  0.4137 -0.2403  0.6432
 2322SOL    HW118428   0.485   3.378  10.286 -1.2723  1.3750  2.1073
 2322SOL    HW218429   0.512   3.517  10.219  2.3047 -0.9074 -1.5448
 2323SOL     OW18430   3.393   0.025  13.544  0.4157  0.5358 -0.8537
 2323SOL    HW118431   3.450   0.101  13.554 -0.0519  0.7679  0.0633
 2323SOL    HW218432   3.424   4.689  13.613 -3.0150  0.2839  0.4996
 2324SOL     OW18433   4.611   1.288  15.565  0.5272 -0.6010 -0.2173
 2324SOL    HW118434   4.520   1.263  15.549 -0.4071  2.1810  0.7240
 2324SOL    HW218435   4.616   1.281  15.660 -1.7226 -0.0690 -0.0354
 2325SOL     OW18436   1.638   1.052   1.420 -0.3348  0.1046  0.1791
 2325SOL    HW118437   1.611   1.136   1.382 -2.0424  1.4105  4.2646
 2325SOL    HW218438   1.695   1.083   1.491  1.6090  0.3354 -1.4532
 2326SOL     OW18439   0.870   1.654  17.536 -0.0334 -0.0239 -0.7059
 2326SOL    HW118440   0.886   1.579  17.479  1.0077  1.6735 -2.6529
 2326SOL    HW218441   0.834   1.718  17.474 -2.0478  1.2448  1.7631
 2327SOL     OW18442   1.081   0.734   2.721  0.1913 -0.3436 -0.0467
 2327SOL    HW118443   1.037   0.817   2.741 -0.2427 -0.6037  0.0598
 2327SOL    HW218444   1.135   0.757   2.645 -2.1479  1.6921 -1.0905
 2328SOL     OW18445   3.093   4.218   0.422 -0.0606  0.4277 -0.0853
 2328SOL    HW118446   3.054   4.132   0.408 -2.2985  1.4754 -0.4263
 2328SOL    HW218447   3.099   4.215   0.517 -0.1796  0.3224 -0.0812
 2329SOL     OW18448   2.027   3.815   5.282 -0.2569  0.3919 -0.2475
 2329SOL    HW118449   2.074   3.833   5.200  0.5062 -0.5396 -0.0158
 2329SOL    HW218450   1.972   3.740   5.259  2.3087 -1.5758  0.0659
 2330SOL     OW18451   4.387   3.666   9.922 -0.1381  0.0073  0.3246
 2330SOL    HW118452   4.349   3.754   9.927 -1.9610 -0.6842 -1.6348
 2330SOL    HW218453   4.466   3.677   9.869 -0.0871 -0.1628  0.3644
 2331SOL     OW18454   3.494   1.592   0.787 -0.5561  0.4776 -0.0890
 2331SOL    HW118455   3.415   1.540   0.802 -1.8930  2.6738  0.4391
 2331SOL    HW218456   3.499   1.570   0.694  1.2366 -2.5856  0.7194
 2332SOL     OW18457   0.869   2.377  17.244  0.1142  0.0745 -0.3007
 2332SOL    HW118458   0.962   2.379  17.265  0.7788  0.3319 -3.2312
 2332SOL    HW218459   0.861   2.289  17.207  0.7257 -0.5394  1.0363
 2333SOL     OW18460   0.833   1.050   4.856 -0.5285  0.0967  0.1431
 2333SOL    HW118461   0.900   1.118   4.848 -0.8842  0.4584  0.2638
 2333SOL    HW218462   0.865   1.002   4.933 -0.7886 -1.1018 -0.5018
 2334SOL     OW18463   4.373   0.343  16.786 -0.1740  0.1706  0.8281
 2334SOL    HW118464   4.421   0.378  16.711 -0.0571 -2.2558 -0.2199
 2334SOL    HW218465   4.284   0.347  16.749 -1.0810 -0.4894  2.9048
 2335SOL     OW18466   2.731   2.210   6.502  0.7157  0.6705 -0.3100
 2335SOL    HW118467   2.714   2.244   6.414 -2.1626  0.0639  0.0348
 2335SOL    HW218468   2.822   2.178   6.498  0.7038  0.7316 -1.0958
 2336SOL     OW18469   1.648   3.128  12.445 -0.0135 -0.2124  0.1606
 2336SOL    HW118470   1.673   3.144  12.354  0.8642 -0.1831  0.4101
 2336SOL    HW218471   1.554   3.145  12.448  0.4470  2.6480 -1.5988
 2337SOL     OW18472   3.564   0.186  11.184 -0.2729  0.1237 -0.0053
 2337SOL    HW118473   3.538   0.107  11.138 -0.6078 -0.3972  1.0865
 2337SOL    HW218474   3.647   0.208  11.141 -0.9759  0.3268 -1.2556
 2338SOL     OW18475   3.305   1.354   5.356  0.0366  0.1486  0.5289
 2338SOL    HW118476   3.249   1.428   5.379  0.5587  0.5155  0.6094
 2338SOL    HW218477   3.327   1.316   5.441  1.6948 -0.1286 -0.0385
 2339SOL     OW18478   3.353   2.255   3.065  0.1224  0.6196 -0.4143
 2339SOL    HW118479   3.290   2.326   3.050  0.2019  0.8367  0.3192
 2339SOL    HW218480   3.419   2.282   3.002  1.2348 -1.6669 -0.2308
 2340SOL     OW18481   3.011   3.152  14.952 -0.0084  0.2736 -0.0153
 2340SOL    HW118482   3.033   3.245  14.951 -1.3554  0.5805 -1.0459
 2340SOL    HW218483   3.101   3.131  14.929 -0.2250 -1.0529  0.3350
 2341SOL     OW18484   1.586   3.810   0.003 -0.2398  0.3683 -0.6366
 2341SOL    HW118485   1.667   3.855   0.027 -0.0028  0.0387 -0.8211
 2341SOL    HW218486   1.516   3.858   0.048  0.1757  1.2988 -1.0015
 2342SOL     OW18487   3.407   3.519   8.238 -0.4608  0.1092 -0.2500
 2342SOL    HW118488   3.424   3.611   8.259  0.6272 -0.3040  0.6458
 2342SOL    HW218489   3.444   3.464   8.306  0.3903  1.2061  0.1783
 2343SOL     OW18490   3.103   1.923   2.628 -0.5604  0.1999  0.6693
 2343SOL    HW118491   3.081   1.911   2.720 -3.1396 -1.6577 -0.1892
 2343SOL    HW218492   3.019   1.952   2.593 -0.1880  2.0549  1.3140
 2344SOL     OW18493   4.324   1.506  12.097  0.0062 -0.0060  0.0098
 2344SOL    HW118494   4.294   1.597  12.103 -2.2550 -0.6660 -1.2760
 2344SOL    HW218495   4.359   1.494  12.185  1.2126  1.0972 -0.3025
 2345SOL     OW18496   2.453   1.172   7.808 -1.0083 -0.0615  0.0630
 2345SOL    HW118497   2.405   1.119   7.745 -0.6419  0.9356 -1.0517
 2345SOL    HW218498   2.439   1.248   7.752  3.2320  0.3893 -0.4046
 2346SOL     OW18499   3.364   3.588   3.105 -0.3573  0.1188  0.2843
 2346SOL    HW118500   3.332   3.677   3.090  1.9194  0.1535 -4.1427
 2346SOL    HW218501   3.406   3.595   3.191 -0.1695 -3.0315  0.4566
 2347SOL     OW18502   3.127   1.338   6.361  0.2802  0.2623  0.4281
 2347SOL    HW118503   3.041   1.373   6.386 -0.5613 -1.1157 -0.5192
 2347SOL    HW218504   3.176   1.332   6.443  1.2880  1.8663 -0.0714
 2348SOL     OW18505   1.637   4.068   2.735 -0.0519 -0.2229 -0.4143
 2348SOL    HW118506   1.694   4.132   2.691 -1.0662  0.6632 -0.4425
 2348SOL    HW218507   1.592   4.121   2.801 -1.1599 -0.3963 -1.0369
 2349SOL     OW18508   0.019   4.504  13.879 -0.2114 -0.3418  0.1343
 2349SOL    HW118509   0.086   4.562  13.915  2.0401 -2.2616 -0.9196
 2349SOL    HW218510   4.662   4.556  13.898  0.1853 -0.1214  1.1657
 2350SOL     OW18511   0.244   2.509   0.034 -0.0708 -0.1521 -0.3432
 2350SOL    HW118512   0.334   2.502   0.002  0.1367 -1.6585  0.5841
 2350SOL    HW218513   0.243   2.446   0.105 -3.5065 -0.7016 -0.9271
 2351SOL     OW18514   1.642   3.367   2.569 -0.7059 -0.4651 -0.0655
 2351SOL    HW118515   1.607   3.374   2.481  2.1099 -1.6379 -1.2905
 2351SOL    HW218516   1.558   3.339   2.604 -1.5553 -0.6008 -2.2239
 2352SOL     OW18517   0.385   1.614  15.808  0.1542  0.1073  0.1249
 2352SOL    HW118518   0.473   1.584  15.786 -0.4719 -0.8159 -1.1393
 2352SOL    HW218519   0.404   1.693  15.857 -0.8085 -1.2084  2.6442
 2353SOL     OW18520   1.435   3.798  14.819  0.7363 -0.0674 -0.7849
 2353SOL    HW118521   1.503   3.774  14.881  0.3576  0.6191 -0.1084
 2353SOL    HW218522   1.497   3.853  14.772 -0.0754  0.9461 -0.6839
 2354SOL     OW18523   1.449   1.888   9.227 -0.8693  0.7698  0.8586
 2354SOL    HW118524   1.523   1.833   9.202 -1.8945 -0.6130  0.8592
 2354SOL    HW218525   1.492   1.952   9.284  0.4999  0.1540  0.4976
 2355SOL     OW18526   1.399   1.271  13.607 -0.7021  0.1798  0.6193
 2355SOL    HW118527   1.464   1.283  13.537 -0.2811  1.0419  1.1676
 2355SOL    HW218528   1.313   1.274  13.564  0.1826  1.3498 -1.0642
 2356SOL     OW18529   0.676   2.883  10.897 -0.2654 -0.4293  0.1573
 2356SOL    HW118530   0.615   2.948  10.934 -0.2831 -1.1406  1.3823
 2356SOL    HW218531   0.628   2.804  10.923  1.1455 -1.3534 -0.0734
 2357SOL     OW18532   4.141   1.785   4.644  0.4990 -0.3989  0.3435
 2357SOL    HW118533   4.226   1.767   4.684 -0.0181 -1.3665  1.0062
 2357SOL    HW218534   4.084   1.748   4.711  1.3713 -0.0770  1.2685
 2358SOL     OW18535   2.345   3.601  13.591  0.6565 -1.0910  0.5599
 2358SOL    HW118536   2.419   3.618  13.649  1.3303 -0.9991 -0.3368
 2358SOL    HW218537   2.271   3.642  13.637  1.0401  0.9778 -0.6474
 2359SOL     OW18538   2.897   1.188  11.871 -0.0696  0.0671 -0.4029
 2359SOL    HW118539   2.896   1.144  11.786  2.7125 -1.0501  0.1478
 2359SOL    HW218540   2.903   1.113  11.930 -0.6562  0.7027  0.4708
 2360SOL     OW18541   4.118   2.190  13.090 -0.0619 -0.2044  0.0002
 2360SOL    HW118542   4.076   2.116  13.045  0.4265 -2.6683  3.6549
 2360SOL    HW218543   4.175   2.148  13.154 -0.5138  0.2538  0.6994
 2361SOL     OW18544   3.228   3.456  12.944  0.0230 -0.1852 -0.1272
 2361SOL    HW118545   3.155   3.474  13.003 -1.3707 -1.0418 -1.5770
 2361SOL    HW218546   3.279   3.535  12.962  2.0805 -1.3908 -0.7609
 2362SOL     OW18547   0.393   0.767  17.606  0.4236 -0.2645  0.4034
 2362SOL    HW118548   0.323   0.816  17.564  0.7249 -1.5245 -1.5677
 2362SOL    HW218549   0.397   0.828  17.680 -0.4891  1.4671 -0.9771
 2363SOL     OW18550   2.259   0.447  13.206 -0.2892 -0.2795 -0.3239
 2363SOL    HW118551   2.227   0.378  13.264  0.4299 -1.8143 -1.7328
 2363SOL    HW218552   2.283   0.401  13.126 -0.4172  2.9063 -2.1892
 2364SOL     OW18553   0.330   3.941  11.480 -0.2352  0.7025 -0.2900
 2364SOL    HW118554   0.424   3.931  11.496 -0.4652 -0.8362  0.1293
 2364SOL    HW218555   0.316   4.034  11.464  1.3067  0.7590 -1.2981
 2365SOL     OW18556   1.126   1.104  17.327  0.2695 -0.6116  0.2718
 2365SOL    HW118557   1.073   1.119  17.406  1.8799  2.7762  0.7037
 2365SOL    HW218558   1.213   1.082  17.361  0.2389 -0.3247  0.5374
 2366SOL     OW18559   1.639   4.555   9.183  0.4244  0.2389  0.0232
 2366SOL    HW118560   1.702   4.511   9.240 -0.4915  0.9080  1.5465
 2366SOL    HW218561   1.605   4.484   9.129  0.0264 -1.4901  2.5192
 2367SOL     OW18562   3.163   1.843   7.868 -0.2602  0.3993 -0.4869
 2367SOL    HW118563   3.141   1.907   7.800  3.0073  0.5345 -1.4020
 2367SOL    HW218564   3.182   1.769   7.811 -2.7637 -0.0496 -0.7573
 2368SOL     OW18565   2.757   1.489  11.953 -0.3921 -0.4112 -0.0204
 2368SOL    HW118566   2.685   1.535  11.994  0.4055 -0.1971  1.1269
 2368SOL    HW218567   2.715   1.455  11.874  0.0884 -0.8666 -0.0746
 2369SOL     OW18568   2.881   2.622   6.388 -0.8754  0.6875 -0.3838
 2369SOL    HW118569   2.966   2.653   6.421 -1.2272  2.3597 -1.0273
 2369SOL    HW218570   2.867   2.673   6.309  1.9018 -1.2906 -2.1667
 2370SOL     OW18571   2.579   2.719   5.078  0.0099  0.2837 -0.2756
 2370SOL    HW118572   2.523   2.747   5.151  2.0515  0.2117  1.2956
 2370SOL    HW218573   2.642   2.660   5.119 -0.2247 -1.9548 -3.1972
 2371SOL     OW18574   3.279   3.235   8.662  0.2949  0.2852 -0.4398
 2371SOL    HW118575   3.338   3.295   8.708 -1.8298  1.3949  0.7991
 2371SOL    HW218576   3.195   3.280   8.669 -1.2793 -2.7938  0.4011
 2372SOL     OW18577   2.786   4.200   1.269  0.1372  0.4540 -0.4870
 2372SOL    HW118578   2.781   4.108   1.297 -1.1096  0.0923 -1.8782
 2372SOL    HW218579   2.853   4.231   1.330 -0.4785  0.7020  0.0618
 2373SOL     OW18580   0.232   3.440   7.157 -0.1574 -0.5923 -0.2444
 2373SOL    HW118581   0.249   3.425   7.064 -1.9602 -0.3640 -0.5975
 2373SOL    HW218582   0.288   3.370   7.190  0.7784  0.1845 -0.1869
 2374SOL     OW18583   2.949   2.597   4.950  0.8663 -0.0281  0.6375
 2374SOL    HW118584   2.911   2.511   4.928  1.2879 -0.2000  0.5751
 2374SOL    HW218585   2.905   2.659   4.892  2.7185  1.4451  0.8164
 2375SOL     OW18586   0.261   2.923   7.380  0.7796  0.2216 -0.4891
 2375SOL    HW118587   0.234   3.014   7.371  1.9531  0.3845 -2.1932
 2375SOL    HW218588   0.349   2.911   7.345  0.4806 -0.5881 -0.9649
 2376SOL     OW18589   1.307   0.728   0.580  0.0955 -0.4052  0.1986
 2376SOL    HW118590   1.228   0.702   0.533 -1.0941  2.6999  0.4438
 2376SOL    HW218591   1.339   0.640   0.597 -0.6737 -0.9299 -1.0181
 2377SOL     OW18592   3.436   1.751  11.210 -0.5102  0.7687 -0.6035
 2377SOL    HW118593   3.500   1.693  11.169 -2.8919 -0.4838 -2.5341
 2377SOL    HW218594   3.435   1.823  11.147 -0.0135 -0.5256 -2.0860
 2378SOL     OW18595   4.668   4.067   4.833 -0.5206 -0.1894  0.3152
 2378SOL    HW118596   0.032   4.079   4.875 -0.2184 -0.5491 -0.1809
 2378SOL    HW218597   4.619   4.013   4.896 -2.4054  2.5214  1.1596
 2379SOL     OW18598   4.554   3.620   3.208  0.2562  0.0254  0.0318
 2379SOL    HW118599   4.630   3.672   3.185  0.3071  0.1622  0.5059
 2379SOL    HW218600   4.569   3.541   3.157  2.7624  0.1101  0.6630
 2380SOL     OW18601   0.088   3.023  10.423 -0.1258  0.3112 -0.2578
 2380SOL    HW118602   0.051   2.957  10.365  2.2290  0.2246 -1.6313
 2380SOL    HW218603   0.163   2.987  10.469  0.5672  0.6491 -1.1195
 2381SOL     OW18604   4.458   1.264   0.903 -0.4195 -0.1460  0.4459
 2381SOL    HW118605   4.433   1.350   0.936  0.4773 -0.3718  1.6878
 2381SOL    HW218606   4.420   1.211   0.973 -0.5178  1.0808  1.3157
 2382SOL     OW18607   1.025   4.038   5.998  0.4388 -0.3987 -0.1830
 2382SOL    HW118608   0.947   3.997   5.960 -0.0894  2.2184 -1.9613
 2382SOL    HW218609   0.994   4.128   5.986 -1.4932 -0.9919  0.2391
 2383SOL     OW18610   0.244   1.307   8.043  0.0167  0.1394 -0.7990
 2383SOL    HW118611   0.151   1.288   8.028 -0.2076  0.6897 -0.1193
 2383SOL    HW218612   0.276   1.217   8.043 -2.1339 -0.6344 -0.0701
 2384SOL     OW18613   4.059   4.071  17.660  0.4755  0.5184  0.1433
 2384SOL    HW118614   4.092   3.991   0.017  0.4348  0.7512  0.6055
 2384SOL    HW218615   3.966   4.049  17.648  1.1395 -2.2350 -0.0886
 2385SOL     OW18616   4.481   2.689  10.178  0.0060 -0.2931 -0.0706
 2385SOL    HW118617   4.488   2.621  10.245 -2.3169 -0.4068  0.0676
 2385SOL    HW218618   4.391   2.721  10.191 -0.4494 -2.3880  1.8437
 2386SOL     OW18619   0.021   0.751  10.456  0.6115 -0.0729 -0.1349
 2386SOL    HW118620   0.080   0.756  10.381  0.3761 -1.4301 -0.4171
 2386SOL    HW218621   4.666   0.727  10.403  0.7929 -1.7758  0.3799
 2387SOL     OW18622   1.948   1.146   7.079  0.3742  0.2030 -0.3133
 2387SOL    HW118623   1.915   1.059   7.102 -0.9009  0.6205 -0.6014
 2387SOL    HW218624   1.905   1.205   7.141 -3.6172 -1.4442 -1.5496
 2388SOL     OW18625   1.266   1.610   9.168  0.7236 -0.5286  0.1665
 2388SOL    HW118626   1.190   1.648   9.212  0.8581  0.0858 -0.1457
 2388SOL    HW218627   1.340   1.615   9.230 -1.3250  0.0363  2.5581
 2389SOL     OW18628   0.271   2.215   7.691  0.1711 -0.0568 -0.6738
 2389SOL    HW118629   0.353   2.259   7.715  0.2733 -0.4477 -0.3194
 2389SOL    HW218630   0.280   2.190   7.599  0.1713 -0.8059 -0.4709
 2390SOL     OW18631   1.916   2.404   2.427 -0.6223 -0.2950  0.3428
 2390SOL    HW118632   1.956   2.453   2.499  0.3241  0.1657 -0.4865
 2390SOL    HW218633   1.830   2.441   2.409  0.3368  1.4193 -0.6330
 2391SOL     OW18634   0.272   0.953   4.789 -0.6500  0.1257 -0.7439
 2391SOL    HW118635   0.363   0.931   4.808 -0.8821 -1.6697 -1.7328
 2391SOL    HW218636   0.266   0.930   4.696 -1.1585 -1.2923 -0.3585
 2392SOL     OW18637   3.625   2.348   4.894  0.4200  0.4765 -0.0573
 2392SOL    HW118638   3.643   2.380   4.805 -0.9066 -0.1659 -0.5379
 2392SOL    HW218639   3.679   2.270   4.887 -0.3239 -0.2190  2.1452
 2393SOL     OW18640   1.851   0.920  17.632  0.6386  0.4988  0.6769
 2393SOL    HW118641   1.858   0.895   0.038  0.5191 -0.1651  0.5095
 2393SOL    HW218642   1.774   0.867  17.615  0.0708  2.1064 -1.7696
 2394SOL     OW18643   0.787   2.989   2.053  0.0734  0.5346 -0.0084
 2394SOL    HW118644   0.871   3.000   2.097  0.6970 -1.6865 -0.6359
 2394SOL    HW218645   0.747   2.927   2.114  0.1977  3.0472  2.6260
 2395SOL     OW18646   0.966   1.417   0.580 -0.0916  0.3127  0.0291
 2395SOL    HW118647   0.949   1.479   0.651  1.4865  0.3634  0.3582
 2395SOL    HW218648   0.963   1.477   0.505  1.2112 -0.7669 -0.8843
 2396SOL     OW18649   4.551   4.321   8.290  0.1080  0.2955 -0.1460
 2396SOL    HW118650   4.510   4.246   8.247  0.8614  0.9010 -1.9431
 2396SOL    HW218651   4.474   4.348   8.340 -0.0989 -0.3226 -0.1356
 2397SOL     OW18652   3.009   0.721   6.694  0.4869  0.4457 -0.4460
 2397SOL    HW118653   3.072   0.783   6.732  0.1695  0.1369  0.5719
 2397SOL    HW218654   3.049   0.704   6.608 -0.0218  4.5460 -1.4956
 2398SOL     OW18655   0.967   0.389   1.247 -0.0150 -0.2012  0.3948
 2398SOL    HW118656   0.995   0.404   1.338 -0.6895  1.1784  0.3707
 2398SOL    HW218657   0.872   0.395   1.259 -0.1569  0.0508 -0.8571
 2399SOL     OW18658   3.912   0.579   4.322 -0.5038 -0.0509  0.0769
 2399SOL    HW118659   3.963   0.659   4.308  0.3825 -0.0500  3.3488
 2399SOL    HW218660   3.864   0.606   4.400  2.6122 -0.4823  2.1269
 2400SOL     OW18661   1.397   2.270   4.523  0.8547 -0.1922  0.0024
 2400SOL    HW118662   1.372   2.341   4.463 -0.1623  0.3914  1.1063
 2400SOL    HW218663   1.380   2.197   4.464  0.0697  0.0644 -0.0926
 2401SOL     OW18664   4.513   0.926   0.386  0.3999 -0.1951  0.1426
 2401SOL    HW118665   4.591   0.957   0.434  1.3559 -0.4298 -1.2609
 2401SOL    HW218666   4.543   0.839   0.359 -1.6633 -0.6597 -0.6190
 2402SOL     OW18667   2.848   0.890   9.868 -0.0878  0.7179  0.3225
 2402SOL    HW118668   2.770   0.847   9.903 -1.6010  0.5070 -3.3534
 2402SOL    HW218669   2.918   0.858   9.924  1.1136  1.3897 -0.8033
 2403SOL     OW18670   0.463   4.301   4.227  0.7396  0.3931  0.1038
 2403SOL    HW118671   0.407   4.379   4.222 -1.0893 -0.7177  3.1170
 2403SOL    HW218672   0.508   4.317   4.310 -0.6059 -0.4687  0.9977
 2404SOL     OW18673   1.144   3.593  10.252  0.2557  0.2781 -0.3182
 2404SOL    HW118674   1.057   3.594  10.292  0.4420 -1.1897  0.1414
 2404SOL    HW218675   1.162   3.500  10.239  0.2305  0.1640  0.5050
 2405SOL     OW18676   3.681   3.774   2.422 -0.1511  0.2864 -0.2822
 2405SOL    HW118677   3.756   3.799   2.477 -0.7412  0.6816  0.3409
 2405SOL    HW218678   3.614   3.810   2.480 -1.0464 -0.9328 -0.5644
 2406SOL     OW18679   2.479   0.546   3.006 -0.5312  0.4641  0.4959
 2406SOL    HW118680   2.466   0.522   3.097  0.5167 -0.1388  0.4979
 2406SOL    HW218681   2.567   0.583   2.998  0.1846 -0.6172  3.5361
 2407SOL     OW18682   3.575   4.604  15.985 -0.0268  0.3466  0.7974
 2407SOL    HW118683   3.593   4.591  16.078  1.8486  0.8557  0.5150
 2407SOL    HW218684   3.548   4.695  15.995 -2.3152  0.0031 -2.3980
 2408SOL     OW18685   4.380   2.483   7.106  0.4364 -0.2035 -0.2718
 2408SOL    HW118686   4.324   2.561   7.103  0.4196 -0.2884 -1.9439
 2408SOL    HW218687   4.358   2.439   7.024  3.9369 -0.8865 -0.8344
 2409SOL     OW18688   1.289   4.524   3.825  0.4568  0.2840  0.2452
 2409SOL    HW118689   1.205   4.555   3.859 -0.9223 -2.2800 -0.7885
 2409SOL    HW218690   1.256   4.499   3.738 -0.9890  0.2946  0.7901
 2410SOL     OW18691   4.432   0.632   4.938 -0.4599 -0.0790 -0.7052
 2410SOL    HW118692   4.361   0.571   4.918 -0.0293 -1.3277  1.5766
 2410SOL    HW218693   4.442   0.675   4.853  0.4139 -0.1800 -0.6496
 2411SOL     OW18694   4.277   2.612   4.474 -0.0460 -0.1419 -0.5971
 2411SOL    HW118695   4.248   2.543   4.533 -2.1111  0.1481 -1.2831
 2411SOL    HW218696   4.277   2.549   4.402 -1.4816 -1.9035  0.9630
 2412SOL     OW18697   3.722   3.284  15.882 -0.2506 -0.2468  0.4022
 2412SOL    HW118698   3.724   3.360  15.823 -4.5090  0.1350  0.7227
 2412SOL    HW218699   3.774   3.318  15.955 -1.3335 -1.2669  1.6447
 2413SOL     OW18700   3.632   3.371   4.268  0.1340  0.0190 -0.0844
 2413SOL    HW118701   3.708   3.315   4.249 -0.1998 -0.2501 -0.6219
 2413SOL    HW218702   3.614   3.422   4.189  0.0647 -0.8331 -0.6183
 2414SOL     OW18703   3.219   3.570  14.698 -0.6508  0.0205 -0.6333
 2414SOL    HW118704   3.164   3.567  14.620 -0.1194  2.0198 -1.0782
 2414SOL    HW218705   3.225   3.664  14.712  4.1319 -0.7290  2.1679
 2415SOL     OW18706   2.104   0.863   6.667 -0.0981 -0.3516  0.5254
 2415SOL    HW118707   2.030   0.881   6.726 -0.6104 -0.7145  0.0027
 2415SOL    HW218708   2.185   0.878   6.715  1.7544 -1.3816 -2.3003
 2416SOL     OW18709   4.146   4.561   2.311  0.7462  0.3003 -0.2214
 2416SOL    HW118710   4.110   4.480   2.276  0.7668  0.7370 -1.2482
 2416SOL    HW218711   4.183   4.603   2.234  2.4489 -0.1246  0.3782
 2417SOL     OW18712   3.115   4.280  12.256 -0.3093  0.2614 -0.1272
 2417SOL    HW118713   3.047   4.345  12.276  0.2424  1.0275 -0.7469
 2417SOL    HW218714   3.096   4.207  12.315 -2.1275  1.4247  0.7653
 2418SOL     OW18715   2.738   3.178   4.897  0.1631 -0.0712  0.4461
 2418SOL    HW118716   2.832   3.194   4.904  0.1120  0.6892 -0.5857
 2418SOL    HW218717   2.720   3.085   4.908 -0.2576  0.3294  3.1710
 2419SOL     OW18718   2.960   3.824  16.402  0.4589  0.4255  0.1972
 2419SOL    HW118719   2.895   3.829  16.332  2.3382 -1.2249 -1.6496
 2419SOL    HW218720   2.927   3.749  16.451  0.8115  0.2721  0.1964
 2420SOL     OW18721   2.576   0.381  10.235 -0.5005 -0.2709 -0.2716
 2420SOL    HW118722   2.626   0.363  10.155  0.6835  2.6404 -0.2072
 2420SOL    HW218723   2.653   0.421  10.277 -0.9759  1.5989 -1.1582
 2421SOL     OW18724   2.141   3.142  13.843  0.8322  0.1216 -0.1603
 2421SOL    HW118725   2.090   3.220  13.866  0.3503 -0.8012  1.8893
 2421SOL    HW218726   2.123   3.085  13.918 -0.8038 -0.6889 -1.1740
 2422SOL     OW18727   0.458   2.557  10.586  0.1881 -0.5618  0.2141
 2422SOL    HW118728   0.421   2.631  10.635 -0.3566  0.6561 -2.0320
 2422SOL    HW218729   0.417   2.489  10.639 -1.4793  1.5262  1.5912
 2423SOL     OW18730   2.279   3.888   9.043  0.3925 -0.5136 -0.1100
 2423SOL    HW118731   2.206   3.947   9.023 -0.1916 -0.6730  1.5674
 2423SOL    HW218732   2.357   3.921   8.997  0.0348  2.8227  1.6957
 2424SOL     OW18733   2.682   3.536   7.266 -0.0841  0.0544  0.3371
 2424SOL    HW118734   2.654   3.558   7.177 -0.7378 -3.2034 -0.2459
 2424SOL    HW218735   2.710   3.621   7.301  2.4292 -1.3351  1.6998
 2425SOL     OW18736   4.680   0.414   0.401  0.0959 -0.1666 -0.4154
 2425SOL    HW118737   4.641   0.362   0.331  0.1950  1.7941 -1.9347
 2425SOL    HW218738   4.714   0.349   0.463  0.5751  0.4873  0.0122
 2426SOL     OW18739   1.708   4.153  14.920  0.1756 -0.1562 -0.8772
 2426SOL    HW118740   1.639   4.218  14.918 -0.5333 -0.9709 -3.1146
 2426SOL    HW218741   1.736   4.152  15.012  1.0347  1.8406 -1.1069
 2427SOL     OW18742   4.101   0.220   2.858  0.4559 -0.0505 -0.3596
 2427SOL    HW118743   4.125   0.204   2.767  1.5517  0.4164 -0.1575
 2427SOL    HW218744   4.123   0.134   2.894 -0.4762 -0.4959 -0.8652
 2428SOL     OW18745   1.113   3.105  16.730 -0.0770 -0.6807  0.0576
 2428SOL    HW118746   1.120   3.019  16.772  1.0702 -0.3925  0.4361
 2428SOL    HW218747   1.031   3.143  16.762  0.4636  0.9793 -0.5291
 2429SOL     OW18748   2.215   2.782   8.394 -0.3015  0.1513 -0.0324
 2429SOL    HW118749   2.121   2.764   8.390 -0.5980  2.0523 -1.8227
 2429SOL    HW218750   2.219   2.802   8.488  0.5258 -0.1856 -0.0031
 2430SOL     OW18751   3.076   1.424   8.194  0.0685 -0.4723  0.0971
 2430SOL    HW118752   3.051   1.472   8.115 -2.1263  1.2047  1.7927
 2430SOL    HW218753   3.069   1.502   8.249 -1.1997 -1.6490  1.6191
 2431SOL     OW18754   2.672   0.941   9.296 -0.2275  0.5464 -0.1526
 2431SOL    HW118755   2.749   0.996   9.312  0.4532 -1.0328  1.9695
 2431SOL    HW218756   2.720   0.859   9.304 -1.2128 -0.0963 -0.8669
 2432SOL     OW18757   1.177   2.163   2.681  0.8363  0.4208 -0.4276
 2432SOL    HW118758   1.104   2.120   2.635  0.3930  0.6609  0.0547
 2432SOL    HW218759   1.258   2.151   2.631 -0.3802 -1.7650 -1.8862
 2433SOL     OW18760   4.452   0.267   2.800 -0.0240  0.4676  0.0164
 2433SOL    HW118761   4.446   0.317   2.718  1.4183 -0.0886 -0.4202
 2433SOL    HW218762   4.458   0.179   2.762  1.1698  0.2209  0.7868
 2434SOL     OW18763   4.707   3.759   3.450  0.6667 -0.8092 -0.1392
 2434SOL    HW118764   4.644   3.831   3.446 -0.1534 -1.6650 -1.9932
 2434SOL    HW218765   0.070   3.806   3.442 -1.2121  2.6429  0.4810
 2435SOL     OW18766   1.195   2.184   6.983  0.3162  0.0446  0.6503
 2435SOL    HW118767   1.227   2.267   7.020  0.3668  0.6057 -0.6474
 2435SOL    HW218768   1.107   2.214   6.961 -0.5018 -0.4348  3.2983
 2436SOL     OW18769   1.544   2.491  14.128  0.8399  0.3882 -0.2809
 2436SOL    HW118770   1.451   2.516  14.133  0.1935 -2.1032  0.0515
 2436SOL    HW218771   1.541   2.439  14.048  1.8203 -0.1718  0.0506
 2437SOL     OW18772   0.918   4.305  17.450  0.1131 -0.3926  0.4426
 2437SOL    HW118773   0.879   4.232  17.401  0.6735  0.0262 -0.6279
 2437SOL    HW218774   1.011   4.312  17.429 -0.2746  2.7289 -0.1578
 2438SOL     OW18775   0.982   2.706  13.804 -0.6858 -0.0562  0.1436
 2438SOL    HW118776   1.036   2.742  13.733  1.1684 -0.9966  1.0776
 2438SOL    HW218777   1.008   2.615  13.791 -0.4981 -0.0455  0.4483
 2439SOL     OW18778   1.487   0.731   6.991  0.3210  0.1521 -0.5315
 2439SOL    HW118779   1.429   0.740   7.066  0.1211  0.3264 -0.7087
 2439SOL    HW218780   1.451   0.795   6.930  0.6285  0.1512 -0.7162
 2440SOL     OW18781   2.983   3.153   6.439  0.0276  0.0958 -0.1038
 2440SOL    HW118782   2.970   3.240   6.403 -3.6091 -1.0480 -1.6044
 2440SOL    HW218783   2.899   3.110   6.423  0.3058 -0.4468 -0.1043
 2441SOL     OW18784   2.575   3.694   4.663  0.4679 -0.5435  0.1518
 2441SOL    HW118785   2.536   3.663   4.745  1.8310 -1.2905  0.5178
 2441SOL    HW218786   2.625   3.772   4.687 -2.6438  1.4394  0.1933
 2442SOL     OW18787   4.041   1.241   8.282 -0.3298  0.2633  0.2963
 2442SOL    HW118788   4.012   1.331   8.295 -0.1065 -0.1899  3.8649
 2442SOL    HW218789   3.967   1.189   8.312 -0.9892  1.6140  1.0150
 2443SOL     OW18790   3.851   3.569  17.486  0.1928  0.3240 -0.2143
 2443SOL    HW118791   3.763   3.587  17.454 -0.8426 -0.0848  2.3416
 2443SOL    HW218792   3.848   3.478  17.518 -2.1766  0.4856  0.0277
 2444SOL     OW18793   4.372   3.287  10.803 -0.1345 -0.6623 -0.0226
 2444SOL    HW118794   4.311   3.326  10.867 -1.5688 -0.8076 -1.2991
 2444SOL    HW218795   4.408   3.213  10.851  0.9309 -1.5338 -2.1892
 2445SOL     OW18796   2.186   0.456   7.224  0.1718 -0.2397  0.0518
 2445SOL    HW118797   2.105   0.426   7.183 -0.0477 -0.4268  0.6241
 2445SOL    HW218798   2.187   0.546   7.190  1.6417 -0.6591 -0.9680
 2446SOL     OW18799   3.880   4.019   4.133  0.5302  0.4222 -0.0895
 2446SOL    HW118800   3.806   3.972   4.171 -0.2368  2.1002  0.5082
 2446SOL    HW218801   3.939   4.047   4.204 -0.0794 -0.6481  0.8361
 2447SOL     OW18802   0.921   3.863   6.764 -0.3304  0.1917  0.4272
 2447SOL    HW118803   1.011   3.835   6.749 -0.6445  0.0837 -1.1759
 2447SOL    HW218804   0.892   3.801   6.831 -1.4336  0.5359  0.2690
 2448SOL     OW18805   2.288   3.025   8.890  0.2062  0.2052 -0.1814
 2448SOL    HW118806   2.318   2.938   8.914  0.2260  0.2811  0.0700
 2448SOL    HW218807   2.239   3.053   8.968 -0.7415 -2.6695  0.2479
 2449SOL     OW18808   4.467   4.684  11.762 -0.4256  0.3052  0.6130
 2449SOL    HW118809   4.562   4.681  11.759 -0.5890 -0.2455 -3.2948
 2449SOL    HW218810   4.453   0.054  11.791 -2.6538  0.1141  0.1602
 2450SOL     OW18811   4.291   0.666   8.292 -0.0662 -0.2676 -0.7574
 2450SOL    HW118812   4.303   0.703   8.380  2.1892  0.2713 -1.2949
 2450SOL    HW218813   4.292   0.573   8.314  0.8298  0.1875  1.2085
 2451SOL     OW18814   3.893   1.792   3.405 -0.2231 -0.1105 -0.1990
 2451SOL    HW118815   3.935   1.849   3.470 -4.1947  1.2801  1.1684
 2451SOL    HW218816   3.928   1.703   3.414 -1.1563 -0.3548  1.1056
 2452SOL     OW18817   1.536   3.034   9.949 -0.2213 -0.0596 -0.1684
 2452SOL    HW118818   1.595   3.097   9.989  0.0571  0.5333 -1.5083
 2452SOL    HW218819   1.600   2.963   9.943 -0.6391 -0.4687  0.2146
 2453SOL     OW18820   0.572   1.305   0.124 -0.0272 -0.1027 -1.1942
 2453SOL    HW118821   0.588   1.353   0.205 -1.6905 -1.1866 -0.2252
 2453SOL    HW218822   0.483   1.272   0.136 -1.1545  2.0472 -3.6694
 2454SOL     OW18823   0.983   1.563   8.858 -0.1787 -0.1834  0.3141
 2454SOL    HW118824   0.963   1.601   8.943 -0.0487 -1.0188  0.7151
 2454SOL    HW218825   1.067   1.518   8.863 -0.3945 -0.2103  3.9178
 2455SOL     OW18826   3.638   3.528  16.092 -0.4959 -0.1278  0.3156
 2455SOL    HW118827   3.690   3.448  16.104 -1.4311 -0.5438  1.5704
 2455SOL    HW218828   3.562   3.512  16.147 -0.2549 -2.1848  0.0514
 2456SOL     OW18829   3.484   3.519   3.371 -0.1198 -0.6188 -0.2411
 2456SOL    HW118830   3.577   3.537   3.358 -0.7346  0.2469 -3.3137
 2456SOL    HW218831   3.479   3.511   3.467 -1.5454  1.8726 -0.0884
 2457SOL     OW18832   2.540   3.598   6.260 -0.1999 -0.6275  0.1862
 2457SOL    HW118833   2.564   3.577   6.350 -0.8114 -0.0252  0.4881
 2457SOL    HW218834   2.622   3.617   6.214 -0.2456  2.0631  1.2300
 2458SOL     OW18835   3.563   1.602  13.172  0.6381 -0.5237  0.1382
 2458SOL    HW118836   3.477   1.561  13.165 -0.2992  1.5363 -0.4077
 2458SOL    HW218837   3.546   1.675  13.231  1.4739  0.0928 -0.3784
 2459SOL     OW18838   0.039   0.507   5.357 -0.8020  0.6782  0.0520
 2459SOL    HW118839   0.115   0.499   5.299 -1.2071 -2.4158 -0.0445
 2459SOL    HW218840   4.692   0.465   5.305 -0.5469  0.0202  0.2624
 2460SOL     OW18841   1.348   3.723   5.053  0.2916 -0.4916  0.6211
 2460SOL    HW118842   1.412   3.652   5.047  0.8174 -0.1524  2.0629
 2460SOL    HW218843   1.333   3.727   5.148 -0.0898  2.1244  0.4716
 2461SOL     OW18844   1.239   0.351   1.350 -0.1203 -0.3875 -0.4196
 2461SOL    HW118845   1.178   0.396   1.409  2.3529  3.4111 -0.7860
 2461SOL    HW218846   1.253   0.271   1.401  0.3206  1.4486  2.3116
 2462SOL     OW18847   1.209   0.415  12.420 -0.2596  0.4183 -0.2601
 2462SOL    HW118848   1.180   0.485  12.477 -1.3575  0.4823 -0.8862
 2462SOL    HW218849   1.121   0.391  12.389 -0.9323  1.3944  0.8767
 2463SOL     OW18850   0.922   1.525   9.199  0.4928  0.0454  0.6076
 2463SOL    HW118851   0.895   1.599   9.145  0.7882  0.8232  1.5101
 2463SOL    HW218852   0.937   1.570   9.283  0.8606  4.7240 -2.0039
 2464SOL     OW18853   0.510   0.386   2.235 -0.1585 -0.0800 -0.5465
 2464SOL    HW118854   0.480   0.414   2.148  0.7291 -3.8143 -2.0565
 2464SOL    HW218855   0.434   0.336   2.265 -0.0067  0.8624  1.3680
 2465SOL     OW18856   0.693   4.563   2.892  0.0178 -0.3147  0.4946
 2465SOL    HW118857   0.755   4.576   2.820  0.6715  0.8668  1.2780
 2465SOL    HW218858   0.646   4.486   2.858  0.7815  0.0110 -1.2828
 2466SOL     OW18859   1.977   0.828   0.571  0.0775 -0.2209  0.2753
 2466SOL    HW118860   2.024   0.910   0.587 -0.9814  0.7958 -1.7979
 2466SOL    HW218861   2.043   0.773   0.530  0.6692  0.4318  0.3557
 2467SOL     OW18862   2.069   0.018   0.367 -0.5450  0.2152  0.1335
 2467SOL    HW118863   2.139   0.045   0.426 -2.4952  1.5185  1.8987
 2467SOL    HW218864   1.985   0.047   0.405 -1.3981 -2.1797  0.0372
 2468SOL     OW18865   0.155   3.211   3.237 -0.3324 -0.1285 -0.1120
 2468SOL    HW118866   0.171   3.230   3.145 -0.5927  0.5814 -0.0139
 2468SOL    HW218867   0.116   3.294   3.265 -0.7637 -0.6024  0.6967
 2469SOL     OW18868   0.191   4.056  11.212  0.1467  0.0981 -0.2008
 2469SOL    HW118869   0.211   4.080  11.302  1.8328  0.5785 -0.6970
 2469SOL    HW218870   0.109   4.008  11.224 -0.8231  0.1645 -6.3708
 2470SOL     OW18871   0.692   1.226   3.252  0.6642 -0.1520 -0.2575
 2470SOL    HW118872   0.781   1.190   3.244  1.1468  1.1547 -0.7853
 2470SOL    HW218873   0.667   1.222   3.160 -0.1717  0.2982 -0.0432
 2471SOL     OW18874   1.165   3.069   3.897  0.2942 -0.0390 -0.1839
 2471SOL    HW118875   1.246   3.022   3.878  0.2151 -0.2153 -0.0878
 2471SOL    HW218876   1.101   3.018   3.847  0.3748 -0.1278 -0.1949
 2472SOL     OW18877   0.719   1.325  14.708 -0.1198 -0.1495  0.4352
 2472SOL    HW118878   0.662   1.321  14.785 -2.3335 -0.2110 -1.1860
 2472SOL    HW218879   0.749   1.234  14.701  0.9172  0.2529 -0.3750
 2473SOL     OW18880   2.315   1.314   3.301 -0.5087 -0.1094 -0.4898
 2473SOL    HW118881   2.355   1.227   3.299  1.0330  0.5714  0.1885
 2473SOL    HW218882   2.226   1.286   3.322 -0.2847  1.0201  2.0105
 2474SOL     OW18883   3.929   1.468   6.191 -0.3570 -0.5870  0.2324
 2474SOL    HW118884   4.021   1.460   6.216 -0.5137 -2.1005  0.2960
 2474SOL    HW218885   3.924   1.562   6.175 -1.3583 -0.6579  0.0787
 2475SOL     OW18886   1.037   4.162   1.530 -0.2010 -0.0297 -0.3895
 2475SOL    HW118887   0.974   4.232   1.550  1.3480  1.1458  0.3576
 2475SOL    HW218888   0.996   4.105   1.595  3.0731 -2.5656 -0.5925
 2476SOL     OW18889   3.381   1.850   2.883 -0.4834 -0.4888  0.1853
 2476SOL    HW118890   3.402   1.762   2.916  2.8231  0.1514 -0.1956
 2476SOL    HW218891   3.286   1.841   2.879 -0.4645 -1.0117  0.9441
 2477SOL     OW18892   2.184   3.928   6.742 -0.1142 -0.4566 -0.3523
 2477SOL    HW118893   2.189   3.858   6.807 -0.4223 -0.3575 -0.2168
 2477SOL    HW218894   2.248   3.989   6.779 -0.7405  0.3953 -0.6575
 2478SOL     OW18895   1.800   3.037   9.079  0.6014  0.0301  0.0513
 2478SOL    HW118896   1.810   3.012   9.171 -0.6717 -3.3697 -0.7234
 2478SOL    HW218897   1.839   3.123   9.096 -0.1888  0.7529 -1.7628
 2479SOL     OW18898   1.777   0.421   3.674 -0.0361 -0.3142 -0.3046
 2479SOL    HW118899   1.743   0.478   3.606 -2.3902 -0.5540  0.6550
 2479SOL    HW218900   1.696   0.376   3.699 -1.6673  3.1951  0.6692
 2480SOL     OW18901   1.431   4.091   0.335  0.1528 -0.0041  0.2776
 2480SOL    HW118902   1.462   4.026   0.399 -0.9050 -0.9228 -0.1523
 2480SOL    HW218903   1.358   4.138   0.374 -0.8559 -0.6915 -0.7882
 2481SOL     OW18904   2.191   0.846   8.845  0.4399  0.0662  0.4346
 2481SOL    HW118905   2.255   0.911   8.816  1.0980  0.4669  2.7624
 2481SOL    HW218906   2.110   0.882   8.809  0.1817  2.3570  3.2469
 2482SOL     OW18907   4.468   0.684   1.507  0.6987  0.1845 -0.1131
 2482SOL    HW118908   4.535   0.715   1.446  0.4925  0.3065 -0.2740
 2482SOL    HW218909   4.497   0.733   1.584  1.6269 -0.4049 -0.0743
 2483SOL     OW18910   2.987   2.002   5.044 -0.4177  0.3256 -0.2992
 2483SOL    HW118911   3.042   2.080   5.052  0.1825 -0.0405 -0.8548
 2483SOL    HW218912   2.951   1.994   5.132 -0.1735  0.2552 -0.2040
 2484SOL     OW18913   0.371   0.723   6.211 -0.5453  0.0059  0.4702
 2484SOL    HW118914   0.445   0.769   6.252  0.3875 -0.2481 -0.9122
 2484SOL    HW218915   0.361   0.789   6.142 -2.5230 -0.5591  0.2042
 2485SOL     OW18916   0.743   1.430   6.775  0.3206 -0.2537  0.1411
 2485SOL    HW118917   0.721   1.337   6.767 -2.3394  0.2646  1.3701
 2485SOL    HW218918   0.792   1.444   6.694 -4.0158 -2.0321 -2.8116
 2486SOL     OW18919   3.343   3.015   3.769  0.0037 -0.2599  0.0955
 2486SOL    HW118920   3.392   3.045   3.845 -0.4228  1.1833 -0.2059
 2486SOL    HW218921   3.293   2.944   3.811 -0.9910  0.7328  0.5978
 2487SOL     OW18922   0.273   0.605  10.945  0.5721 -0.0326 -0.2872
 2487SOL    HW118923   0.272   0.606  10.850 -2.2174 -1.1615 -0.2596
 2487SOL    HW218924   0.224   0.525  10.966 -0.8475  1.2844  1.4519
 2488SOL     OW18925   1.375   2.388   2.708  0.1493 -0.5874 -0.7369
 2488SOL    HW118926   1.324   2.318   2.667 -0.5715 -1.2205  1.2029
 2488SOL    HW218927   1.332   2.463   2.668  0.4093 -0.5093 -0.8734
 2489SOL     OW18928   2.994   4.586   4.821 -0.3409 -0.3404  0.0561
 2489SOL    HW118929   3.057   4.599   4.892 -0.7083  0.6434  0.2121
 2489SOL    HW218930   2.924   4.644   4.853 -1.4859 -2.3793  1.2268
 2490SOL     OW18931   0.698   2.956   3.473  0.1345 -0.0533 -0.3637
 2490SOL    HW118932   0.661   3.044   3.480 -0.2009 -0.1992 -0.3104
 2490SOL    HW218933   0.645   2.899   3.530  0.1763 -2.0520 -2.3221
 2491SOL     OW18934   0.986   0.099   4.618 -0.1111 -0.0848  0.2880
 2491SOL    HW118935   1.018   0.155   4.548  0.1552 -1.6028 -0.8041
 2491SOL    HW218936   1.066   0.069   4.661  0.8786 -1.3501 -2.4826
 2492SOL     OW18937   3.749   3.518   3.325  0.0019 -0.1809  0.0065
 2492SOL    HW118938   3.809   3.486   3.393  1.2134 -2.4395 -2.1401
 2492SOL    HW218939   3.736   3.609   3.354  1.8888 -0.2334  1.0342
 2493SOL     OW18940   2.333   3.295   2.306  0.3467 -0.3871  0.4764
 2493SOL    HW118941   2.318   3.243   2.227 -3.2546  0.4528  0.6048
 2493SOL    HW218942   2.392   3.361   2.268 -0.1267  0.1612  0.6960
 2494SOL     OW18943   3.750   3.205   7.250  0.0854  0.2774 -0.8620
 2494SOL    HW118944   3.763   3.210   7.155  0.5248 -0.1360 -0.8250
 2494SOL    HW218945   3.794   3.283   7.286 -1.0247 -0.8063  2.8172
 2495SOL     OW18946   1.947   0.578   9.805 -0.3342  0.2739 -0.1971
 2495SOL    HW118947   2.002   0.644   9.763 -0.4986 -0.3816 -1.4430
 2495SOL    HW218948   1.861   0.618   9.788 -0.9909 -1.1103 -0.1245
 2496SOL     OW18949   2.272   0.555   3.632 -0.3815 -0.3611 -0.1036
 2496SOL    HW118950   2.263   0.465   3.662 -0.9560 -0.2165  0.1482
 2496SOL    HW218951   2.199   0.561   3.571 -0.8646 -0.8584  0.4340
 2497SOL     OW18952   2.117   3.037   2.763  0.1581  0.3193  0.3310
 2497SOL    HW118953   2.127   3.019   2.670 -0.0051  0.0471  0.3676
 2497SOL    HW218954   2.092   3.130   2.764 -1.2829 -0.0688  1.1945
 2498SOL     OW18955   1.004   1.555  17.290  0.0581 -0.0109  0.0405
 2498SOL    HW118956   1.067   1.498  17.336 -1.1921 -0.2189  1.5068
 2498SOL    HW218957   0.940   1.487  17.269 -1.1678  1.1356  0.1328
 2499SOL     OW18958   2.216   3.130   8.642  0.4706 -0.1902 -0.2946
 2499SOL    HW118959   2.215   3.082   8.725  0.4900  0.2875 -0.0219
 2499SOL    HW218960   2.277   3.079   8.587 -0.9164  0.9956 -2.9153
 2500SOL     OW18961   3.164   2.933  12.773 -0.0306 -0.1853 -0.7926
 2500SOL    HW118962   3.092   2.883  12.733 -1.2473 -0.9061  2.2828
 2500SOL    HW218963   3.175   3.000  12.705  0.5723  0.2306 -0.2756
 2501SOL     OW18964   3.753   2.894  11.194 -0.5522  0.4404 -0.1502
 2501SOL    HW118965   3.796   2.828  11.139 -2.6926 -0.6378 -0.5030
 2501SOL    HW218966   3.772   2.966  11.134 -0.9244  1.2825  0.7355
 2502SOL     OW18967   3.043   2.227   6.794 -0.3707  0.0406 -0.2697
 2502SOL    HW118968   3.059   2.262   6.706  1.0892  0.4410  0.1442
 2502SOL    HW218969   3.123   2.253   6.840  1.0225 -3.0065 -0.9671
 2503SOL     OW18970   2.156   1.960   1.181 -0.4755 -0.1930 -0.4917
 2503SOL    HW118971   2.236   1.907   1.184 -0.7385 -0.3709  2.4795
 2503SOL    HW218972   2.196   2.047   1.172  0.2926 -0.4856  0.1121
 2504SOL     OW18973   4.151   3.965   8.008  0.1249  0.9366  0.2007
 2504SOL    HW118974   4.143   4.052   7.970  1.0685  0.1027 -1.8732
 2504SOL    HW218975   4.061   3.935   7.999  0.2731  0.4274  0.3793
 2505SOL     OW18976   1.031   3.539   4.603  0.1231  0.3764 -0.2074
 2505SOL    HW118977   1.091   3.473   4.569 -1.2540 -1.2513  0.5438
 2505SOL    HW218978   1.072   3.585   4.677 -1.7419 -0.6724  1.4589
 2506SOL     OW18979   1.628   1.512   5.167  0.3856 -0.0213  0.3114
 2506SOL    HW118980   1.697   1.547   5.224  0.9874  0.7989 -0.9157
 2506SOL    HW218981   1.618   1.421   5.194 -0.2706  0.0823  0.4260
 2507SOL     OW18982   3.336   1.708   6.023 -0.5548 -0.5259 -0.7757
 2507SOL    HW118983   3.360   1.687   6.113  0.5596 -0.5838 -1.0852
 2507SOL    HW218984   3.247   1.676   6.038  0.3400 -3.8402 -2.6438
 2508SOL     OW18985   3.052   2.754   9.330 -0.1616  0.0150  0.3078
 2508SOL    HW118986   3.138   2.779   9.363  0.3793 -1.8286  0.2994
 2508SOL    HW218987   2.995   2.812   9.380  0.0359  0.9449 -0.5291
 2509SOL     OW18988   3.365   4.386  11.979  0.0772  0.1004 -0.2521
 2509SOL    HW118989   3.367   4.387  12.075 -1.5797 -2.5192 -0.1781
 2509SOL    HW218990   3.460   4.392  11.968  0.4905 -3.4092  1.2450
 2510SOL     OW18991   0.641   4.048   3.206 -0.5576  0.2129 -0.2189
 2510SOL    HW118992   0.550   4.029   3.184 -0.7756  0.7371  0.2473
 2510SOL    HW218993   0.636   4.137   3.240  0.0121  0.7879 -1.6239
 2511SOL     OW18994   2.537   0.281  13.310 -0.4614 -0.4492  0.5611
 2511SOL    HW118995   2.588   0.211  13.352 -0.4938  0.7768  2.6664
 2511SOL    HW218996   2.447   0.250  13.306 -0.7783  0.6568 -0.7284
 2512SOL     OW18997   2.469   1.419   1.673 -0.0649 -0.3386  0.3997
 2512SOL    HW118998   2.417   1.338   1.673 -2.2998  1.1006  0.7459
 2512SOL    HW218999   2.418   1.477   1.730  2.0761 -0.6106  2.5943
 2513SOL     OW19000   1.778   0.337   6.986 -0.0858 -0.1353  0.1451
 2513SOL    HW119001   1.705   0.380   6.942 -0.4631  0.8441  1.7058
 2513SOL    HW219002   1.820   0.281   6.921  0.0807  0.7585 -0.5161
 2514SOL     OW19003   1.992   0.432  13.427  0.2442 -0.3011  0.1897
 2514SOL    HW119004   1.923   0.468  13.371 -1.0071 -0.3287  1.7156
 2514SOL    HW219005   1.947   0.351  13.452 -0.6786 -0.3523 -1.6177
 2515SOL     OW19006   2.283   3.112   7.252 -0.4774  0.7817  0.2284
 2515SOL    HW119007   2.237   3.158   7.323 -2.1377  0.5557 -0.6929
 2515SOL    HW219008   2.370   3.153   7.251  0.7969 -1.9571  0.3590
 2516SOL     OW19009   0.763   0.831  11.014  0.0307  0.4122  0.2863
 2516SOL    HW119010   0.715   0.861  11.091 -0.8610 -1.9618  0.6408
 2516SOL    HW219011   0.790   0.743  11.038 -0.5771  0.0798 -0.2479
 2517SOL     OW19012   3.650   0.867   6.947  0.2340 -0.5319 -0.4609
 2517SOL    HW119013   3.742   0.869   6.973 -0.0920  1.4893  0.6164
 2517SOL    HW219014   3.629   0.781   6.912 -0.7500 -1.1966  1.7096
 2518SOL     OW19015   2.025   4.339   5.481  0.4346  0.2416  0.3507
 2518SOL    HW119016   1.959   4.305   5.421 -0.4349 -0.4628  1.7211
 2518SOL    HW219017   1.997   4.295   5.560 -1.1778  0.5104 -0.0849
 2519SOL     OW19018   3.623   4.006  16.038  0.0560  0.1913  0.0401
 2519SOL    HW119019   3.692   4.070  16.050  2.2096 -2.3511  1.1381
 2519SOL    HW219020   3.670   3.929  16.069  1.7075  0.5733 -1.5585
 2520SOL     OW19021   1.297   2.369  10.342 -0.0238 -0.5633 -0.2308
 2520SOL    HW119022   1.202   2.358  10.347  0.0381 -1.5108 -1.4080
 2520SOL    HW219023   1.318   2.321  10.422  2.2722  0.2518 -0.3417
 2521SOL     OW19024   2.819   3.834   6.610  0.5201  0.2523  0.1816
 2521SOL    HW119025   2.847   3.855   6.699  0.0726  1.8944 -0.0711
 2521SOL    HW219026   2.730   3.868   6.618  0.4057 -0.6585  2.9934
 2522SOL     OW19027   1.682   3.668  10.744 -0.2358 -1.2800  0.5838
 2522SOL    HW119028   1.649   3.580  10.763 -0.8618 -1.3414 -0.7458
 2522SOL    HW219029   1.709   3.701  10.829 -0.6861  3.0000 -0.9673
 2523SOL     OW19030   1.077   2.229   0.671  0.2669  0.7083 -0.1147
 2523SOL    HW119031   1.146   2.180   0.717 -1.8620 -1.5272  0.6642
 2523SOL    HW219032   1.059   2.160   0.608  0.0897 -0.4769  1.2363
 2524SOL     OW19033   2.967   4.238  14.647 -0.1377  0.1745  0.6178
 2524SOL    HW119034   2.908   4.290  14.702 -0.1241  1.1143 -0.2578
 2524SOL    HW219035   3.038   4.224  14.709  0.3864 -1.6802 -0.4076
 2525SOL     OW19036   2.909   2.482   3.981  0.2914 -0.1443  0.1637
 2525SOL    HW119037   2.931   2.574   3.996 -0.9797 -0.0873  1.7026
 2525SOL    HW219038   2.953   2.429   4.049  0.9044 -0.1502 -0.2405
 2526SOL     OW19039   0.728   3.327  10.248 -0.3592 -0.1462 -0.1042
 2526SOL    HW119040   0.650   3.298  10.296 -2.3036  0.1208 -3.0893
 2526SOL    HW219041   0.703   3.403  10.195 -0.6214 -0.9414 -1.1395
 2527SOL     OW19042   0.766   0.942  11.764 -0.0418 -0.3556  0.5449
 2527SOL    HW119043   0.859   0.931  11.784 -0.0318 -1.5245 -0.1635
 2527SOL    HW219044   0.777   1.002  11.690 -0.5144  2.5337  2.7903
 2528SOL     OW19045   0.279   0.429   6.261  0.6863  0.6423 -0.2926
 2528SOL    HW119046   0.311   0.514   6.231  1.3563  0.2242 -0.7441
 2528SOL    HW219047   0.222   0.460   6.332  2.1518  1.1496  0.6648
 2529SOL     OW19048   0.114   1.356   1.382 -0.4934  0.1346  0.6060
 2529SOL    HW119049   0.189   1.390   1.333  0.6909 -3.7679 -0.2568
 2529SOL    HW219050   0.146   1.366   1.471 -0.8994  1.1180  0.6371
 2530SOL     OW19051   2.453   3.290  12.667  0.5303 -0.1836  0.0839
 2530SOL    HW119052   2.509   3.231  12.716  0.7547  0.8959  1.1238
 2530SOL    HW219053   2.368   3.250  12.685  0.7669 -0.5918  0.2866
 2531SOL     OW19054   0.242   3.300   5.543  0.2081  0.8143  0.1507
 2531SOL    HW119055   0.203   3.385   5.523 -1.0090 -0.2226 -1.8887
 2531SOL    HW219056   0.317   3.297   5.485 -0.1735  0.8965 -0.3457
 2532SOL     OW19057   1.934   0.530   6.293  0.5312 -0.6839  0.0021
 2532SOL    HW119058   2.030   0.524   6.289  0.6467  1.7609 -0.9976
 2532SOL    HW219059   1.923   0.587   6.369  1.6220 -0.6549  0.1339
 2533SOL     OW19060   3.848   0.796  12.962 -0.0587 -0.1082  0.0840
 2533SOL    HW119061   3.817   0.710  12.991 -1.0589 -0.1921 -1.2131
 2533SOL    HW219062   3.761   0.837  12.964 -0.1323 -0.1680 -1.5608
 2534SOL     OW19063   2.157   3.865  11.093  0.1544 -0.2666 -0.6725
 2534SOL    HW119064   2.165   3.959  11.081  2.2989 -0.7090 -2.6997
 2534SOL    HW219065   2.145   3.836  11.003 -1.4438 -0.8138 -0.2879
 2535SOL     OW19066   0.946   0.556   8.476  0.0462 -0.4546  0.1722
 2535SOL    HW119067   0.991   0.640   8.466  0.4818 -0.6531  0.4364
 2535SOL    HW219068   1.018   0.504   8.512 -0.1968 -1.6291 -1.0171
 2536SOL     OW19069   2.503   3.862   3.999  0.2032  0.0444  0.0266
 2536SOL    HW119070   2.463   3.829   4.079  1.6806  0.8468  1.0905
 2536SOL    HW219071   2.586   3.815   3.999 -0.4198 -1.0826 -0.9384
 2537SOL     OW19072   2.194   1.461   4.233  0.6033 -0.3930  0.1655
 2537SOL    HW119073   2.152   1.390   4.185 -1.4529  0.5923  0.5020
 2537SOL    HW219074   2.190   1.531   4.167 -2.9216 -1.2819 -0.5545
 2538SOL     OW19075   4.039   1.980   6.807  0.3199 -0.6211 -0.1182
 2538SOL    HW119076   4.023   1.910   6.743  0.2959 -1.7789  1.1646
 2538SOL    HW219077   3.991   1.944   6.882 -0.3164  1.3125  0.3859
 2539SOL     OW19078   4.595   0.188  14.491  0.3322  0.0292 -0.5881
 2539SOL    HW119079   4.652   0.170  14.416  2.2905  2.5408  0.2956
 2539SOL    HW219080   4.588   0.282  14.477 -2.6723 -0.7270 -4.3130
 2540SOL     OW19081   3.643   0.138  15.181 -0.0098 -0.3592  0.0933
 2540SOL    HW119082   3.731   0.160  15.213 -0.5817  0.8844  0.8120
 2540SOL    HW219083   3.649   0.043  15.191  3.1896 -0.1889 -0.2689
 2541SOL     OW19084   2.759   2.618   0.817  0.0941 -0.1081  0.5229
 2541SOL    HW119085   2.800   2.542   0.858  1.3874  1.5141  2.1892
 2541SOL    HW219086   2.687   2.641   0.875 -1.5599 -0.4940 -1.3569
 2542SOL     OW19087   4.225   1.398   5.995  0.2213  0.5727 -0.4232
 2542SOL    HW119088   4.302   1.341   5.998 -1.3302 -1.4558  0.6578
 2542SOL    HW219089   4.165   1.332   5.961  0.0747 -0.0023  0.9661
 2543SOL     OW19090   1.242   0.085  14.638 -0.1498 -0.0248 -0.5263
 2543SOL    HW119091   1.156   0.124  14.655  1.6074  3.0968  1.2654
 2543SOL    HW219092   1.231   4.719  14.677 -3.7396  0.4364 -0.5180
 2544SOL     OW19093   3.763   2.553   5.958 -0.5273 -0.3736 -0.5244
 2544SOL    HW119094   3.811   2.624   6.001 -0.1161 -1.1889  0.3625
 2544SOL    HW219095   3.810   2.542   5.875 -2.6966 -0.2644 -1.7782
 2545SOL     OW19096   1.799   1.301   7.236  0.0542  0.6484 -0.1047
 2545SOL    HW119097   1.736   1.362   7.275 -0.9932 -2.0265  2.4612
 2545SOL    HW219098   1.738   1.254   7.179  0.1759  0.7843 -0.3468
 2546SOL     OW19099   4.665   0.249  16.356 -0.2417  0.3148  0.2506
 2546SOL    HW119100   4.717   0.292  16.288 -0.6101 -1.2666 -1.0369
 2546SOL    HW219101   4.700   0.288  16.436 -1.2208 -0.7867  1.2139
 2547SOL     OW19102   3.003   3.784  11.688 -0.0545  0.7481  0.1037
 2547SOL    HW119103   2.936   3.821  11.746 -0.9757  0.0161 -0.4929
 2547SOL    HW219104   3.000   3.837  11.609 -1.2644  0.6631  0.0934
 2548SOL     OW19105   0.270   4.085   9.431 -0.6854 -0.4003  0.1600
 2548SOL    HW119106   0.181   4.089   9.468 -0.1219  1.7299  1.2596
 2548SOL    HW219107   0.301   3.998   9.457  1.1900 -0.0230 -0.8279
 2549SOL     OW19108   1.128   2.321  17.232 -0.0298 -0.1016  0.4944
 2549SOL    HW119109   1.152   2.293  17.144 -2.3427  2.2787 -0.8622
 2549SOL    HW219110   1.210   2.297  17.275  1.4112 -1.2765 -2.9541
 2550SOL     OW19111   0.112   2.259   2.226  0.2189  0.0790  0.0429
 2550SOL    HW119112   0.044   2.234   2.289 -0.6605  0.0051 -0.9257
 2550SOL    HW219113   0.048   2.269   2.155  1.9454  0.0673 -1.4985
 2551SOL     OW19114   4.700   3.512   7.275  0.1239 -0.3137 -0.1625
 2551SOL    HW119115   0.010   3.443   7.333 -0.8481  0.5188  1.3324
 2551SOL    HW219116   4.606   3.516   7.296  0.3658  0.9686  0.6919
 2552SOL     OW19117   3.810   3.210   1.933 -0.9937  0.3543 -0.8666
 2552SOL    HW119118   3.736   3.272   1.937  1.2958  3.1208 -1.2632
 2552SOL    HW219119   3.770   3.129   1.965 -0.6059  0.8864  0.9923
 2553SOL     OW19120   3.579   3.539   4.038 -0.0975 -0.2701  0.0062
 2553SOL    HW119121   3.568   3.492   3.955  0.1797 -1.7573  0.8125
 2553SOL    HW219122   3.645   3.601   4.008  2.0033 -1.7907  1.4800
 2554SOL     OW19123   0.904   0.074  14.328  0.2829 -0.2472  0.2753
 2554SOL    HW119124   0.822   0.036  14.361 -1.1897  0.3968 -2.6370
 2554SOL    HW219125   0.971   0.037  14.385 -1.3722 -0.2125  2.2380
 2555SOL     OW19126   0.795   2.648  16.268 -0.3020 -0.0445  0.4228
 2555SOL    HW119127   0.749   2.702  16.204 -0.7305  0.1365  0.8924
 2555SOL    HW219128   0.865   2.706  16.300  2.1082 -2.7178  0.0428
 2556SOL     OW19129   1.765   0.176   2.343  0.0497 -0.1043  0.0802
 2556SOL    HW119130   1.755   0.266   2.312 -1.1887  0.0328  0.8578
 2556SOL    HW219131   1.798   0.145   2.259  1.0094  3.3541 -0.8085
 2557SOL     OW19132   0.594   0.287   8.573 -0.4864 -0.4271  0.6267
 2557SOL    HW119133   0.649   0.213   8.601  0.1252  0.2161  1.1335
 2557SOL    HW219134   0.512   0.240   8.559 -0.1672 -1.0601  0.8888
 2558SOL     OW19135   1.057   2.584   3.883 -0.6219 -0.0830  0.4750
 2558SOL    HW119136   1.145   2.552   3.902 -0.5652  1.0077  2.0772
 2558SOL    HW219137   1.010   2.520   3.937  0.4759  0.2676  1.8577
 2559SOL     OW19138   4.629   2.091  17.083  0.0821 -0.0789 -0.4166
 2559SOL    HW119139   4.713   2.081  17.128  0.3062  3.0967 -0.1323
 2559SOL    HW219140   4.613   2.006  17.044 -1.7609  0.7405 -1.4300
 2560SOL     OW19141   1.337   3.031  14.607  0.4909  0.1527 -0.1506
 2560SOL    HW119142   1.300   2.952  14.569 -0.8259  1.7009 -2.1099
 2560SOL    HW219143   1.428   3.005  14.622 -0.0524 -1.5468  0.1423
 2561SOL     OW19144   4.030   3.130   5.891  0.0369 -0.7380  0.4354
 2561SOL    HW119145   4.125   3.136   5.885  0.0743 -0.9968  0.7707
 2561SOL    HW219146   4.015   3.203   5.832 -1.1068 -0.5879  0.9216
 2562SOL     OW19147   3.507   2.316   2.818 -0.2656 -0.0143  0.0984
 2562SOL    HW119148   3.549   2.305   2.732  1.5585  0.9120  0.8624
 2562SOL    HW219149   3.488   2.409   2.818 -0.6938 -0.1025 -1.2825
 2563SOL     OW19150   0.841   0.647  14.362  0.5588 -0.0103  0.1315
 2563SOL    HW119151   0.755   0.640  14.403  0.5918 -1.9705 -0.1370
 2563SOL    HW219152   0.865   0.737  14.383  0.0448 -0.2280  1.6353
 2564SOL     OW19153   1.535   1.454   8.832  0.4689 -0.2218  0.2524
 2564SOL    HW119154   1.518   1.503   8.751 -0.3657  0.0690  0.5956
 2564SOL    HW219155   1.539   1.365   8.798  0.6817  0.5499 -1.7787
 2565SOL     OW19156   4.335   0.413   4.771  0.2763  0.4496 -0.1830
 2565SOL    HW119157   4.321   0.334   4.718  0.3146  0.9317 -0.9144
 2565SOL    HW219158   4.252   0.429   4.815  1.0757  3.2901  0.2588
 2566SOL     OW19159   0.637   3.780  16.169 -0.3555  0.2256 -0.6184
 2566SOL    HW119160   0.638   3.865  16.124  0.3365 -1.1268 -3.1597
 2566SOL    HW219161   0.674   3.799  16.255  0.7953  0.5933 -1.1940
 2567SOL     OW19162   3.793   2.880  14.181  0.2980 -0.0290 -0.2240
 2567SOL    HW119163   3.748   2.849  14.259  0.0122 -0.7970 -0.6910
 2567SOL    HW219164   3.718   2.920  14.137 -0.1064 -0.5427 -0.0006
 2568SOL     OW19165   1.253   0.779   5.636  0.0212 -0.0785 -0.4604
 2568SOL    HW119166   1.205   0.770   5.718  0.2484 -1.2801 -0.4685
 2568SOL    HW219167   1.338   0.746   5.665 -1.0305 -0.4546  2.1547
 2569SOL     OW19168   0.157   2.509  16.326 -0.1091 -0.2411 -0.2606
 2569SOL    HW119169   0.174   2.507  16.232 -2.2738 -0.1593 -0.6421
 2569SOL    HW219170   0.122   2.594  16.352  0.0624 -0.0546 -0.6366
 2570SOL     OW19171   4.713   2.534   4.680  0.2001  0.6862 -0.0474
 2570SOL    HW119172   0.014   2.598   4.613  3.0021  0.4262  0.6273
 2570SOL    HW219173   0.031   2.455   4.640 -0.8802  2.0909 -3.8631
 2571SOL     OW19174   4.048   3.768  16.555 -0.6469 -0.0673 -0.0406
 2571SOL    HW119175   4.056   3.839  16.491 -0.9351 -0.6908 -0.7737
 2571SOL    HW219176   3.955   3.766  16.576 -0.1203  0.4126  2.3406
 2572SOL     OW19177   0.912   1.626   5.100 -0.5605  0.0522 -0.1659
 2572SOL    HW119178   0.983   1.638   5.038 -0.8347 -2.0113 -0.8760
 2572SOL    HW219179   0.905   1.531   5.104  1.5817 -0.1098 -0.5070
 2573SOL     OW19180   2.193   0.873   9.116  0.0874 -1.2186 -0.2650
 2573SOL    HW119181   2.209   0.778   9.119 -0.6639 -1.4671 -4.7847
 2573SOL    HW219182   2.175   0.871   9.023 -0.8768  0.4404 -0.1087
 2574SOL     OW19183   0.820   2.935   7.490  0.2287 -0.2068 -0.2676
 2574SOL    HW119184   0.799   3.019   7.450 -0.0337 -0.1133  0.0691
 2574SOL    HW219185   0.783   2.965   7.573 -0.2314  0.6340 -0.7808
 2575SOL     OW19186   4.028   1.556   8.123  0.5388 -0.0976 -0.2627
 2575SOL    HW119187   3.990   1.525   8.205  3.7140  0.4262  1.4021
 2575SOL    HW219188   4.041   1.645   8.155  3.0593 -0.5363 -0.0513
 2576SOL     OW19189   0.152   2.731   5.809  0.7208 -0.2367  0.0329
 2576SOL    HW119190   0.097   2.710   5.734  0.5678  0.3391 -0.0156
 2576SOL    HW219191   0.118   2.818   5.832 -0.2754 -0.4799 -0.5117
 2577SOL     OW19192   0.163   0.946   6.648  0.7691 -0.2478  0.4535
 2577SOL    HW119193   0.159   0.868   6.704  2.7467 -0.6572  0.0166
 2577SOL    HW219194   0.160   0.910   6.559  0.8378  1.3920 -0.2095
 2578SOL     OW19195   4.144   1.367   7.771  0.3429  0.3571  0.4116
 2578SOL    HW119196   4.221   1.332   7.816  0.1386 -1.7022 -0.8368
 2578SOL    HW219197   4.077   1.336   7.832 -0.4236 -0.5909 -0.8894
 2579SOL     OW19198   0.063   0.795   7.284 -0.6153 -0.0198  0.3083
 2579SOL    HW119199   4.692   0.813   7.302 -0.4355 -0.1843  1.4402
 2579SOL    HW219200   0.102   0.880   7.303 -0.3081  0.0652 -0.7411
 2580SOL     OW19201   4.444   3.532   7.341 -0.0135  0.0018  0.2433
 2580SOL    HW119202   4.421   3.587   7.416  0.0206  1.4530 -0.8133
 2580SOL    HW219203   4.359   3.494   7.316 -0.1127 -0.1852  0.8669
 2581SOL     OW19204   0.868   4.509   7.247 -0.0370  0.3036  0.1654
 2581SOL    HW119205   0.943   4.550   7.204 -0.3098  1.8108  1.1149
 2581SOL    HW219206   0.912   4.424   7.244 -0.2212  0.2707 -1.3493
 2582SOL     OW19207   3.044   4.560   7.470  0.4034  0.0136 -0.1037
 2582SOL    HW119208   3.051   4.539   7.563 -0.8683 -0.0382 -0.0120
 2582SOL    HW219209   3.105   4.633   7.470  0.4470 -0.0238  0.1691
 2583SOL     OW19210   3.901   3.147  13.167  0.0440 -0.3351  0.0381
 2583SOL    HW119211   3.991   3.136  13.137 -0.1369 -0.4911 -0.4530
 2583SOL    HW219212   3.884   3.240  13.149 -0.3217 -0.2199  0.9768
 2584SOL     OW19213   4.356   2.965   7.270  0.1347  0.2728 -0.2224
 2584SOL    HW119214   4.387   3.051   7.299  0.4473 -0.0966  0.5356
 2584SOL    HW219215   4.408   2.958   7.190 -0.6759  0.5836 -0.7706
 2585SOL     OW19216   1.099   1.152   0.102  0.3464  0.6903  0.9248
 2585SOL    HW119217   1.016   1.198   0.092 -0.3076 -1.3238 -2.6160
 2585SOL    HW219218   1.084   1.098   0.180 -1.2770  0.9068  0.7604
 2586SOL     OW19219   2.694   2.823   7.725 -0.2870 -0.2238  0.1109
 2586SOL    HW119220   2.623   2.812   7.662 -0.3024 -1.5054  0.3568
 2586SOL    HW219221   2.723   2.912   7.703  0.4584 -0.6078 -0.4745
 2587SOL     OW19222   1.757   1.068   3.315 -0.3107 -0.5186 -0.5550
 2587SOL    HW119223   1.786   1.152   3.350  0.0344 -0.9546  0.2145
 2587SOL    HW219224   1.840   1.051   3.271 -0.3323  0.0012 -0.7962
 2588SOL     OW19225   1.384   0.196   8.587 -0.0179  0.1266  0.6480
 2588SOL    HW119226   1.324   0.180   8.514  0.2418  0.1410  0.4280
 2588SOL    HW219227   1.456   0.244   8.545 -0.5451  0.9676  0.7097
 2589SOL     OW19228   2.510   2.121   5.817 -0.4104 -0.4038 -0.2482
 2589SOL    HW119229   2.417   2.116   5.837 -0.9482 -0.5977 -2.8171
 2589SOL    HW219230   2.548   2.097   5.902  1.8006  0.5641 -0.9762
 2590SOL     OW19231   1.022   0.904   2.046  0.0644  0.3078 -0.5207
 2590SOL    HW119232   1.001   0.848   1.972  1.1047  1.5257 -1.7341
 2590SOL    HW219233   1.051   0.986   2.006  2.5429 -0.7596 -0.9354
 2591SOL     OW19234   4.429   0.742  11.673 -0.1919  0.3296  0.3215
 2591SOL    HW119235   4.429   0.655  11.713  1.1175  0.3066  0.2583
 2591SOL    HW219236   4.444   0.797  11.750 -0.7832 -0.7555  1.2215
 2592SOL     OW19237   0.094   2.422   7.533  0.5562 -0.3473  0.3688
 2592SOL    HW119238   0.068   2.401   7.622 -0.6224 -1.4182 -0.2164
 2592SOL    HW219239   0.085   2.340   7.484 -0.5126  0.8373 -1.4178
 2593SOL     OW19240   2.952   2.723   3.208  0.1016 -0.4776 -0.4357
 2593SOL    HW119241   3.037   2.766   3.195 -0.0511 -0.3656 -1.0691
 2593SOL    HW219242   2.952   2.672   3.127  3.1960 -0.5731 -0.3987
 2594SOL     OW19243   0.745   1.527  17.122 -0.3971 -0.0525  0.2782
 2594SOL    HW119244   0.738   1.435  17.095 -0.6128  0.0732 -0.1027
 2594SOL    HW219245   0.831   1.543  17.085 -0.7352 -0.0325 -0.5036
 2595SOL     OW19246   1.696   0.323   7.453  0.0362  0.5121  0.3369
 2595SOL    HW119247   1.714   0.314   7.547  0.7514  0.9714  0.2443
 2595SOL    HW219248   1.707   0.416   7.430 -1.4255  1.1524  2.2092
 2596SOL     OW19249   3.598   1.457   5.175 -0.0729 -0.4940 -0.0428
 2596SOL    HW119250   3.504   1.445   5.187 -0.6589  2.3667 -1.8211
 2596SOL    HW219251   3.588   1.534   5.119 -0.4326  0.2735  1.0784
 2597SOL     OW19252   1.553   1.183   8.781 -0.3280 -0.3204 -0.2732
 2597SOL    HW119253   1.584   1.136   8.703  1.4029 -1.6645  1.2167
 2597SOL    HW219254   1.616   1.148   8.845  2.2674  2.4212 -1.3708
 2598SOL     OW19255   1.808   2.647   9.700  0.3165  0.4833 -0.4173
 2598SOL    HW119256   1.827   2.704   9.775  0.3946 -1.7458  1.2777
 2598SOL    HW219257   1.828   2.557   9.727  0.0157  0.8935  1.1553
 2599SOL     OW19258   1.016   2.263   0.362  0.6217 -0.3690  0.0891
 2599SOL    HW119259   1.028   2.272   0.267 -1.2470 -0.1703 -0.1127
 2599SOL    HW219260   1.083   2.196   0.376  0.8373 -0.3356 -0.7727
 2600SOL     OW19261   2.590   2.872  10.235 -0.3639  0.1031 -0.9256
 2600SOL    HW119262   2.578   2.803  10.170 -1.2200 -1.4837  0.9043
 2600SOL    HW219263   2.510   2.850  10.282  1.4231  0.8019  2.4145
 2601SOL     OW19264   2.824   1.193   6.155  0.1182 -0.7666  0.6367
 2601SOL    HW119265   2.885   1.180   6.228 -0.0611  2.1974  1.2998
 2601SOL    HW219266   2.735   1.200   6.190  0.0073 -0.4318  0.2810
 2602SOL     OW19267   1.231   0.736   5.923  0.4977  0.4752 -0.0474
 2602SOL    HW119268   1.311   0.686   5.932  0.5430  0.2824 -1.5977
 2602SOL    HW219269   1.230   0.775   6.011  1.2932  2.9225 -1.1331
 2603SOL     OW19270   4.077   0.088   5.094 -0.3867 -0.5105  0.1652
 2603SOL    HW119271   4.030   0.170   5.104 -2.3051 -1.3338 -2.2195
 2603SOL    HW219272   4.024   0.046   5.026  0.9446 -0.7996 -0.6881
 2604SOL     OW19273   4.002   2.816   3.456 -0.1774  0.1432  0.1740
 2604SOL    HW119274   3.935   2.884   3.456 -0.8354 -0.4963  1.0052
 2604SOL    HW219275   4.071   2.874   3.425 -0.7477  1.4623  1.3811
 2605SOL     OW19276   4.148   1.414  17.388 -0.3891 -0.3771 -0.9024
 2605SOL    HW119277   4.168   1.459  17.470 -1.1227 -0.8347 -0.4746
 2605SOL    HW219278   4.170   1.487  17.329  0.2999 -1.3063 -1.7879
 2606SOL     OW19279   3.696   3.999   2.045  0.0386 -0.7187  0.3109
 2606SOL    HW119280   3.662   4.065   1.985  1.7616 -0.1403 -0.0340
 2606SOL    HW219281   3.791   4.000   2.038 -0.0472 -1.1372 -0.9018
 2607SOL     OW19282   2.392   0.129   3.836 -0.2645 -0.3940 -0.8649
 2607SOL    HW119283   2.456   0.201   3.837  1.1631 -1.6308 -1.8305
 2607SOL    HW219284   2.447   0.051   3.824  1.8748  0.9094  0.4569
 2608SOL     OW19285   4.033   0.340  15.043 -0.0959  0.5791  0.0301
 2608SOL    HW119286   4.055   0.258  15.001 -1.6581 -0.3301  0.9731
 2608SOL    HW219287   4.121   0.369  15.065 -0.2998 -0.1031  1.7176
 2609SOL     OW19288   3.034   1.676   6.113  0.0714 -0.1262  0.1169
 2609SOL    HW119289   2.999   1.729   6.184  0.8265 -1.3720  1.4298
 2609SOL    HW219290   2.960   1.618   6.094 -0.4287  0.6942 -0.4611
 2610SOL     OW19291   2.248   2.615   5.174 -0.2482 -0.0124  0.2991
 2610SOL    HW119292   2.241   2.527   5.209  1.6283 -0.4857 -0.5241
 2610SOL    HW219293   2.329   2.655   5.208  0.3088 -1.2078  0.3614
 2611SOL     OW19294   0.577   3.178   3.504 -0.1576  0.0270  0.0543
 2611SOL    HW119295   0.492   3.204   3.466  0.1914 -0.2173 -0.9043
 2611SOL    HW219296   0.569   3.208   3.594 -0.6944 -1.9238  0.6487
 2612SOL     OW19297   1.229   3.082   4.428  0.1600  0.3596 -0.3756
 2612SOL    HW119298   1.301   3.085   4.365 -1.5835  1.5775 -2.3225
 2612SOL    HW219299   1.155   3.071   4.368  0.8354  0.1861 -1.1845
 2613SOL     OW19300   2.836   0.266   3.054 -0.7288  0.0315 -0.0300
 2613SOL    HW119301   2.916   0.282   3.104 -0.4677 -0.6355 -0.2313
 2613SOL    HW219302   2.835   0.348   3.004  0.7240  0.1065  0.0640
 2614SOL     OW19303   0.533   2.788   3.597  0.0043 -0.2875  0.3856
 2614SOL    HW119304   0.544   2.698   3.567  2.5946 -0.7271  2.6911
 2614SOL    HW219305   0.437   2.785   3.593  0.1486 -3.7521 -0.3400
 2615SOL     OW19306   4.704   0.458  13.017 -0.1549  0.1991  0.0457
 2615SOL    HW119307   0.010   0.370  12.990  1.9581  1.6565 -2.4995
 2615SOL    HW219308   4.672   0.456  13.107 -0.5610 -2.1771 -0.1519
 2616SOL     OW19309   3.138   2.791   5.651 -0.1068 -0.3952  0.2322
 2616SOL    HW119310   3.098   2.784   5.737  0.5904 -0.5122  0.5497
 2616SOL    HW219311   3.159   2.698   5.638  0.7318 -0.5671  2.7372
 2617SOL     OW19312   3.729   3.302   7.751  0.3138 -0.2964  0.3674
 2617SOL    HW119313   3.721   3.321   7.845  0.5161 -1.8305  0.6902
 2617SOL    HW219314   3.655   3.241   7.744  1.0944 -0.8665 -2.6744
 2618SOL     OW19315   0.202   1.390   1.647  0.2473 -0.4817 -0.0308
 2618SOL    HW119316   0.245   1.465   1.687  0.4455 -0.5288 -0.1513
 2618SOL    HW219317   0.115   1.395   1.686 -0.4463 -1.7137 -1.4204
 2619SOL     OW19318   1.150   0.852   7.464  0.1124  0.4857  0.0073
 2619SOL    HW119319   1.084   0.919   7.485  1.4438  2.3106 -1.6555
 2619SOL    HW219320   1.097   0.773   7.453 -0.8939  1.1958 -0.3159
 2620SOL     OW19321   3.495   2.760   4.664 -0.2627 -0.2835 -0.0731
 2620SOL    HW119322   3.463   2.702   4.734 -3.1015  6.2728  4.0887
 2620SOL    HW219323   3.579   2.716   4.650 -0.9104 -1.4996 -0.1306
 2621SOL     OW19324   0.167   1.255   0.892  0.5575 -0.2108  0.1677
 2621SOL    HW119325   0.221   1.222   0.963 -2.6109 -0.1025  2.6029
 2621SOL    HW219326   0.183   1.349   0.904 -0.3555  0.0492 -0.6691
 2622SOL     OW19327   2.246   0.121   5.270 -0.0205  0.1799  0.0645
 2622SOL    HW119328   2.301   0.189   5.308  0.3647  0.4730 -1.0186
 2622SOL    HW219329   2.273   0.121   5.179 -1.7746  0.3168 -0.4589
 2623SOL     OW19330   3.613   3.695   3.056 -0.3877 -0.0722  0.1260
 2623SOL    HW119331   3.529   3.656   3.032 -0.0596 -0.8900  0.2776
 2623SOL    HW219332   3.672   3.644   3.001 -0.8819  0.5601 -0.9712
 2624SOL     OW19333   0.323   0.395  14.133  0.2543 -0.2478  0.5100
 2624SOL    HW119334   0.327   0.323  14.196 -1.2234  1.2013  2.2810
 2624SOL    HW219335   0.376   0.463  14.174  1.8552  0.8919 -3.5523
 2625SOL     OW19336   2.207   0.740   3.409 -0.2891  0.3422  0.3276
 2625SOL    HW119337   2.131   0.688   3.436 -0.7158  1.1830  0.7341
 2625SOL    HW219338   2.205   0.709   3.318 -4.2064 -1.8661  1.1384
 2626SOL     OW19339   1.259   1.514   8.427  0.1014 -0.7474 -0.8410
 2626SOL    HW119340   1.271   1.442   8.489  0.7907 -0.9693 -1.2335
 2626SOL    HW219341   1.287   1.592   8.475 -1.3225 -0.7131 -0.0613
 2627SOL     OW19342   3.159   1.109   5.323 -0.6383 -0.5078 -0.3932
 2627SOL    HW119343   3.165   1.198   5.289 -0.0389 -0.4814 -0.2122
 2627SOL    HW219344   3.210   1.102   5.403 -2.4938  0.5507  0.8750
 2628SOL     OW19345   4.261   4.112   4.923  0.1904  0.3669  0.0714
 2628SOL    HW119346   4.223   4.054   4.989  2.0872  1.3956  2.0787
 2628SOL    HW219347   4.279   4.054   4.849 -1.4518 -0.8107  0.6203
 2629SOL     OW19348   4.433   2.191   3.280  0.4486  0.1746  0.0171
 2629SOL    HW119349   4.467   2.191   3.370  0.6068 -0.4927 -0.0421
 2629SOL    HW219350   4.339   2.177   3.291  0.6627 -0.3920  1.1854
 2630SOL     OW19351   2.252   2.922  15.613  0.0766  0.0522  0.5858
 2630SOL    HW119352   2.330   2.907  15.667 -0.2615  0.0716  1.0805
 2630SOL    HW219353   2.284   2.908  15.524  1.6375  1.6756  0.8771
 2631SOL     OW19354   2.123   4.671   8.148 -0.5727 -0.5572  0.0526
 2631SOL    HW119355   2.186   0.019   8.130  0.6315 -1.5140  0.6195
 2631SOL    HW219356   2.061   4.705   8.213 -0.6823 -2.1660  0.7928
 2632SOL     OW19357   4.025   0.396   0.563 -0.1112 -0.2458 -1.1622
 2632SOL    HW119358   4.035   0.375   0.656  3.4200  1.1242 -1.2623
 2632SOL    HW219359   4.014   0.311   0.520 -2.6853 -0.0885 -0.8485
 2633SOL     OW19360   1.167   0.415   0.482  0.1230 -0.8418 -0.0502
 2633SOL    HW119361   1.126   0.419   0.568  0.8127 -0.5496  0.2587
 2633SOL    HW219362   1.258   0.415   0.510  0.4829  0.1137 -1.2168
 2634SOL     OW19363   1.458   2.777   0.391  0.7492  0.2880  0.2391
 2634SOL    HW119364   1.547   2.770   0.356  1.1932 -0.6653  1.5703
 2634SOL    HW219365   1.406   2.741   0.319  0.0878  0.7804  0.4819
 2635SOL     OW19366   2.328   3.583  10.825  0.1135  0.1438 -0.2505
 2635SOL    HW119367   2.354   3.606  10.914 -0.1931  1.0616 -0.3991
 2635SOL    HW219368   2.410   3.543  10.796  0.4900  0.9556 -0.3027
 2636SOL     OW19369   4.561   3.197  13.027 -0.5848  0.2231 -0.9215
 2636SOL    HW119370   4.615   3.276  13.026 -0.3624  0.0886  0.1082
 2636SOL    HW219371   4.469   3.223  13.017 -0.7068 -0.2056 -0.9277
 2637SOL     OW19372   3.982   1.356   6.757 -0.2734 -0.0002  0.8614
 2637SOL    HW119373   4.052   1.294   6.739 -0.0621  0.3974  0.3066
 2637SOL    HW219374   3.935   1.362   6.674 -0.1137  0.2752  0.7934
 2638SOL     OW19375   1.907   3.979   1.997 -0.3250 -0.1064 -0.1991
 2638SOL    HW119376   1.886   4.068   2.025  1.6284 -0.0018  0.8883
 2638SOL    HW219377   1.954   3.952   2.076 -2.4840  0.1543  1.2027
 2639SOL     OW19378   2.925   0.052  11.225 -0.0714 -0.1835 -0.2550
 2639SOL    HW119379   2.925   0.095  11.139  2.8044  0.5085  0.1194
 2639SOL    HW219380   2.907   0.126  11.283 -0.5431  0.2960 -1.0041
 2640SOL     OW19381   2.680   4.454   1.508  0.0110 -0.2333 -0.0184
 2640SOL    HW119382   2.606   4.393   1.513  1.3013 -1.7077  1.1053
 2640SOL    HW219383   2.640   4.520   1.451  0.3892 -0.6944 -0.8258
 2641SOL     OW19384   2.351   3.253  15.647 -0.0260 -0.2748 -0.4888
 2641SOL    HW119385   2.400   3.195  15.589  0.7486 -0.2241  0.1128
 2641SOL    HW219386   2.267   3.245  15.602  0.6682  1.7361 -2.1680
 2642SOL     OW19387   4.648   3.344  15.951  0.3300 -0.1061  0.1896
 2642SOL    HW119388   4.699   3.326  16.030  0.3658  1.7844  0.5911
 2642SOL    HW219389   4.558   3.354  15.983  0.9997  1.1994  1.6532
 2643SOL     OW19390   2.489   3.112  15.441 -0.7002 -0.0449 -0.1231
 2643SOL    HW119391   2.424   3.054  15.403  0.2183 -0.0342 -1.6935
 2643SOL    HW219392   2.522   3.149  15.359 -2.3136  1.8563  0.1038
 2644SOL     OW19393   0.328   3.574   8.721  0.0250 -0.4640 -0.0956
 2644SOL    HW119394   0.371   3.626   8.788 -2.2781  1.4984 -0.1434
 2644SOL    HW219395   0.310   3.638   8.652 -0.7917  0.2371  0.7782
 2645SOL     OW19396   2.797   1.939   7.681  0.1363  0.0414 -0.2374
 2645SOL    HW119397   2.707   1.944   7.649 -0.0140  2.3686  0.5057
 2645SOL    HW219398   2.829   1.873   7.619  1.8425  0.9439 -0.3265
 2646SOL     OW19399   2.274   0.099  12.554  0.2864 -0.1987  0.1293
 2646SOL    HW119400   2.298   0.149  12.476 -0.7557 -0.4800 -0.3707
 2646SOL    HW219401   2.359   0.111  12.595 -0.2218  0.0144  1.1250
 2647SOL     OW19402   1.915   3.303   9.044 -0.1976 -0.3353  0.4805
 2647SOL    HW119403   1.935   3.377   9.102 -1.0885 -0.8567  1.4730
 2647SOL    HW219404   1.987   3.307   8.981 -0.3768  1.8921  0.4088
 2648SOL     OW19405   4.626   0.659   0.321 -0.2641  0.0105  0.1334
 2648SOL    HW119406   4.703   0.686   0.271 -1.3796  0.1103 -1.5390
 2648SOL    HW219407   4.650   0.567   0.335 -0.3632 -0.1103 -0.5164
 2649SOL     OW19408   0.435   0.862   8.201 -0.2785  0.2521  0.4928
 2649SOL    HW119409   0.485   0.900   8.273  0.5414  0.8871 -0.4071
 2649SOL    HW219410   0.365   0.815   8.247 -0.7414 -0.6036 -1.0918
 2650SOL     OW19411   3.816   1.981   2.705 -0.1035 -0.0791 -0.2347
 2650SOL    HW119412   3.783   1.923   2.773 -0.8143  2.6984  1.7728
 2650SOL    HW219413   3.859   1.918   2.648 -0.3806 -0.6996  0.2531
 2651SOL     OW19414   1.339   3.504   5.570 -0.5438 -0.6300  0.2071
 2651SOL    HW119415   1.253   3.547   5.569  0.2934  0.9730 -1.8991
 2651SOL    HW219416   1.310   3.413   5.579 -1.9758 -0.4187 -2.1271
 2652SOL     OW19417   3.607   0.874   1.416  0.3863 -0.2963 -0.6482
 2652SOL    HW119418   3.588   0.931   1.490  1.1041 -0.8549 -0.0254
 2652SOL    HW219419   3.672   0.922   1.365 -0.7177  0.9228 -0.9065
 2653SOL     OW19420   4.412   0.515   2.601 -0.0403  0.0412  0.1114
 2653SOL    HW119421   4.337   0.541   2.655  1.7608  2.4583  1.4925
 2653SOL    HW219422   4.414   0.577   2.529 -0.6174  0.2734  0.2987
 2654SOL     OW19423   1.681   2.719   1.166 -0.0826  0.5674 -0.0547
 2654SOL    HW119424   1.587   2.734   1.180 -0.5089 -1.0844 -1.2431
 2654SOL    HW219425   1.719   2.694   1.250 -1.1757 -0.1726  0.2118
 2655SOL     OW19426   0.637   1.107   5.761 -0.5315 -0.0003  0.3196
 2655SOL    HW119427   0.624   1.083   5.853  3.5826 -0.2107  0.8464
 2655SOL    HW219428   0.551   1.079   5.729 -0.7302  1.6068 -0.5923
 2656SOL     OW19429   3.563   0.131   7.689  0.1459  0.4788 -0.1991
 2656SOL    HW119430   3.541   0.165   7.776  0.7866  1.4091 -0.3937
 2656SOL    HW219431   3.517   0.048   7.679 -0.3507  0.8283 -0.7732
 2657SOL     OW19432   0.907   2.032   5.897  0.3698 -0.1078  0.3576
 2657SOL    HW119433   0.863   2.006   5.978  3.5964 -2.9212  1.1948
 2657SOL    HW219434   0.954   2.106   5.936  1.9265 -0.5219 -0.7310
 2658SOL     OW19435   1.785   2.989   5.453  0.1428  0.1981 -0.0593
 2658SOL    HW119436   1.746   2.930   5.518 -1.1773 -1.1124 -2.0057
 2658SOL    HW219437   1.767   3.073   5.495  1.5135  0.9509 -1.0060
 2659SOL     OW19438   4.100   2.857  14.065 -0.5513 -0.2244  0.4823
 2659SOL    HW119439   4.014   2.835  14.028 -0.5181  0.2758  0.1103
 2659SOL    HW219440   4.166   2.797  14.030 -0.3613  0.8666 -1.0173
 2660SOL     OW19441   4.293   0.324   3.588  0.0466  0.2692  0.2302
 2660SOL    HW119442   4.269   0.321   3.680 -0.2554  0.5440  0.1606
 2660SOL    HW219443   4.217   0.374   3.558  0.7690 -1.1949 -4.1113
 2661SOL     OW19444   0.419   0.984   5.663  0.1724 -0.0931  0.0234
 2661SOL    HW119445   0.393   0.899   5.628 -0.0590  1.2900 -3.2798
 2661SOL    HW219446   0.336   1.028   5.642  0.5404  0.8881  0.6083
 2662SOL     OW19447   4.478   0.697  15.687  0.3153 -0.0569 -0.0203
 2662SOL    HW119448   4.556   0.719  15.637 -0.0271 -0.6423 -0.8040
 2662SOL    HW219449   4.413   0.732  15.627 -0.6706 -0.3161  0.9019
 2663SOL     OW19450   1.232   3.040   7.651 -0.2170  0.3517  0.1181
 2663SOL    HW119451   1.252   2.966   7.593 -1.2773  0.8170 -0.8554
 2663SOL    HW219452   1.278   3.116   7.615  0.4012  0.1522  0.4882
 2664SOL     OW19453   3.104   1.793  17.024  0.5474  0.4338 -0.5396
 2664SOL    HW119454   3.061   1.845  16.956 -0.5779  1.5488  1.0174
 2664SOL    HW219455   3.127   1.719  16.968  0.3978  0.8413 -1.1436
 2665SOL     OW19456   1.063   3.868   0.146  0.1033  0.4030 -0.5586
 2665SOL    HW119457   1.043   3.883   0.239  1.2304 -1.2929 -0.0529
 2665SOL    HW219458   0.979   3.897   0.111 -1.2830  0.0260  2.4521
 2666SOL     OW19459   2.514   0.052   0.032 -0.9699 -0.0747  0.0257
 2666SOL    HW119460   2.547   0.014   0.113  0.7712  2.0674  0.3068
 2666SOL    HW219461   2.573   0.127   0.034  0.5130 -1.2941  2.0076
 2667SOL     OW19462   3.436   0.977   2.715  0.4543  0.2141  0.4446
 2667SOL    HW119463   3.372   0.919   2.756 -0.5248 -0.0757 -1.4644
 2667SOL    HW219464   3.522   0.939   2.731  0.0395 -0.6186  0.7339
 2668SOL     OW19465   3.835   4.199  15.922 -0.7003 -0.0682  0.2857
 2668SOL    HW119466   3.844   4.291  15.900  1.0355 -0.1871  0.4683
 2668SOL    HW219467   3.778   4.161  15.855  0.2304  1.5602 -1.4042
 2669SOL     OW19468   1.395   2.453   4.317  0.0049 -0.3767 -0.0138
 2669SOL    HW119469   1.375   2.529   4.263 -1.4633 -0.1048  0.9002
 2669SOL    HW219470   1.489   2.451   4.301  0.1032  0.3913  0.4860
 2670SOL     OW19471   3.085   4.049  10.903  0.2805 -0.5041 -0.2587
 2670SOL    HW119472   3.031   3.999  10.965 -1.1523 -0.0081 -1.0929
 2670SOL    HW219473   3.172   4.025  10.934  2.4138  2.6188 -3.6737
 2671SOL     OW19474   0.667   3.826   7.154  0.1913 -0.4451 -0.1221
 2671SOL    HW119475   0.730   3.769   7.110  1.5275 -0.4025  1.7084
 2671SOL    HW219476   0.603   3.768   7.194 -0.9297  1.6134  1.0865
 2672SOL     OW19477   1.460   0.662   1.358 -0.6894  0.8241  0.1835
 2672SOL    HW119478   1.377   0.667   1.310 -0.2513  0.4997 -0.6000
 2672SOL    HW219479   1.514   0.618   1.292 -0.9221  0.8416 -0.0181
 2673SOL     OW19480   2.084   2.459   7.266 -0.3328 -0.2840 -0.7440
 2673SOL    HW119481   2.032   2.448   7.186 -0.1120 -2.2513 -0.6209
 2673SOL    HW219482   2.013   2.441   7.329 -1.5142 -0.6397 -2.1606
 2674SOL     OW19483   0.182   3.208   3.685  0.4034 -0.1047  0.8128
 2674SOL    HW119484   0.214   3.170   3.767  3.1442 -1.6904 -1.0324
 2674SOL    HW219485   0.263   3.222   3.637 -0.0835  0.4088  0.1472
 2675SOL     OW19486   0.153   4.555   5.444 -0.0159 -0.1414  0.4922
 2675SOL    HW119487   0.164   4.475   5.497 -0.1229  0.9437  2.1582
 2675SOL    HW219488   0.149   4.618   5.516 -0.7564  1.9995 -1.4319
 2676SOL     OW19489   4.642   1.826   7.141  0.2525  0.5634  0.3233
 2676SOL    HW119490   4.584   1.900   7.158 -1.4972 -0.5934 -0.6078
 2676SOL    HW219491   4.648   1.826   7.045  2.9293 -1.2646  0.5035
 2677SOL     OW19492   1.598   1.461  10.990  0.3130 -0.0344  0.3428
 2677SOL    HW119493   1.596   1.500  10.903  0.5652  0.6977  0.6602
 2677SOL    HW219494   1.547   1.522  11.044 -1.5946 -0.3203 -1.1508
 2678SOL     OW19495   2.254   4.395  14.528  0.1019 -0.4106  0.9129
 2678SOL    HW119496   2.237   4.465  14.465  1.4986  0.2134  1.2380
 2678SOL    HW219497   2.332   4.353  14.493 -0.8321 -2.2653  1.0767
 2679SOL     OW19498   1.651   0.555  15.150 -0.2102  0.1603  0.1928
 2679SOL    HW119499   1.660   0.640  15.106  0.1715  0.1128  0.1745
 2679SOL    HW219500   1.682   0.583  15.237  0.4334 -1.6086  0.5298
 2680SOL     OW19501   2.692   1.832   4.195  0.0508  0.1399 -0.2805
 2680SOL    HW119502   2.641   1.877   4.262 -0.9325 -1.1934 -0.1367
 2680SOL    HW219503   2.628   1.791   4.136 -0.2881  1.1538 -0.6138
 2681SOL     OW19504   3.490   0.716   2.978  0.0418  0.0238  0.0880
 2681SOL    HW119505   3.522   0.753   2.896 -2.8089  0.0794 -0.9902
 2681SOL    HW219506   3.570   0.668   2.999 -0.6834 -0.8225  0.9625
 2682SOL     OW19507   3.055   1.580   0.711 -0.4396  0.4437  0.1280
 2682SOL    HW119508   3.066   1.590   0.617 -1.1829  1.4954  0.1600
 2682SOL    HW219509   3.040   1.487   0.692 -3.8126  0.7682  1.3141
 2683SOL     OW19510   0.313   1.229   7.783  0.4155  0.1024  0.6494
 2683SOL    HW119511   0.334   1.309   7.734  3.1927 -0.6867  0.5991
 2683SOL    HW219512   0.293   1.277   7.863  0.5227  3.2341 -1.1769
 2684SOL     OW19513   0.241   0.324   0.255  0.3000  0.4225 -0.0349
 2684SOL    HW119514   0.290   0.258   0.306 -2.7385 -2.6452 -1.1045
 2684SOL    HW219515   0.165   0.271   0.230  1.9646 -1.7009 -0.6528
 2685SOL     OW19516   1.604   0.916   8.009  0.0470  0.4518  0.1267
 2685SOL    HW119517   1.557   0.899   7.927  2.4216 -0.6839 -0.9824
 2685SOL    HW219518   1.587   1.006   8.037 -0.2224  0.8417 -1.2828
 2686SOL     OW19519   1.889   0.170   9.582 -0.0569 -0.3106 -0.3327
 2686SOL    HW119520   1.837   0.249   9.573  0.4199  0.0551  0.0997
 2686SOL    HW219521   1.921   0.187   9.671 -0.5974  0.8760 -0.3641
 2687SOL     OW19522   2.920   2.792   4.326  0.4178  0.3602  0.2217
 2687SOL    HW119523   2.912   2.700   4.353  0.6333  0.5092  0.8016
 2687SOL    HW219524   2.953   2.830   4.408 -0.8440  1.5213  0.1943
 2688SOL     OW19525   3.828   0.048   7.645 -0.2892  0.3168 -0.2717
 2688SOL    HW119526   3.738   0.080   7.654  0.9092  3.9525 -1.6281
 2688SOL    HW219527   3.814   4.717   7.565  0.7575  0.6340 -0.6541
 2689SOL     OW19528   3.812   3.122   3.486  0.3876  0.4461  0.1738
 2689SOL    HW119529   3.889   3.151   3.535  1.0532 -0.0387 -0.5683
 2689SOL    HW219530   3.742   3.135   3.549  0.1108 -2.8899  0.5542
 2690SOL     OW19531   0.683   1.539   8.178 -0.6971 -0.1574  0.3401
 2690SOL    HW119532   0.628   1.613   8.154  0.3599 -0.1737 -2.0886
 2690SOL    HW219533   0.666   1.486   8.101  0.2442 -2.0406  1.4198
 2691SOL     OW19534   3.793   3.495   6.254  0.1327  0.1518 -0.4537
 2691SOL    HW119535   3.815   3.402   6.262  1.2261  0.4350 -0.2146
 2691SOL    HW219536   3.820   3.526   6.341  2.0589  0.8461 -1.2954
 2692SOL     OW19537   0.979   4.238  16.465  0.0768 -0.2965  0.0190
 2692SOL    HW119538   0.955   4.313  16.409  1.4054  1.2061  1.4657
 2692SOL    HW219539   1.072   4.240  16.444  0.4541  1.3252  1.9194
 2693SOL     OW19540   2.654   4.463   2.741 -0.0437  0.0734  0.8445
 2693SOL    HW119541   2.734   4.413   2.760  0.5005  0.6148 -0.0440
 2693SOL    HW219542   2.623   4.403   2.673  1.0799 -0.5712  0.8968
 2694SOL     OW19543   2.700   1.725   3.541  0.2227  0.1629 -0.1768
 2694SOL    HW119544   2.780   1.674   3.556 -1.0895 -1.1957  2.1067
 2694SOL    HW219545   2.642   1.653   3.516  0.9251  0.5887 -3.0941
 2695SOL     OW19546   3.489   1.678   6.756  0.3791 -0.1539  0.0011
 2695SOL    HW119547   3.563   1.646   6.808  2.6001  1.6345 -2.0599
 2695SOL    HW219548   3.470   1.756   6.808 -2.8296  0.3276 -1.9160
 2696SOL     OW19549   2.800   1.328   4.478  0.7816 -0.8006 -0.4289
 2696SOL    HW119550   2.766   1.372   4.556 -0.3419 -2.8941  0.2416
 2696SOL    HW219551   2.761   1.390   4.415  2.5304  1.6620  0.8943
 2697SOL     OW19552   2.911   2.345   3.177 -0.0117 -0.0116 -0.1187
 2697SOL    HW119553   2.826   2.303   3.174 -0.2237  0.3110  1.5441
 2697SOL    HW219554   2.932   2.349   3.270 -0.2955 -0.7836 -0.0222
 2698SOL     OW19555   3.272   1.581  10.610  0.2799  0.5292 -0.0657
 2698SOL    HW119556   3.179   1.556  10.613  0.2421  0.7827  0.9737
 2698SOL    HW219557   3.308   1.515  10.551  1.1121  0.9298 -0.0017
 2699SOL     OW19558   4.196   4.641   7.278  0.1659 -0.0762  0.1092
 2699SOL    HW119559   4.153   4.702   7.337  0.5381  1.7134 -1.4796
 2699SOL    HW219560   4.117   4.607   7.235  1.3482 -1.7056 -0.7829
 2700SOL     OW19561   3.227   0.732   8.495 -0.2160 -0.8667  0.6407
 2700SOL    HW119562   3.218   0.639   8.475  0.3001 -0.6625 -0.4993
 2700SOL    HW219563   3.244   0.725   8.589  0.5354 -0.9886  0.4988
 2701SOL     OW19564   4.472   2.828   4.460  0.0605  0.1173 -0.2103
 2701SOL    HW119565   4.429   2.747   4.485  1.2787 -0.0470  1.3360
 2701SOL    HW219566   4.501   2.801   4.372 -0.7605 -3.2081  0.5426
 2702SOL     OW19567   4.441   0.490   7.799  0.3421  0.1478  0.5554
 2702SOL    HW119568   4.408   0.569   7.757  0.7357 -0.8738 -1.6901
 2702SOL    HW219569   4.393   0.482   7.881  0.1998  2.0298  0.6526
 2703SOL     OW19570   4.597   0.880   3.686  0.1511 -0.1850 -0.0522
 2703SOL    HW119571   4.587   0.793   3.723 -0.6659 -0.1709 -0.2253
 2703SOL    HW219572   4.658   0.928   3.742  1.0735  0.5379 -1.6965
 2704SOL     OW19573   1.776   0.751   4.932 -0.4057  0.1137  0.0368
 2704SOL    HW119574   1.827   0.827   4.960 -0.8408  0.3478  0.1917
 2704SOL    HW219575   1.777   0.754   4.836  0.5053 -1.0659  0.0005
 2705SOL     OW19576   2.334   0.097   4.803  0.2646 -0.1606  0.1499
 2705SOL    HW119577   2.424   0.107   4.835  0.9221  1.0363 -2.0290
 2705SOL    HW219578   2.291   0.172   4.845  2.4587  0.8123  0.6870
 2706SOL     OW19579   1.671   4.023   7.584 -0.1875  0.3577 -0.5648
 2706SOL    HW119580   1.664   3.930   7.608  0.7225  0.1854 -0.9529
 2706SOL    HW219581   1.759   4.052   7.608  0.1545 -1.2879  0.1838
 2707SOL     OW19582   3.511   4.711  14.138  0.0966 -0.1205  0.0098
 2707SOL    HW119583   3.522   0.074  14.183  1.0937  0.1808 -0.7969
 2707SOL    HW219584   3.458   4.661  14.201  1.0618 -0.4818  0.5430
 2708SOL     OW19585   3.402   1.528   0.362  0.3228  0.9020  0.7458
 2708SOL    HW119586   3.462   1.483   0.422  0.4514 -2.8578 -2.1829
 2708SOL    HW219587   3.375   1.595   0.424  3.5694  1.7213  1.2479
 2709SOL     OW19588   2.798   4.384  11.715 -0.3881 -0.5349  0.2272
 2709SOL    HW119589   2.721   4.433  11.743  0.5452  1.8297 -1.3250
 2709SOL    HW219590   2.871   4.445  11.721 -0.0036 -0.8648 -1.1494
 2710SOL     OW19591   3.791   0.205  14.045 -0.0884 -0.0228 -0.2739
 2710SOL    HW119592   3.815   0.294  14.072 -2.6458  0.7230 -0.5082
 2710SOL    HW219593   3.703   0.201  14.082  0.0427  0.6200  0.1159
 2711SOL     OW19594   1.985   2.324   6.752  0.1553  0.1169 -0.0786
 2711SOL    HW119595   1.973   2.234   6.782  2.8673 -0.1398  0.2374
 2711SOL    HW219596   1.899   2.347   6.716  0.3124  1.8476  0.6366
 2712SOL     OW19597   0.830   2.139   9.271 -0.3643  0.3732  0.5714
 2712SOL    HW119598   0.867   2.157   9.358 -0.5091  0.5664  0.5935
 2712SOL    HW219599   0.839   2.224   9.228 -0.4868  1.0940  1.9585
 2713SOL     OW19600   3.145   2.968   5.232 -0.1768 -0.3374 -0.1166
 2713SOL    HW119601   3.093   2.961   5.312  0.0492  1.9551  0.2062
 2713SOL    HW219602   3.201   2.891   5.247 -0.0287  0.1350  1.7529
 2714SOL     OW19603   1.892   0.619   3.129 -0.9002  0.0176  0.1858
 2714SOL    HW119604   1.883   0.669   3.048 -1.1292 -1.9722 -1.0229
 2714SOL    HW219605   1.849   0.676   3.192 -0.6775 -1.9181  2.1040
 2715SOL     OW19606   1.358   1.708  16.578  0.7474 -0.7817 -0.3981
 2715SOL    HW119607   1.345   1.749  16.664 -0.7756 -1.6039 -0.2385
 2715SOL    HW219608   1.430   1.648  16.593 -0.3787 -1.4987  2.1871
 2716SOL     OW19609   4.719   1.693   7.701 -0.5672  0.2956 -0.8351
 2716SOL    HW119610   0.040   1.690   7.614 -1.7451  1.4342 -1.4396
 2716SOL    HW219611   4.646   1.748   7.675 -0.8435  1.1445  1.8182
 2717SOL     OW19612   0.508   3.170  11.347 -0.2687 -0.0802  0.4084
 2717SOL    HW119613   0.561   3.099  11.310  0.7540  0.6635  0.4182
 2717SOL    HW219614   0.555   3.244  11.307 -0.7116  0.9503  1.7697
 2718SOL     OW19615   2.213   1.396   1.268 -0.2649  0.0160  0.3011
 2718SOL    HW119616   2.169   1.324   1.224  0.6517 -1.5082  1.8921
 2718SOL    HW219617   2.291   1.351   1.301 -0.6018 -1.1791 -0.5685
 2719SOL     OW19618   2.750   4.644   7.626 -0.4880  0.7412 -0.4267
 2719SOL    HW119619   2.783   4.585   7.558  1.2042  0.4665  0.6456
 2719SOL    HW219620   2.772   0.001   7.574 -1.6458  0.3293 -1.5359
 2720SOL     OW19621   2.543   1.285   8.664  0.2795 -0.1965 -0.3089
 2720SOL    HW119622   2.589   1.220   8.718 -0.5331 -0.8528 -0.3973
 2720SOL    HW219623   2.595   1.362   8.683 -2.9493  2.1308 -0.8716
 2721SOL     OW19624   2.355   3.422  16.858 -0.1816 -0.3640 -0.1944
 2721SOL    HW119625   2.331   3.379  16.941  1.4351  1.3255  1.1516
 2721SOL    HW219626   2.319   3.367  16.789 -0.9602 -0.5847  0.3746
 2722SOL     OW19627   1.140   2.681  14.966 -0.2642  0.0874  0.2935
 2722SOL    HW119628   1.115   2.589  14.958 -1.9369  0.6026 -0.4454
 2722SOL    HW219629   1.166   2.705  14.877  1.7572 -0.0069  0.8631
 2723SOL     OW19630   2.813   3.739   4.347 -0.1766 -0.2347 -0.1865
 2723SOL    HW119631   2.790   3.661   4.297  3.0591 -0.9720 -0.5198
 2723SOL    HW219632   2.878   3.693   4.400  2.2152  1.3409 -1.7709
 2724SOL     OW19633   2.952   1.766   3.201 -0.5121  0.6209 -0.6399
 2724SOL    HW119634   2.944   1.850   3.247 -0.0809  1.0915 -1.4334
 2724SOL    HW219635   3.045   1.775   3.181  0.4272  2.2214  4.2760
 2725SOL     OW19636   4.313   0.964  15.525  0.2346 -0.5439 -0.6447
 2725SOL    HW119637   4.394   0.987  15.479  0.9282 -1.8574 -0.0682
 2725SOL    HW219638   4.261   1.000  15.453  0.1416  1.0744  0.2381
 2726SOL     OW19639   3.721   3.219  12.682 -0.2661 -0.2431 -0.6239
 2726SOL    HW119640   3.632   3.214  12.718 -0.2593  3.3171 -0.1026
 2726SOL    HW219641   3.701   3.287  12.617 -0.6493  0.3800  0.1427
 2727SOL     OW19642   1.808   1.936  13.117  0.0775  0.1824 -0.0644
 2727SOL    HW119643   1.743   1.995  13.078  0.0178 -1.2187 -2.0508
 2727SOL    HW219644   1.886   1.983  13.088  0.6618 -0.6242  0.1879
 2728SOL     OW19645   4.075   4.201   8.448  0.0925  0.7195  0.1583
 2728SOL    HW119646   4.076   4.181   8.542  0.1247  4.0412  0.8719
 2728SOL    HW219647   4.071   4.111   8.415  0.1026  0.2236  1.4841
 2729SOL     OW19648   2.275   2.321   9.095 -0.2396 -0.2293  0.2546
 2729SOL    HW119649   2.251   2.280   9.178 -0.6177  2.7141  1.6013
 2729SOL    HW219650   2.184   2.336   9.067 -0.2173  0.5330  0.5770
 2730SOL     OW19651   0.234   2.762   6.410 -0.2031 -0.0550 -0.3246
 2730SOL    HW119652   0.288   2.833   6.445  0.4209 -1.4294  1.5013
 2730SOL    HW219653   0.175   2.744   6.484 -1.9609 -0.4097 -1.8174
 2731SOL     OW19654   4.446   1.539   9.005  0.2998 -0.1382 -0.0464
 2731SOL    HW119655   4.472   1.628   9.030  0.6120  0.0171 -0.9442
 2731SOL    HW219656   4.363   1.532   9.051  0.3555  2.2086  0.4243
 2732SOL     OW19657   1.624   3.463  12.400  0.0650 -0.1577 -0.9196
 2732SOL    HW119658   1.706   3.489  12.358 -0.0232  0.1530 -0.8963
 2732SOL    HW219659   1.657   3.389  12.451  0.2070  1.4761  1.3488
 2733SOL     OW19660   3.422   3.586  11.996  0.5151  0.2463 -0.1680
 2733SOL    HW119661   3.437   3.526  11.923  0.9040 -0.1292  0.2247
 2733SOL    HW219662   3.359   3.641  11.949 -0.4750 -1.2392 -0.5689
 2734SOL     OW19663   4.706   1.135   6.148  0.7457  0.1016 -0.6634
 2734SOL    HW119664   0.065   1.103   6.105  1.7630 -1.1349  2.1979
 2734SOL    HW219665   0.025   1.184   6.219  0.8651 -2.4694  1.0405
 2735SOL     OW19666   1.568   4.455   5.853 -0.3394  0.1615 -0.0873
 2735SOL    HW119667   1.475   4.467   5.834 -0.3658  0.4385  0.2035
 2735SOL    HW219668   1.584   4.534   5.905  1.5658 -1.9733  2.5898
 2736SOL     OW19669   2.756   4.135   0.129  0.8730 -0.0474 -0.1814
 2736SOL    HW119670   2.781   4.047   0.157  1.1095  0.6733  1.8706
 2736SOL    HW219671   2.691   4.123   0.060  1.3391  2.0468 -1.0111
 2737SOL     OW19672   0.417   2.514   8.272 -0.2231  0.5207 -0.5676
 2737SOL    HW119673   0.430   2.588   8.331 -0.7044 -1.8168  2.4578
 2737SOL    HW219674   0.321   2.518   8.273 -0.2929 -0.8519 -0.9606
 2738SOL     OW19675   0.770   2.098   9.010  0.5883 -0.4215 -0.0092
 2738SOL    HW119676   0.778   2.189   8.982 -1.4142  0.0992  1.1739
 2738SOL    HW219677   0.771   2.109   9.105 -0.2677 -0.7635  0.0397
 2739SOL     OW19678   3.236   4.353   2.458 -0.2238 -0.2382  0.4866
 2739SOL    HW119679   3.191   4.374   2.376  0.6034 -1.3323 -0.2543
 2739SOL    HW219680   3.200   4.267   2.478 -0.7026  0.1195  1.1731
 2740SOL     OW19681   4.419   0.894   2.934 -0.0014  0.0636  0.2048
 2740SOL    HW119682   4.426   0.860   3.023 -3.8252 -1.2435  0.0087
 2740SOL    HW219683   4.453   0.813   2.896  1.7439  0.5537  0.7307
 2741SOL     OW19684   1.609   2.177   8.962 -0.1509  0.0205 -0.4308
 2741SOL    HW119685   1.533   2.184   8.905 -0.9937 -2.6052  0.3887
 2741SOL    HW219686   1.635   2.269   8.969 -0.2887  0.0213  0.0866
 2742SOL     OW19687   4.285   1.797   2.449  0.2365  0.4958  0.0691
 2742SOL    HW119688   4.222   1.811   2.520  1.3558  0.0808  1.1404
 2742SOL    HW219689   4.221   1.789   2.378  1.7993  0.8601 -1.3610
 2743SOL     OW19690   0.379   3.535   3.938 -0.7062 -0.1651 -0.4698
 2743SOL    HW119691   0.362   3.512   4.030  0.1880  0.6403 -0.1061
 2743SOL    HW219692   0.292   3.557   3.906 -0.6732 -2.4027 -2.0336
 2744SOL     OW19693   1.644   0.568   1.689  0.2649  0.2111 -0.6508
 2744SOL    HW119694   1.665   0.638   1.627  4.8760 -1.3799 -0.8896
 2744SOL    HW219695   1.686   0.494   1.645 -1.1556 -0.5142 -0.7876
 2745SOL     OW19696   2.909   3.565  16.066 -0.1387 -0.0014 -0.0983
 2745SOL    HW119697   2.994   3.537  16.032 -1.7630 -2.9022 -1.7685
 2745SOL    HW219698   2.853   3.554  15.989  0.2867 -1.2984 -0.2089
 2746SOL     OW19699   0.546   0.959   6.315  0.1607 -0.1285 -0.0485
 2746SOL    HW119700   0.499   1.019   6.373 -0.9561 -1.7450  0.7106
 2746SOL    HW219701   0.629   0.953   6.363 -0.1353  0.4369  0.5387
 2747SOL     OW19702   1.896   2.963   8.569 -0.6125 -0.3709  0.0816
 2747SOL    HW119703   1.971   2.944   8.626  0.3159 -1.3566 -1.4482
 2747SOL    HW219704   1.922   2.974   8.478  1.8887  1.2762  0.9751
 2748SOL     OW19705   4.687   4.049   8.472 -0.1851 -0.3247 -0.6219
 2748SOL    HW119706   4.703   4.124   8.415  0.4431  2.1158  2.7732
 2748SOL    HW219707   4.667   3.979   8.409 -0.0110 -1.9550  1.1315
 2749SOL     OW19708   4.622   0.296  14.070 -0.3719 -0.9861  0.0807
 2749SOL    HW119709   4.570   0.272  13.993  1.4523  0.5587 -1.6175
 2749SOL    HW219710   4.556   0.335  14.127 -1.0047  1.2555 -2.1974
 2750SOL     OW19711   1.261   1.664   1.391  0.1420  0.4320 -0.0121
 2750SOL    HW119712   1.211   1.592   1.430  1.9461 -1.9648 -2.1433
 2750SOL    HW219713   1.193   1.721   1.357 -0.5138 -0.6559 -0.5133
 2751SOL     OW19714   2.068   3.947   5.769  0.1474  0.0662 -0.4284
 2751SOL    HW119715   2.065   3.963   5.675 -1.2357 -0.8498 -0.5408
 2751SOL    HW219716   2.146   4.000   5.787 -0.9605  1.3338  0.5738
 2752SOL     OW19717   0.695   2.377   4.221 -0.2864  0.6197  0.7115
 2752SOL    HW119718   0.746   2.311   4.174  2.6676  2.6268  1.1704
 2752SOL    HW219719   0.602   2.369   4.199 -0.3216 -0.4788  1.2351
 2753SOL     OW19720   2.495   3.588  14.532  0.0128  0.2770  0.4717
 2753SOL    HW119721   2.529   3.505  14.497 -1.2371 -1.0006  2.3395
 2753SOL    HW219722   2.409   3.590  14.491 -0.1872  0.2909  0.8931
 2754SOL     OW19723   4.694   1.424   5.957  0.3269  0.7623  0.5431
 2754SOL    HW119724   0.049   1.383   5.916 -0.0950  0.1840  0.3276
 2754SOL    HW219725   4.702   1.358   6.026  1.0205 -0.4481 -0.6913
 2755SOL     OW19726   4.171   1.905   9.095  0.4511  0.0898 -0.0553
 2755SOL    HW119727   4.257   1.918   9.135  0.9477  0.2450 -1.1829
 2755SOL    HW219728   4.132   1.849   9.162  1.2753 -0.2010  0.1889
 2756SOL     OW19729   4.673   1.106   3.850 -0.2854 -0.6914  0.3818
 2756SOL    HW119730   4.580   1.097   3.828 -0.7564 -0.8775  2.4197
 2756SOL    HW219731   4.693   1.167   3.779 -1.8599 -1.2196 -0.5198
 2757SOL     OW19732   3.745   1.684   3.723  1.2079  0.0187  0.0393
 2757SOL    HW119733   3.816   1.748   3.723  2.7327 -1.6612  1.3490
 2757SOL    HW219734   3.676   1.726   3.776  2.6773  0.5817  1.4878
 2758SOL     OW19735   1.420   2.564   3.387  0.0157  0.2171 -0.3853
 2758SOL    HW119736   1.374   2.534   3.466  0.3690 -1.5990 -0.8622
 2758SOL    HW219737   1.507   2.538   3.417  0.0091  2.2022  1.3494
 2759SOL     OW19738   2.264   3.655   9.140 -0.6071  0.2535 -0.0249
 2759SOL    HW119739   2.332   3.669   9.206 -1.4050  1.4344  0.5519
 2759SOL    HW219740   2.268   3.737   9.090  4.1483  0.8147  1.3052
 2760SOL     OW19741   0.841   2.830   6.047 -0.2307 -0.0819 -0.4048
 2760SOL    HW119742   0.805   2.904   6.096  0.3598 -0.6975  0.9547
 2760SOL    HW219743   0.817   2.754   6.099  0.0151  0.0258 -0.1311
 2761SOL     OW19744   3.796   4.658  14.216 -0.0294  0.2733  0.7443
 2761SOL    HW119745   3.788   4.707  14.134 -2.4013  1.5035  1.7331
 2761SOL    HW219746   3.707   4.639  14.243 -0.0451  0.0440  0.5412
 2762SOL     OW19747   1.340   0.768  11.631 -0.1999  0.2558  0.2615
 2762SOL    HW119748   1.358   0.678  11.604 -1.7119  0.5138 -1.6566
 2762SOL    HW219749   1.310   0.755  11.721 -2.2979 -0.2167 -0.5045
 2763SOL     OW19750   0.411   2.322   3.440 -0.5740  0.0395  0.2048
 2763SOL    HW119751   0.489   2.365   3.474 -0.7446  2.1584 -2.1297
 2763SOL    HW219752   0.424   2.228   3.456 -1.5641  0.1805  1.8996
 2764SOL     OW19753   0.622   1.519   4.700 -0.0823  0.2253 -0.0825
 2764SOL    HW119754   0.593   1.428   4.706  2.6972 -0.7682 -1.3697
 2764SOL    HW219755   0.629   1.533   4.606 -0.4897 -0.5199 -0.2234
 2765SOL     OW19756   2.160   3.040   2.133 -0.4013 -0.1349 -0.0639
 2765SOL    HW119757   2.237   3.062   2.081  0.0950  0.0017  0.7213
 2765SOL    HW219758   2.121   2.966   2.087  0.0393  0.2454 -1.0457
 2766SOL     OW19759   3.879   0.629   0.181  0.6590 -0.1181  0.0840
 2766SOL    HW119760   3.832   0.699   0.227 -0.3469 -0.4290 -0.4899
 2766SOL    HW219761   3.943   0.593   0.243  2.0898  2.1019 -0.1194
 2767SOL     OW19762   4.359   2.265  11.689 -0.2040  0.0664  0.0490
 2767SOL    HW119763   4.373   2.359  11.701  0.0659  0.1304 -0.7358
 2767SOL    HW219764   4.305   2.269  11.610  1.7632  2.7651 -1.1788
 2768SOL     OW19765   2.288   0.957   2.767  0.1786  0.7285  0.0806
 2768SOL    HW119766   2.236   0.893   2.815  0.5275 -0.2950 -0.9131
 2768SOL    HW219767   2.366   0.967   2.822  0.4859  2.5503 -0.6730
 2769SOL     OW19768   4.194   2.961  14.458 -0.4345  0.2946  0.5020
 2769SOL    HW119769   4.187   3.046  14.501 -0.5923  0.6008 -0.1277
 2769SOL    HW219770   4.102   2.951  14.430 -0.0597 -0.3948 -0.4857
 2770SOL     OW19771   4.571   3.430   3.469  0.2188  0.0931  0.4403
 2770SOL    HW119772   4.523   3.375   3.407 -0.9016  0.7621  0.7150
 2770SOL    HW219773   4.520   3.509   3.453 -0.5368 -0.3872  0.4861
 2771SOL     OW19774   0.006   3.390   4.063 -0.2175 -0.1426 -0.7120
 2771SOL    HW119775   0.096   3.379   4.095 -1.2056 -1.9158  1.4657
 2771SOL    HW219776   4.678   3.357   4.139  1.5279  1.5557  1.1721
 2772SOL     OW19777   2.085   0.789   4.922 -0.4568  0.2737  0.7463
 2772SOL    HW119778   2.027   0.863   4.939 -2.1043 -1.0120  0.6976
 2772SOL    HW219779   2.118   0.811   4.835  0.2019 -3.3648  0.0705
 2773SOL     OW19780   3.176   0.480   3.501  0.2968  0.2020  0.4861
 2773SOL    HW119781   3.194   0.463   3.593 -0.7263 -1.7973  0.3170
 2773SOL    HW219782   3.227   0.409   3.462  0.0044  1.0811 -1.5140
 2774SOL     OW19783   2.245   0.991   2.005 -0.2672  0.2367  0.0189
 2774SOL    HW119784   2.284   1.043   2.076  0.6452  0.6017 -0.7503
 2774SOL    HW219785   2.323   0.962   1.958  0.1657 -1.5744  1.8938
 2775SOL     OW19786   2.901   3.686   8.395  0.5536  0.2995  0.3546
 2775SOL    HW119787   2.809   3.665   8.379  0.3908  0.1438  1.5048
 2775SOL    HW219788   2.943   3.609   8.356 -0.1424  0.5057 -0.7940
 2776SOL     OW19789   1.767   4.590  10.973  0.3498 -0.5753 -0.0738
 2776SOL    HW119790   1.770   4.495  10.985 -0.5119 -0.7050 -0.9087
 2776SOL    HW219791   1.772   4.600  10.878 -0.4624 -1.7512 -0.2390
 2777SOL     OW19792   4.134   2.070   9.859 -0.4480  0.3382 -0.8185
 2777SOL    HW119793   4.112   2.057   9.951 -0.4799  0.7927 -0.7656
 2777SOL    HW219794   4.075   2.012   9.810  1.7976 -1.6860 -1.1579
 2778SOL     OW19795   3.641   2.757   6.425  0.1616  0.4041 -0.2209
 2778SOL    HW119796   3.684   2.793   6.502 -1.0673 -2.1975  1.6837
 2778SOL    HW219797   3.696   2.784   6.351  1.7143 -0.9257  0.4501
 2779SOL     OW19798   0.177   1.707  10.253 -0.3631 -0.6912  0.2952
 2779SOL    HW119799   0.104   1.738  10.306 -1.1714  0.4525 -1.4899
 2779SOL    HW219800   0.203   1.633  10.307  2.2027 -1.1907 -1.5757
 2780SOL     OW19801   0.003   4.649   3.467 -0.3969 -0.2427  0.4801
 2780SOL    HW119802   0.010   4.566   3.513 -0.5827 -0.3900  0.2403
 2780SOL    HW219803   0.067   4.703   3.514  1.2248 -0.8698 -1.0092
 2781SOL     OW19804   4.632   0.766   0.647  0.4447 -0.3913  0.4597
 2781SOL    HW119805   4.625   0.782   0.741  1.6810 -0.8265  0.6220
 2781SOL    HW219806   4.650   0.851   0.606 -2.5049 -0.6178 -1.3282
 2782SOL     OW19807   1.565   0.837  11.876  0.7042 -0.4645  0.1203
 2782SOL    HW119808   1.552   0.851  11.970  1.6516 -2.1002  0.4893
 2782SOL    HW219809   1.479   0.838  11.835  0.7811  1.3919 -0.0018
 2783SOL     OW19810   2.420   2.924   9.954 -0.0442  0.2632 -0.3420
 2783SOL    HW119811   2.388   2.853   9.899 -1.4936 -1.0143  2.1587
 2783SOL    HW219812   2.513   2.902   9.954  0.3892  2.0567  0.6103
 2784SOL     OW19813   0.394   1.108   6.489  0.0050 -0.4058  0.6109
 2784SOL    HW119814   0.354   1.060   6.562 -0.3131 -0.3213  0.4904
 2784SOL    HW219815   0.383   1.199   6.517 -2.7004 -0.8069  0.9100
 2785SOL     OW19816   1.849   0.424   5.608  0.0490  0.0098 -0.3281
 2785SOL    HW119817   1.895   0.353   5.563  0.5809  1.0024 -1.3314
 2785SOL    HW219818   1.922   0.462   5.656  0.0112 -1.1423  0.6604
 2786SOL     OW19819   1.449   3.052   1.547 -0.4127 -0.0202  0.0196
 2786SOL    HW119820   1.393   3.089   1.478  0.5778  3.3835  1.0454
 2786SOL    HW219821   1.383   3.010   1.602  0.0085 -0.8542 -0.0979
 2787SOL     OW19822   3.435   4.081  15.870  0.3861 -0.4529 -0.0788
 2787SOL    HW119823   3.513   4.060  15.921 -0.3838  0.4724  1.4492
 2787SOL    HW219824   3.371   4.040  15.928  1.9343  1.1730  2.7528
 2788SOL     OW19825   1.210   3.663   4.801 -0.0823  0.1673  0.2659
 2788SOL    HW119826   1.150   3.668   4.875  2.0129  0.3410  1.9444
 2788SOL    HW219827   1.291   3.704   4.831  2.0404 -1.9320 -2.6310
 2789SOL     OW19828   4.513   3.495  15.653 -0.3222  0.1678  0.7779
 2789SOL    HW119829   4.549   3.436  15.587 -2.0653  0.6310 -0.5735
 2789SOL    HW219830   4.433   3.519  15.606  0.5125  0.9874 -0.2244
 2790SOL     OW19831   4.592   4.035   6.430 -0.0360 -0.1294  0.1193
 2790SOL    HW119832   4.617   4.029   6.338  1.7480 -1.5637  0.7216
 2790SOL    HW219833   4.518   4.096   6.424 -1.1323 -1.4155  0.4905
 2791SOL     OW19834   2.123   1.766   0.402 -0.6563  0.3549  0.0021
 2791SOL    HW119835   2.154   1.777   0.312  0.0980  0.4440  0.2768
 2791SOL    HW219836   2.139   1.852   0.440 -1.1652  0.6576 -0.4688
 2792SOL     OW19837   3.832   3.222   3.802 -0.1151  0.4306 -0.2758
 2792SOL    HW119838   3.881   3.271   3.868  1.4844 -0.9111 -0.4925
 2792SOL    HW219839   3.899   3.220   3.734  0.8183  0.1130  0.6448
 2793SOL     OW19840   2.001   3.460   4.359 -0.4361 -0.1596 -0.2321
 2793SOL    HW119841   2.059   3.401   4.407 -0.4227  0.6498  0.7471
 2793SOL    HW219842   2.023   3.550   4.380 -1.3373  0.1337 -0.5305
 2794SOL     OW19843   2.814   0.017  16.110  0.3109 -0.0191 -0.2628
 2794SOL    HW119844   2.722   4.716  16.093 -0.0022  0.3883  0.9132
 2794SOL    HW219845   2.815   0.076  16.186 -0.9470  0.5169 -0.6572
 2795SOL     OW19846   1.594   1.396   4.278  0.6245  0.4645  0.3119
 2795SOL    HW119847   1.678   1.354   4.294 -0.0730 -0.7326  0.8870
 2795SOL    HW219848   1.608   1.490   4.283  2.3875  0.2585 -0.9049
 2796SOL     OW19849   2.913   1.552   9.109  0.4951 -0.2501  0.6193
 2796SOL    HW119850   2.914   1.646   9.125  1.0077 -0.2697  0.7093
 2796SOL    HW219851   3.008   1.539   9.103  0.6108  0.9290 -0.0882
 2797SOL     OW19852   4.481   1.857   2.252  0.4070 -0.7265  0.4307
 2797SOL    HW119853   4.485   1.953   2.255 -0.4226 -0.6849  0.2720
 2797SOL    HW219854   4.438   1.842   2.337 -2.2720  0.5801 -0.6854
 2798SOL     OW19855   1.022   1.685   6.024  0.2836  0.3949  0.3016
 2798SOL    HW119856   1.057   1.683   5.935 -0.0332 -1.6027  0.2364
 2798SOL    HW219857   1.066   1.765   6.052  2.9619 -1.4278  1.2964
 2799SOL     OW19858   1.043   1.882   2.520  0.2504  0.6876 -0.7782
 2799SOL    HW119859   1.086   1.815   2.466  0.1900 -0.5933  0.7782
 2799SOL    HW219860   1.036   1.950   2.453  0.4962  2.5181  1.0503
 2800SOL     OW19861   2.498   4.508   8.515 -0.5808  0.3334 -0.1306
 2800SOL    HW119862   2.518   4.601   8.528  0.1368 -0.0065  1.1455
 2800SOL    HW219863   2.581   4.481   8.476 -0.6340 -0.1293  0.0837
 2801SOL     OW19864   2.437   1.635  13.499 -0.0693 -0.3310 -0.4527
 2801SOL    HW119865   2.415   1.703  13.436  2.2772  0.5569 -0.3376
 2801SOL    HW219866   2.369   1.568  13.493 -0.9434  0.6005 -0.7792
 2802SOL     OW19867   3.727   3.879  16.374 -0.8159 -0.2149  0.8921
 2802SOL    HW119868   3.641   3.911  16.347  0.2967  3.5441  1.7045
 2802SOL    HW219869   3.753   3.821  16.303 -1.7554  1.2669 -0.6828
 2803SOL     OW19870   0.137   3.745  11.431 -0.0799 -0.1720  0.2771
 2803SOL    HW119871   0.198   3.817  11.449 -0.4753  0.2094  0.0917
 2803SOL    HW219872   0.097   3.735  11.517 -2.7152  3.8323 -0.4611
 2804SOL     OW19873   1.337   4.489   3.350  0.0337  0.3301 -0.0534
 2804SOL    HW119874   1.314   4.400   3.323  2.0213  0.8317 -3.3074
 2804SOL    HW219875   1.377   4.478   3.437  2.4665 -2.0403 -1.4741
 2805SOL     OW19876   3.091   0.285   5.974 -0.1149  0.3069  0.0305
 2805SOL    HW119877   3.038   0.353   5.932  1.2180  1.2376 -0.1294
 2805SOL    HW219878   3.172   0.296   5.924  0.6210 -2.2170  0.6328
 2806SOL     OW19879   2.112   2.726   2.355  0.1986  0.4944  0.3324
 2806SOL    HW119880   2.200   2.711   2.389  1.4799  0.1857 -3.1249
 2806SOL    HW219881   2.115   2.732   2.260  1.1977 -0.9577  0.2845
 2807SOL     OW19882   4.171   0.099  15.279  0.0900 -0.3598  0.0486
 2807SOL    HW119883   4.224   0.164  15.233  1.5622 -0.1668  2.0453
 2807SOL    HW219884   4.234   0.028  15.291  2.3177  2.2011  3.2330
 2808SOL     OW19885   4.419   3.436   6.776  0.0135 -0.2538  0.6432
 2808SOL    HW119886   4.454   3.507   6.829  0.4884  0.4672 -0.6177
 2808SOL    HW219887   4.407   3.474   6.688 -0.6934 -0.5641  0.6012
 2809SOL     OW19888   3.085   2.981   3.681  0.3000  0.4634  0.5854
 2809SOL    HW119889   3.181   2.987   3.677  0.1798  0.6001 -1.6978
 2809SOL    HW219890   3.070   3.050   3.746  1.1088  0.7945  0.4247
 2810SOL     OW19891   0.635   1.436  13.128  0.5110  0.4796 -0.3364
 2810SOL    HW119892   0.594   1.473  13.206 -1.9964 -1.6508 -0.6661
 2810SOL    HW219893   0.649   1.344  13.150 -3.1460  0.1707  0.6046
 2811SOL     OW19894   2.679   3.755   9.928  0.2218  0.0834  0.3476
 2811SOL    HW119895   2.599   3.703   9.934 -0.4383  1.1746  1.1882
 2811SOL    HW219896   2.753   3.704   9.960 -0.5020 -1.1951 -0.0527
 2812SOL     OW19897   4.422   1.484   7.707  0.0380  0.4566 -0.7953
 2812SOL    HW119898   4.405   1.413   7.768 -1.4535  1.5775  0.0970
 2812SOL    HW219899   4.514   1.470   7.685 -0.1685 -2.1786  0.0592
 2813SOL     OW19900   0.973   0.450   1.998 -0.1790 -0.3140  0.4944
 2813SOL    HW119901   1.058   0.483   2.026 -0.1854  1.3148 -1.4807
 2813SOL    HW219902   0.912   0.494   2.058  1.0236  1.6954  0.2197
 2814SOL     OW19903   0.893   3.801   6.174  0.4275  0.1753 -0.5272
 2814SOL    HW119904   0.850   3.716   6.161  0.5150 -0.1019  0.9116
 2814SOL    HW219905   0.820   3.861   6.162  0.9122  0.8430 -0.1012
 2815SOL     OW19906   4.197   1.687  16.272 -0.1119 -0.6092  1.0258
 2815SOL    HW119907   4.160   1.651  16.353 -1.5422 -0.1169  0.6055
 2815SOL    HW219908   4.172   1.620  16.209 -2.7091  1.7719 -0.5137
 2816SOL     OW19909   3.929   0.573  15.009 -0.1571 -0.8770  0.4101
 2816SOL    HW119910   3.951   0.480  15.016 -0.4449 -0.9503  0.3155
 2816SOL    HW219911   3.857   0.571  15.071 -1.7237 -1.4462 -1.4516
 2817SOL     OW19912   1.243   4.130   4.288 -0.1324  0.0829  0.4848
 2817SOL    HW119913   1.323   4.079   4.272  0.1571 -0.0818  2.4628
 2817SOL    HW219914   1.251   4.144   4.383 -1.1084  1.3453  0.3757
 2818SOL     OW19915   1.271   1.500   6.733  0.4098 -0.2230 -0.0344
 2818SOL    HW119916   1.188   1.515   6.778  0.8779  0.6701  0.5405
 2818SOL    HW219917   1.290   1.583   6.690  0.9905  0.0748  0.7964
 2819SOL     OW19918   4.512   1.884   5.475  0.3808 -0.0391  0.1263
 2819SOL    HW119919   4.424   1.876   5.439 -0.5869 -2.0113  2.9755
 2819SOL    HW219920   4.494   1.895   5.568  0.0086  0.5617 -0.0184
 2820SOL     OW19921   0.271   0.063   8.488  0.0228  0.0019  0.0579
 2820SOL    HW119922   0.329   0.009   8.540  1.0503 -0.4390 -1.5666
 2820SOL    HW219923   0.324   0.085   8.411 -1.9394 -0.2622 -1.3947
 2821SOL     OW19924   1.751   1.645   7.817  0.4085 -0.1072  0.3665
 2821SOL    HW119925   1.702   1.655   7.899  0.5894  0.0213  0.4569
 2821SOL    HW219926   1.723   1.724   7.771  2.0173  1.1229  1.5364
 2822SOL     OW19927   0.412   0.884   1.371  0.6829  0.0741  0.2079
 2822SOL    HW119928   0.319   0.865   1.368  1.0286 -1.6879  0.2734
 2822SOL    HW219929   0.421   0.979   1.371  1.7169 -0.0091  1.9668
 2823SOL     OW19930   0.974   2.673   8.830 -0.2123 -0.1291  0.4862
 2823SOL    HW119931   0.925   2.595   8.805 -0.4228 -0.1329  0.9113
 2823SOL    HW219932   0.999   2.654   8.921 -0.7717 -0.1231  0.6410
 2824SOL     OW19933   2.244   3.323  12.982  0.0710  0.3595 -0.0144
 2824SOL    HW119934   2.171   3.372  13.020 -0.4897 -0.1128 -0.4925
 2824SOL    HW219935   2.218   3.336  12.891 -0.1333 -0.5413 -0.0784
 2825SOL     OW19936   3.084   2.555   4.662 -0.1785 -0.3376 -0.2486
 2825SOL    HW119937   3.012   2.591   4.713 -0.2861 -0.3785 -0.3705
 2825SOL    HW219938   3.124   2.636   4.631  2.4805 -1.6077 -0.0856
 2826SOL     OW19939   3.506   3.088  13.558 -0.0212  0.2194  0.3358
 2826SOL    HW119940   3.509   3.096  13.653 -0.7297 -0.4332  0.4188
 2826SOL    HW219941   3.447   3.012  13.555 -0.9415  0.8674  2.0530
 2827SOL     OW19942   1.002   0.815   8.217 -0.4836 -0.0307  0.1374
 2827SOL    HW119943   1.019   0.835   8.309 -2.3257  0.3760  0.3823
 2827SOL    HW219944   0.967   0.898   8.185 -1.0562  0.4113  1.9117
 2828SOL     OW19945   1.955   3.513   6.324 -0.5642  0.0527  0.0261
 2828SOL    HW119946   2.000   3.546   6.402  1.1732 -1.0804 -0.4919
 2828SOL    HW219947   1.888   3.463   6.371  0.7211 -1.1950  0.5538
 2829SOL     OW19948   2.268   2.943   3.179 -0.2294 -0.6401 -0.5043
 2829SOL    HW119949   2.337   2.921   3.242 -1.1098 -0.2529  0.5779
 2829SOL    HW219950   2.315   2.986   3.107 -0.1156  0.1305  0.0308
 2830SOL     OW19951   2.947   0.107   4.280 -0.6534  0.8750 -0.3357
 2830SOL    HW119952   2.915   0.108   4.189 -1.8686 -2.9658  0.0775
 2830SOL    HW219953   3.039   0.087   4.264 -0.6651 -1.1966  2.3386
 2831SOL     OW19954   3.587   1.677   6.503  0.3490  0.5971 -0.1197
 2831SOL    HW119955   3.552   1.708   6.587  2.2718  1.7279  0.2921
 2831SOL    HW219956   3.674   1.659   6.539  0.6855 -1.1442 -1.8063
 2832SOL     OW19957   1.373   1.982   8.625  0.2090 -0.1141  0.1696
 2832SOL    HW119958   1.459   1.946   8.605  0.5990  0.5424  0.6489
 2832SOL    HW219959   1.402   2.050   8.687 -0.2214 -0.1757  0.4418
 2833SOL     OW19960   1.395   0.890   2.809 -0.2214  0.1617 -0.1354
 2833SOL    HW119961   1.380   0.971   2.760 -1.3378  0.0068 -0.0395
 2833SOL    HW219962   1.318   0.834   2.801  0.8457 -1.4098  0.7011
 2834SOL     OW19963   0.366   3.302  11.538 -0.1619 -0.3389 -0.1823
 2834SOL    HW119964   0.408   3.245  11.473 -2.5476 -1.7354 -0.5097
 2834SOL    HW219965   0.333   3.377  11.489  0.4371 -0.6127 -1.0112
 2835SOL     OW19966   0.361   2.133   7.442  0.8446  0.4245 -0.4366
 2835SOL    HW119967   0.450   2.151   7.413  0.4941  1.1550 -1.0526
 2835SOL    HW219968   0.318   2.130   7.357 -0.9283  0.1142  0.4750
 2836SOL     OW19969   4.089   4.536   3.940 -0.2150  0.4075 -0.3965
 2836SOL    HW119970   4.174   4.568   3.971  0.5068 -0.2212 -1.7444
 2836SOL    HW219971   4.043   4.617   3.964  3.4970  1.6811  2.4989
 2837SOL     OW19972   0.745   0.668  15.223  0.5054 -0.6148  0.3326
 2837SOL    HW119973   0.735   0.695  15.314  2.9534  0.3837  0.2842
 2837SOL    HW219974   0.719   0.576  15.234  1.8158 -1.0050  0.1177
 2838SOL     OW19975   4.281   1.843   1.961 -0.5702 -0.4638 -0.0514
 2838SOL    HW119976   4.254   1.751   1.968 -0.8486 -0.4806 -1.3909
 2838SOL    HW219977   4.370   1.821   1.932 -0.7803 -0.4754 -0.6843
 2839SOL     OW19978   0.820   3.296   2.153  0.1082 -0.1791  0.2811
 2839SOL    HW119979   0.735   3.283   2.195 -1.0088 -1.2484 -2.3387
 2839SOL    HW219980   0.798   3.367   2.093 -1.8591 -0.4040  0.7533
 2840SOL     OW19981   1.780   2.390   4.868 -0.2231  0.1551  0.1041
 2840SOL    HW119982   1.722   2.415   4.796 -2.3737 -2.0176  1.0419
 2840SOL    HW219983   1.823   2.314   4.830  0.2114  0.8032 -0.6785
 2841SOL     OW19984   2.034   2.003   8.568  0.3000 -0.6380  0.5508
 2841SOL    HW119985   2.009   1.936   8.504  2.0391 -1.4235  0.7143
 2841SOL    HW219986   2.127   1.998   8.546 -0.1185  1.2486 -1.6064
 2842SOL     OW19987   4.318   3.488   2.975 -0.5847 -0.3932 -0.3061
 2842SOL    HW119988   4.292   3.432   2.902 -1.3525 -0.2104 -0.1751
 2842SOL    HW219989   4.412   3.477   2.962 -0.1803  1.1530  1.2257
 2843SOL     OW19990   2.941   3.071   2.835  0.1528 -0.7557  0.0331
 2843SOL    HW119991   3.010   3.005   2.845  0.2066 -0.6013  0.6979
 2843SOL    HW219992   2.866   3.021   2.867 -0.0346  0.0565  0.8726
 2844SOL     OW19993   1.402   1.215   2.427  0.1163 -0.4926  0.1369
 2844SOL    HW119994   1.346   1.289   2.452  0.0468 -0.7289  0.6742
 2844SOL    HW219995   1.484   1.261   2.408  1.3324 -2.3949  0.8299
 2845SOL     OW19996   1.285   3.528   2.361 -0.5565  0.3514  0.3106
 2845SOL    HW119997   1.217   3.555   2.300 -0.6971 -0.5705  0.0728
 2845SOL    HW219998   1.278   3.587   2.437  1.6930 -1.0676  1.6293
 2846SOL     OW19999   0.127   0.474   3.250 -0.0331 -0.3804 -0.3845
 2846SOL    HW120000   0.095   0.516   3.329  0.4229  0.2784 -0.5527
 2846SOL    HW220001   0.050   0.481   3.192 -1.2038 -0.1559  1.2118
 2847SOL     OW20002   4.594   3.938   3.212  0.1216 -0.3384  0.8335
 2847SOL    HW120003   4.683   3.904   3.201  0.6384  1.0664  0.7508
 2847SOL    HW220004   4.578   3.943   3.117  1.8915  1.7593  0.6526
 2848SOL     OW20005   3.335   0.994   5.937  0.3537 -0.1707  0.3632
 2848SOL    HW120006   3.254   1.023   5.979  0.2898  0.5553 -0.2708
 2848SOL    HW220007   3.388   1.072   5.921 -0.2145  0.9152  3.6206
 2849SOL     OW20008   3.296   1.197   0.513  0.2989 -0.7575  0.2609
 2849SOL    HW120009   3.242   1.249   0.453  0.4488  0.7636  1.4445
 2849SOL    HW220010   3.261   1.225   0.598 -2.7782  2.1031 -1.9208
 2850SOL     OW20011   3.795   2.051  14.730  0.5379 -0.1866  0.5089
 2850SOL    HW120012   3.751   2.089  14.806 -2.7375 -1.7834 -0.5549
 2850SOL    HW220013   3.742   1.974  14.708 -1.7445  1.6574 -0.4104
 2851SOL     OW20014   4.334   0.730   3.155 -0.1657 -0.0767 -0.1273
 2851SOL    HW120015   4.291   0.722   3.240  2.0406 -0.9691  0.9128
 2851SOL    HW220016   4.266   0.718   3.088  1.2792 -0.1275 -1.5757
 2852SOL     OW20017   1.410   3.232   3.410 -0.6289  0.2628 -0.1533
 2852SOL    HW120018   1.502   3.207   3.398 -1.0735 -1.0142 -0.9023
 2852SOL    HW220019   1.404   3.207   3.502  0.4335 -0.7166 -0.3542
 2853SOL     OW20020   2.500   0.662   3.528 -0.5875  0.2529 -0.9348
 2853SOL    HW120021   2.412   0.626   3.538 -0.4783  0.6265  1.4017
 2853SOL    HW220022   2.525   0.675   3.620  0.3445  1.4443 -1.3677
 2854SOL     OW20023   4.006   3.833   1.058  0.0197 -0.9202 -0.1608
 2854SOL    HW120024   4.030   3.926   1.062 -1.1728 -0.6973  1.7299
 2854SOL    HW220025   3.944   3.825   1.130  0.4048 -1.9878  0.0450
 2855SOL     OW20026   2.351   4.172   4.513  0.2663  0.3318 -0.0324
 2855SOL    HW120027   2.343   4.154   4.419  1.8058 -1.5414  0.1966
 2855SOL    HW220028   2.282   4.236   4.527 -0.1153  0.2090 -1.3323
 2856SOL     OW20029   1.538   3.853   2.614  0.5930  0.8235  0.1431
 2856SOL    HW120030   1.504   3.814   2.695 -2.1923  3.2003  0.1514
 2856SOL    HW220031   1.561   3.938   2.653  1.4502  0.2116  0.9781
 2857SOL     OW20032   1.042   4.455   8.274 -0.6550 -0.1871  0.1401
 2857SOL    HW120033   0.998   4.520   8.328  0.3758 -1.0425  2.0426
 2857SOL    HW220034   0.980   4.453   8.202 -0.0887  2.3927 -0.4141
 2858SOL     OW20035   1.004   3.117   6.747  0.0956  0.6451  0.6682
 2858SOL    HW120036   0.996   3.124   6.652  1.0633  0.9758  0.6154
 2858SOL    HW220037   1.090   3.075   6.746  0.2328  0.9396 -0.5755
 2859SOL     OW20038   1.055   3.025   6.187  0.6083  0.1857 -0.3661
 2859SOL    HW120039   1.137   3.073   6.196 -0.4779  2.6636 -3.7809
 2859SOL    HW220040   1.100   2.949   6.150 -0.5116 -0.4333 -0.4470
 2860SOL     OW20041   3.031   1.462   7.517  0.5215  0.6705 -0.0890
 2860SOL    HW120042   3.082   1.431   7.442  0.4170 -0.6095  0.3686
 2860SOL    HW220043   3.017   1.377   7.558 -0.1883  1.4680  1.3407
 2861SOL     OW20044   2.684   4.700   5.983  0.3173 -0.7812 -0.0661
 2861SOL    HW120045   2.684   4.683   5.889  0.6094 -0.7305 -0.0753
 2861SOL    HW220046   2.591   4.696   6.007 -0.0281  1.3978 -0.9942
 2862SOL     OW20047   3.458   2.588   1.620  0.4331  0.5472  0.4073
 2862SOL    HW120048   3.365   2.604   1.630  0.1905 -0.1562 -0.7096
 2862SOL    HW220049   3.508   2.668   1.601 -0.9165  1.1146 -0.7642
 2863SOL     OW20050   0.770   1.158   8.341 -0.0705  0.5901  0.1210
 2863SOL    HW120051   0.818   1.240   8.342  1.5082 -0.3564  1.7315
 2863SOL    HW220052   0.766   1.145   8.436  1.3021  0.5375  0.1703
 2864SOL     OW20053   1.674   0.614   7.188 -0.1055 -0.2268  0.3517
 2864SOL    HW120054   1.608   0.632   7.255  1.5657  1.5813  1.5053
 2864SOL    HW220055   1.645   0.676   7.121 -1.8908 -1.2822  0.1455
 2865SOL     OW20056   3.555   0.067   8.253  0.7631 -0.1735  0.2198
 2865SOL    HW120057   3.606   0.114   8.319 -1.1022  3.0928 -0.6740
 2865SOL    HW220058   3.598   0.102   8.175  0.7286  2.0303  1.2133
 2866SOL     OW20059   2.582   3.351   4.078  0.1458 -0.3785  0.5358
 2866SOL    HW120060   2.585   3.263   4.040  0.1215 -1.2077  2.4825
 2866SOL    HW220061   2.490   3.372   4.094 -0.5301 -2.1124 -1.1151
 2867SOL     OW20062   3.630   4.712   5.668  0.6602 -0.0738 -0.0163
 2867SOL    HW120063   3.653   4.688   5.579 -0.0487 -3.8689  0.8441
 2867SOL    HW220064   3.693   0.063   5.677 -0.4306  0.9913 -0.7849
 2868SOL     OW20065   4.262   0.798  10.925  0.5088 -0.5973  0.1285
 2868SOL    HW120066   4.279   0.782  11.017 -0.0221  1.2693  0.5473
 2868SOL    HW220067   4.284   0.713  10.887  1.3494 -0.7829  1.0392
 2869SOL     OW20068   3.121   4.586  10.242 -0.1962  0.4480  1.1741
 2869SOL    HW120069   3.144   4.592  10.335  0.6985  0.5074  0.9552
 2869SOL    HW220070   3.199   4.631  10.210  0.0198  0.3673  1.5862
 2870SOL     OW20071   0.346   2.753   5.987 -0.1125  0.7272  0.0602
 2870SOL    HW120072   0.376   2.820   5.925  0.1987  1.1136  0.6307
 2870SOL    HW220073   0.287   2.703   5.931 -0.2616  0.2064  0.6859
 2871SOL     OW20074   3.009   3.819   4.030 -0.6658 -0.6649 -0.0543
 2871SOL    HW120075   3.066   3.810   4.106 -0.7165 -0.5249 -0.0001
 2871SOL    HW220076   2.951   3.895   4.038 -1.0477 -0.9706  0.0959
 2872SOL     OW20077   4.384   1.720   9.862 -0.3800  0.1286 -0.1686
 2872SOL    HW120078   4.446   1.647   9.861 -0.5752 -0.0157 -1.8028
 2872SOL    HW220079   4.441   1.793   9.888 -0.9371 -0.5255  2.7809
 2873SOL     OW20080   2.721   2.267  15.428 -0.1054  0.9117  0.1619
 2873SOL    HW120081   2.634   2.297  15.401 -0.3707 -2.2797 -2.5445
 2873SOL    HW220082   2.732   2.189  15.374  0.9031  3.9569 -4.0189
 2874SOL     OW20083   4.577   2.115   5.341  0.2050  0.1787  0.4245
 2874SOL    HW120084   4.568   2.023   5.365  0.9634 -0.4273 -1.6291
 2874SOL    HW220085   4.645   2.150   5.399 -0.2358 -0.0149  1.0575
 2875SOL     OW20086   3.942   4.644  13.837  0.3071 -0.4210 -0.0962
 2875SOL    HW120087   3.984   4.581  13.779  0.4144 -0.5636  0.1340
 2875SOL    HW220088   4.006   4.658  13.908 -0.5672  0.3428  0.5375
 2876SOL     OW20089   2.752   4.285   3.770 -0.2132  0.4808 -0.4939
 2876SOL    HW120090   2.729   4.194   3.785  2.0863 -0.0214 -0.0366
 2876SOL    HW220091   2.737   4.291   3.676  1.2524  2.1328 -0.6238
 2877SOL     OW20092   4.184   3.056  13.150  0.5486 -0.0938  0.1388
 2877SOL    HW120093   4.197   3.061  13.055 -1.5973  2.5018 -0.0249
 2877SOL    HW220094   4.227   3.139  13.170  0.6002 -0.1284  0.1720
 2878SOL     OW20095   3.811   4.413   3.189  0.2564 -0.0762  0.0607
 2878SOL    HW120096   3.727   4.405   3.234 -1.4130 -3.4407 -3.6629
 2878SOL    HW220097   3.793   4.467   3.113 -3.8108 -0.4617  0.7912
 2879SOL     OW20098   0.921   3.697   8.061  0.4360 -0.3601  0.2674
 2879SOL    HW120099   0.940   3.786   8.032 -0.0828  0.0114  1.0493
 2879SOL    HW220100   1.001   3.653   8.036  0.9641  1.7662 -1.7487
 2880SOL     OW20101   2.129   0.313  13.961 -0.3461  0.4073 -0.2594
 2880SOL    HW120102   2.225   0.305  13.960 -0.2934  0.8482  1.2596
 2880SOL    HW220103   2.108   0.316  14.054 -0.3651  1.3221 -0.2901
 2881SOL     OW20104   1.291   1.594   3.547  0.2246 -0.2073 -0.0913
 2881SOL    HW120105   1.269   1.574   3.638 -1.0861  0.4730 -0.2514
 2881SOL    HW220106   1.273   1.688   3.537 -0.5992 -0.4048 -0.4911
 2882SOL     OW20107   0.676   4.712   6.200  0.0501 -0.0048 -0.0345
 2882SOL    HW120108   0.759   4.718   6.248 -0.0477 -1.8894  0.3467
 2882SOL    HW220109   0.612   4.711   6.271 -0.1873  2.6177 -0.1897
 2883SOL     OW20110   3.079   1.577   0.429 -0.3167  0.0071 -0.4393
 2883SOL    HW120111   3.165   1.542   0.409 -0.9433 -1.2813 -0.8687
 2883SOL    HW220112   3.041   1.578   0.341  0.9642  2.0112 -0.9561
 2884SOL     OW20113   3.022   2.942   8.515  0.5488  0.1110  0.0111
 2884SOL    HW120114   2.967   2.873   8.479  0.8691 -1.5561  2.7577
 2884SOL    HW220115   3.064   2.889   8.582 -3.3563 -1.5967  1.1285
 2885SOL     OW20116   0.931   4.324   2.415  0.1728 -0.1235  0.1542
 2885SOL    HW120117   1.017   4.292   2.389 -0.3669 -1.2563 -0.2462
 2885SOL    HW220118   0.920   4.407   2.369 -0.7443 -0.8314 -0.9010
 2886SOL     OW20119   1.691   3.930   3.152 -0.6410 -0.3448 -0.3815
 2886SOL    HW120120   1.642   3.849   3.135  0.7273 -0.7023 -2.6244
 2886SOL    HW220121   1.768   3.923   3.096 -0.7559 -1.9186 -0.3390
 2887SOL     OW20122   4.238   3.939  13.443 -0.5555 -0.5931  0.3784
 2887SOL    HW120123   4.161   3.989  13.416 -0.0969 -1.0071 -1.7283
 2887SOL    HW220124   4.311   3.999  13.430 -0.2345 -1.3736 -1.4003
 2888SOL     OW20125   2.894   0.245   3.848 -0.2912  0.6792 -0.1051
 2888SOL    HW120126   2.865   0.168   3.898  1.1203 -1.6644 -2.9100
 2888SOL    HW220127   2.988   0.229   3.846 -0.2162  1.2531 -1.2106
 2889SOL     OW20128   0.714   2.932   5.709  0.2713  0.2332  0.1152
 2889SOL    HW120129   0.781   2.865   5.724 -1.6889 -1.7190  0.0667
 2889SOL    HW220130   0.635   2.878   5.708  1.4912 -1.5125 -0.7021
 2890SOL     OW20131   3.131   2.906   1.585 -0.4019 -0.2560  0.0098
 2890SOL    HW120132   3.038   2.890   1.600 -0.4133  2.2665  2.5049
 2890SOL    HW220133   3.159   2.819   1.614  1.9434 -0.2128 -2.0681
 2891SOL     OW20134   2.603   3.430   6.486  0.3969 -0.2499  0.0772
 2891SOL    HW120135   2.581   3.337   6.487 -1.4647  0.1455 -3.2889
 2891SOL    HW220136   2.691   3.416   6.451 -0.2526 -0.5617 -1.4058
 2892SOL     OW20137   4.350   4.397  12.892 -0.4507 -0.3364 -0.0183
 2892SOL    HW120138   4.343   4.345  12.972 -1.0290 -0.1870  0.0310
 2892SOL    HW220139   4.428   4.361  12.850  0.2986 -1.6860  2.5489
 2893SOL     OW20140   0.532   0.345  14.399  0.2268 -0.1340 -0.4288
 2893SOL    HW120141   0.563   0.365  14.310 -2.1968 -0.4713 -1.3587
 2893SOL    HW220142   0.443   0.313  14.381  0.5699 -1.0269 -0.5154
 2894SOL     OW20143   2.377   2.496   8.473  0.1475 -0.4682 -0.3928
 2894SOL    HW120144   2.424   2.579   8.468 -0.5695 -0.0754 -0.6980
 2894SOL    HW220145   2.433   2.447   8.413  0.9825  0.9278 -0.7584
 2895SOL     OW20146   4.134   3.237   7.052 -0.0867 -0.6117 -0.3874
 2895SOL    HW120147   4.096   3.158   7.090  0.4100  0.0034  1.3781
 2895SOL    HW220148   4.075   3.229   6.977 -2.2080 -1.9827  1.4273
 2896SOL     OW20149   2.530   0.050  13.495 -0.0078  0.1142 -0.2191
 2896SOL    HW120150   2.584   0.004  13.559 -0.2316  2.2813  1.5200
 2896SOL    HW220151   2.494   4.699  13.444  1.0083 -1.4522  1.2668
 2897SOL     OW20152   0.544   2.171  15.636  0.3729  0.0582  0.0438
 2897SOL    HW120153   0.451   2.183  15.614  0.2727 -1.0161 -0.1347
 2897SOL    HW220154   0.590   2.228  15.576  0.2817 -0.0227 -0.1041
 2898SOL     OW20155   1.960   0.703   1.878 -0.1635  0.4354  0.3772
 2898SOL    HW120156   2.033   0.694   1.939  0.0070 -0.1912  0.0945
 2898SOL    HW220157   1.927   0.791   1.895 -0.4201  0.5781 -0.8786
 2899SOL     OW20158   2.652   3.590   6.722 -0.2258  0.3170  0.0884
 2899SOL    HW120159   2.628   3.539   6.645  0.3155 -1.4414  1.0763
 2899SOL    HW220160   2.637   3.679   6.691 -1.6318 -0.6161 -1.9279
 2900SOL     OW20161   0.481   4.051   7.888  0.2041  0.2044  0.5846
 2900SOL    HW120162   0.543   4.079   7.956  2.7303 -1.8626 -0.8515
 2900SOL    HW220163   0.404   4.031   7.941  0.2476  1.3367  1.0809
 2901SOL     OW20164   0.391   1.579   4.467 -0.3057  0.5074  0.4168
 2901SOL    HW120165   0.422   1.625   4.389 -0.8018 -1.0798 -0.7402
 2901SOL    HW220166   0.305   1.547   4.437  0.8681  0.0390 -2.4844
 2902SOL     OW20167   1.921   2.359   6.096  0.1622  0.3292  0.0037
 2902SOL    HW120168   1.865   2.282   6.096 -0.1065  0.5394 -1.4771
 2902SOL    HW220169   1.889   2.389   6.181 -1.5914  0.1438 -0.5946
 2903SOL     OW20170   2.589   0.999   3.587 -0.4941  0.2938 -0.1477
 2903SOL    HW120171   2.644   1.034   3.657 -0.3906  2.1927 -1.1945
 2903SOL    HW220172   2.667   0.971   3.540 -0.1457  1.8363 -0.4940
 2904SOL     OW20173   3.003   2.182  14.311  0.2565 -0.1020  0.2574
 2904SOL    HW120174   2.934   2.206  14.249 -1.0089  0.0743  1.7476
 2904SOL    HW220175   2.950   2.200  14.388 -0.2708  1.4807 -0.4728
 2905SOL     OW20176   4.334   3.596   4.683 -0.0420 -0.4265 -0.2035
 2905SOL    HW120177   4.425   3.587   4.656 -0.2991  0.9744 -1.5070
 2905SOL    HW220178   4.337   3.549   4.767  2.5687  0.8590  0.4385
 2906SOL     OW20179   2.739   0.275   8.803  0.3446 -0.3065  0.2453
 2906SOL    HW120180   2.703   0.202   8.754  0.5340  1.9503 -3.2419
 2906SOL    HW220181   2.770   0.232   8.883  0.5928 -1.4210 -0.4653
 2907SOL     OW20182   1.846   4.289   2.615  0.2051  0.6314 -0.4404
 2907SOL    HW120183   1.909   4.273   2.545 -0.5312 -0.6756 -0.8024
 2907SOL    HW220184   1.895   4.341   2.679 -1.9987  0.3538  1.4860
 2908SOL     OW20185   3.241   3.370   1.907 -0.0929 -0.4895  0.7795
 2908SOL    HW120186   3.289   3.449   1.934 -1.1220  0.2809  0.3620
 2908SOL    HW220187   3.183   3.357   1.982 -1.8078 -1.5263 -0.7274
 2909SOL     OW20188   3.862   0.152   5.441 -1.0296  0.2035 -0.3991
 2909SOL    HW120189   3.833   0.192   5.522 -2.1288  0.1458 -0.7714
 2909SOL    HW220190   3.842   0.212   5.369  1.8195  0.4785 -0.9626
 2910SOL     OW20191   1.356   3.325  11.737  0.0413  0.1607  0.2306
 2910SOL    HW120192   1.418   3.380  11.689 -0.4680  0.8222  0.3512
 2910SOL    HW220193   1.418   3.252  11.749  2.5236  2.1158 -0.8030
 2911SOL     OW20194   2.590   3.719   5.932 -0.2953 -0.4876  0.4592
 2911SOL    HW120195   2.509   3.676   5.907 -0.2824  0.1601 -0.6767
 2911SOL    HW220196   2.658   3.652   5.924  0.7304  0.5318  0.5544
 2912SOL     OW20197   0.685   1.826  17.358  0.3659  0.0072 -0.3706
 2912SOL    HW120198   0.640   1.784  17.285  0.4019 -0.7723  0.0595
 2912SOL    HW220199   0.689   1.915  17.321 -1.3218  0.3973  0.3869
 2913SOL     OW20200   0.216   2.059   8.775  0.0536  0.0470  0.0346
 2913SOL    HW120201   0.166   2.100   8.704  0.5759 -1.7250 -1.3625
 2913SOL    HW220202   0.203   2.124   8.844 -1.1642  0.4873 -0.6090
 2914SOL     OW20203   0.730   3.353   3.939 -0.6238 -0.7460 -0.5909
 2914SOL    HW120204   0.667   3.352   3.867  1.6416  2.1487 -2.6190
 2914SOL    HW220205   0.780   3.272   3.927  0.3414 -0.4687  1.5289
 2915SOL     OW20206   3.074   3.195   3.830 -0.2907  0.0116 -0.0030
 2915SOL    HW120207   3.124   3.217   3.908  1.3455  1.4879 -1.4804
 2915SOL    HW220208   3.009   3.265   3.826  0.3368  0.6149  0.4700
 2916SOL     OW20209   2.017   2.513   9.230 -0.0470  0.3728  0.6969
 2916SOL    HW120210   2.025   2.597   9.184  2.1798 -0.5193 -0.5606
 2916SOL    HW220211   2.003   2.551   9.316 -0.3608  0.6731  0.5154
 2917SOL     OW20212   0.972   3.551   3.930  0.1711  0.3786 -0.3814
 2917SOL    HW120213   0.985   3.459   3.909  1.4689  0.9871 -2.2555
 2917SOL    HW220214   0.911   3.578   3.862  0.5028  0.1690 -0.7585
 2918SOL     OW20215   2.908   4.197  10.787  0.1381  0.1123  0.5526
 2918SOL    HW120216   2.898   4.140  10.711  1.2943  1.5351 -0.6515
 2918SOL    HW220217   2.980   4.161  10.838  1.0627 -0.4520 -1.1780
 2919SOL     OW20218   2.211   1.734   6.633  0.3983  0.3877  1.2372
 2919SOL    HW120219   2.273   1.743   6.706  0.0406  0.0684  1.5808
 2919SOL    HW220220   2.156   1.812   6.646 -0.0612 -0.1203  2.3121
 2920SOL     OW20221   1.611   0.233   9.184 -0.0322  0.3023 -0.2480
 2920SOL    HW120222   1.593   0.318   9.225 -0.5530  0.0295  0.0908
 2920SOL    HW220223   1.651   0.185   9.257 -0.8197 -0.2480 -0.1757
 2921SOL     OW20224   1.075   1.174   8.317 -0.1805  0.0912 -0.4929
 2921SOL    HW120225   1.151   1.143   8.365  0.2247 -0.0032 -1.1966
 2921SOL    HW220226   1.052   1.256   8.362  0.6426 -1.3214  2.4927
 2922SOL     OW20227   1.903   2.323   3.524 -0.6215 -0.1671 -0.1581
 2922SOL    HW120228   1.982   2.276   3.498 -0.5126 -0.7148  1.1354
 2922SOL    HW220229   1.849   2.255   3.565  0.0202  0.2013  1.2691
 2923SOL     OW20230   1.918   4.648   3.974  0.4848  0.3029 -0.2363
 2923SOL    HW120231   2.008   4.616   3.974  0.4175  0.1015  1.3986
 2923SOL    HW220232   1.872   4.565   3.990  1.5127 -0.3088 -0.4648
 2924SOL     OW20233   4.187   1.077   0.892 -0.0587 -0.6816 -0.5934
 2924SOL    HW120234   4.231   1.053   0.810  0.7850  0.7192 -0.5449
 2924SOL    HW220235   4.258   1.083   0.956 -0.8553 -1.2910  0.3563
 2925SOL     OW20236   4.307   1.005  11.272 -0.1467  0.0437  0.3154
 2925SOL    HW120237   4.361   1.034  11.199  0.5511  0.7105  1.0901
 2925SOL    HW220238   4.368   0.953  11.324 -1.4273 -0.5145  1.2630
 2926SOL     OW20239   3.172   2.264   3.758 -0.0794  0.3756 -0.0980
 2926SOL    HW120240   3.219   2.297   3.834  0.0172 -2.3956  1.0615
 2926SOL    HW220241   3.091   2.313   3.769 -0.0903  0.8004 -1.9449
 2927SOL     OW20242   2.917   0.632   4.010 -0.2728 -0.7521  0.7719
 2927SOL    HW120243   2.856   0.578   3.960 -0.5463  0.5573 -0.2964
 2927SOL    HW220244   2.981   0.567   4.040 -0.9711 -1.8630 -0.1204
 2928SOL     OW20245   2.155   3.608   5.626  0.5358  0.2805 -0.5596
 2928SOL    HW120246   2.196   3.555   5.695 -0.8896  0.0039  0.0723
 2928SOL    HW220247   2.074   3.642   5.665 -0.0070  0.5670 -1.9325
 2929SOL     OW20248   1.502   4.711   1.435 -0.2908  0.0348 -0.2772
 2929SOL    HW120249   1.470   0.011   1.348 -0.8980  1.4421  0.2748
 2929SOL    HW220250   1.422   4.708   1.489 -0.0823  0.7584  0.0639
 2930SOL     OW20251   1.918   3.160   3.450 -1.0887 -0.4740 -0.9625
 2930SOL    HW120252   1.961   3.090   3.401  1.6117  0.1452  0.5541
 2930SOL    HW220253   1.995   3.191   3.497 -1.4904 -1.1179  0.1185
 2931SOL     OW20254   1.864   1.654   2.731  0.8671 -0.6096  0.3582
 2931SOL    HW120255   1.771   1.630   2.733  0.6007  0.1942 -2.3780
 2931SOL    HW220256   1.891   1.577   2.680 -0.3409 -0.1353 -1.0146
 2932SOL     OW20257   2.749   0.021   8.067  0.0571  0.7840 -0.6092
 2932SOL    HW120258   2.679   4.707   8.012 -1.9607  1.2940  1.6287
 2932SOL    HW220259   2.820   4.718   8.007  0.4233 -0.5666  0.3425
 2933SOL     OW20260   3.003   2.360   4.191  0.2220 -0.0554 -0.0226
 2933SOL    HW120261   3.031   2.349   4.282  0.7089 -2.3908 -0.4410
 2933SOL    HW220262   3.004   2.270   4.159  0.1931  0.1393 -0.5654
 2934SOL     OW20263   3.107   4.507   7.714  0.0121  0.2459  0.9300
 2934SOL    HW120264   3.098   4.419   7.751 -0.2034 -0.5101 -0.9118
 2934SOL    HW220265   3.199   4.507   7.689 -0.2506  2.9100 -0.0483
 2935SOL     OW20266   3.426   2.466   0.208 -0.5881  0.0534  0.5752
 2935SOL    HW120267   3.360   2.512   0.156 -1.3990 -1.1895  0.5065
 2935SOL    HW220268   3.389   2.379   0.215 -0.9733  0.0076 -1.7293
 2936SOL     OW20269   2.969   0.000   6.047 -0.3322 -0.1587 -0.7393
 2936SOL    HW120270   2.875   0.014   6.058 -0.0860  1.6735 -0.9136
 2936SOL    HW220271   3.002   0.057   5.978  0.7611  2.0464  1.6198
 2937SOL     OW20272   0.141   0.058   2.485  0.3503  0.1152 -0.1342
 2937SOL    HW120273   0.215   0.000   2.503  2.1885  1.8727 -2.0097
 2937SOL    HW220274   0.077   4.720   2.446 -1.5235  2.1535 -0.1066
 2938SOL     OW20275   2.443   2.834   3.767  0.0864  0.2828 -0.3475
 2938SOL    HW120276   2.535   2.853   3.747  0.8379 -3.2946 -0.4383
 2938SOL    HW220277   2.436   2.866   3.857  1.3180  0.7796 -0.4230
 2939SOL     OW20278   1.985   0.586   3.453 -0.2263  0.1937 -0.1911
 2939SOL    HW120279   1.937   0.595   3.536  0.4213  0.8145  0.1156
 2939SOL    HW220280   1.919   0.540   3.401 -0.1255  0.5566 -0.6354
 2940SOL     OW20281   3.927   2.237   2.173 -0.4902  0.1474  0.6781
 2940SOL    HW120282   3.953   2.153   2.137  0.4409  0.7939 -0.1808
 2940SOL    HW220283   3.868   2.277   2.109  0.5216 -2.6497 -1.9591
 2941SOL     OW20284   3.711   1.434  13.768  0.4054 -0.4489  0.4376
 2941SOL    HW120285   3.619   1.436  13.743  0.7762 -1.4013 -0.9740
 2941SOL    HW220286   3.703   1.487  13.848 -0.4925 -2.2596  1.5610
 2942SOL     OW20287   3.695   4.601  15.223 -0.3065  0.3825  0.0286
 2942SOL    HW120288   3.718   4.510  15.241 -0.3191  0.2136 -0.8124
 2942SOL    HW220289   3.738   4.642  15.299  1.2915 -1.1556 -0.0515
 2943SOL     OW20290   3.910   1.884   2.280 -0.4771 -0.5127 -0.0168
 2943SOL    HW120291   3.949   1.929   2.204 -0.0308 -0.6491  0.1295
 2943SOL    HW220292   3.841   1.831   2.240  0.4792 -1.4106 -0.4990
 2944SOL     OW20293   2.174   2.602   4.916  0.2268 -0.1879  0.4151
 2944SOL    HW120294   2.082   2.579   4.927  0.5113 -0.8546  1.3484
 2944SOL    HW220295   2.201   2.601   5.007  0.0808  0.2305  0.4645
 2945SOL     OW20296   3.404   1.205   2.300  0.4173  0.0709  0.1320
 2945SOL    HW120297   3.405   1.297   2.275  2.0605 -0.9548 -3.4995
 2945SOL    HW220298   3.395   1.161   2.216  0.2823 -0.3211  0.3532
 2946SOL     OW20299   4.342   4.221  11.938  0.2607 -0.8884  0.0413
 2946SOL    HW120300   4.249   4.231  11.958 -0.1436 -1.4302 -1.6067
 2946SOL    HW220301   4.378   4.182  12.017  0.5028  1.9029  1.2989
 2947SOL     OW20302   2.045   3.419  10.382  0.0535  0.6580 -0.1872
 2947SOL    HW120303   2.095   3.467  10.449  0.8184  1.2302 -1.1739
 2947SOL    HW220304   2.113   3.366  10.340 -0.5141 -3.0805  3.5749
 2948SOL     OW20305   1.130   0.006  17.616 -0.6020  0.2391 -0.0161
 2948SOL    HW120306   1.158   4.679   0.008  0.8018 -0.5099 -0.9836
 2948SOL    HW220307   1.163   0.090  17.646  0.2719 -0.0750 -0.1167
 2949SOL     OW20308   0.631   0.547  14.817  0.4954 -0.1913 -0.3354
 2949SOL    HW120309   0.622   0.633  14.860  0.0962  1.4105 -3.6289
 2949SOL    HW220310   0.707   0.506  14.857  0.4352  0.9187  0.9522
 2950SOL     OW20311   2.915   4.452   3.895 -0.6213 -0.3131 -0.0283
 2950SOL    HW120312   2.946   4.399   3.968  2.6197 -0.3408 -1.4608
 2950SOL    HW220313   2.853   4.394   3.850  0.2280 -1.7750  0.7077
 2951SOL     OW20314   4.409   0.147   3.160 -0.6630 -0.5061 -0.4265
 2951SOL    HW120315   4.389   0.233   3.123  2.0880  0.4307  0.2693
 2951SOL    HW220316   4.436   0.096   3.083  1.3507  2.0313 -1.3892
 2952SOL     OW20317   2.154   4.324   8.443  0.2039  0.1396 -0.5139
 2952SOL    HW120318   2.217   4.253   8.454 -0.1584 -0.1124 -0.0566
 2952SOL    HW220319   2.187   4.360   8.361  0.4936  0.2260 -0.3616
 2953SOL     OW20320   2.992   3.469   8.645 -0.2616 -0.8910  0.0072
 2953SOL    HW120321   2.987   3.428   8.731  0.4690 -0.1985  0.3806
 2953SOL    HW220322   2.985   3.564   8.657  1.0743 -0.8780  0.6222
 2954SOL     OW20323   3.302   4.293  12.514 -0.4371  0.3375 -0.0926
 2954SOL    HW120324   3.353   4.221  12.551  1.5319  1.7603 -0.0568
 2954SOL    HW220325   3.222   4.246  12.492  0.5391 -0.9698 -0.9104
 2955SOL     OW20326   2.859   3.688  15.546 -0.3848 -0.0397 -0.6183
 2955SOL    HW120327   2.883   3.599  15.573 -0.0112  0.5171  0.9111
 2955SOL    HW220328   2.906   3.707  15.465 -0.3093  3.7626  0.3401
 2956SOL     OW20329   0.692   2.513   4.791  0.3272 -0.3348 -0.0582
 2956SOL    HW120330   0.642   2.583   4.833 -1.0858 -0.5439 -1.3909
 2956SOL    HW220331   0.729   2.475   4.871  0.5682  3.7794  1.7785
 2957SOL     OW20332   0.333   0.290   6.559 -0.3203 -0.0781  0.7265
 2957SOL    HW120333   0.259   0.319   6.613  1.2406  1.7609  1.8794
 2957SOL    HW220334   0.376   0.225   6.615  1.4605 -0.0809 -0.6376
 2958SOL     OW20335   2.736   4.524   3.248 -0.0007  0.1351  0.1679
 2958SOL    HW120336   2.652   4.484   3.268  0.5843 -1.2072 -0.0159
 2958SOL    HW220337   2.722   4.603   3.197 -0.0262 -0.6286 -1.0081
 2959SOL     OW20338   3.165   3.201   9.035  0.3068  0.1121 -0.4832
 2959SOL    HW120339   3.107   3.183   8.961 -1.6848 -0.3713  1.2269
 2959SOL    HW220340   3.135   3.127   9.088  0.9812  0.6900  0.7100
 2960SOL     OW20341   1.057   2.439  14.620 -0.3859 -0.0589  0.4449
 2960SOL    HW120342   1.111   2.506  14.577 -1.5435  1.2378  1.0289
 2960SOL    HW220343   0.971   2.468  14.589 -0.4519 -0.5869  0.1270
 2961SOL     OW20344   0.173   1.517   7.803 -0.4702  0.4984 -0.1349
 2961SOL    HW120345   0.126   1.591   7.764  0.5239 -0.2023 -2.6553
 2961SOL    HW220346   0.097   1.459   7.806  0.4703 -0.6539  1.1294
 2962SOL     OW20347   1.195   3.287  10.855  0.1776 -0.0271 -0.1958
 2962SOL    HW120348   1.226   3.277  10.765  0.2721 -0.6324 -0.0941
 2962SOL    HW220349   1.252   3.356  10.889  0.9278  0.6533 -2.8234
 2963SOL     OW20350   0.131   0.696   3.717 -0.3064  0.6080  0.5181
 2963SOL    HW120351   0.214   0.657   3.690 -0.0223  1.9582 -0.5965
 2963SOL    HW220352   0.119   0.646   3.797 -0.3296  1.2848  0.9330
 2964SOL     OW20353   1.516   1.407   7.730 -0.6296 -0.3963 -0.3645
 2964SOL    HW120354   1.523   1.459   7.650 -2.3522  0.3575 -0.0307
 2964SOL    HW220355   1.422   1.421   7.744 -0.7420 -0.9401 -0.6063
 2965SOL     OW20356   3.443   0.860  14.675  0.0619 -0.6680 -0.5065
 2965SOL    HW120357   3.445   0.765  14.666  0.7357 -0.8031  1.1335
 2965SOL    HW220358   3.474   0.891  14.590  1.8727  0.6864  0.6416
 2966SOL     OW20359   3.412   1.577   3.570  0.4889  0.4151  0.3117
 2966SOL    HW120360   3.431   1.497   3.522  1.4669  1.5952 -1.2494
 2966SOL    HW220361   3.417   1.542   3.660 -0.5174 -0.0875  0.1747
 2967SOL     OW20362   2.459   1.643   4.635  0.0693  0.2597  0.0300
 2967SOL    HW120363   2.481   1.556   4.599 -1.5429  0.3961 -1.2708
 2967SOL    HW220364   2.394   1.669   4.570  0.8289  2.0620 -0.0049
 2968SOL     OW20365   0.139   2.899  14.918  0.1048 -0.2300 -0.3518
 2968SOL    HW120366   0.117   2.885  14.826  0.9810 -0.2039 -0.5660
 2968SOL    HW220367   0.181   2.985  14.925  2.2477 -1.4099  1.4593
 2969SOL     OW20368   2.743   1.783   5.620 -0.1483  0.0949  0.2915
 2969SOL    HW120369   2.681   1.716   5.651 -0.3830 -0.8920 -2.3013
 2969SOL    HW220370   2.820   1.758   5.671 -0.1709 -0.6396 -0.0208
 2970SOL     OW20371   1.967   0.418   0.646  0.0620  0.4480  0.3184
 2970SOL    HW120372   1.954   0.325   0.631  0.3922  0.5063 -0.3352
 2970SOL    HW220373   2.060   0.427   0.623  0.0055  2.4839  0.8948
 2971SOL     OW20374   2.513   3.434  12.055 -0.3686 -0.0726  0.1419
 2971SOL    HW120375   2.523   3.417  12.149 -0.7031  0.8452  0.3467
 2971SOL    HW220376   2.604   3.446  12.030 -0.2855  0.3208  0.6272
 2972SOL     OW20377   0.879   1.151  15.677  0.1330 -0.0499 -0.3918
 2972SOL    HW120378   0.870   1.217  15.746  0.8286  0.7683 -1.0833
 2972SOL    HW220379   0.928   1.200  15.610 -1.3280  1.0347 -0.6646
 2973SOL     OW20380   2.511   0.327   4.341 -0.1286 -0.2585 -0.2745
 2973SOL    HW120381   2.459   0.287   4.411  2.7556 -1.5903  1.0997
 2973SOL    HW220382   2.455   0.401   4.319 -2.0011 -0.9953  1.9333
 2974SOL     OW20383   2.060   3.365   7.382 -0.5813  0.0571 -0.2882
 2974SOL    HW120384   2.047   3.410   7.299 -2.0127  0.0438 -0.0829
 2974SOL    HW220385   1.988   3.302   7.380 -1.2326  0.7636  0.7843
 2975SOL     OW20386   2.455   1.122   5.183 -0.7159  0.1519 -0.0021
 2975SOL    HW120387   2.376   1.174   5.168 -1.4112 -1.1181 -0.6583
 2975SOL    HW220388   2.422   1.032   5.180 -0.2500 -0.0567  1.1932
 2976SOL     OW20389   1.745   3.965   6.758  0.1386 -0.3379 -0.5216
 2976SOL    HW120390   1.830   3.922   6.751 -0.9727 -2.5395 -0.4960
 2976SOL    HW220391   1.756   4.020   6.836 -0.2326  0.9369 -1.3821
 2977SOL     OW20392   3.450   2.360   8.177 -0.3299 -0.1220  0.2266
 2977SOL    HW120393   3.499   2.296   8.229  0.1916 -0.3694 -0.5799
 2977SOL    HW220394   3.361   2.335   8.204 -0.9857 -0.4939 -2.2842
 2978SOL     OW20395   0.416   2.563   5.691  0.4952 -0.9087  0.0519
 2978SOL    HW120396   0.469   2.643   5.690 -1.4924  0.4544  3.5928
 2978SOL    HW220397   0.336   2.598   5.652  1.2149  1.1774  0.4013
 2979SOL     OW20398   0.100   2.391   5.303 -0.0532 -0.2159 -0.5402
 2979SOL    HW120399   0.091   2.327   5.373  2.4088  1.2449  1.1112
 2979SOL    HW220400   0.195   2.409   5.302  0.0421 -0.7160  0.2271
 2980SOL     OW20401   3.054   0.685   3.351  0.0523  0.1328  0.6572
 2980SOL    HW120402   3.116   0.636   3.403 -0.3634 -1.1103 -0.0209
 2980SOL    HW220403   2.997   0.720   3.420 -0.2940  0.2925  0.2921
 2981SOL     OW20404   2.076   2.879  10.711  0.0462 -0.1714 -0.7800
 2981SOL    HW120405   1.985   2.894  10.684  0.2101 -2.1893 -2.5052
 2981SOL    HW220406   2.051   2.816  10.777  1.6330 -0.0908 -0.1053
 2982SOL     OW20407   3.788   0.877   3.976  0.2446  0.2821 -0.0411
 2982SOL    HW120408   3.780   0.896   3.883  1.0092  3.0115  0.4441
 2982SOL    HW220409   3.747   0.792   3.989  0.5001 -0.1561 -2.2251
 2983SOL     OW20410   3.120   1.617   8.696  0.0968 -0.1366 -0.2304
 2983SOL    HW120411   3.043   1.639   8.643  0.8745 -0.2602 -1.3918
 2983SOL    HW220412   3.099   1.664   8.777 -1.6436 -0.7258 -0.3353
 2984SOL     OW20413   0.486   3.528   2.975 -0.1319 -0.3433 -0.3055
 2984SOL    HW120414   0.496   3.620   2.950 -0.8283 -0.2098 -0.0812
 2984SOL    HW220415   0.561   3.495   2.925 -0.4837 -1.1092 -0.3346
 2985SOL     OW20416   2.045   3.240   5.206 -0.2178 -0.0857 -0.6256
 2985SOL    HW120417   2.083   3.314   5.254 -0.6218 -0.6335  0.5328
 2985SOL    HW220418   2.111   3.176   5.229 -0.4113 -0.5248 -1.2785
 2986SOL     OW20419   2.759   1.379   5.667  0.5093  0.2903 -0.7173
 2986SOL    HW120420   2.694   1.333   5.720 -0.3574  1.7454 -0.5309
 2986SOL    HW220421   2.717   1.391   5.581 -1.3220  0.5413  0.2239
 2987SOL     OW20422   2.320   3.066  10.504 -0.3192  0.0901  0.2621
 2987SOL    HW120423   2.279   3.127  10.443 -0.4856 -0.2036  0.0782
 2987SOL    HW220424   2.275   2.982  10.488 -0.9158  0.5692 -0.6187
 2988SOL     OW20425   4.617   3.827   5.555 -0.2689  0.6438  0.1900
 2988SOL    HW120426   4.622   3.777   5.636 -0.2422 -0.6595 -0.6099
 2988SOL    HW220427   4.566   3.907   5.568  0.9902  1.9126 -2.5660
 2989SOL     OW20428   4.223   0.080   4.169 -0.1636 -0.3096 -0.1378
 2989SOL    HW120429   4.220   0.173   4.193 -1.1006 -0.2474 -0.5115
 2989SOL    HW220430   4.300   0.081   4.112  0.7387 -2.4404  1.0309
 2990SOL     OW20431   0.809   4.411   4.637  0.1337  0.3665 -0.4302
 2990SOL    HW120432   0.885   4.436   4.689 -0.4516  1.0038  0.1211
 2990SOL    HW220433   0.742   4.398   4.705  0.9560  0.1725  0.3512
 2991SOL     OW20434   0.417   2.274   4.844  0.1352  0.9026 -0.2936
 2991SOL    HW120435   0.500   2.262   4.890 -0.8510 -2.4408  0.6211
 2991SOL    HW220436   0.378   2.187   4.840  1.2052  0.4568 -1.0309
 2992SOL     OW20437   0.005   3.032   3.349  0.1825 -0.2292  0.1375
 2992SOL    HW120438   0.054   3.093   3.294 -1.2368 -0.1911 -1.0911
 2992SOL    HW220439   0.079   2.976   3.376 -0.6030 -0.6747  1.3391
 2993SOL     OW20440   3.811   4.219  12.069 -0.4118  0.1014  0.3302
 2993SOL    HW120441   3.724   4.222  12.109 -0.5755 -0.7339  0.0273
 2993SOL    HW220442   3.810   4.141  12.013  1.6421 -0.2579  0.7793
 2994SOL     OW20443   0.611   4.591   1.207 -0.3647  0.2856 -0.0221
 2994SOL    HW120444   0.692   4.611   1.160 -0.9995 -0.6522 -1.4861
 2994SOL    HW220445   0.594   4.676   1.247 -0.6148 -0.9259  2.4425
 2995SOL     OW20446   3.663   3.500  11.825  0.2153  0.3826  0.4349
 2995SOL    HW120447   3.624   3.586  11.841  1.0231  0.3467  2.5436
 2995SOL    HW220448   3.603   3.461  11.761  0.4828  0.4487  0.1432
 2996SOL     OW20449   2.301   1.780  13.305 -0.1399  0.3841  0.2217
 2996SOL    HW120450   2.299   1.725  13.227  0.7071  0.3703  0.2133
 2996SOL    HW220451   2.212   1.763  13.338 -0.5580 -0.3853 -1.3185
 2997SOL     OW20452   4.500   1.403  16.607  0.2726  0.0516  0.5229
 2997SOL    HW120453   4.507   1.497  16.588 -0.3463  0.3294  1.6736
 2997SOL    HW220454   4.408   1.379  16.601  0.2784 -0.2752  1.7057
 2998SOL     OW20455   3.843   2.627  14.770 -0.2904  0.0958  0.1314
 2998SOL    HW120456   3.855   2.532  14.769 -2.2459 -0.1080 -1.5355
 2998SOL    HW220457   3.914   2.655  14.713 -2.4009  2.0736 -1.5010
 2999SOL     OW20458   2.619   1.585   5.099  0.1602 -1.0255 -0.2781
 2999SOL    HW120459   2.595   1.495   5.121  0.6740 -1.1040 -0.0506
 2999SOL    HW220460   2.649   1.616   5.184 -1.1635 -0.6254  0.0524
 3000SOL     OW20461   2.606   2.807  15.608  0.1881 -0.0412 -0.0478
 3000SOL    HW120462   2.678   2.774  15.661 -0.0926  1.0860  1.0270
 3000SOL    HW220463   2.551   2.848  15.674  0.9607 -1.9366  1.7898
 3001SOL     OW20464   4.544   1.731   5.163  0.3688  0.0460  0.0578
 3001SOL    HW120465   4.598   1.690   5.095  2.8809 -1.3849  2.9157
 3001SOL    HW220466   4.562   1.824   5.151 -0.4503  0.1911 -0.0498
 3002SOL     OW20467   4.619   3.151   5.107 -0.0231  0.1699  0.7678
 3002SOL    HW120468   4.674   3.215   5.063  1.3953  0.4453  2.9648
 3002SOL    HW220469   4.679   3.079   5.089  1.6132  1.2814  1.7571
 3003SOL     OW20470   2.001   3.609   7.960  0.2649  0.3896 -0.4884
 3003SOL    HW120471   2.084   3.561   7.960 -0.5960 -1.1259  0.3381
 3003SOL    HW220472   2.011   3.660   7.880  0.9601  0.3571 -0.4257
 3004SOL     OW20473   4.571   0.330   5.267 -0.0787 -0.0051  0.4395
 3004SOL    HW120474   4.506   0.283   5.215  0.8615 -0.5843 -0.2068
 3004SOL    HW220475   4.637   0.347   5.200 -0.6045  1.9677  0.4269
 3005SOL     OW20476   3.792   3.716   5.813 -0.3550  0.5995  0.4109
 3005SOL    HW120477   3.751   3.660   5.879  1.4760 -0.2176  0.8423
 3005SOL    HW220478   3.806   3.794   5.868 -2.4475  0.6272  0.8916
 3006SOL     OW20479   0.139   4.241  11.030 -0.4469 -0.5312 -0.3408
 3006SOL    HW120480   0.163   4.189  11.107  2.6054 -0.5040 -1.2907
 3006SOL    HW220481   0.100   4.170  10.978 -1.2271  1.5795 -2.6452
 3007SOL     OW20482   0.218   3.539   5.404  0.8617 -0.2037 -0.8067
 3007SOL    HW120483   0.243   3.583   5.486  0.1892 -0.3237 -0.5378
 3007SOL    HW220484   0.214   3.609   5.338  1.7286  2.0194  1.4891
 3008SOL     OW20485   1.023   0.577   0.995  0.7774  0.3367  0.0751
 3008SOL    HW120486   0.941   0.624   0.975 -0.7668 -1.8341  1.3458
 3008SOL    HW220487   0.996   0.486   1.003 -0.5708  0.8087  1.0030
 3009SOL     OW20488   0.873   1.009   9.215  0.7115  0.2206  0.4193
 3009SOL    HW120489   0.843   1.044   9.299  0.6941 -1.1892  0.9960
 3009SOL    HW220490   0.830   1.066   9.151  4.7389  1.2664 -1.3554
 3010SOL     OW20491   1.303   4.064   6.653 -0.3582  0.0990 -0.1998
 3010SOL    HW120492   1.380   4.009   6.643  0.8180  1.5725  0.7694
 3010SOL    HW220493   1.288   4.088   6.562 -0.6761 -0.6141 -0.3351
 3011SOL     OW20494   1.686   2.173   4.328  0.4859 -0.2647 -0.4234
 3011SOL    HW120495   1.781   2.188   4.327  0.6448 -1.2746 -2.6313
 3011SOL    HW220496   1.656   2.251   4.374  1.7594 -0.3232  0.5145
 3012SOL     OW20497   1.496   0.081   2.922  0.4922  0.0895  0.3813
 3012SOL    HW120498   1.459   0.025   2.990 -1.5837  1.5195  0.4167
 3012SOL    HW220499   1.419   0.074   2.866  1.3174 -0.7773 -0.6469
 3013SOL     OW20500   3.583   4.445   6.149  0.2875 -0.1212  0.4982
 3013SOL    HW120501   3.651   4.380   6.170 -0.0429 -0.9673 -1.0108
 3013SOL    HW220502   3.633   4.522   6.122  0.4919 -0.0480  1.0826
 3014SOL     OW20503   1.248   3.235   0.249  0.8022  0.4000 -0.6625
 3014SOL    HW120504   1.311   3.184   0.301 -0.9736  1.4899  2.5716
 3014SOL    HW220505   1.220   3.287   0.324 -1.0765 -0.1342 -1.0074
 3015SOL     OW20506   2.002   0.250   5.470  0.4370 -0.3449 -0.6587
 3015SOL    HW120507   1.997   0.157   5.445  0.9738 -0.7091  0.6039
 3015SOL    HW220508   2.040   0.236   5.557  0.6214  1.5872 -0.4351
 3016SOL     OW20509   3.448   1.961   6.302 -0.6143 -0.2667 -0.4120
 3016SOL    HW120510   3.433   2.028   6.235  1.1360  0.5602  0.0135
 3016SOL    HW220511   3.455   2.015   6.381  1.7118  1.7750 -2.0243
 3017SOL     OW20512   1.258   4.083   7.973  0.1742  0.0806  0.2124
 3017SOL    HW120513   1.226   4.157   7.921 -0.0799 -1.8581 -2.3989
 3017SOL    HW220514   1.325   4.044   7.916 -0.3535  0.4453 -0.6560
 3018SOL     OW20515   4.549   0.466   7.101 -0.4189 -0.0228  0.8367
 3018SOL    HW120516   4.552   0.391   7.041 -0.1412 -1.0238  2.1019
 3018SOL    HW220517   4.521   0.419   7.180 -0.4978  0.3580  1.0322
 3019SOL     OW20518   4.629   4.294   6.670 -0.0438  0.2591  0.4661
 3019SOL    HW120519   4.587   4.253   6.745 -0.7500  1.4073  0.7099
 3019SOL    HW220520   4.560   4.303   6.604 -0.3756 -1.9859  0.5016
 3020SOL     OW20521   3.064   3.777   5.642  0.5377 -0.0936 -0.0100
 3020SOL    HW120522   3.073   3.870   5.623 -1.4994  0.5127  1.9908
 3020SOL    HW220523   3.145   3.755   5.688 -1.0390 -0.5607  2.5486
 3021SOL     OW20524   3.597   1.847   1.885  0.2847  0.3688 -0.4494
 3021SOL    HW120525   3.519   1.816   1.841  0.6441 -0.4431 -0.5225
 3021SOL    HW220526   3.609   1.924   1.830  1.0606 -0.3405 -1.2759
 3022SOL     OW20527   3.987   2.276   5.697 -0.0772 -0.2251  0.5229
 3022SOL    HW120528   4.000   2.358   5.745  0.6248 -0.1348  0.1826
 3022SOL    HW220529   4.075   2.253   5.665 -0.8108 -3.0615  0.5384
 3023SOL     OW20530   2.466   1.381   4.644  0.2275 -0.1474 -0.0547
 3023SOL    HW120531   2.455   1.394   4.738  0.3283  0.0416 -0.0695
 3023SOL    HW220532   2.515   1.299   4.646  0.4086 -0.0513 -0.5659
 3024SOL     OW20533   1.081   2.950   7.278 -0.5799  0.2975  0.5860
 3024SOL    HW120534   1.153   2.909   7.326 -2.6795 -2.5558  1.2908
 3024SOL    HW220535   0.997   2.920   7.311 -0.8156  0.4263  0.1121
 3025SOL     OW20536   3.048   4.500   0.002 -0.1389  0.1709  0.1224
 3025SOL    HW120537   3.127   4.471  17.641 -0.6075  0.8009 -1.0658
 3025SOL    HW220538   3.025   4.433   0.066  0.6825  1.1890  1.4605
 3026SOL     OW20539   2.675   1.146   9.646  0.3631  0.4394  0.4713
 3026SOL    HW120540   2.610   1.079   9.625  2.2545 -1.3360  0.2782
 3026SOL    HW220541   2.746   1.136   9.582  0.3248  3.4213 -0.0648
 3027SOL     OW20542   1.287   2.404   5.315 -0.0592  0.2559 -0.5315
 3027SOL    HW120543   1.294   2.314   5.282  5.1798  0.5932 -0.3264
 3027SOL    HW220544   1.192   2.417   5.312 -0.3658 -1.8104 -0.2359
 3028SOL     OW20545   4.367   1.609   5.800 -0.1494 -0.0170 -0.7694
 3028SOL    HW120546   4.442   1.629   5.856 -2.0917  1.6072  1.2831
 3028SOL    HW220547   4.302   1.596   5.869 -2.1685  1.0750 -2.4538
 3029SOL     OW20548   1.659   1.253   6.254  0.3078  0.2419 -0.2456
 3029SOL    HW120549   1.613   1.183   6.206 -0.3219 -0.6170  1.6072
 3029SOL    HW220550   1.689   1.215   6.337  1.0686 -0.3390 -0.7797
 3030SOL     OW20551   3.503   0.784   8.052 -0.2069 -0.2651  0.3332
 3030SOL    HW120552   3.465   0.768   8.138 -0.5402  0.2530  0.2834
 3030SOL    HW220553   3.464   0.718   7.995 -1.5103  0.0763  0.8278
 3031SOL     OW20554   0.139   0.284   7.183 -0.7346  0.1023  0.0415
 3031SOL    HW120555   0.164   0.375   7.169 -1.3243 -0.1588 -2.7183
 3031SOL    HW220556   0.168   0.266   7.272 -0.6038 -1.4730 -0.3225
 3032SOL     OW20557   2.452   2.560   3.702 -0.1670 -0.6111 -0.3142
 3032SOL    HW120558   2.450   2.646   3.744  0.9045  0.0994 -1.7058
 3032SOL    HW220559   2.526   2.573   3.642 -1.3898 -1.4800 -2.0248
 3033SOL     OW20560   2.175   4.001   0.699 -0.0325  0.0410 -0.0326
 3033SOL    HW120561   2.197   4.002   0.606  0.9372 -0.5272  0.1910
 3033SOL    HW220562   2.085   4.033   0.695  0.8678  2.6428  0.4642
 3034SOL     OW20563   1.269   2.222   3.038 -0.2098  0.0717 -0.3306
 3034SOL    HW120564   1.198   2.282   3.012  1.3962  2.3393  0.6264
 3034SOL    HW220565   1.346   2.278   3.043  0.5044 -1.0731  1.3945
 3035SOL     OW20566   1.902   2.567   4.305 -0.2846  0.2276 -0.4727
 3035SOL    HW120567   1.906   2.660   4.325 -0.4965 -0.2762  1.8848
 3035SOL    HW220568   1.925   2.524   4.387 -0.3578  0.4462 -0.3392
 3036SOL     OW20569   3.294   3.233   5.246  0.1849 -0.1168 -0.8538
 3036SOL    HW120570   3.213   3.277   5.221 -0.0779  0.2914  0.7434
 3036SOL    HW220571   3.264   3.147   5.275  2.2416 -0.4209  0.3811
 3037SOL     OW20572   0.391   0.638   1.723  0.3268 -0.1496  0.2197
 3037SOL    HW120573   0.316   0.651   1.666 -0.3859 -0.8637  0.9892
 3037SOL    HW220574   0.460   0.628   1.658  0.3085  0.9765  0.0166
 3038SOL     OW20575   1.184   2.828  14.569 -0.5052 -0.1172 -0.7578
 3038SOL    HW120576   1.113   2.845  14.631 -0.3023  0.4709 -0.6874
 3038SOL    HW220577   1.192   2.735  14.550  0.3927 -0.1416 -0.2537
 3039SOL     OW20578   1.486   2.997   2.104 -0.4989 -0.1996  0.1935
 3039SOL    HW120579   1.429   3.059   2.058 -1.8406 -0.9827  0.8074
 3039SOL    HW220580   1.566   3.009   2.052 -0.2788  0.6741  0.7312
 3040SOL     OW20581   1.082   3.122  14.337  0.1398 -0.0676 -0.4732
 3040SOL    HW120582   1.084   3.204  14.286  1.5967 -0.4096 -0.9618
 3040SOL    HW220583   1.111   3.152  14.423 -2.1184 -0.7236  0.5202
 3041SOL     OW20584   2.269   0.773  11.408  0.1692 -0.0554 -0.0859
 3041SOL    HW120585   2.353   0.792  11.450  0.5758 -1.0421 -0.4550
 3041SOL    HW220586   2.266   0.679  11.426  1.2036 -0.1740 -0.5226
 3042SOL     OW20587   1.261   4.606   7.916  0.0199  0.2584  0.0612
 3042SOL    HW120588   1.195   4.657   7.963  0.2947  0.6686  0.0091
 3042SOL    HW220589   1.246   4.519   7.953 -0.7138 -0.3614 -1.7031
 3043SOL     OW20590   3.817   3.418   1.182 -0.4401 -0.8070  0.4449
 3043SOL    HW120591   3.845   3.501   1.222  1.5931 -0.1375 -2.2883
 3043SOL    HW220592   3.733   3.440   1.140 -0.0235 -3.0409 -1.5384
 3044SOL     OW20593   3.550   2.758   5.070  0.1421  0.4101 -0.7380
 3044SOL    HW120594   3.594   2.763   4.985  0.8604  0.9842 -0.3331
 3044SOL    HW220595   3.475   2.812   5.046 -0.6829 -0.9702 -1.2363
 3045SOL     OW20596   0.452   3.728  14.985  0.1086  0.3431 -0.0494
 3045SOL    HW120597   0.494   3.750  14.901  0.6951  2.0786  0.6931
 3045SOL    HW220598   0.516   3.668  15.023  0.9997  0.2704 -1.6547
 3046SOL     OW20599   4.528   4.609   0.264 -0.3156 -0.6155 -0.1975
 3046SOL    HW120600   4.494   4.682   0.316  2.8301 -0.0915  1.1332
 3046SOL    HW220601   4.480   4.615   0.181  0.9127  1.8018 -0.7418
 3047SOL     OW20602   1.556   4.480  15.219 -0.2976  0.0424  0.0218
 3047SOL    HW120603   1.634   4.431  15.246  1.3143  2.3026 -0.6094
 3047SOL    HW220604   1.571   4.566  15.257  2.9459 -0.1086 -0.9165
 3048SOL     OW20605   2.833   0.402   9.771 -0.1189  0.4755 -0.0808
 3048SOL    HW120606   2.906   0.343   9.754 -0.6359  0.0669 -0.9119
 3048SOL    HW220607   2.868   0.486   9.741  2.4294 -1.2652 -1.9232
 3049SOL     OW20608   1.598   2.164   3.946  0.2869 -0.8311  0.2022
 3049SOL    HW120609   1.690   2.186   3.957 -0.1927  0.7204  1.2871
 3049SOL    HW220610   1.602   2.069   3.955  1.6190 -0.6621  1.4097
 3050SOL     OW20611   0.648   3.782  14.488  0.0271  0.3235 -0.3590
 3050SOL    HW120612   0.662   3.693  14.457 -1.8399  0.2308 -0.9457
 3050SOL    HW220613   0.603   3.826  14.416  0.4642  1.0519 -0.1861
 3051SOL     OW20614   1.713   3.915   6.161 -0.0074  0.3691  0.3501
 3051SOL    HW120615   1.744   3.997   6.198  0.2773  0.8825 -1.0570
 3051SOL    HW220616   1.787   3.854   6.158  1.6687  2.4504 -0.1570
 3052SOL     OW20617   3.710   3.788   4.737  0.9517  0.1484 -0.5655
 3052SOL    HW120618   3.798   3.753   4.750  0.6738 -0.0977  0.6481
 3052SOL    HW220619   3.734   3.848   4.666  1.9835  1.4137  0.8465
 3053SOL     OW20620   3.113   0.178   0.448  0.1265  0.2221 -0.1334
 3053SOL    HW120621   3.094   0.099   0.499 -2.4275  1.3030  0.5565
 3053SOL    HW220622   3.134   0.135   0.365  1.6005 -3.0612  1.9481
 3054SOL     OW20623   2.144   3.426   0.815 -0.3573 -0.6632 -0.0659
 3054SOL    HW120624   2.144   3.521   0.826 -2.5125 -0.9397  2.3339
 3054SOL    HW220625   2.056   3.427   0.778 -0.3673  1.2102 -0.0272
 3055SOL     OW20626   2.146   2.250   5.709  0.4924  0.1907 -0.4550
 3055SOL    HW120627   2.131   2.196   5.787  1.6909  2.9254  1.6494
 3055SOL    HW220628   2.124   2.338   5.738  0.2279  0.4328 -1.3822
 3056SOL     OW20629   3.253   4.328  14.305  0.2002 -0.2090 -0.7048
 3056SOL    HW120630   3.267   4.423  14.304  1.6755 -0.4195 -0.6018
 3056SOL    HW220631   3.329   4.296  14.353 -1.4900 -0.9041  1.5259
 3057SOL     OW20632   1.647   2.254   5.365 -0.2265  0.2487 -0.4679
 3057SOL    HW120633   1.680   2.315   5.299  1.0975  0.2712  0.2140
 3057SOL    HW220634   1.653   2.164   5.333  0.3693  0.5360 -1.1685
 3058SOL     OW20635   0.949   2.723   6.641  0.2138 -0.5384  0.1997
 3058SOL    HW120636   0.975   2.639   6.677 -0.4867 -0.9117 -0.1710
 3058SOL    HW220637   0.875   2.755   6.693 -0.0401  1.0236 -1.1255
 3059SOL     OW20638   2.527   1.432  12.379 -0.0213 -0.1370 -0.6107
 3059SOL    HW120639   2.482   1.433  12.294 -0.6778  1.3101 -0.2483
 3059SOL    HW220640   2.591   1.361  12.372 -0.9529 -0.9532 -0.7009
 3060SOL     OW20641   3.381   4.712   7.897 -0.2968 -0.1939 -0.0368
 3060SOL    HW120642   3.322   0.050   7.944  0.9123  1.1487 -0.1709
 3060SOL    HW220643   3.424   4.663   7.967  0.8971 -1.5018 -1.7110
 3061SOL     OW20644   3.170   4.307  15.539  0.0924  0.2436  0.1437
 3061SOL    HW120645   3.101   4.318  15.605  0.7772  0.0794  0.8800
 3061SOL    HW220646   3.182   4.397  15.508  0.6548 -1.0912 -3.6042
 3062SOL     OW20647   3.107   3.108   5.656 -0.2951  0.1783  0.0719
 3062SOL    HW120648   3.075   3.036   5.603  1.7759  0.5964 -1.7604
 3062SOL    HW220649   3.132   3.071   5.741  0.8725 -1.7462 -1.1239
 3063SOL     OW20650   0.158   4.107   7.965 -0.0938  0.3705 -0.2309
 3063SOL    HW120651   0.220   4.131   7.895 -0.2297  2.3546  0.3576
 3063SOL    HW220652   0.215   4.130   8.038 -1.1888 -0.0195  0.7285
 3064SOL     OW20653   0.414   4.546   7.935  0.1276 -0.4761 -0.0606
 3064SOL    HW120654   0.460   4.462   7.931 -0.4636 -0.9674  2.9444
 3064SOL    HW220655   0.474   4.606   7.981  0.0570  0.3715 -1.0914
 3065SOL     OW20656   1.718   2.864   4.315 -0.1637 -0.3345 -0.3312
 3065SOL    HW120657   1.751   2.918   4.243 -0.5916 -0.7022 -0.7918
 3065SOL    HW220658   1.792   2.857   4.376  0.0502 -1.7601 -0.7619
 3066SOL     OW20659   3.335   0.616   1.498 -0.5126  0.7633  0.3487
 3066SOL    HW120660   3.413   0.633   1.551 -1.1090 -0.2631  1.5373
 3066SOL    HW220661   3.363   0.579   1.414  1.6847  1.8495  0.5898
 3067SOL     OW20662   0.740   2.888   8.171  0.1161  0.0231  0.4363
 3067SOL    HW120663   0.828   2.885   8.208 -0.0664  0.5671  0.9206
 3067SOL    HW220664   0.687   2.920   8.244 -1.5960  2.3710 -1.8562
 3068SOL     OW20665   0.517   4.198   9.258  0.3974 -0.8265 -0.6599
 3068SOL    HW120666   0.435   4.185   9.305  0.9478  1.4430  0.9281
 3068SOL    HW220667   0.576   4.166   9.326  0.8532 -1.2898 -1.2729
 3069SOL     OW20668   0.731   1.465  12.008 -0.1297  0.2871  0.2815
 3069SOL    HW120669   0.822   1.440  11.988 -0.9525 -1.3658 -1.4182
 3069SOL    HW220670   0.675   1.391  11.982 -1.9836  2.6782 -2.4913
 3070SOL     OW20671   2.301   1.726   5.152 -0.1120 -0.2734 -0.3214
 3070SOL    HW120672   2.244   1.801   5.133  0.1970  0.2541  0.8132
 3070SOL    HW220673   2.334   1.709   5.063 -0.4327 -2.1005 -0.0780
 3071SOL     OW20674   0.146   0.980   7.017 -0.3341  0.0342 -0.3167
 3071SOL    HW120675   0.117   1.041   6.950  0.4891  1.0965  0.3053
 3071SOL    HW220676   0.079   0.993   7.084  0.4761  1.3614  0.2263
 3072SOL     OW20677   3.824   1.693   5.963 -0.1286  0.4042 -0.0200
 3072SOL    HW120678   3.890   1.740   6.015 -0.9818  3.2898 -1.5132
 3072SOL    HW220679   3.744   1.712   6.012  0.4144  1.5688  0.4131
 3073SOL     OW20680   0.947   0.391  11.565  0.0491 -0.2139 -0.3336
 3073SOL    HW120681   1.002   0.355  11.634 -1.0551  0.4623  0.9091
 3073SOL    HW220682   0.913   0.470  11.607 -1.4248 -1.4873  0.8834
 3074SOL     OW20683   0.892   3.005  16.217 -0.0917 -0.0218  0.4638
 3074SOL    HW120684   0.816   3.059  16.240 -1.1482 -1.5028  0.4444
 3074SOL    HW220685   0.964   3.067  16.230 -0.2198  0.4898 -1.2593
 3075SOL     OW20686   1.184   1.766   8.495 -0.1961  0.0304  0.1783
 3075SOL    HW120687   1.133   1.762   8.576 -0.7593  2.7905 -0.0429
 3075SOL    HW220688   1.253   1.827   8.522 -1.2659  1.1771  0.2963
 3076SOL     OW20689   4.129   4.427   0.746 -0.2411 -0.1714  0.1555
 3076SOL    HW120690   4.047   4.458   0.783 -1.1001  1.4468 -3.0852
 3076SOL    HW220691   4.193   4.418   0.817  0.5814 -1.0545 -0.6937
 3077SOL     OW20692   4.382   4.165  12.233  0.5282  0.5807 -0.1703
 3077SOL    HW120693   4.337   4.236  12.277 -0.8171  0.6978 -1.7166
 3077SOL    HW220694   4.461   4.164  12.288  0.5675 -0.5335 -0.2336
 3078SOL     OW20695   3.639   4.048   3.678  0.3283 -0.1772  0.0084
 3078SOL    HW120696   3.724   4.005   3.675  0.0100 -0.8307  0.1708
 3078SOL    HW220697   3.653   4.142   3.686 -2.6914  0.3108 -0.3034
 3079SOL     OW20698   2.335   0.076   0.389  0.9270 -0.4390 -0.2127
 3079SOL    HW120699   2.364   0.015   0.457  1.3798  0.6205  0.5413
 3079SOL    HW220700   2.397   0.050   0.320  2.3420 -1.0572  1.3118
 3080SOL     OW20701   3.959   3.633   6.940 -0.3469  0.9326  0.2615
 3080SOL    HW120702   4.004   3.588   6.868 -2.8264 -0.9203 -0.1477
 3080SOL    HW220703   4.035   3.667   6.988  1.1642  0.8355 -2.0521
 3081SOL     OW20704   3.580   1.270   6.539 -0.2178  0.1848 -0.2601
 3081SOL    HW120705   3.568   1.357   6.501 -2.4287 -1.5011 -3.3514
 3081SOL    HW220706   3.655   1.236   6.490 -1.7740 -3.6227 -0.0286
 3082SOL     OW20707   1.266   0.005   4.593  0.1435  0.1774  0.1925
 3082SOL    HW120708   1.346   4.678   4.615  1.7507  1.7093 -2.2504
 3082SOL    HW220709   1.267   0.008   4.497 -1.9647 -0.7192  0.1488
 3083SOL     OW20710   0.818   1.676   6.204 -0.9911  0.5916  0.3172
 3083SOL    HW120711   0.764   1.608   6.162  1.9413 -0.9079 -1.0419
 3083SOL    HW220712   0.869   1.704   6.128 -1.7171 -0.8095 -0.6989
 3084SOL     OW20713   4.634   1.570   8.223 -0.0557 -0.3692  0.0552
 3084SOL    HW120714   4.632   1.614   8.138  1.4767 -0.8004 -0.2261
 3084SOL    HW220715   4.608   1.485   8.187  1.8806 -0.2643 -1.6555
 3085SOL     OW20716   0.908   3.723   7.740 -0.3070  0.1753  0.3120
 3085SOL    HW120717   0.828   3.748   7.787  1.1253  4.0699  0.6499
 3085SOL    HW220718   0.932   3.640   7.782  1.3639 -0.6503 -2.2548
 3086SOL     OW20719   0.860   0.206   0.619  0.4677  0.2167  0.0879
 3086SOL    HW120720   0.806   0.154   0.560 -0.0534 -0.1393  0.8820
 3086SOL    HW220721   0.919   0.141   0.657 -0.5368  0.5917  2.2633
 3087SOL     OW20722   2.469   1.642  11.752  0.4169  0.3399 -0.3549
 3087SOL    HW120723   2.534   1.572  11.755 -0.2381 -0.2952 -1.0474
 3087SOL    HW220724   2.439   1.621  11.663  0.9440 -0.8948 -0.2445
 3088SOL     OW20725   1.213   2.948   1.627 -0.7220 -0.3909  0.5155
 3088SOL    HW120726   1.152   2.987   1.564  1.0776  2.5724  0.6222
 3088SOL    HW220727   1.152   2.923   1.697 -1.4754  0.5535  0.1995
 3089SOL     OW20728   4.154   3.577   2.166  0.3771  0.3604  0.0450
 3089SOL    HW120729   4.228   3.525   2.197 -1.7270 -2.4687  0.3529
 3089SOL    HW220730   4.102   3.505   2.129 -1.4028  1.5313  0.2812
 3090SOL     OW20731   3.395   2.715   4.324 -0.0417 -0.1241  0.1413
 3090SOL    HW120732   3.338   2.658   4.271  0.1402  0.1533 -0.3564
 3090SOL    HW220733   3.439   2.653   4.383 -1.1968  1.0948  2.2740
 3091SOL     OW20734   3.227   3.405   2.945 -0.3300 -0.7351  0.0316
 3091SOL    HW120735   3.202   3.456   3.022 -0.5177 -0.2201 -0.3697
 3091SOL    HW220736   3.252   3.472   2.882 -1.1477  1.1656  1.7287
 3092SOL     OW20737   4.483   0.091   4.883 -0.5355  0.6410 -0.2737
 3092SOL    HW120738   4.456   0.149   4.955  1.6842  0.9476  0.3227
 3092SOL    HW220739   4.555   0.144   4.849  0.8232 -0.5207  0.7692
 3093SOL     OW20740   1.124   0.220   4.398  0.0909 -0.0510  0.3803
 3093SOL    HW120741   1.122   0.178   4.312  1.8406 -0.8809  0.7427
 3093SOL    HW220742   1.133   0.310   4.368 -0.7340 -0.6080 -1.5201
 3094SOL     OW20743   4.465   3.705   8.445  0.2708  0.0220  0.1706
 3094SOL    HW120744   4.454   3.800   8.442  0.4165 -0.0186 -1.4075
 3094SOL    HW220745   4.406   3.674   8.376 -0.6721  0.1570  0.9211
 3095SOL     OW20746   3.671   4.115   2.404 -0.2990  0.0157 -0.2073
 3095SOL    HW120747   3.600   4.143   2.462 -0.5366  3.1486 -2.0087
 3095SOL    HW220748   3.664   4.020   2.412 -0.3943 -0.1033 -1.6527
 3096SOL     OW20749   4.231   0.317   3.861  0.6822  0.6117  0.4764
 3096SOL    HW120750   4.197   0.405   3.879 -0.7109  0.2531 -0.4496
 3096SOL    HW220751   4.292   0.306   3.935 -0.1201 -0.7346  0.9369
 3097SOL     OW20752   3.177   0.834   5.755 -0.0789 -0.5560  0.5057
 3097SOL    HW120753   3.204   0.746   5.782  0.2355  0.3282  3.1750
 3097SOL    HW220754   3.235   0.890   5.808 -0.5370 -2.2437  2.8159
 3098SOL     OW20755   3.336   4.166  11.820 -0.4153 -0.5494  0.3641
 3098SOL    HW120756   3.261   4.200  11.770  0.3185  1.3567  0.5551
 3098SOL    HW220757   3.364   4.236  11.879 -0.1224 -0.1621 -0.2348
 3099SOL     OW20758   2.490   0.386   0.662  0.3785 -0.3035  0.3109
 3099SOL    HW120759   2.553   0.382   0.590  0.5323  1.1398  0.3601
 3099SOL    HW220760   2.547   0.402   0.737  0.3035 -1.0844  0.5324
 3100SOL     OW20761   0.048   0.454   2.177  0.5095  0.0293 -0.0291
 3100SOL    HW120762   4.688   0.501   2.198 -0.2857 -0.3401 -2.1705
 3100SOL    HW220763   0.086   0.498   2.101  0.7525  1.4031  0.8832
 3101SOL     OW20764   3.596   3.808  12.903 -0.0737  0.4544 -0.2804
 3101SOL    HW120765   3.656   3.786  12.975 -0.1940  1.4603  0.1211
 3101SOL    HW220766   3.628   3.896  12.885  0.3193  0.6363  1.3139
 3102SOL     OW20767   3.143   0.177   2.861 -0.1391  0.0584 -0.3687
 3102SOL    HW120768   3.116   0.262   2.826 -1.8675 -0.5636 -0.5688
 3102SOL    HW220769   3.059   0.132   2.854 -0.1830  0.0014  0.6114
 3103SOL     OW20770   4.408   2.712   4.844 -0.1501 -0.0048  0.6225
 3103SOL    HW120771   4.402   2.682   4.934  2.4242 -1.4593  0.3137
 3103SOL    HW220772   4.415   2.625   4.805 -1.0569  1.5885 -3.0982
 3104SOL     OW20773   1.159   2.010   1.518 -0.3955 -0.4181  0.3488
 3104SOL    HW120774   1.067   1.981   1.525 -0.6488  0.1881 -0.5292
 3104SOL    HW220775   1.196   1.988   1.604  2.1586  1.4583 -0.2963
 3105SOL     OW20776   3.667   3.534  13.038 -0.0647  0.1114  0.2843
 3105SOL    HW120777   3.703   3.619  13.062  0.0466  0.7123 -2.0721
 3105SOL    HW220778   3.745   3.483  13.019 -0.9502 -2.0928  2.4614
 3106SOL     OW20779   2.007   1.638  11.221 -0.2469  0.7658 -0.0710
 3106SOL    HW120780   1.921   1.596  11.225 -0.5810  1.5392  0.9611
 3106SOL    HW220781   1.986   1.729  11.240  2.1968  1.0078  1.4645
 3107SOL     OW20782   0.940   0.730  17.468  0.1564  0.2983  0.4754
 3107SOL    HW120783   0.978   0.817  17.480 -0.4644  0.5781  0.4218
 3107SOL    HW220784   0.917   0.715  17.559 -1.8694 -0.1160 -0.0886
 3108SOL     OW20785   1.008   3.865   8.718 -0.2043 -0.0459  0.2916
 3108SOL    HW120786   1.095   3.905   8.712 -0.9624  1.7367  1.1732
 3108SOL    HW220787   1.027   3.773   8.699  0.3992  0.1103  0.1304
 3109SOL     OW20788   1.472   3.279   6.052 -0.0484  0.2515  0.0616
 3109SOL    HW120789   1.536   3.214   6.026 -0.1530 -0.1074  0.6894
 3109SOL    HW220790   1.488   3.356   5.997  0.4712 -2.3248 -3.3260
 3110SOL     OW20791   2.225   0.442   1.515 -0.2080 -0.7515  0.8491
 3110SOL    HW120792   2.230   0.346   1.514 -3.3940 -0.9008 -1.3432
 3110SOL    HW220793   2.156   0.449   1.580 -1.0777  0.9345 -0.2558
 3111SOL     OW20794   0.955   1.359   3.493 -0.3444  0.6133 -0.4551
 3111SOL    HW120795   1.034   1.326   3.536 -0.1616  1.4730 -0.1400
 3111SOL    HW220796   0.895   1.291   3.524  0.0530  1.0076  1.2204
 3112SOL     OW20797   4.570   4.625   2.459 -0.6513  0.2147  0.1274
 3112SOL    HW120798   4.590   4.685   2.387  3.0588 -0.0467  0.9371
 3112SOL    HW220799   4.509   4.562   2.421 -1.6012  1.0167  0.3515
 3113SOL     OW20800   3.396   0.739   2.354 -0.0992  0.0814 -0.5916
 3113SOL    HW120801   3.465   0.792   2.313 -0.6325  1.3358  0.1144
 3113SOL    HW220802   3.445   0.663   2.386 -0.4179  0.9514  2.0018
 3114SOL     OW20803   3.379   0.673   3.563 -0.0788 -0.4163  0.3424
 3114SOL    HW120804   3.304   0.625   3.527  1.1640 -1.0563 -1.4068
 3114SOL    HW220805   3.402   0.732   3.491 -3.2808 -1.1538 -1.3089
 3115SOL     OW20806   0.619   0.491   3.662  0.0816 -0.4336  0.1900
 3115SOL    HW120807   0.548   0.555   3.653 -2.6829 -3.5853 -0.4428
 3115SOL    HW220808   0.583   0.421   3.608  0.6919 -1.4595  1.1084
 3116SOL     OW20809   0.572   1.567   8.445 -0.0534  0.4315 -0.3257
 3116SOL    HW120810   0.616   1.648   8.420  0.0448  0.4976  0.0689
 3116SOL    HW220811   0.598   1.517   8.367 -0.7897 -0.6919  0.1400
 3117SOL     OW20812   0.229   0.039   2.940  0.2586 -0.1579  0.3669
 3117SOL    HW120813   0.159   4.699   2.915  0.8931 -0.8042  0.1458
 3117SOL    HW220814   0.183   0.123   2.936  0.0555 -0.1079  3.4328
 3118SOL     OW20815   2.146   2.133   7.728  0.2932  0.2216  0.6684
 3118SOL    HW120816   2.117   2.047   7.759 -0.0914  0.3944  0.7815
 3118SOL    HW220817   2.196   2.147   7.808  0.6328 -0.2606  0.5418
 3119SOL     OW20818   3.702   4.078   9.033  0.5582  0.7301  0.4732
 3119SOL    HW120819   3.609   4.067   9.013  0.5803  1.8595 -0.2564
 3119SOL    HW220820   3.722   4.142   8.964  0.7939  0.1516  0.0100
 3120SOL     OW20821   3.521   4.367   5.896 -0.0518  0.1994  0.2474
 3120SOL    HW120822   3.468   4.299   5.938  1.7923 -1.9863 -1.0041
 3120SOL    HW220823   3.511   4.425   5.972 -2.6789  0.8595 -0.5945
 3121SOL     OW20824   4.709   0.957  15.762  0.2731  0.2330 -0.1267
 3121SOL    HW120825   0.040   0.887  15.802  0.3295  0.4388  0.1670
 3121SOL    HW220826   0.042   1.032  15.788  0.2056 -0.0771  0.9055
 3122SOL     OW20827   2.719   3.549   3.021 -0.4829  0.0887  0.9937
 3122SOL    HW120828   2.783   3.487   3.055 -0.3201  1.7846  3.6955
 3122SOL    HW220829   2.679   3.567   3.106 -0.9869  0.2579  0.7219
 3123SOL     OW20830   0.432   0.529   9.049  0.2536 -0.0618  0.1360
 3123SOL    HW120831   0.446   0.435   9.057 -0.8473 -0.2885 -0.6313
 3123SOL    HW220832   0.521   0.564   9.053  0.6036 -1.2586  2.5839
 3124SOL     OW20833   4.537   1.362   5.051  0.1414 -1.0466  0.5180
 3124SOL    HW120834   4.560   1.373   5.143 -1.3691 -0.8671  0.8674
 3124SOL    HW220835   4.626   1.341   5.021  0.8988  2.9454 -0.0577
 3125SOL     OW20836   1.557   0.335  13.983  0.1096  0.1224  0.0313
 3125SOL    HW120837   1.618   0.285  13.929  1.3772 -0.3726  1.9028
 3125SOL    HW220838   1.517   0.399  13.925  1.1876  0.2590 -0.5611
 3126SOL     OW20839   3.126   3.767  13.233  0.0538 -0.5843  0.0844
 3126SOL    HW120840   3.156   3.852  13.201 -2.1291 -0.6108 -2.0172
 3126SOL    HW220841   3.201   3.743  13.287  0.2163 -0.7370 -0.2093
 3127SOL     OW20842   3.131   2.586   8.378  0.0340 -0.6441  0.6112
 3127SOL    HW120843   3.050   2.619   8.417  0.4594 -0.5810  1.4451
 3127SOL    HW220844   3.148   2.662   8.322 -1.0977  0.0105  1.1501
 3128SOL     OW20845   2.338   1.861   7.564  0.5742 -0.2470  0.5946
 3128SOL    HW120846   2.354   1.781   7.615 -1.4454 -1.3115 -0.4632
 3128SOL    HW220847   2.248   1.856   7.534  0.5378 -0.0421  0.6739
 3129SOL     OW20848   1.862   0.677   6.087 -0.2455  0.2913  0.2125
 3129SOL    HW120849   1.870   0.611   6.155  2.3325 -0.3495 -0.7179
 3129SOL    HW220850   1.896   0.749   6.139  1.0301 -0.4577  0.4096
 3130SOL     OW20851   0.575   2.186   2.545 -0.6011 -0.4401  0.1085
 3130SOL    HW120852   0.573   2.240   2.466  0.3681  0.5458  0.7595
 3130SOL    HW220853   0.586   2.099   2.506  0.8570 -0.0647 -0.3271
 3131SOL     OW20854   4.483   0.990  11.883  0.1743  0.2311  0.7316
 3131SOL    HW120855   4.563   1.039  11.864  1.0553 -1.0510  1.2130
 3131SOL    HW220856   4.443   1.044  11.951 -0.2549  1.1784 -0.2603
 3132SOL     OW20857   3.442   0.432   4.565  0.2510  0.6065  0.2053
 3132SOL    HW120858   3.393   0.349   4.565 -0.0735  0.8215  2.5597
 3132SOL    HW220859   3.530   0.409   4.535  0.1952 -0.3952  0.8153
 3133SOL     OW20860   1.088   1.646   8.206 -0.2729 -0.0739 -0.0508
 3133SOL    HW120861   1.139   1.661   8.285 -1.0824 -0.0277  0.4593
 3133SOL    HW220862   1.000   1.664   8.240 -0.1891  0.6111 -0.1783
 3134SOL     OW20863   3.137   3.365   7.900 -0.5719  0.4306  0.0703
 3134SOL    HW120864   3.231   3.349   7.896 -0.8630 -1.1789 -0.5106
 3134SOL    HW220865   3.134   3.411   7.984  0.3699 -1.1469  0.9692
 3135SOL     OW20866   3.678   0.248   1.340  0.0159  0.4732  0.5638
 3135SOL    HW120867   3.653   0.185   1.407  1.0703 -0.4162  0.1121
 3135SOL    HW220868   3.710   0.192   1.270 -1.5565 -1.7869  1.6579
 3136SOL     OW20869   0.751   2.230   3.737  0.3387  0.4537 -0.8132
 3136SOL    HW120870   0.766   2.153   3.682  0.8852  0.2785 -0.4217
 3136SOL    HW220871   0.822   2.290   3.715  1.1960 -0.5014 -0.6322
 3137SOL     OW20872   3.557   1.170   1.927  0.1334  0.2059  1.0283
 3137SOL    HW120873   3.638   1.130   1.960  0.2329 -0.9066 -0.5606
 3137SOL    HW220874   3.588   1.257   1.951 -0.7087  0.9381 -0.5914
 3138SOL     OW20875   1.187   0.803   1.705  0.3392  0.1138  0.3886
 3138SOL    HW120876   1.249   0.730   1.714 -1.0167 -1.0060  0.5793
 3138SOL    HW220877   1.155   0.783   1.617  0.8352 -1.9519  0.6922
 3139SOL     OW20878   3.105   2.639   6.966  0.0271 -0.3224  0.2285
 3139SOL    HW120879   3.124   2.719   7.015 -1.0651 -0.1373  0.3423
 3139SOL    HW220880   3.189   2.597   6.986  0.2794  1.0400  2.1089
 3140SOL     OW20881   4.309   4.376   5.877 -0.4367 -0.3320  0.1187
 3140SOL    HW120882   4.259   4.294   5.878  0.3114 -0.7998 -0.7300
 3140SOL    HW220883   4.364   4.355   5.954 -0.0863 -0.5497 -0.1908
 3141SOL     OW20884   0.680   4.615  14.323  0.2264  0.1457  0.0732
 3141SOL    HW120885   0.757   4.614  14.265  1.0327  1.8778  1.0885
 3141SOL    HW220886   0.678   4.523  14.348 -0.4624 -0.2066 -1.2462
 3142SOL     OW20887   1.457   0.769   8.171  0.4135 -0.0277  0.2393
 3142SOL    HW120888   1.406   0.755   8.092  1.1234  1.1317 -0.4278
 3142SOL    HW220889   1.511   0.839   8.134 -1.4734  1.2579 -0.0316
 3143SOL     OW20890   3.522   3.303   2.251 -0.3978  0.0189  0.6300
 3143SOL    HW120891   3.580   3.366   2.294  2.0570 -1.6496 -0.2714
 3143SOL    HW220892   3.561   3.219   2.276 -1.0792 -1.2564 -2.6838
 3144SOL     OW20893   4.391   2.385   5.786  0.5286 -0.3300 -0.1221
 3144SOL    HW120894   4.381   2.364   5.878 -0.9136 -0.0404 -0.1966
 3144SOL    HW220895   4.332   2.323   5.742  0.9997 -1.0310  0.2512
 3145SOL     OW20896   0.283   0.188   7.482  0.2864 -0.8474 -0.1223
 3145SOL    HW120897   0.332   0.263   7.516  1.0893 -1.2068 -0.4756
 3145SOL    HW220898   0.275   0.143   7.566  0.6184 -1.7223 -0.5506
 3146SOL     OW20899   3.763   3.542  12.244 -0.0070  0.7482  0.1252
 3146SOL    HW120900   3.787   3.623  12.199  0.8889  0.5205  0.1897
 3146SOL    HW220901   3.737   3.481  12.175  1.8758 -0.1005  0.1784
 3147SOL     OW20902   0.751   3.945  11.254  0.1812  0.1176 -0.2828
 3147SOL    HW120903   0.767   3.853  11.274  1.0972 -0.2165 -2.5501
 3147SOL    HW220904   0.656   3.942  11.265  0.2266  2.1795  0.7573
 3148SOL     OW20905   2.366   1.347   6.897  0.3199  0.0547 -0.4345
 3148SOL    HW120906   2.300   1.300   6.847 -1.3818  1.8093  0.1933
 3148SOL    HW220907   2.416   1.270   6.923 -0.7390 -0.4961 -0.0586
 3149SOL     OW20908   3.704   4.689   2.338  0.3498  0.2298  0.1077
 3149SOL    HW120909   3.792   0.006   2.330  0.9899 -0.9172  1.5783
 3149SOL    HW220910   3.693   4.655   2.250 -1.5392  1.1071  0.0016
 3150SOL     OW20911   0.886   4.053   4.996  0.0886 -0.6160 -0.3682
 3150SOL    HW120912   0.894   4.020   5.086 -0.3042  0.8721  0.2099
 3150SOL    HW220913   0.968   4.024   4.957 -0.0325 -0.3275 -0.8457
 3151SOL     OW20914   4.023   2.666  14.308  0.2365 -0.4394  0.2193
 3151SOL    HW120915   4.036   2.736  14.244  1.7017 -0.4882  0.4563
 3151SOL    HW220916   3.962   2.609  14.261  0.6609 -1.8603  1.4124
 3152SOL     OW20917   1.867   0.666   8.018  0.1100 -0.6612 -0.6323
 3152SOL    HW120918   1.894   0.697   8.105 -0.3094  0.0626 -0.7607
 3152SOL    HW220919   1.780   0.640   8.050  0.4401 -0.3584  0.5381
 3153SOL     OW20920   1.048   4.644   6.635 -0.1474  0.8200  0.1587
 3153SOL    HW120921   1.051   4.666   6.542  1.3330  3.4530  0.8093
 3153SOL    HW220922   0.957   4.618   6.644 -0.0996  0.0152 -1.6353
 3154SOL     OW20923   1.461   2.817   4.385 -0.1351 -0.1869  0.5207
 3154SOL    HW120924   1.434   2.902   4.351  1.4399 -0.2258 -0.7957
 3154SOL    HW220925   1.555   2.832   4.391 -0.2411  0.0036  1.7845
 3155SOL     OW20926   0.466   2.887  12.225  0.1061 -0.1380  0.3293
 3155SOL    HW120927   0.498   2.952  12.287 -1.0496 -1.5803  2.4434
 3155SOL    HW220928   0.406   2.825  12.268 -0.7716  1.1947  1.0212
 3156SOL     OW20929   2.579   1.712   0.789 -0.5128  0.1575  0.3067
 3156SOL    HW120930   2.658   1.740   0.742  1.8874 -2.2370  2.9245
 3156SOL    HW220931   2.510   1.750   0.734  0.4480 -1.0615 -1.7357
 3157SOL     OW20932   3.719   4.322  15.330  0.2674  0.1241 -0.4597
 3157SOL    HW120933   3.724   4.343  15.423 -0.4712  0.5740 -0.5209
 3157SOL    HW220934   3.636   4.275  15.334  0.5859 -0.1257  3.3907
 3158SOL     OW20935   1.917   3.585  14.334  0.1276  0.0108  0.0561
 3158SOL    HW120936   1.843   3.627  14.290  0.2626 -0.0935 -0.2693
 3158SOL    HW220937   1.917   3.507  14.278  0.9635 -1.7181  2.4753
 3159SOL     OW20938   3.530   1.763   3.903  0.3067  0.0226  0.1563
 3159SOL    HW120939   3.440   1.737   3.885  0.8893 -0.0716 -2.6956
 3159SOL    HW220940   3.556   1.701   3.971  0.6833 -0.3904 -0.3642
 3160SOL     OW20941   3.608   3.243   8.890  0.5123  0.3538 -0.3613
 3160SOL    HW120942   3.644   3.290   8.964 -2.0583  0.7468  0.6463
 3160SOL    HW220943   3.595   3.155   8.927 -1.0791 -0.3736 -2.6378
 3161SOL     OW20944   3.751   3.296   5.935 -0.2877 -0.2255 -0.2015
 3161SOL    HW120945   3.836   3.336   5.913 -0.3883  0.9881  1.6642
 3161SOL    HW220946   3.702   3.377   5.940 -0.5309 -0.4727  1.3912
 3162SOL     OW20947   4.508   1.224   0.607 -0.0449  0.3711 -0.4897
 3162SOL    HW120948   4.493   1.261   0.694  1.2795 -0.4388  0.0957
 3162SOL    HW220949   4.593   1.181   0.613 -1.0105 -1.2320  1.8430
 3163SOL     OW20950   2.734   4.447   8.387  0.1356 -0.0351 -0.0563
 3163SOL    HW120951   2.773   4.364   8.358 -0.4956 -0.7600  1.1699
 3163SOL    HW220952   2.783   4.471   8.465  1.3855 -4.4630  0.5060
 3164SOL     OW20953   2.832   1.584   5.823  0.4524  0.2732 -0.0834
 3164SOL    HW120954   2.781   1.520   5.774  2.7416  0.2404 -2.4013
 3164SOL    HW220955   2.827   1.541   5.909 -1.5180 -0.3860 -0.5249
 3165SOL     OW20956   0.943   1.836   5.698  0.2604  0.0718 -0.1090
 3165SOL    HW120957   0.902   1.906   5.748 -0.8711  0.9606 -2.3046
 3165SOL    HW220958   0.888   1.760   5.714 -1.6762  1.7095  1.0206
 3166SOL     OW20959   1.449   3.290   4.852  0.1411 -0.5780  0.0652
 3166SOL    HW120960   1.477   3.199   4.850 -0.8582 -0.8411 -3.1173
 3166SOL    HW220961   1.355   3.270   4.853 -0.4967  2.3558  0.0903
 3167SOL     OW20962   4.530   4.244   9.452 -0.4948  0.7737  0.1239
 3167SOL    HW120963   4.466   4.314   9.460  0.2229  1.9796 -5.2311
 3167SOL    HW220964   4.607   4.299   9.468  0.9099 -2.2125  3.7091
 3168SOL     OW20965   2.620   1.991   7.158 -0.2048 -0.7893 -0.0762
 3168SOL    HW120966   2.610   1.989   7.253 -0.1706  0.8746 -0.0428
 3168SOL    HW220967   2.647   1.901   7.139  2.5177  0.2480 -1.1163
 3169SOL     OW20968   1.606   1.356   4.659  0.4311 -0.4122 -0.0234
 3169SOL    HW120969   1.681   1.366   4.601  0.5478 -1.4981 -0.0654
 3169SOL    HW220970   1.603   1.260   4.659 -0.9262 -0.3764 -1.7057
 3170SOL     OW20971   1.726   1.834   2.915 -0.0339 -0.2579  0.5882
 3170SOL    HW120972   1.802   1.789   2.879 -2.2101 -0.6678 -3.5437
 3170SOL    HW220973   1.739   1.924   2.885  1.5555  0.0876  2.3419
 3171SOL     OW20974   2.840   4.207   8.379  0.2450 -0.1880  0.3422
 3171SOL    HW120975   2.916   4.185   8.433  3.3440  1.4610 -3.2739
 3171SOL    HW220976   2.851   4.150   8.303  2.8264 -0.4095  0.8840
 3172SOL     OW20977   0.846   2.342  16.511  0.4120  0.0565  0.1372
 3172SOL    HW120978   0.787   2.381  16.446  1.1477  0.8754 -0.0485
 3172SOL    HW220979   0.792   2.344  16.590  1.4265  2.5177  0.7692
 3173SOL     OW20980   0.310   3.778  14.022 -0.5079  0.6409 -0.1217
 3173SOL    HW120981   0.233   3.829  14.049 -0.8921 -0.2231  0.4100
 3173SOL    HW220982   0.276   3.696  13.986 -0.4198  0.9497 -0.9126
 3174SOL     OW20983   3.571   1.900   7.876  0.2420 -0.1514 -0.0818
 3174SOL    HW120984   3.501   1.930   7.934 -0.6462  0.4759 -1.4946
 3174SOL    HW220985   3.633   1.868   7.942 -0.7475  1.5643  1.6825
 3175SOL     OW20986   4.699   0.333  16.624 -0.3396  0.3158  0.3561
 3175SOL    HW120987   0.008   0.395  16.690 -1.7668 -1.1511  2.3897
 3175SOL    HW220988   0.049   0.269  16.633 -0.1436  0.0765 -2.8531
 3176SOL     OW20989   1.903   0.718   8.865 -0.3110  0.2417 -0.4260
 3176SOL    HW120990   1.844   0.663   8.814 -1.5082  2.9831 -1.9973
 3176SOL    HW220991   1.915   0.798   8.815 -0.2049  0.1866 -0.4886
 3177SOL     OW20992   3.963   2.117   9.523  0.1798 -0.0043 -0.4576
 3177SOL    HW120993   4.033   2.153   9.469  1.4278  0.4040  1.4302
 3177SOL    HW220994   4.010   2.057   9.580  0.4304  0.8493  0.2374
 3178SOL     OW20995   4.502   1.007   6.903 -0.3277 -0.3279 -0.5596
 3178SOL    HW120996   4.421   1.048   6.932  0.6606  1.1833  0.1219
 3178SOL    HW220997   4.553   1.022   6.983 -1.7893 -1.0740  0.4993
 3179SOL     OW20998   3.495   1.462   7.115 -0.5996  0.2501 -1.1983
 3179SOL    HW120999   3.482   1.395   7.048  0.2565 -1.2772  0.1574
 3179SOL    HW221000   3.473   1.543   7.070 -0.9643 -0.2974 -2.0154
 3180SOL     OW21001   1.835   3.189   6.179 -0.3652 -0.0018 -0.8068
 3180SOL    HW121002   1.817   3.273   6.222  0.3368  0.1735 -0.8590
 3180SOL    HW221003   1.763   3.140   6.219  1.1689 -1.5853 -0.0257
 3181SOL     OW21004   3.038   0.405   5.011  0.3382  0.5008 -0.2484
 3181SOL    HW121005   2.997   0.491   5.004 -3.5112 -1.2361  0.5212
 3181SOL    HW221006   3.102   0.409   4.940 -0.3277 -3.5296 -1.1096
 3182SOL     OW21007   3.200   0.206   1.089  0.0497  0.1100  0.2489
 3182SOL    HW121008   3.245   0.265   1.029  0.1078 -1.3859 -1.1719
 3182SOL    HW221009   3.109   0.210   1.062 -0.4208 -0.4636  1.7330
 3183SOL     OW21010   3.451   4.679  16.472  0.3531  0.7824  0.2062
 3183SOL    HW121011   3.403   4.675  16.390 -1.8471 -2.3660  1.6821
 3183SOL    HW221012   3.538   4.651  16.444 -0.5918 -2.2270  0.3865
 3184SOL     OW21013   2.741   3.318   0.988  0.4978 -0.0221  0.1551
 3184SOL    HW121014   2.712   3.301   0.899  2.6166 -0.6831 -0.4172
 3184SOL    HW221015   2.695   3.399   1.008  1.3908  1.3138 -3.3422
 3185SOL     OW21016   2.950   4.268   4.600  0.2752 -0.2649  0.4731
 3185SOL    HW121017   2.860   4.251   4.626  0.7087 -1.8087  0.9896
 3185SOL    HW221018   2.981   4.177   4.597 -1.7989 -0.9620  0.1748
 3186SOL     OW21019   1.213   2.882   0.254 -0.5395 -0.5126  0.5618
 3186SOL    HW121020   1.282   2.920   0.200  0.4277 -3.3538 -0.2321
 3186SOL    HW221021   1.253   2.896   0.339 -1.0406 -1.2529  0.9210
 3187SOL     OW21022   1.154   1.055   9.251 -0.5621 -0.4921  0.2069
 3187SOL    HW121023   1.067   1.020   9.229  0.4260 -2.5840 -0.3232
 3187SOL    HW221024   1.154   1.132   9.195  2.3163 -1.3021 -0.9202
 3188SOL     OW21025   0.999   1.443   3.853 -0.2443 -0.1050 -0.1346
 3188SOL    HW121026   0.955   1.400   3.780  1.5738  0.7999 -1.7657
 3188SOL    HW221027   0.952   1.415   3.932  1.1721 -0.3189  0.6376
 3189SOL     OW21028   0.440   4.001  17.015 -0.3071  0.1042 -0.1628
 3189SOL    HW121029   0.442   4.080  17.068  0.1086 -1.7560  2.6221
 3189SOL    HW221030   0.466   3.941  17.086 -0.4696  0.8119  0.4978
 3190SOL     OW21031   4.076   4.255  12.008 -0.0423 -0.5197  0.2575
 3190SOL    HW121032   4.092   4.350  12.010 -0.4471 -0.4491  0.3565
 3190SOL    HW221033   3.980   4.247  12.008 -0.1911  1.1416 -1.9267
 3191SOL     OW21034   4.470   2.979   3.377 -0.1118  0.0164  0.6020
 3191SOL    HW121035   4.477   2.979   3.282  0.0992 -0.0517  0.6178
 3191SOL    HW221036   4.559   3.014   3.387 -1.0807  2.3409  1.0994
 3192SOL     OW21037   3.989   0.952   2.635  0.4024 -0.0867 -0.0146
 3192SOL    HW121038   4.051   1.002   2.582 -0.0320  1.8424  1.3006
 3192SOL    HW221039   4.061   0.919   2.688 -0.3097  0.0296  1.0192
 3193SOL     OW21040   4.446   1.499   5.468  0.2985  0.1192 -0.8244
 3193SOL    HW121041   4.372   1.527   5.414 -1.7567  0.4023  2.1119
 3193SOL    HW221042   4.396   1.467   5.543  0.7382 -0.9833 -1.0036
 3194SOL     OW21043   2.299   0.008   3.216 -0.2396 -0.5210  0.2607
 3194SOL    HW121044   2.312   0.100   3.193  1.0251 -0.6348  0.5117
 3194SOL    HW221045   2.377   4.686   3.180 -0.2022  0.6964 -1.0805
 3195SOL     OW21046   2.519   0.877  11.808  0.2742  0.2089 -0.3202
 3195SOL    HW121047   2.431   0.846  11.828  0.7919  0.6149  2.5022
 3195SOL    HW221048   2.553   0.795  11.773  1.3886  0.5047  0.0645
 3196SOL     OW21049   0.076   2.695  17.617 -0.1444  0.1681  0.4329
 3196SOL    HW121050   0.127   2.686  17.536 -0.3914  0.1228  0.2823
 3196SOL    HW221051   0.120   2.628  17.670  0.1269 -0.4367 -0.5538
 3197SOL     OW21052   2.873   3.365   3.131  0.0507 -0.2746 -0.5344
 3197SOL    HW121053   2.826   3.300   3.184 -0.5567 -0.5364 -1.3960
 3197SOL    HW221054   2.962   3.363   3.166 -1.2829 -2.0280  2.7799
 3198SOL     OW21055   4.212   2.047   8.159 -0.0161 -0.0563  0.3739
 3198SOL    HW121056   4.190   2.031   8.067 -1.4060  0.8713  0.5409
 3198SOL    HW221057   4.202   2.142   8.159  0.3964 -0.0132 -0.4798
 3199SOL     OW21058   1.448   4.462   4.387  0.5640  0.2426 -0.4276
 3199SOL    HW121059   1.480   4.551   4.374 -0.1527  0.4279 -0.8855
 3199SOL    HW221060   1.380   4.469   4.321  0.8710 -1.5164 -0.9461
 3200SOL     OW21061   2.517   3.476   2.210  0.3854 -0.0068 -0.1565
 3200SOL    HW121062   2.608   3.453   2.193 -0.3143 -1.4422 -1.9465
 3200SOL    HW221063   2.526   3.548   2.272  0.8131 -0.5774  0.4343
 3201SOL     OW21064   2.776   0.431  16.258 -0.9887  0.6595  0.1303
 3201SOL    HW121065   2.871   0.422  16.254 -0.8375  2.1127  0.4122
 3201SOL    HW221066   2.756   0.338  16.245 -0.9486  1.1113 -3.0941
 3202SOL     OW21067   1.463   2.017  14.957 -0.1269 -0.4538 -0.0823
 3202SOL    HW121068   1.416   1.968  15.024  0.7857  0.3342  1.1110
 3202SOL    HW221069   1.398   2.081  14.928  0.2924  0.3263  0.7185
 3203SOL     OW21070   2.094   0.620   0.383 -0.1744 -0.1182 -0.4498
 3203SOL    HW121071   2.098   0.530   0.416 -1.5169  0.8281  2.1938
 3203SOL    HW221072   2.160   0.623   0.313  0.2694 -0.8536 -0.0659
 3204SOL     OW21073   2.125   1.457   4.802  0.1200  0.7297 -0.4073
 3204SOL    HW121074   2.147   1.484   4.891  0.5794  1.9671 -0.8947
 3204SOL    HW221075   2.192   1.389   4.799  0.8874  1.4540  0.3880
 3205SOL     OW21076   4.023   2.803   7.311  0.9548  0.3419 -0.2931
 3205SOL    HW121077   4.118   2.801   7.324  1.2288 -1.1596 -2.5767
 3205SOL    HW221078   3.989   2.831   7.396 -2.2074  0.0472 -1.4869
 3206SOL     OW21079   4.368   1.510   6.782  0.1364 -0.3284  0.2248
 3206SOL    HW121080   4.375   1.525   6.687 -0.3498 -2.5661 -0.1607
 3206SOL    HW221081   4.337   1.419   6.779 -1.8936  0.3172  1.6304
 3207SOL     OW21082   2.492   3.899   4.975  0.6616  0.0793  0.0941
 3207SOL    HW121083   2.559   3.967   4.974  0.4601  0.2689 -1.0833
 3207SOL    HW221084   2.431   3.935   4.911  2.9444  2.5472 -0.6861
 3208SOL     OW21085   1.482   1.924   3.296 -0.1110 -0.2766 -0.1112
 3208SOL    HW121086   1.436   1.851   3.338 -0.9043  0.1389 -0.2592
 3208SOL    HW221087   1.407   1.982   3.286 -1.3513 -1.8165  0.1474
 3209SOL     OW21088   4.363   2.280   5.329 -0.0989 -0.3753 -0.5401
 3209SOL    HW121089   4.437   2.220   5.338 -1.4487 -2.2259 -2.1108
 3209SOL    HW221090   4.293   2.231   5.288 -0.1264 -0.1105 -0.8060
 3210SOL     OW21091   3.174   4.038   9.254 -0.1326 -0.7252  0.1176
 3210SOL    HW121092   3.153   4.049   9.347  1.1228  0.2244  0.3029
 3210SOL    HW221093   3.222   4.119   9.235 -1.2679 -0.2690 -0.7296
 3211SOL     OW21094   0.875   4.492  16.346 -0.2455 -0.1589 -0.3929
 3211SOL    HW121095   0.866   4.586  16.328  0.4046 -0.0302 -0.0659
 3211SOL    HW221096   0.840   4.463  16.263 -0.3144 -0.3362 -0.3015
 3212SOL     OW21097   1.203   1.063   7.782  0.0747  0.3763  0.6671
 3212SOL    HW121098   1.206   1.104   7.868  1.2714  1.6861  0.0104
 3212SOL    HW221099   1.127   1.006   7.796  0.2971 -0.1066 -0.1056
 3213SOL     OW21100   2.891   2.713  12.185  0.0394 -0.3332  0.4711
 3213SOL    HW121101   2.953   2.719  12.257  2.0241  0.4983 -1.3353
 3213SOL    HW221102   2.810   2.751  12.219 -0.0641  0.3046 -0.4891
 3214SOL     OW21103   4.430   0.414   1.187 -0.4388  1.1434  0.3059
 3214SOL    HW121104   4.474   0.494   1.216 -0.6122  1.2975  0.1445
 3214SOL    HW221105   4.503   0.355   1.206 -0.7725  0.1668 -1.4298
 3215SOL     OW21106   1.324   2.113   6.720 -0.3433  0.1560 -0.1748
 3215SOL    HW121107   1.326   2.029   6.766 -1.5656  0.2718  0.0890
 3215SOL    HW221108   1.266   2.088   6.649 -0.0940  0.0757 -0.3480
 3216SOL     OW21109   3.726   2.308   1.995  0.5764  0.3892 -0.0501
 3216SOL    HW121110   3.766   2.259   1.923  0.4595  1.6839 -1.0002
 3216SOL    HW221111   3.656   2.348   1.942 -0.5524  0.1751  1.2843
 3217SOL     OW21112   2.523   1.661   5.707  0.6566 -0.5683  0.1007
 3217SOL    HW121113   2.473   1.718   5.648  1.3903  1.0790  1.0609
 3217SOL    HW221114   2.451   1.616   5.751 -1.2674  1.7902 -0.6337
 3218SOL     OW21115   4.100   3.334   2.855 -0.5486  0.2397 -0.5898
 3218SOL    HW121116   4.023   3.310   2.907 -0.9249  0.6966 -0.9364
 3218SOL    HW221117   4.112   3.252   2.807 -1.7075 -0.6692  0.6822
 3219SOL     OW21118   3.749   0.262  14.934  0.3166 -0.4465  0.1154
 3219SOL    HW121119   3.843   0.269  14.919  0.3429 -0.5873  0.2122
 3219SOL    HW221120   3.737   0.189  14.995 -0.7571 -1.6414 -1.5352
 3220SOL     OW21121   1.003   3.054   3.233  0.2133  0.1524  0.4272
 3220SOL    HW121122   1.053   3.004   3.297 -1.3516  1.0245  2.3328
 3220SOL    HW221123   0.966   3.123   3.287  0.1544 -1.7311  2.8019
 3221SOL     OW21124   0.063   1.958   7.790  0.4015 -0.4004 -0.0877
 3221SOL    HW121125   0.040   1.970   7.698 -0.1320  3.1100  0.4913
 3221SOL    HW221126   0.125   1.886   7.796  0.4476 -0.3465  0.1043
 3222SOL     OW21127   2.901   4.394   4.308  0.7872 -0.5583  0.0239
 3222SOL    HW121128   2.966   4.453   4.271  1.9212 -2.3054 -0.7189
 3222SOL    HW221129   2.946   4.371   4.389  2.8729  0.0434 -0.9850
 3223SOL     OW21130   0.281   0.881   4.526 -0.2007  0.8282 -0.6090
 3223SOL    HW121131   0.231   0.848   4.451  1.0348 -0.8547 -0.6934
 3223SOL    HW221132   0.349   0.815   4.536 -0.8693  0.2053 -0.1491
 3224SOL     OW21133   2.549   1.469   8.940 -0.2619 -0.5965 -0.2703
 3224SOL    HW121134   2.560   1.562   8.919 -0.5492 -0.3195  0.8181
 3224SOL    HW221135   2.637   1.430   8.933 -0.1811 -0.5958  0.6943
 3225SOL     OW21136   4.141   4.443   1.472  0.3021 -0.3247  0.2327
 3225SOL    HW121137   4.186   4.415   1.552  0.9626 -1.8540 -0.6888
 3225SOL    HW221138   4.061   4.394   1.495  0.5989  0.4241  2.8863
 3226SOL     OW21139   3.288   2.329   4.622  0.1918 -0.0386 -0.0697
 3226SOL    HW121140   3.367   2.363   4.663  1.4176 -2.0773 -0.7418
 3226SOL    HW221141   3.291   2.367   4.534  1.3016  0.7870  0.3341
 3227SOL     OW21142   1.158   2.175   5.184 -0.2357 -0.1432  0.4206
 3227SOL    HW121143   1.151   2.082   5.165 -2.4627  0.1422 -0.1086
 3227SOL    HW221144   1.069   2.205   5.168 -0.3012 -1.3716 -1.4395
 3228SOL     OW21145   4.284   0.453   8.972  0.0158  0.4864  0.5229
 3228SOL    HW121146   4.283   0.484   9.063  0.7456 -1.8660  1.3179
 3228SOL    HW221147   4.368   0.489   8.944 -0.2816  0.1244 -0.8111
 3229SOL     OW21148   2.210   3.170   7.740 -0.3427 -0.0161  0.3982
 3229SOL    HW121149   2.236   3.189   7.650  0.4951  0.0868  0.6656
 3229SOL    HW221150   2.276   3.112   7.778  1.4529  1.8870  0.1933
 3230SOL     OW21151   2.587   4.286  16.648 -0.4129  0.0821 -0.2483
 3230SOL    HW121152   2.679   4.306  16.627 -0.1088  0.6418  1.6284
 3230SOL    HW221153   2.587   4.208  16.593  0.6682 -1.0967  1.4129
 3231SOL     OW21154   0.775   0.879   1.681  0.5688  0.1366  0.3343
 3231SOL    HW121155   0.749   0.951   1.623 -0.4898  2.2203  3.3765
 3231SOL    HW221156   0.866   0.907   1.692  0.5784  0.2490 -0.0254
 3232SOL     OW21157   3.225   2.775   4.588  0.0717 -0.1309 -0.4299
 3232SOL    HW121158   3.273   2.774   4.506  1.2795 -0.4035  0.2946
 3232SOL    HW221159   3.302   2.775   4.644 -0.3471  0.0938  0.1460
 3233SOL     OW21160   0.293   2.186  16.575  0.5017  0.3415  0.2965
 3233SOL    HW121161   0.233   2.245  16.529  0.1193  0.3296  0.7706
 3233SOL    HW221162   0.236   2.151  16.644  0.7557  0.0099  0.3327
 3234SOL     OW21163   3.488   0.256   7.213 -0.2444 -0.0038  0.3948
 3234SOL    HW121164   3.397   0.276   7.189 -0.6114 -1.0581  0.9045
 3234SOL    HW221165   3.519   0.192   7.150 -2.5712 -1.7832  1.0255
 3235SOL     OW21166   0.670   1.104   1.556  0.1628 -0.1782  0.9739
 3235SOL    HW121167   0.582   1.132   1.583 -0.4639  0.8845 -2.2262
 3235SOL    HW221168   0.697   1.174   1.496  0.3227  0.6502  2.0066
 3236SOL     OW21169   3.032   3.968   4.353 -0.3371  0.2026  0.4532
 3236SOL    HW121170   3.010   3.876   4.358  2.6770 -0.4896  1.0783
 3236SOL    HW221171   2.944   4.000   4.335 -0.3237 -0.4485 -0.7950
 3237SOL     OW21172   3.968   2.685   8.176 -0.0433  0.0814  0.5976
 3237SOL    HW121173   3.974   2.734   8.094 -0.1214  1.3977  1.3666
 3237SOL    HW221174   4.053   2.704   8.215  0.1043 -1.1972  0.8790
 3238SOL     OW21175   3.495   1.894   7.198 -0.0407 -0.1339 -0.1306
 3238SOL    HW121176   3.470   1.845   7.119  1.4856  3.1247 -2.6392
 3238SOL    HW221177   3.447   1.838   7.259  2.3279 -0.4682  1.3860
 3239SOL     OW21178   1.954   1.082   6.497  0.4349  0.2000 -0.3794
 3239SOL    HW121179   1.958   1.001   6.547 -0.7796 -0.2770 -1.0719
 3239SOL    HW221180   1.872   1.121   6.528  1.4098  2.3064 -0.4393
 3240SOL     OW21181   0.801   0.229  13.233  0.7601 -0.7722  0.1036
 3240SOL    HW121182   0.881   0.262  13.191 -0.4655 -0.0670 -1.6385
 3240SOL    HW221183   0.836   0.166  13.297  0.6886 -0.9480 -0.0326
 3241SOL     OW21184   4.437   3.896   3.609 -0.4959 -0.0453 -0.4901
 3241SOL    HW121185   4.441   3.983   3.650 -0.8009 -0.5584  0.6338
 3241SOL    HW221186   4.407   3.921   3.522  0.7061  0.8825 -0.6409
 3242SOL     OW21187   3.369   0.365   5.917  0.2176 -0.2446 -0.5161
 3242SOL    HW121188   3.410   0.284   5.948 -1.7232 -0.0681  2.4881
 3242SOL    HW221189   3.444   0.421   5.901  1.2293 -1.1540  1.1047
 3243SOL     OW21190   0.943   0.343   8.730 -0.1713  1.0001  0.4708
 3243SOL    HW121191   1.028   0.374   8.700 -0.4031  0.3639 -0.8338
 3243SOL    HW221192   0.909   0.427   8.762 -0.6548  0.4171  1.4934
 3244SOL     OW21193   0.516   0.614   4.815 -0.3141  0.1508 -0.4394
 3244SOL    HW121194   0.435   0.644   4.858 -0.6380 -1.4943  0.0925
 3244SOL    HW221195   0.530   0.526   4.851 -0.3895  0.4740  0.3962
 3245SOL     OW21196   0.065   0.474   6.468 -0.1639  0.2181 -0.8197
 3245SOL    HW121197   0.036   0.399   6.521  1.6422 -0.3185 -0.6032
 3245SOL    HW221198   4.720   0.534   6.502  0.6761 -0.3641  1.8947
 3246SOL     OW21199   0.524   2.233  10.608  0.3220 -0.0441  0.7819
 3246SOL    HW121200   0.458   2.247  10.675 -0.9740  1.7038 -0.8807
 3246SOL    HW221201   0.489   2.267  10.525 -0.6488  0.2056  1.3024
 3247SOL     OW21202   1.045   2.041   3.595  0.8769  0.1126 -0.2435
 3247SOL    HW121203   1.050   2.005   3.683  0.8622 -0.2155 -0.3756
 3247SOL    HW221204   0.950   2.054   3.588  1.2701  3.2204  0.6247
 3248SOL     OW21205   3.905   0.552   5.536  0.1171  0.2373 -0.0122
 3248SOL    HW121206   3.819   0.582   5.507  0.2387  0.2641 -0.3461
 3248SOL    HW221207   3.940   0.532   5.449  2.5978 -1.4514  1.3797
 3249SOL     OW21208   3.765   1.697   3.004  0.0251  0.1054 -0.4476
 3249SOL    HW121209   3.794   1.771   3.057 -1.5730  0.8566 -0.6084
 3249SOL    HW221210   3.853   1.661   2.999  0.3163  1.2824 -3.6638
 3250SOL     OW21211   1.018   0.687   6.478 -0.4191  0.5491 -0.0397
 3250SOL    HW121212   0.990   0.662   6.390  0.4502 -3.5617  0.8933
 3250SOL    HW221213   1.079   0.759   6.458  0.1221  0.2678  0.6166
 3251SOL     OW21214   3.450   4.292   8.151  0.7142 -0.9475 -0.1402
 3251SOL    HW121215   3.443   4.255   8.064 -2.8372  1.9420 -1.1051
 3251SOL    HW221216   3.492   4.377   8.134  1.4462 -0.8024  2.3112
 3252SOL     OW21217   1.915   2.140   4.911  0.0409 -0.2200 -0.0142
 3252SOL    HW121218   1.864   2.079   4.858 -0.7873  0.5314 -0.0790
 3252SOL    HW221219   1.888   2.127   5.002 -1.1056  2.5106  0.0317
 3253SOL     OW21220   4.585   2.484   8.761 -0.1763  0.1971  0.0321
 3253SOL    HW121221   4.678   2.463   8.772 -0.7456 -2.2020  0.2540
 3253SOL    HW221222   4.577   2.488   8.665  2.7290  0.6363 -0.2024
 3254SOL     OW21223   3.104   4.113   6.008  0.3276 -0.2512 -0.5815
 3254SOL    HW121224   3.144   4.026   6.008 -1.0655 -0.8939 -0.4277
 3254SOL    HW221225   3.034   4.110   6.074  1.4801 -1.8301  0.5715
 3255SOL     OW21226   0.397   3.604   5.133  0.0780 -0.1615 -0.3944
 3255SOL    HW121227   0.308   3.569   5.142  0.5453 -1.2037  0.0883
 3255SOL    HW221228   0.387   3.695   5.162 -0.5195 -0.2332 -0.3683
 3256SOL     OW21229   3.205   1.028  13.230  0.6481  0.1074  0.2561
 3256SOL    HW121230   3.246   0.957  13.180  0.6299 -0.1253  0.5743
 3256SOL    HW221231   3.118   0.988  13.232  1.2017 -0.9257  3.7383
 3257SOL     OW21232   2.744   2.999   6.410  0.0569 -0.1920 -0.2257
 3257SOL    HW121233   2.713   2.927   6.465  1.2141 -0.6031 -0.1020
 3257SOL    HW221234   2.679   3.068   6.419 -0.2266 -0.6819  1.4599
 3258SOL     OW21235   1.769   3.688  16.810  0.4886 -0.2104  0.3594
 3258SOL    HW121236   1.699   3.685  16.745  0.2237 -1.8648  0.7048
 3258SOL    HW221237   1.780   3.593  16.819  0.2858 -0.1624  1.1554
 3259SOL     OW21238   3.145   0.999   8.004  0.2777 -0.3042  0.5568
 3259SOL    HW121239   3.178   0.939   8.071 -0.0424 -0.8685  0.2063
 3259SOL    HW221240   3.091   1.065   8.046 -0.8005  0.5468 -2.1441
 3260SOL     OW21241   1.283   0.279   6.743  0.0529 -0.4324  0.0915
 3260SOL    HW121242   1.203   0.227   6.739 -1.1626  1.5085 -0.7597
 3260SOL    HW221243   1.272   0.346   6.675 -0.6401  0.5191  1.1369
 3261SOL     OW21244   0.535   2.677  10.913  0.1036  0.2779  0.0095
 3261SOL    HW121245   0.463   2.689  10.850 -0.4126  0.9678  0.7258
 3261SOL    HW221246   0.537   2.582  10.924  1.9762  0.4337  1.0311
 3262SOL     OW21247   0.553   2.781   4.670  0.2933 -0.2364  0.1774
 3262SOL    HW121248   0.514   2.808   4.587  1.0483 -0.7368 -0.3343
 3262SOL    HW221249   0.538   2.687   4.662 -1.8132 -0.0867  2.3204
 3263SOL     OW21250   2.057   1.055   0.891 -0.3063 -0.2257  0.1404
 3263SOL    HW121251   2.081   1.037   0.800  1.7956  1.1803  0.4284
 3263SOL    HW221252   2.037   1.148   0.883 -2.8159 -0.6807  1.2018
 3264SOL     OW21253   3.796   0.872   9.254  0.2500  0.3563 -0.1440
 3264SOL    HW121254   3.785   0.822   9.174 -0.7198 -0.0989  0.2701
 3264SOL    HW221255   3.842   0.804   9.304 -0.9173 -1.3689 -1.4365
 3265SOL     OW21256   3.455   4.043   2.902 -0.1542 -0.5444 -0.3293
 3265SOL    HW121257   3.370   4.076   2.933  1.0727  2.0841  0.1883
 3265SOL    HW221258   3.495   4.127   2.881 -0.6572  0.0538  1.1060
 3266SOL     OW21259   2.464   3.568   2.522 -0.3421 -0.7215 -0.2590
 3266SOL    HW121260   2.541   3.625   2.520 -1.1387  0.2979 -2.1292
 3266SOL    HW221261   2.501   3.480   2.524  0.1328 -0.5685 -1.8452
 3267SOL     OW21262   3.460   2.074   8.703 -0.0388 -0.0798 -0.3159
 3267SOL    HW121263   3.398   2.075   8.776  1.8108  1.4830  1.2317
 3267SOL    HW221264   3.545   2.089   8.743 -0.4148  1.4509 -0.0901
 3268SOL     OW21265   4.343   4.255   9.878  0.0510  0.0983  0.0181
 3268SOL    HW121266   4.365   4.332   9.824 -2.0302 -0.2105 -1.2803
 3268SOL    HW221267   4.247   4.264   9.875 -0.0797 -1.3020  0.2205
 3269SOL     OW21268   1.300   0.637   9.131 -0.0777  0.2648  0.0310
 3269SOL    HW121269   1.207   0.654   9.149  0.0485  1.3256 -0.3201
 3269SOL    HW221270   1.288   0.544   9.113  0.4835  0.0800  0.6156
 3270SOL     OW21271   1.677   1.649   9.542  0.2578 -0.0925  0.0657
 3270SOL    HW121272   1.733   1.587   9.495  0.6983 -0.6954  1.3715
 3270SOL    HW221273   1.705   1.616   9.628 -2.5569 -0.1025  0.9712
 3271SOL     OW21274   3.846   0.606   5.803 -0.6314 -0.0831 -0.0810
 3271SOL    HW121275   3.850   0.629   5.711  2.4401  0.7217  0.2453
 3271SOL    HW221276   3.896   0.524   5.803 -0.2851  0.1187  1.3637
 3272SOL     OW21277   0.825   0.722   7.110 -0.2115  0.3462  0.2782
 3272SOL    HW121278   0.824   0.701   7.204 -1.1823 -0.4109  0.1011
 3272SOL    HW221279   0.918   0.723   7.090 -0.3938  2.6438 -0.3815
 3273SOL     OW21280   2.479   1.820  11.035  0.3368  0.2955 -0.4445
 3273SOL    HW121281   2.491   1.880  11.108 -2.0976  1.2603 -0.8205
 3273SOL    HW221282   2.536   1.748  11.061  1.2074  2.7642  4.3187
 3274SOL     OW21283   2.432   0.587   9.381 -0.0856 -0.6661  0.4203
 3274SOL    HW121284   2.378   0.646   9.434  0.3367 -0.0015  0.1079
 3274SOL    HW221285   2.363   0.539   9.335  2.0049  0.5546 -3.9215
 3275SOL     OW21286   0.220   2.470   9.759 -0.3243 -0.5705  0.7876
 3275SOL    HW121287   0.264   2.477   9.674 -1.6063  0.8866  0.2270
 3275SOL    HW221288   0.237   2.384   9.797 -2.1107 -1.2227  0.1389
 3276SOL     OW21289   4.561   2.576  11.458  0.0222  0.0817  0.2216
 3276SOL    HW121290   4.584   2.668  11.444  2.6585 -1.2276 -3.7994
 3276SOL    HW221291   4.573   2.541  11.370 -1.3535  0.3140 -0.0678
 3277SOL     OW21292   1.422   2.548  11.548  0.2287 -0.6352 -0.1155
 3277SOL    HW121293   1.329   2.572  11.541  0.4941 -0.0023 -1.4762
 3277SOL    HW221294   1.416   2.468  11.496  0.0686 -0.1557 -0.8418
 3278SOL     OW21295   0.844   0.215  13.593 -0.2386 -0.0049 -0.0897
 3278SOL    HW121296   0.832   0.145  13.656 -0.7789  0.7137  0.6060
 3278SOL    HW221297   0.753   0.244  13.584  0.0429  0.3742 -1.8280
 3279SOL     OW21298   2.296   2.821   2.810 -0.2681  0.0925  0.4957
 3279SOL    HW121299   2.231   2.891   2.804  0.3087  0.5248 -0.6557
 3279SOL    HW221300   2.251   2.771   2.878 -0.1212 -1.4340 -0.5370
 3280SOL     OW21301   3.366   3.468  11.201  0.9910 -0.6109  0.7059
 3280SOL    HW121302   3.298   3.434  11.259  0.6565  1.6040  1.6079
 3280SOL    HW221303   3.433   3.400  11.207 -0.8279 -2.2219  2.7358
 3281SOL     OW21304   1.180   1.306  13.435  0.4601  1.2442  0.2320
 3281SOL    HW121305   1.138   1.317  13.520  1.0752 -2.0217  0.9600
 3281SOL    HW221306   1.112   1.329  13.371 -0.3677  0.0531  0.6764
 3282SOL     OW21307   3.668   3.700  10.191  0.1197 -0.3187  0.0374
 3282SOL    HW121308   3.679   3.759  10.116 -2.9971  0.9805  0.6249
 3282SOL    HW221309   3.730   3.628  10.179 -1.9208 -2.0751  0.0865
 3283SOL     OW21310   2.753   1.415   2.956 -0.1385 -0.4282 -0.2238
 3283SOL    HW121311   2.796   1.443   3.036 -0.9533  0.1452  0.0090
 3283SOL    HW221312   2.668   1.390   2.991  0.7307 -0.0274  2.1873
 3284SOL     OW21313   0.926   1.484  14.808  0.0937  0.2114  0.3839
 3284SOL    HW121314   0.854   1.434  14.770  1.0570 -0.0409 -1.1160
 3284SOL    HW221315   1.002   1.450  14.761 -0.3623 -0.7468  0.3424
 3285SOL     OW21316   3.142   4.540   8.625  0.7323  0.0876 -0.4867
 3285SOL    HW121317   3.235   4.519   8.621  0.2727 -2.3189  2.3249
 3285SOL    HW221318   3.122   4.574   8.712 -0.6453  0.3545 -0.9017
 3286SOL     OW21319   1.624   2.638  12.076 -0.2112 -0.7773  0.0223
 3286SOL    HW121320   1.672   2.662  12.155 -0.3049 -0.8363  0.0967
 3286SOL    HW221321   1.533   2.656  12.099 -0.1579 -0.8043  0.2517
 3287SOL     OW21322   3.043   2.432   2.806  0.2211  0.4677  0.5751
 3287SOL    HW121323   2.968   2.389   2.767 -0.3911  2.9330 -0.9102
 3287SOL    HW221324   3.108   2.445   2.737 -0.4633 -1.9124 -0.5119
 3288SOL     OW21325   3.573   1.749  15.868 -0.2310 -0.3450 -0.6446
 3288SOL    HW121326   3.619   1.694  15.932  1.3950  0.6308 -0.9684
 3288SOL    HW221327   3.492   1.753  15.919  1.1773 -0.6578  1.6287
 3289SOL     OW21328   1.860   1.417   8.537  0.3199  0.6394  0.5816
 3289SOL    HW121329   1.934   1.428   8.596 -0.7459  0.6009  1.9307
 3289SOL    HW221330   1.882   1.326   8.520 -0.5012  0.5441  0.0119
 3290SOL     OW21331   0.556   4.324  17.623 -0.4988 -0.2724 -0.1982
 3290SOL    HW121332   0.511   4.407  17.604 -0.4306 -0.3386 -0.6514
 3290SOL    HW221333   0.505   4.286   0.008 -0.8469  2.1958  0.8874
 3291SOL     OW21334   0.380   3.512   9.978  0.0367  0.5098  0.4342
 3291SOL    HW121335   0.425   3.456  10.041  1.3820 -1.4619 -2.2375
 3291SOL    HW221336   0.307   3.457   9.950  0.6283 -0.6408  1.1761
 3292SOL     OW21337   2.241   0.245   2.093  0.0243  0.1091 -0.2549
 3292SOL    HW121338   2.192   0.219   2.171  0.1628  1.7179  0.3673
 3292SOL    HW221339   2.194   0.326   2.070  0.3668 -0.0441 -1.4933
 3293SOL     OW21340   2.066   4.682   2.068  0.1610  0.2380 -0.2273
 3293SOL    HW121341   2.155   4.714   2.056 -0.5079  1.4719 -1.8481
 3293SOL    HW221342   2.066   4.612   2.003  0.9473 -0.3463  0.3992
 3294SOL     OW21343   3.899   1.992  15.883  0.4656  0.4675  0.5573
 3294SOL    HW121344   3.862   1.962  15.966  2.1383 -2.3527  0.3198
 3294SOL    HW221345   3.942   2.074  15.907  1.4119 -0.1757  1.0562
 3295SOL     OW21346   0.240   4.426   2.683 -0.0501 -0.5313  0.1460
 3295SOL    HW121347   0.317   4.474   2.652 -1.9564  4.0133  2.4365
 3295SOL    HW221348   0.190   4.428   2.602  0.0958  2.3432  0.1183
 3296SOL     OW21349   4.327   2.632  14.275 -0.5229 -0.3047 -0.7962
 3296SOL    HW121350   4.349   2.627  14.182 -2.1606 -0.9128 -1.1531
 3296SOL    HW221351   4.232   2.632  14.266 -0.8985 -1.7416  3.1086
 3297SOL     OW21352   0.204   0.796   0.520  0.6358  0.1486  0.0166
 3297SOL    HW121353   0.295   0.814   0.497  0.0617  2.8546 -0.0790
 3297SOL    HW221354   0.201   0.709   0.480  4.0850  0.2989 -0.5485
 3298SOL     OW21355   1.173   2.915   4.652  0.0874 -0.0343  0.3280
 3298SOL    HW121356   1.162   2.845   4.587 -0.2918  0.4670 -0.1465
 3298SOL    HW221357   1.201   2.986   4.594  0.9727 -2.2155 -1.8925
 3299SOL     OW21358   4.322   2.755   2.858 -0.5474 -0.1211  0.0015
 3299SOL    HW121359   4.249   2.698   2.835 -1.6876  1.1290  0.5277
 3299SOL    HW221360   4.269   2.825   2.895 -0.5029  0.0486 -0.2634
 3300SOL     OW21361   3.730   3.545   1.616  0.1844  0.1237  0.5190
 3300SOL    HW121362   3.733   3.605   1.691 -2.1714  3.3888 -2.0004
 3300SOL    HW221363   3.818   3.508   1.622 -0.9352 -2.7230 -0.8626
 3301SOL     OW21364   4.690   3.866   8.975  0.0168  0.5201  0.0324
 3301SOL    HW121365   0.058   3.900   8.964  0.0479 -0.4243 -2.4134
 3301SOL    HW221366   4.697   3.807   9.051  2.1842 -1.8818 -2.0515
 3302SOL     OW21367   4.508   2.485   1.099 -0.6011  0.3892  0.0655
 3302SOL    HW121368   4.474   2.412   1.150  2.4771  0.9516  2.9519
 3302SOL    HW221369   4.447   2.552   1.131  0.0839  0.5284  1.0858
 3303SOL     OW21370   0.660   1.292   0.757 -0.5345 -0.4694  0.0291
 3303SOL    HW121371   0.621   1.368   0.712 -0.9151 -0.2867  0.6645
 3303SOL    HW221372   0.619   1.317   0.840 -1.3725  0.5925 -0.6908
 3304SOL     OW21373   0.013   4.496   8.397  0.0501  0.0498  0.2277
 3304SOL    HW121374   4.669   4.429   8.377 -0.9299  1.3223 -0.8152
 3304SOL    HW221375   4.711   4.513   8.489  0.1531 -1.9949  0.6361
 3305SOL     OW21376   1.584   4.365   8.063 -0.3385 -0.0041  0.1653
 3305SOL    HW121377   1.626   4.446   8.033 -2.6690  1.2277  0.2430
 3305SOL    HW221378   1.519   4.342   7.997  0.9548 -0.7530 -0.8452
 3306SOL     OW21379   0.156   3.702   5.189  0.2344 -0.4422 -0.1063
 3306SOL    HW121380   0.129   3.791   5.209  0.4146 -0.7852  1.6898
 3306SOL    HW221381   0.135   3.695   5.096  0.1460 -1.4786 -0.0107
 3307SOL     OW21382   4.671   2.002   6.631 -0.3513  0.2097  0.2480
 3307SOL    HW121383   0.024   1.968   6.579 -0.1425  1.0097  0.0156
 3307SOL    HW221384   4.694   2.095   6.628 -0.2949  0.2145  0.9166
 3308SOL     OW21385   1.767   2.674  12.305  0.3324  0.5674 -0.3125
 3308SOL    HW121386   1.766   2.583  12.332  0.5703  0.5362 -0.4100
 3308SOL    HW221387   1.783   2.709  12.393 -1.6988  0.8608 -0.0481
 3309SOL     OW21388   1.159   3.914   7.067  0.3141  0.0841 -0.4360
 3309SOL    HW121389   1.133   3.979   7.002 -0.6011  1.7222  1.6121
 3309SOL    HW221390   1.100   3.936   7.139 -0.5925 -1.4314 -0.7079
 3310SOL     OW21391   2.973   2.073   6.478  0.0788  0.0136 -0.0345
 3310SOL    HW121392   3.007   2.146   6.531 -0.4122  0.1874  0.0379
 3310SOL    HW221393   2.981   1.992   6.528  1.5275  0.2715  0.1609
 3311SOL     OW21394   3.875   2.846   3.915  0.2696  0.3208  0.0440
 3311SOL    HW121395   3.790   2.814   3.882  1.3560 -1.9775 -0.5416
 3311SOL    HW221396   3.932   2.810   3.847 -0.0996  1.2401 -0.7544
 3312SOL     OW21397   1.524   4.664   8.512 -0.4859 -0.2846 -0.0477
 3312SOL    HW121398   1.476   4.584   8.533 -0.9763  0.1036  0.3098
 3312SOL    HW221399   1.483   4.690   8.430  2.0103 -0.2497 -1.2988
 3313SOL     OW21400   0.251   1.791   6.088 -0.2034  0.2538 -0.1540
 3313SOL    HW121401   0.335   1.838   6.087  0.0716 -0.2474 -0.4429
 3313SOL    HW221402   0.220   1.814   6.001  0.5019  0.6240 -0.3060
 3314SOL     OW21403   0.867   2.608  11.594 -0.9159  0.4842 -0.6055
 3314SOL    HW121404   0.784   2.617  11.640 -0.5394 -1.6717  0.4739
 3314SOL    HW221405   0.829   2.586  11.509 -1.4281 -0.1799 -0.1999
 3315SOL     OW21406   0.713   2.235   6.558  0.1780 -0.2764  0.2684
 3315SOL    HW121407   0.745   2.205   6.643  1.7881 -0.7947 -0.5161
 3315SOL    HW221408   0.798   2.272   6.537 -0.5971 -0.1296 -2.5517
 3316SOL     OW21409   0.051   4.590   7.114 -0.4024  0.3913 -0.1004
 3316SOL    HW121410   0.087   4.627   7.195  0.3560 -0.0457 -0.2419
 3316SOL    HW221411   0.128   4.548   7.076 -0.1475  0.4021  0.3969
 3317SOL     OW21412   0.651   3.532   4.839  0.2947 -0.5892 -0.1452
 3317SOL    HW121413   0.667   3.573   4.754  0.2582  0.2440  0.2487
 3317SOL    HW221414   0.599   3.599   4.882 -0.4836 -1.5711  0.4338
 3318SOL     OW21415   2.903   0.509   7.699  0.2058 -0.1344 -0.3241
 3318SOL    HW121416   2.978   0.553   7.739  0.1026 -1.2303  1.0958
 3318SOL    HW221417   2.825   0.549   7.737 -1.1480  0.0695 -3.3385
 3319SOL     OW21418   3.314   2.647  10.473 -0.2673  0.5946 -0.1581
 3319SOL    HW121419   3.237   2.611  10.429  0.2367 -1.0096  0.2634
 3319SOL    HW221420   3.281   2.735  10.489  0.3235  0.9433 -0.8921
 3320SOL     OW21421   0.627   3.545   4.136 -0.3662 -0.0768  0.0413
 3320SOL    HW121422   0.662   3.634   4.136 -0.0692 -0.1934 -0.0916
 3320SOL    HW221423   0.667   3.506   4.058 -1.4491 -0.2871 -0.3978
 3321SOL     OW21424   2.897   1.371   2.370  0.5419  0.2143 -0.4257
 3321SOL    HW121425   2.981   1.379   2.326  0.0907  2.6825 -0.8353
 3321SOL    HW221426   2.914   1.397   2.460  1.3973 -0.8013 -0.2939
 3322SOL     OW21427   1.384   3.486  16.739 -0.2959  0.0724  0.3286
 3322SOL    HW121428   1.446   3.418  16.767 -1.5367 -1.9857 -1.9231
 3322SOL    HW221429   1.417   3.489  16.649  0.3295 -1.7817  0.4918
 3323SOL     OW21430   3.177   4.178  10.577 -0.5838  0.4778 -0.0182
 3323SOL    HW121431   3.232   4.220  10.643 -0.9876  0.9597  0.0133
 3323SOL    HW221432   3.116   4.137  10.638  1.2768 -1.1220  0.7842
 3324SOL     OW21433   1.596   4.229   3.318  0.2075 -0.3011 -0.0326
 3324SOL    HW121434   1.624   4.298   3.378 -0.2462  0.0158 -0.1820
 3324SOL    HW221435   1.682   4.214   3.280  1.3223  0.9618  1.9758
 3325SOL     OW21436   2.995   4.322   6.567 -0.5407  0.1669 -0.0711
 3325SOL    HW121437   2.918   4.373   6.592 -2.1589 -2.0027 -0.7236
 3325SOL    HW221438   3.007   4.270   6.646 -1.4390  2.2649  1.4570
 3326SOL     OW21439   2.263   1.058   7.668  0.5411  0.2241 -0.2082
 3326SOL    HW121440   2.183   1.109   7.655 -0.9124 -1.2568  3.1593
 3326SOL    HW221441   2.240   1.001   7.741  0.1591  2.9729  1.7912
 3327SOL     OW21442   4.249   0.015   4.764  0.3702  0.0538 -0.7696
 3327SOL    HW121443   4.243   0.088   4.702  0.7354  0.9071  0.1872
 3327SOL    HW221444   4.329   0.037   4.811 -0.7713  1.3779  0.5685
 3328SOL     OW21445   1.979   0.626  14.985  0.2867  0.0278  0.3205
 3328SOL    HW121446   1.931   0.563  14.931  0.1423  1.0504 -0.7511
 3328SOL    HW221447   1.986   0.576  15.066 -0.1466 -1.9247 -0.8671
 3329SOL     OW21448   3.066   4.362   2.251  0.4026 -0.5528 -0.3626
 3329SOL    HW121449   3.062   4.290   2.188 -0.7281 -1.0035  0.2295
 3329SOL    HW221450   3.049   4.433   2.190  1.4787 -1.6672 -1.9472
 3330SOL     OW21451   4.200   3.233   4.683  0.1484 -0.2919 -0.3942
 3330SOL    HW121452   4.273   3.265   4.735 -0.9825 -0.5782  1.3727
 3330SOL    HW221453   4.254   3.186   4.620  1.4288  0.0100  0.4708
 3331SOL     OW21454   0.691   3.425  13.333 -0.0492  0.3864  0.1428
 3331SOL    HW121455   0.698   3.402  13.425  0.8222  1.1187  0.2632
 3331SOL    HW221456   0.780   3.425  13.296  0.6699 -1.4022  1.8516
 3332SOL     OW21457   2.515   0.438  12.821  0.2732  0.5656 -1.2158
 3332SOL    HW121458   2.497   0.469  12.733 -0.9459 -1.1029 -1.5435
 3332SOL    HW221459   2.429   0.403  12.844  1.8182 -1.2177  1.9525
 3333SOL     OW21460   1.625   0.324   4.803 -0.2094  0.3471  0.0878
 3333SOL    HW121461   1.676   0.350   4.726  1.0141  0.7722  1.0352
 3333SOL    HW221462   1.630   0.407   4.851  0.5236 -0.9668  2.2739
 3334SOL     OW21463   2.491   4.369  13.137  0.5376  0.1346  0.8911
 3334SOL    HW121464   2.527   4.418  13.062 -1.7585 -1.6562 -1.3831
 3334SOL    HW221465   2.490   4.284  13.092 -0.4845  1.1357 -0.9848
 3335SOL     OW21466   1.270   2.970  17.537  0.0961 -0.2471  0.0559
 3335SOL    HW121467   1.184   2.928  17.543  0.7242 -1.4660  0.5097
 3335SOL    HW221468   1.329   2.895  17.537  0.7235  0.2452  1.8425
 3336SOL     OW21469   1.390   4.377  14.645 -0.4634 -0.5277 -0.5803
 3336SOL    HW121470   1.372   4.345  14.734  0.3438  0.9348  0.0973
 3336SOL    HW221471   1.456   4.316  14.613  1.8328  2.4823 -1.5006
 3337SOL     OW21472   1.305   4.500  17.467  0.1492 -0.5698  0.4933
 3337SOL    HW121473   1.242   4.572  17.471 -1.5920 -2.0890  0.2802
 3337SOL    HW221474   1.359   4.516  17.544  2.7776  2.5474 -2.0328
 3338SOL     OW21475   4.152   3.308  14.197 -0.1818  0.3704 -0.5213
 3338SOL    HW121476   4.136   3.372  14.266  0.9154 -0.1851  0.2658
 3338SOL    HW221477   4.215   3.369  14.158  1.4581  0.5394  2.4065
 3339SOL     OW21478   3.654   4.394   7.030 -0.5106 -0.5747  0.0030
 3339SOL    HW121479   3.724   4.333   7.005 -0.1140 -0.8194  1.7344
 3339SOL    HW221480   3.661   4.455   6.956  0.7681 -2.0643 -1.1092
 3340SOL     OW21481   0.760   4.674  17.206  0.3971 -0.1280  0.0638
 3340SOL    HW121482   0.758   4.580  17.191 -0.0179  0.1560 -1.6101
 3340SOL    HW221483   0.809   4.681  17.289 -0.5708 -1.7921  0.7777
 3341SOL     OW21484   1.967   3.838   9.146 -0.2314  0.2016 -0.3556
 3341SOL    HW121485   2.045   3.863   9.097  0.9253 -2.8966 -0.0928
 3341SOL    HW221486   1.987   3.868   9.235 -2.8065 -1.8826  0.9049
 3342SOL     OW21487   3.098   3.634  14.363  0.6924  0.2447 -0.1595
 3342SOL    HW121488   3.097   3.727  14.339 -1.3324  0.9040  2.5049
 3342SOL    HW221489   3.135   3.593  14.285 -1.6394 -0.1446 -1.0473
 3343SOL     OW21490   3.986   2.781   6.065  0.6422 -0.0369  0.1421
 3343SOL    HW121491   4.007   2.793   5.972 -0.2748 -0.4206 -0.1246
 3343SOL    HW221492   4.052   2.719   6.096 -0.1667 -0.9495  0.0620
 3344SOL     OW21493   3.076   1.096   3.933 -0.5261  0.1203  0.1595
 3344SOL    HW121494   3.010   1.160   3.958 -0.3456  0.4147 -0.1158
 3344SOL    HW221495   3.061   1.033   4.004  0.6398  1.8135  1.9138
 3345SOL     OW21496   2.576   0.874  12.267 -0.2250  0.4423 -0.6067
 3345SOL    HW121497   2.613   0.918  12.191 -0.0263 -2.0440 -1.9666
 3345SOL    HW221498   2.601   0.784  12.244 -0.1360  0.2659  0.1896
 3346SOL     OW21499   2.923   4.563   9.044  0.6529  0.4302  0.5336
 3346SOL    HW121500   2.912   4.586   9.136 -0.5371  0.5941  0.3542
 3346SOL    HW221501   2.853   4.498   9.041  1.2689 -0.2894  1.6797
 3347SOL     OW21502   2.927   0.622  13.189  0.3942 -0.2851  0.1334
 3347SOL    HW121503   2.921   0.606  13.095  0.9889 -0.2763  0.0947
 3347SOL    HW221504   2.901   0.535  13.218 -2.2198  0.5776  0.3849
 3348SOL     OW21505   1.847   3.057  12.633  0.0114  0.0825 -0.0462
 3348SOL    HW121506   1.827   3.134  12.685  0.0932  0.4262 -0.5216
 3348SOL    HW221507   1.787   3.081  12.562 -1.2865 -2.9328 -0.0102
 3349SOL     OW21508   2.419   1.595   8.298  0.4808  0.6653 -0.4033
 3349SOL    HW121509   2.373   1.513   8.319 -0.7644  1.1465 -1.2869
 3349SOL    HW221510   2.460   1.620   8.381 -1.6892  0.9299  0.5724
 3350SOL     OW21511   4.415   3.568   5.004  0.9027  0.1776 -0.4859
 3350SOL    HW121512   4.394   3.521   5.085 -1.2901  0.9330 -0.6106
 3350SOL    HW221513   4.324   3.594   4.989  1.1174  0.7725 -0.7615
 3351SOL     OW21514   3.890   3.959  15.607  0.1943  0.0349 -0.2272
 3351SOL    HW121515   3.825   4.022  15.638  0.1766  0.2444 -0.6903
 3351SOL    HW221516   3.832   3.900  15.557  1.3298 -1.3439  0.0755
 3352SOL     OW21517   0.134   1.348  15.475 -0.3693 -0.0099 -0.2504
 3352SOL    HW121518   0.120   1.443  15.476  2.9457  0.4969 -0.6776
 3352SOL    HW221519   0.051   1.309  15.501  0.1706 -0.3869  0.9074
 3353SOL     OW21520   1.255   3.808   2.181 -0.2472 -0.4247 -0.0303
 3353SOL    HW121521   1.161   3.798   2.199 -0.7664  1.7327 -1.4408
 3353SOL    HW221522   1.299   3.844   2.259  1.2787 -0.6515 -0.7951
 3354SOL     OW21523   0.497   1.397   2.666 -0.5501 -0.7040  0.2552
 3354SOL    HW121524   0.586   1.387   2.701 -0.1583  0.5237 -0.4046
 3354SOL    HW221525   0.478   1.304   2.649  1.5888 -1.2389  0.8007
 3355SOL     OW21526   3.144   1.297   6.081 -0.6006  0.0486 -0.3036
 3355SOL    HW121527   3.127   1.293   6.175  1.5730 -1.6384  0.0210
 3355SOL    HW221528   3.073   1.248   6.039 -0.1187 -0.0733 -0.9658
 3356SOL     OW21529   4.618   0.048  13.866 -0.5342  0.2159 -0.7661
 3356SOL    HW121530   4.588   0.045  13.775  2.3706  0.2610 -1.7335
 3356SOL    HW221531   4.598   0.140  13.882  0.1647  0.4336 -1.1787
 3357SOL     OW21532   3.407   4.626   3.853 -0.7118 -0.4418  0.1355
 3357SOL    HW121533   3.474   4.681   3.894 -2.3476  2.7012 -1.3527
 3357SOL    HW221534   3.447   4.544   3.881  0.6463  0.9400  2.2211
 3358SOL     OW21535   2.800   2.242   2.779  0.5213  0.2242 -0.0752
 3358SOL    HW121536   2.707   2.239   2.759  0.5819  0.3988 -0.3749
 3358SOL    HW221537   2.797   2.327   2.822 -0.9040 -0.5376  1.3386
 3359SOL     OW21538   3.621   0.435   0.816 -0.5014  0.4529 -0.4946
 3359SOL    HW121539   3.537   0.395   0.837  0.6146 -1.2365  0.8317
 3359SOL    HW221540   3.651   0.395   0.735  2.0349 -0.8938  1.0932
 3360SOL     OW21541   2.769   1.858   0.621  0.0644 -0.4136 -0.5601
 3360SOL    HW121542   2.854   1.842   0.579 -0.2049  1.1901 -1.7306
 3360SOL    HW221543   2.786   1.941   0.665 -2.7597 -0.1821  0.0932
 3361SOL     OW21544   4.569   0.904   9.961  0.1888 -1.0777 -0.0213
 3361SOL    HW121545   4.556   0.837   9.894 -0.7346 -0.6097 -0.3089
 3361SOL    HW221546   4.503   0.963   9.925  1.9716  0.6983 -0.3645
 3362SOL     OW21547   1.441   2.302   0.340  0.0022 -0.3375 -0.4964
 3362SOL    HW121548   1.396   2.258   0.268 -2.5596 -0.3974  1.1353
 3362SOL    HW221549   1.531   2.270   0.330 -0.6447 -2.4224  0.3298
 3363SOL     OW21550   3.249   2.885   2.622 -0.0768 -0.0629 -0.0112
 3363SOL    HW121551   3.306   2.888   2.545 -0.6087  1.3115 -0.3463
 3363SOL    HW221552   3.189   2.954   2.595 -2.0330 -0.7545  2.5196
 3364SOL     OW21553   2.928   0.496   8.857  0.3119 -0.3079  0.0394
 3364SOL    HW121554   2.881   0.513   8.938  1.8520  2.1001  0.4445
 3364SOL    HW221555   2.873   0.434   8.810  1.6889 -1.9987  0.6443
 3365SOL     OW21556   0.185   3.694  15.034  0.3032 -0.7919 -0.3295
 3365SOL    HW121557   0.278   3.695  15.012  0.5571 -1.1778  0.7251
 3365SOL    HW221558   0.181   3.600  15.014 -1.7823 -0.4003 -1.7106
 3366SOL     OW21559   3.070   1.271   4.509  0.3879  0.2217 -0.3166
 3366SOL    HW121560   3.079   1.295   4.602 -0.8846  1.3290 -0.4809
 3366SOL    HW221561   2.975   1.283   4.508  0.6015  1.7059 -2.5917
 3367SOL     OW21562   3.163   3.664   6.910 -0.1567 -0.4284  0.2644
 3367SOL    HW121563   3.130   3.649   6.822  1.0033 -3.1429  0.3037
 3367SOL    HW221564   3.086   3.682   6.963  0.3303  0.8945  0.5277
 3368SOL     OW21565   0.542   0.281   0.459  0.4048  0.0379 -0.6437
 3368SOL    HW121566   0.468   0.229   0.428  0.1102 -0.1256  0.3310
 3368SOL    HW221567   0.596   0.212   0.499 -0.4210  0.5244  1.2988
 3369SOL     OW21568   2.596   2.433   8.291 -0.1718 -0.3912  0.4256
 3369SOL    HW121569   2.648   2.410   8.369  0.7431 -0.7637 -0.3029
 3369SOL    HW221570   2.643   2.514   8.274 -1.5669 -0.1881 -2.3355
 3370SOL     OW21571   2.742   4.341   9.000  0.2511 -0.3708  0.7184
 3370SOL    HW121572   2.652   4.341   9.032  0.0305  1.1457  0.1037
 3370SOL    HW221573   2.735   4.317   8.908  0.6280  1.3977  0.2218
 3371SOL     OW21574   1.152   0.749   3.673 -0.2068  0.2989 -0.2208
 3371SOL    HW121575   1.234   0.775   3.633  0.0427  0.8979  0.6814
 3371SOL    HW221576   1.163   0.762   3.767  1.2051 -0.4571 -0.2876
 3372SOL     OW21577   2.012   2.664  10.863 -0.2870 -0.2796 -0.4076
 3372SOL    HW121578   2.050   2.608  10.795  2.1922 -0.6490  1.2548
 3372SOL    HW221579   2.074   2.640  10.933 -0.4370  1.6798  0.3901
 3373SOL     OW21580   4.570   0.410   5.862  0.5245 -0.0500  0.1274
 3373SOL    HW121581   4.501   0.416   5.797 -0.5114 -2.0116  1.0285
 3373SOL    HW221582   4.640   0.465   5.827  0.4636  0.1793  0.3704
 3374SOL     OW21583   2.746   4.287   3.487  0.2851  0.2027 -0.2097
 3374SOL    HW121584   2.839   4.281   3.465  0.5704  1.5858  0.6128
 3374SOL    HW221585   2.706   4.228   3.423 -1.5006  0.8267  0.3551
 3375SOL     OW21586   2.043   0.877  12.526 -0.0407 -0.0209 -0.2365
 3375SOL    HW121587   2.021   0.895  12.618  0.9621  0.0197 -0.0015
 3375SOL    HW221588   2.107   0.811  12.553  1.1760  0.9856 -0.6649
 3376SOL     OW21589   4.447   2.389   3.515 -0.4288 -0.4314 -0.1815
 3376SOL    HW121590   4.523   2.446   3.526 -0.4005 -0.4512 -0.2740
 3376SOL    HW221591   4.388   2.451   3.472 -0.4013 -0.4102 -0.1883
 3377SOL     OW21592   3.330   2.550   2.383  0.1551  0.0785 -0.2934
 3377SOL    HW121593   3.376   2.564   2.300 -1.1003 -1.1936 -1.2146
 3377SOL    HW221594   3.250   2.593   2.355 -1.4175 -3.6819 -1.6354
 3378SOL     OW21595   0.943   3.762  14.842 -0.0747  0.1299 -0.0721
 3378SOL    HW121596   1.010   3.706  14.881  1.1729  1.1534 -0.7426
 3378SOL    HW221597   0.978   3.780  14.755  3.0505 -0.8132  0.9736
 3379SOL     OW21598   1.147   2.925   0.607 -0.5147 -0.3056  0.0837
 3379SOL    HW121599   1.139   2.983   0.683  0.2891  1.4345 -1.1582
 3379SOL    HW221600   1.056   2.927   0.575 -0.8435 -0.7917  1.0048
 3380SOL     OW21601   3.113   2.774   6.425  0.5325  0.0399 -0.0438
 3380SOL    HW121602   3.193   2.722   6.411  0.4462 -0.2015  0.3812
 3380SOL    HW221603   3.108   2.780   6.520  1.5304 -0.2387  0.0224
 3381SOL     OW21604   0.153   2.550   4.353  0.6659 -0.0297 -0.0198
 3381SOL    HW121605   0.110   2.558   4.268 -0.3853 -0.9012  0.4346
 3381SOL    HW221606   0.165   2.455   4.358  1.0579  0.1933  3.7829
 3382SOL     OW21607   0.350   0.498  12.436 -0.3321 -0.5587 -0.0320
 3382SOL    HW121608   0.416   0.536  12.378 -0.9581  1.3682  0.5173
 3382SOL    HW221609   0.290   0.458  12.373  0.6561 -3.0205  0.5699
 3383SOL     OW21610   2.512   2.400  15.334 -0.5521  0.2428 -0.0199
 3383SOL    HW121611   2.418   2.408  15.317 -0.6692  0.7295  0.8558
 3383SOL    HW221612   2.516   2.454  15.413 -1.5550 -1.3247  1.1134
 3384SOL     OW21613   1.365   1.029  10.493 -1.0091 -0.3003 -0.5013
 3384SOL    HW121614   1.314   0.996  10.420  0.4157 -2.0667 -0.6832
 3384SOL    HW221615   1.290   1.079  10.525 -1.1808 -1.5556  1.0408
 3385SOL     OW21616   2.125   3.878   3.459 -0.1243 -0.1683 -0.2948
 3385SOL    HW121617   2.186   3.952   3.464  0.5514 -0.8662  1.7096
 3385SOL    HW221618   2.187   3.808   3.476  0.1051 -0.3819 -1.9335
 3386SOL     OW21619   0.356   3.340   4.697  0.3217  0.3560  0.3182
 3386SOL    HW121620   0.425   3.335   4.631 -0.7320 -1.0786 -0.6636
 3386SOL    HW221621   0.309   3.256   4.694 -1.3608  1.2741  0.9476
 3387SOL     OW21622   2.784   1.444   1.181 -0.2958 -0.0956 -0.6635
 3387SOL    HW121623   2.847   1.379   1.149 -0.3828 -0.1480 -0.7287
 3387SOL    HW221624   2.757   1.412   1.267  1.1792  3.0648  0.9640
 3388SOL     OW21625   3.054   4.267   4.042  0.3318  0.4774  0.0721
 3388SOL    HW121626   3.069   4.293   4.133  3.7197 -1.6711  0.1281
 3388SOL    HW221627   3.143   4.247   4.012  0.1674 -1.0929  0.6530
 3389SOL     OW21628   1.177   0.873  15.431  0.1229  0.1358  0.1717
 3389SOL    HW121629   1.188   0.780  15.410  1.3097  0.0684  1.0689
 3389SOL    HW221630   1.265   0.902  15.456 -0.0345 -0.9882  2.0116
 3390SOL     OW21631   2.901   0.893   7.812  0.0327 -0.5992  0.1207
 3390SOL    HW121632   2.915   0.868   7.903 -0.1434  3.1350  1.1699
 3390SOL    HW221633   2.838   0.962   7.832  0.4232 -0.4690  0.8904
 3391SOL     OW21634   0.461   0.613   7.975 -0.3053 -0.3184  0.6114
 3391SOL    HW121635   0.438   0.529   8.015  0.7512 -0.5120  0.8076
 3391SOL    HW221636   0.387   0.665   8.007  0.7934  0.1746  2.3662
 3392SOL     OW21637   4.603   2.563   6.391 -0.3168  0.0400 -0.1277
 3392SOL    HW121638   4.587   2.645   6.345  2.7663 -0.4725 -2.0927
 3392SOL    HW221639   4.521   2.537   6.435 -1.6354  1.0459 -1.9702
 3393SOL     OW21640   2.906   3.183   7.409 -0.3254 -0.3051 -0.0910
 3393SOL    HW121641   2.899   3.109   7.349 -1.7995 -0.0540 -0.2218
 3393SOL    HW221642   3.002   3.179   7.415 -0.1474  1.6693 -1.5332
 3394SOL     OW21643   4.561   1.456   3.455  0.0754 -0.2362  0.1516
 3394SOL    HW121644   4.567   1.512   3.378  0.1610 -0.8827 -0.3172
 3394SOL    HW221645   4.543   1.368   3.421  0.4972 -0.6221  0.9067
 3395SOL     OW21646   2.110   0.916   4.677 -0.0239 -0.1396  0.3374
 3395SOL    HW121647   2.177   0.971   4.636 -0.1055 -0.4583 -0.2221
 3395SOL    HW221648   2.075   0.869   4.602 -1.8489 -0.6003  1.4967
 3396SOL     OW21649   2.843   1.494   6.126  0.2273 -0.1819 -0.1374
 3396SOL    HW121650   2.754   1.462   6.111  0.6623 -0.0599 -2.9794
 3396SOL    HW221651   2.849   1.464   6.217 -2.2352  0.8813  0.3563
 3397SOL     OW21652   3.126   1.615   4.370  0.1585  0.4037 -0.0510
 3397SOL    HW121653   3.049   1.660   4.405  0.5391  0.0230  1.2670
 3397SOL    HW221654   3.155   1.682   4.308 -2.1238  0.6619 -0.8329
 3398SOL     OW21655   3.477   3.162   3.565 -0.0452  0.0244 -0.3450
 3398SOL    HW121656   3.427   3.244   3.558 -0.0570 -0.0869 -1.5593
 3398SOL    HW221657   3.415   3.094   3.592  0.8770 -1.2237 -1.4060
 3399SOL     OW21658   1.492   0.340   2.625 -0.0305  0.4552  0.0284
 3399SOL    HW121659   1.488   0.359   2.531  1.2311 -0.4174 -0.1939
 3399SOL    HW221660   1.561   0.274   2.617  0.2176  0.8122 -0.8043
 3400SOL     OW21661   1.411   3.004   4.822 -0.0355  0.1277  0.5353
 3400SOL    HW121662   1.319   3.003   4.795  0.3090  0.2911 -0.6756
 3400SOL    HW221663   1.409   2.928   4.880 -0.7030 -0.3529 -0.1161
 3401SOL     OW21664   2.376   3.685   3.198  0.0729 -0.3098 -0.2682
 3401SOL    HW121665   2.380   3.591   3.180 -0.6833 -0.3726 -0.1221
 3401SOL    HW221666   2.449   3.717   3.146  0.9109 -0.1756  1.0005
 3402SOL     OW21667   0.726   3.320   1.803 -0.3919  0.1124 -0.1781
 3402SOL    HW121668   0.795   3.386   1.811  0.2180 -0.3951 -1.3094
 3402SOL    HW221669   0.672   3.360   1.871  0.8663  2.8157 -0.7754
 3403SOL     OW21670   2.452   0.172   8.285  0.2233 -0.1799 -0.0652
 3403SOL    HW121671   2.542   0.148   8.307  0.6121  0.7686 -0.5994
 3403SOL    HW221672   2.403   0.149   8.364  2.0435 -0.7205  0.9049
 3404SOL     OW21673   2.700   0.996   1.992 -0.0705  0.1116  0.3151
 3404SOL    HW121674   2.613   0.989   2.031 -0.4420 -1.2658 -0.7401
 3404SOL    HW221675   2.770   0.985   2.056  0.7940  0.3142 -0.5990
 3405SOL     OW21676   1.163   1.363  10.505 -0.3597  0.6829  0.1804
 3405SOL    HW121677   1.113   1.434  10.464  0.7993  0.8717 -0.8836
 3405SOL    HW221678   1.236   1.409  10.547 -1.1640  1.3809  0.8265
 3406SOL     OW21679   3.878   3.884   8.898 -0.3889 -0.4042  0.3043
 3406SOL    HW121680   3.964   3.856   8.928 -0.4488 -1.1323 -0.2022
 3406SOL    HW221681   3.828   3.888   8.980 -1.4086  0.9080 -0.3878
 3407SOL     OW21682   0.573   0.604   7.733  0.1251  0.0028 -0.5283
 3407SOL    HW121683   0.516   0.556   7.673  2.1979 -1.5300 -1.2868
 3407SOL    HW221684   0.528   0.605   7.817 -1.6002 -0.4348 -1.4405
 3408SOL     OW21685   1.565   3.887   0.472  0.5330  0.6307  0.0565
 3408SOL    HW121686   1.541   3.873   0.564 -0.4868  2.0870  0.0041
 3408SOL    HW221687   1.519   3.814   0.431 -0.7794  0.7660  1.3097
 3409SOL     OW21688   4.149   4.009  12.164  0.2076  0.4834 -0.5821
 3409SOL    HW121689   4.234   4.040  12.194  0.1676 -0.3350  0.3945
 3409SOL    HW221690   4.127   4.084  12.109 -0.1286  0.2457 -0.7711
 3410SOL     OW21691   3.038   3.437   8.975  0.4754 -0.0724  0.1493
 3410SOL    HW121692   2.954   3.403   9.004  0.7158  0.2556  1.2097
 3410SOL    HW221693   3.101   3.373   9.008  2.6335  1.2421 -1.4018
 3411SOL     OW21694   2.441   2.047   1.229  0.0830  0.2923 -0.1733
 3411SOL    HW121695   2.438   2.131   1.275 -2.6167 -0.4277  0.9863
 3411SOL    HW221696   2.520   2.055   1.176 -0.6493 -1.3208 -1.5178
 3412SOL     OW21697   0.268   2.516   1.700 -0.3102  0.3277 -0.1602
 3412SOL    HW121698   0.181   2.556   1.698 -1.4152 -2.1000 -0.3135
 3412SOL    HW221699   0.238   2.425   1.707  1.6065 -0.2197  0.8151
 3413SOL     OW21700   0.672   1.260   7.119  0.1715  0.4821  0.3893
 3413SOL    HW121701   0.724   1.186   7.088 -0.2304  1.5322 -2.7685
 3413SOL    HW221702   0.738   1.327   7.104  1.1265 -0.5494 -0.0435
 3414SOL     OW21703   2.770   0.141   7.450 -0.5304 -0.3277 -0.1279
 3414SOL    HW121704   2.835   0.206   7.425 -0.7906 -0.5581 -1.3939
 3414SOL    HW221705   2.692   0.149   7.395  0.1661 -0.4210 -1.1302
 3415SOL     OW21706   3.801   1.514  15.232 -0.1403  0.5916 -0.5478
 3415SOL    HW121707   3.785   1.547  15.321  1.5374 -1.3605  0.4729
 3415SOL    HW221708   3.740   1.440  15.236 -0.7161  1.0811 -0.1638
 3416SOL     OW21709   0.332   1.386   2.270  0.1379  0.0985  0.3005
 3416SOL    HW121710   0.307   1.389   2.363  0.8979  0.9089  0.4796
 3416SOL    HW221711   0.424   1.411   2.264  0.3510 -0.6805  0.2967
 3417SOL     OW21712   2.643   3.156   1.952  0.3507  0.2169  0.6070
 3417SOL    HW121713   2.552   3.167   1.978  0.2362 -0.7113  0.6022
 3417SOL    HW221714   2.649   3.180   1.860  1.1617 -0.0245  0.5939
 3418SOL     OW21715   4.232   3.834   2.661 -0.2849  0.5749 -0.6246
 3418SOL    HW121716   4.181   3.914   2.646 -1.1562 -0.2500 -2.1754
 3418SOL    HW221717   4.162   3.796   2.714 -0.2856  0.6454 -0.5747
 3419SOL     OW21718   3.781   3.271  17.432 -0.0980 -0.3781  0.1152
 3419SOL    HW121719   3.688   3.267  17.457 -0.7545 -1.7829 -2.5156
 3419SOL    HW221720   3.806   3.179  17.434 -1.2946 -0.7473 -1.5293
 3420SOL     OW21721   3.909   4.396  14.101  0.3821 -0.8883  0.1633
 3420SOL    HW121722   3.903   4.476  14.153  1.0786 -0.5396 -0.3015
 3420SOL    HW221723   3.937   4.331  14.165  0.0590 -1.3228 -0.1314
 3421SOL     OW21724   3.400   0.620   9.292  0.2740 -0.2330 -0.2327
 3421SOL    HW121725   3.373   0.550   9.351  1.2275 -0.5296 -0.1501
 3421SOL    HW221726   3.482   0.581   9.261  0.0182  1.4766 -3.0977
 3422SOL     OW21727   3.133   1.638   4.713 -0.2325 -0.4951  0.0191
 3422SOL    HW121728   3.086   1.696   4.772  2.1123 -0.5727  1.9369
 3422SOL    HW221729   3.079   1.654   4.636  0.2551  1.2833  0.0432
 3423SOL     OW21730   4.542   2.998   6.026  0.0345 -0.1021  0.3542
 3423SOL    HW121731   4.597   2.983   5.949  1.8386 -0.2551  1.6783
 3423SOL    HW221732   4.601   3.026   6.096  0.1708  1.5624 -0.4207
 3424SOL     OW21733   1.346   0.273   4.695  0.4133  0.3329 -0.3246
 3424SOL    HW121734   1.329   0.185   4.663 -2.1332  0.3780  0.8983
 3424SOL    HW221735   1.438   0.265   4.720  0.2574  0.5198  0.3058
 3425SOL     OW21736   3.385   1.417   7.823 -0.3270  0.0775 -0.2483
 3425SOL    HW121737   3.431   1.485   7.872 -0.5459  0.7732 -1.0049
 3425SOL    HW221738   3.447   1.403   7.751 -0.8090 -1.3901 -0.3677
 3426SOL     OW21739   1.456   1.673   3.783  0.6909  0.2182 -0.0824
 3426SOL    HW121740   1.435   1.615   3.856 -0.4670  0.8735  0.0998
 3426SOL    HW221741   1.552   1.667   3.788  0.6839 -0.6056 -0.9756
 3427SOL     OW21742   3.281   4.183  15.083  0.0435  0.7001 -0.6293
 3427SOL    HW121743   3.281   4.096  15.123  1.5251  1.2142  0.4760
 3427SOL    HW221744   3.190   4.210  15.097  0.2290  0.2047  1.4709
 3428SOL     OW21745   0.354   0.640   2.295 -0.2610  0.0894 -0.6419
 3428SOL    HW121746   0.372   0.619   2.387  3.1018  0.2920 -1.2372
 3428SOL    HW221747   0.340   0.552   2.259 -0.5769 -0.2872  0.4195
 3429SOL     OW21748   3.912   0.793  10.954  0.5415 -0.7851 -0.3051
 3429SOL    HW121749   3.951   0.845  10.885 -0.7857  0.7425  0.0944
 3429SOL    HW221750   3.843   0.746  10.907  2.3141 -2.4239 -1.2562
 3430SOL     OW21751   4.699   3.054   1.981 -0.4307  0.2027  0.0879
 3430SOL    HW121752   4.649   3.125   2.019  0.9601  2.0829 -1.6091
 3430SOL    HW221753   0.068   3.077   2.005  0.6227 -2.3651 -1.2959
 3431SOL     OW21754   3.802   3.019  13.644  0.6446  0.0715 -0.5509
 3431SOL    HW121755   3.729   3.062  13.599 -0.1997 -0.7165  0.0618
 3431SOL    HW221756   3.862   3.016  13.570  0.3653  0.9046 -0.8046
 3432SOL     OW21757   3.619   3.126   8.583  0.3731  0.3800 -0.1335
 3432SOL    HW121758   3.710   3.109   8.561 -0.1387 -1.2830 -0.9413
 3432SOL    HW221759   3.612   3.114   8.678 -0.1961  0.5244 -0.1543
 3433SOL     OW21760   1.329   3.750   1.936  0.3695  1.0421 -0.3608
 3433SOL    HW121761   1.335   3.655   1.945  0.6395  1.1165  0.2699
 3433SOL    HW221762   1.316   3.775   2.028  0.2399  0.5710 -0.2521
 3434SOL     OW21763   3.471   0.961  13.694  0.2385  0.3551 -0.1522
 3434SOL    HW121764   3.441   0.961  13.603 -1.8303  0.2724  0.5430
 3434SOL    HW221765   3.415   1.030  13.730  0.5038  0.6109 -0.2195
 3435SOL     OW21766   0.015   1.787   2.248  0.0675 -0.5516  0.2156
 3435SOL    HW121767   4.648   1.791   2.210  0.9795 -1.3304 -1.9447
 3435SOL    HW221768   0.006   1.696   2.278 -5.3802 -0.1830 -0.3010
 3436SOL     OW21769   3.278   2.262   7.167 -0.3576 -0.1659  0.0178
 3436SOL    HW121770   3.211   2.248   7.234 -2.0998 -4.3224 -2.6648
 3436SOL    HW221771   3.352   2.300   7.214  0.9955  0.0099 -2.2587
 3437SOL     OW21772   2.462   3.333   9.272 -0.1506 -0.2961  0.4700
 3437SOL    HW121773   2.454   3.400   9.339  0.2853 -0.0012  0.2283
 3437SOL    HW221774   2.383   3.284   9.294  1.3085 -3.2031 -0.7718
 3438SOL     OW21775   3.886   2.900  13.883  0.0464  0.0698 -0.1332
 3438SOL    HW121776   3.864   2.952  13.805  2.4848 -1.0307 -1.5612
 3438SOL    HW221777   3.906   2.968  13.947  1.0768 -0.2552 -0.1135
 3439SOL     OW21778   2.449   1.151   5.595 -0.2756  0.0967 -0.2139
 3439SOL    HW121779   2.528   1.104   5.569 -0.7219 -1.2374  0.8325
 3439SOL    HW221780   2.378   1.112   5.544 -1.3907  0.8792  0.7398
 3440SOL     OW21781   2.735   0.590   4.501 -0.2600 -0.3152 -0.8978
 3440SOL    HW121782   2.817   0.557   4.540  1.0502  2.4961 -1.2835
 3440SOL    HW221783   2.778   0.630   4.425  1.1921 -0.0272  0.0692
 3441SOL     OW21784   4.647   3.531   5.759 -0.6996 -0.2578 -0.9596
 3441SOL    HW121785   4.670   3.489   5.841  2.7458  1.1713 -1.1956
 3441SOL    HW221786   4.601   3.611   5.783 -0.1240 -0.4598  0.7759
 3442SOL     OW21787   3.785   3.002   5.701 -0.0227 -0.3439  0.2284
 3442SOL    HW121788   3.854   2.976   5.762  0.9973 -0.4759 -0.9890
 3442SOL    HW221789   3.830   3.042   5.627 -1.1120 -0.0520 -0.2648
 3443SOL     OW21790   1.573   2.996   7.419  0.1842 -0.8030 -0.1397
 3443SOL    HW121791   1.659   3.016   7.382  0.0874  2.5313  1.4604
 3443SOL    HW221792   1.517   3.008   7.343 -0.4431  2.1160  0.7884
 3444SOL     OW21793   0.450   2.324  16.101  0.3321  0.1187 -0.7259
 3444SOL    HW121794   0.432   2.232  16.116  1.2297  0.0697  0.0088
 3444SOL    HW221795   0.364   2.346  16.063  0.3212  1.7371  0.2121
 3445SOL     OW21796   0.967   2.146   7.474 -0.2164  0.2453 -0.1733
 3445SOL    HW121797   0.909   2.080   7.436 -0.4928 -0.7166  1.8998
 3445SOL    HW221798   0.908   2.218   7.496 -0.3926 -0.3817  1.3976
 3446SOL     OW21799   3.337   0.104  16.694  0.3497  0.0620 -0.0884
 3446SOL    HW121800   3.399   0.068  16.631  0.6525  0.3733  0.0361
 3446SOL    HW221801   3.257   0.054  16.678  0.6008 -0.1461 -0.7108
 3447SOL     OW21802   1.315   1.200  15.460  0.8164  0.2905 -0.5249
 3447SOL    HW121803   1.298   1.187  15.366 -1.4981 -2.4786  0.2798
 3447SOL    HW221804   1.349   1.116  15.488 -1.9329 -0.2419  1.2618
 3448SOL     OW21805   1.564   0.595  14.707 -0.1335  0.5992  0.0867
 3448SOL    HW121806   1.611   0.678  14.693  0.2905  0.1205 -1.3901
 3448SOL    HW221807   1.593   0.555  14.625 -1.6949 -0.3839  0.0220
 3449SOL     OW21808   3.537   0.595   7.841  0.0642 -0.2690 -0.2692
 3449SOL    HW121809   3.611   0.627   7.893  0.1756  0.0173 -0.5989
 3449SOL    HW221810   3.580   0.541   7.775  0.1858 -1.8503  1.1094
 3450SOL     OW21811   2.910   1.278   4.019 -0.5364  0.3467 -0.0329
 3450SOL    HW121812   2.925   1.280   4.113  0.2562 -1.5154 -0.1246
 3450SOL    HW221813   2.895   1.372   4.008  0.2371  0.2064 -2.3397
 3451SOL     OW21814   4.018   3.821   2.271  0.0250 -0.5002 -0.5094
 3451SOL    HW121815   3.984   3.805   2.359 -2.4049  1.3872 -1.1248
 3451SOL    HW221816   4.022   3.730   2.241 -0.5755 -1.0010  0.9316
 3452SOL     OW21817   2.361   0.344   7.423  0.2384 -0.1111 -0.2071
 3452SOL    HW121818   2.433   0.297   7.381  0.8185 -0.5160  1.2407
 3452SOL    HW221819   2.327   0.403   7.355 -0.3413  1.8079  1.7418
 3453SOL     OW21820   0.992   4.300   4.407  0.2655  0.0751  0.3863
 3453SOL    HW121821   0.962   4.387   4.433  0.8392  0.3363  0.1764
 3453SOL    HW221822   1.017   4.272   4.495 -1.9148  1.9747  1.6106
 3454SOL     OW21823   0.508   2.248   7.225 -0.0349  0.0243  1.1642
 3454SOL    HW121824   0.431   2.297   7.197  0.7420  0.6290  0.0851
 3454SOL    HW221825   0.574   2.298   7.177 -0.2782 -0.7823 -0.0009
 3455SOL     OW21826   1.021   3.398   2.655  0.0822  0.7207 -0.2573
 3455SOL    HW121827   1.087   3.389   2.723  0.7369  2.6377 -0.6317
 3455SOL    HW221828   0.946   3.360   2.700  0.6774  1.2199  1.1575
 3456SOL     OW21829   3.290   3.984   9.679 -0.4866  0.4940  0.2041
 3456SOL    HW121830   3.203   3.984   9.638 -1.1930 -1.2905  1.7105
 3456SOL    HW221831   3.332   4.031   9.608  0.8916 -1.2994 -0.1490
 3457SOL     OW21832   3.475   0.338   5.277 -0.5099  0.0596  0.0838
 3457SOL    HW121833   3.463   0.310   5.368  1.5635  0.3474  0.4495
 3457SOL    HW221834   3.389   0.376   5.263  0.3177  1.3019 -1.6849
 3458SOL     OW21835   1.942   2.950   8.321 -0.0249 -0.4188 -0.2302
 3458SOL    HW121836   1.876   2.902   8.272 -0.4830  0.3624 -0.3903
 3458SOL    HW221837   1.988   2.996   8.251 -0.0423 -1.6321 -1.0338
 3459SOL     OW21838   1.903   2.473  12.553  0.1422 -0.6719  0.3069
 3459SOL    HW121839   1.830   2.454  12.494  0.5129  1.6031 -0.8666
 3459SOL    HW221840   1.866   2.536  12.616  1.9289 -0.1583  0.8426
 3460SOL     OW21841   3.856   2.852   4.499 -0.2064  0.2781 -0.1952
 3460SOL    HW121842   3.808   2.773   4.524  1.0693 -0.7965 -1.1369
 3460SOL    HW221843   3.935   2.839   4.552 -1.0648  0.5316  1.1646
 3461SOL     OW21844   3.628   0.338   6.760 -0.0910 -0.2385 -0.1070
 3461SOL    HW121845   3.694   0.400   6.790 -0.3476  0.2519 -0.5704
 3461SOL    HW221846   3.618   0.371   6.671  0.4227 -1.0620 -0.4747
 3462SOL     OW21847   4.664   0.478   2.709 -0.3286 -0.3261  0.5755
 3462SOL    HW121848   4.712   0.433   2.638  0.9104  0.5927  0.8279
 3462SOL    HW221849   4.575   0.480   2.674 -0.1766  0.6783  0.2338
 3463SOL     OW21850   0.515   3.398   6.053 -0.0524 -0.0350 -0.1367
 3463SOL    HW121851   0.562   3.481   6.058 -1.4942  0.9431 -2.9813
 3463SOL    HW221852   0.504   3.384   6.147 -1.8992  0.5121 -0.2731
 3464SOL     OW21853   1.960   0.636   9.123  0.4386  0.0883  0.1592
 3464SOL    HW121854   1.943   0.668   9.034  1.8134  3.3845  1.0832
 3464SOL    HW221855   2.055   0.625   9.116  0.3473  0.6308 -2.1151
 3465SOL     OW21856   3.866   1.790   1.847 -0.5978  0.0320 -0.6260
 3465SOL    HW121857   3.814   1.716   1.814  0.9710 -1.6670  0.7667
 3465SOL    HW221858   3.794   1.847   1.874 -1.2906 -1.5534  0.9074
 3466SOL     OW21859   1.915   1.210   1.447  0.0178 -0.0124 -0.6654
 3466SOL    HW121860   1.950   1.262   1.375  0.9529  0.4351  0.1159
 3466SOL    HW221861   1.951   1.125   1.423  1.4022  0.5501 -0.5543
 3467SOL     OW21862   2.586   2.352  10.177  0.0485  0.0704 -0.3342
 3467SOL    HW121863   2.531   2.289  10.131 -0.3357  0.6799 -0.7128
 3467SOL    HW221864   2.560   2.321  10.264 -2.0794  0.9273 -0.6545
 3468SOL     OW21865   0.068   2.972   4.972  0.3586  0.4659 -0.0712
 3468SOL    HW121866   4.703   2.944   4.940  1.4656 -0.8030 -1.9164
 3468SOL    HW221867   0.083   3.045   4.911 -0.4930  0.7845  0.0921
 3469SOL     OW21868   1.463   0.539   4.619  0.4534 -0.3446  0.1673
 3469SOL    HW121869   1.426   0.450   4.623  4.0004 -2.0153 -3.3296
 3469SOL    HW221870   1.387   0.586   4.653 -0.1362  0.2081 -1.9099
 3470SOL     OW21871   0.015   2.695   2.500 -0.5666 -0.1612 -0.6763
 3470SOL    HW121872   0.033   2.749   2.423  1.9882 -0.1298 -0.0471
 3470SOL    HW221873   0.081   2.626   2.496  0.6195  1.0303 -1.4932
 3471SOL     OW21874   3.213   4.262  10.323  0.2363 -0.2409  0.0647
 3471SOL    HW121875   3.308   4.270  10.318  0.0798  1.3881 -0.3683
 3471SOL    HW221876   3.201   4.247  10.416 -0.8154  1.8599  0.2744
 3472SOL     OW21877   4.013   3.669  15.992  0.1450 -0.3378  0.1575
 3472SOL    HW121878   4.056   3.597  15.945  0.2571  0.2949 -0.7278
 3472SOL    HW221879   4.013   3.749  15.939  3.5231  0.0810  0.7266
 3473SOL     OW21880   0.814   0.703   3.276  0.2003 -0.0110 -0.6930
 3473SOL    HW121881   0.849   0.666   3.195  0.9888 -0.3868 -0.1782
 3473SOL    HW221882   0.795   0.789   3.237  1.3872  0.8692  0.6272
 3474SOL     OW21883   3.755   0.823   1.720  0.0355  0.6615 -0.4709
 3474SOL    HW121884   3.694   0.754   1.697  0.9520 -0.0799 -0.6748
 3474SOL    HW221885   3.821   0.811   1.651 -0.2264  0.5745 -0.7023
 3475SOL     OW21886   3.744   0.244   8.359 -0.1801  0.2611 -0.6768
 3475SOL    HW121887   3.777   0.307   8.422  2.5575  0.2398 -2.0977
 3475SOL    HW221888   3.818   0.251   8.298  1.9981 -1.3790  1.7828
 3476SOL     OW21889   1.280   4.705   8.723  0.2301 -0.1865 -0.4239
 3476SOL    HW121890   1.293   0.072   8.686 -2.8617 -0.6790 -2.6444
 3476SOL    HW221891   1.354   4.665   8.678 -0.2391  0.0227 -1.3793
 3477SOL     OW21892   2.372   2.342   3.415  0.1247  0.0622  0.6762
 3477SOL    HW121893   2.463   2.325   3.442 -0.1528 -0.8764  1.0319
 3477SOL    HW221894   2.369   2.344   3.319 -0.3215 -0.4236  0.6793
 3478SOL     OW21895   1.548   3.904  10.741 -0.3342  0.3396  0.1003
 3478SOL    HW121896   1.578   3.970  10.679  1.2606  0.4757  1.0167
 3478SOL    HW221897   1.613   3.835  10.733  0.1216  0.7654  0.0959
 3479SOL     OW21898   0.145   1.092  10.738  0.4015  0.2810 -0.4290
 3479SOL    HW121899   0.113   1.180  10.758 -1.9309 -0.3639 -1.3323
 3479SOL    HW221900   0.069   1.053  10.694 -0.8471  0.6591  1.4277
 3480SOL     OW21901   1.465   3.497   3.945  0.3220  0.6057  0.5349
 3480SOL    HW121902   1.450   3.525   4.035 -1.3611 -0.0063  0.4483
 3480SOL    HW221903   1.380   3.536   3.922 -0.2107 -1.5569 -1.1770
 3481SOL     OW21904   3.022   4.346   3.466 -0.3337  0.1926 -0.8935
 3481SOL    HW121905   3.061   4.340   3.553  0.6368  0.1842 -1.3266
 3481SOL    HW221906   3.001   4.438   3.452  1.0944  0.4987 -0.9826
 3482SOL     OW21907   1.359   2.202   8.429  0.7192 -0.8894 -0.7605
 3482SOL    HW121908   1.354   2.148   8.507  0.2027 -0.5306 -0.5400
 3482SOL    HW221909   1.454   2.202   8.422  0.6975  2.1250 -1.0578
 3483SOL     OW21910   0.899   0.319   3.014 -0.2071  0.5616 -0.3978
 3483SOL    HW121911   0.928   0.326   3.105  2.5701 -1.8314 -1.1196
 3483SOL    HW221912   0.850   0.237   3.024 -0.8018  0.9384 -0.1858
 3484SOL     OW21913   3.277   1.108   2.507 -0.4274 -0.3028 -0.5698
 3484SOL    HW121914   3.336   1.038   2.533 -0.3434 -0.0234 -0.0036
 3484SOL    HW221915   3.338   1.144   2.443 -0.5402 -0.8317 -0.9684
 3485SOL     OW21916   0.476   0.264   6.255  0.6953 -0.4047  1.0169
 3485SOL    HW121917   0.543   0.313   6.208 -1.6055 -0.1715 -1.9916
 3485SOL    HW221918   0.417   0.332   6.285 -0.6365 -1.7350  1.4298
 3486SOL     OW21919   3.883   2.407  17.031  0.1387  0.1420  0.3743
 3486SOL    HW121920   3.869   2.313  17.040  1.0110 -0.2794 -2.5812
 3486SOL    HW221921   3.962   2.405  16.976  1.4859 -0.9213  2.3308
 3487SOL     OW21922   1.419   3.686   6.258 -0.5873 -0.4314  0.3998
 3487SOL    HW121923   1.353   3.660   6.322 -0.9232 -1.7585 -0.4789
 3487SOL    HW221924   1.418   3.781   6.269  1.6439 -0.0172 -2.7424
 3488SOL     OW21925   3.683   4.141   9.731 -0.6319 -0.2357 -0.4218
 3488SOL    HW121926   3.600   4.160   9.686 -0.0100 -0.3124 -1.5946
 3488SOL    HW221927   3.665   4.133   9.824 -1.3126  0.9028 -0.4549
 3489SOL     OW21928   2.082   3.772   2.806 -0.0376  0.0971 -0.1456
 3489SOL    HW121929   2.039   3.688   2.819  0.6042 -0.3776 -1.0650
 3489SOL    HW221930   2.167   3.742   2.772  0.3890  0.8143  0.2879
 3490SOL     OW21931   2.879   2.438   2.039  0.1092  0.3033  0.0047
 3490SOL    HW121932   2.784   2.440   2.028 -0.0879  0.0074  1.5654
 3490SOL    HW221933   2.894   2.348   2.068  0.2506  0.5811  0.8124
 3491SOL     OW21934   1.710   4.309   8.592 -0.3032 -0.5423  0.2205
 3491SOL    HW121935   1.760   4.275   8.517 -0.6590 -0.1402 -0.1946
 3491SOL    HW221936   1.634   4.252   8.582 -1.2520  0.9676 -1.1386
 3492SOL     OW21937   0.784   1.591   9.651 -0.2392 -0.2758 -0.0628
 3492SOL    HW121938   0.714   1.528   9.667  0.2012 -0.6094  0.5081
 3492SOL    HW221939   0.859   1.532   9.654  1.4446  1.7743 -1.3571
 3493SOL     OW21940   4.394   2.871   3.620 -0.4249  0.4575  0.1547
 3493SOL    HW121941   4.467   2.845   3.676 -0.4772 -1.0334 -0.4817
 3493SOL    HW221942   4.439   2.880   3.536  1.7687  1.4566  1.4182
 3494SOL     OW21943   3.953   3.801  17.548 -0.1044  0.0588 -0.3992
 3494SOL    HW121944   3.936   3.709  17.526 -0.5926  0.2025 -0.6371
 3494SOL    HW221945   3.864   3.837  17.547  0.6548  1.9687  0.7523
 3495SOL     OW21946   4.426   0.404   5.637 -0.0470 -0.2649  0.7765
 3495SOL    HW121947   4.447   0.471   5.572 -3.3086 -0.5407 -0.5920
 3495SOL    HW221948   4.344   0.377   5.596 -0.5362  2.1566  0.1441
 3496SOL     OW21949   2.567   1.386   8.002  0.0098  0.0962  0.0244
 3496SOL    HW121950   2.506   1.312   7.994 -2.7560  2.4919 -0.8143
 3496SOL    HW221951   2.573   1.417   7.912  0.8579 -0.8350 -0.2478
 3497SOL     OW21952   0.729   0.217   5.285 -0.0801 -0.0690  0.1111
 3497SOL    HW121953   0.743   0.299   5.333 -0.1481 -1.6988  2.9205
 3497SOL    HW221954   0.674   0.164   5.344  0.7208  0.6047  1.4737
 3498SOL     OW21955   2.761   1.693   6.428 -0.2516 -0.4830  0.1275
 3498SOL    HW121956   2.741   1.750   6.502  4.7198  1.5677 -0.1329
 3498SOL    HW221957   2.797   1.759   6.368 -0.8135  0.4357  0.7959
 3499SOL     OW21958   1.259   2.656   5.206  0.1185  0.5698 -0.0607
 3499SOL    HW121959   1.311   2.699   5.273  0.4257 -1.8944  1.2836
 3499SOL    HW221960   1.234   2.577   5.253  0.9754 -0.6246 -1.6060
 3500SOL     OW21961   3.923   3.326   8.352 -0.0519 -0.3126 -0.0347
 3500SOL    HW121962   3.859   3.395   8.331  0.6055  0.2947 -0.0168
 3500SOL    HW221963   3.932   3.342   8.446 -0.4139  0.6656 -0.1659
 3501SOL     OW21964   1.715   1.458   9.218  0.0035 -1.0568 -0.4580
 3501SOL    HW121965   1.633   1.476   9.172 -2.0242 -1.0807  3.1243
 3501SOL    HW221966   1.738   1.369   9.194  0.4119 -0.9610 -0.4090
 3502SOL     OW21967   2.097   0.276   3.029  0.5617  0.1851 -0.3491
 3502SOL    HW121968   2.179   0.270   2.978  1.5720 -0.2002  1.3208
 3502SOL    HW221969   2.131   0.296   3.116 -0.7361  0.6059  0.0475
 3503SOL     OW21970   2.850   2.298  14.097  0.0086 -0.6833 -1.0158
 3503SOL    HW121971   2.766   2.331  14.128  0.3841 -0.0480 -0.6849
 3503SOL    HW221972   2.827   2.222  14.043 -0.0940 -2.0874  0.9801
 3504SOL     OW21973   1.684   0.606  16.187  0.7801 -0.5355  0.2176
 3504SOL    HW121974   1.656   0.652  16.266  3.6872  0.2187  0.8036
 3504SOL    HW221975   1.613   0.598  16.124  1.5518  0.0262 -0.7312
 3505SOL     OW21976   2.089   3.738   7.311  0.2274 -0.1968 -0.1044
 3505SOL    HW121977   2.177   3.725   7.347  0.4578  3.3054  0.5312
 3505SOL    HW221978   2.089   3.657   7.259  1.9508  2.0304 -3.5845
 3506SOL     OW21979   2.878   3.464   2.396  0.0475 -0.1852  0.3755
 3506SOL    HW121980   2.953   3.523   2.407 -0.5013  0.3215  1.3102
 3506SOL    HW221981   2.813   3.521   2.355  2.7902  1.1963 -2.0599
 3507SOL     OW21982   3.322   2.187  15.098  0.0133 -0.5528  0.6029
 3507SOL    HW121983   3.334   2.092  15.095 -2.7227 -0.8654 -0.8008
 3507SOL    HW221984   3.228   2.192  15.118 -0.0510  2.4432 -0.3573
 3508SOL     OW21985   0.129   1.204   2.918  0.5071  0.0048 -0.0261
 3508SOL    HW121986   0.087   1.129   2.877 -1.5303  1.4186 -0.5356
 3508SOL    HW221987   0.216   1.167   2.934  0.3562  0.2220  1.3464
 3509SOL     OW21988   0.756   2.560   0.752 -0.0937  0.0002  0.4768
 3509SOL    HW121989   0.707   2.576   0.833  2.8412 -1.6543  2.5209
 3509SOL    HW221990   0.693   2.595   0.688 -0.1886 -1.3324 -0.1595
 3510SOL     OW21991   3.577   2.008   4.458  0.1085  0.2358  0.4339
 3510SOL    HW121992   3.600   2.011   4.365 -1.1279 -0.0905  0.1153
 3510SOL    HW221993   3.481   1.998   4.456  0.1027 -0.0501  1.7946
 3511SOL     OW21994   2.240   0.402   9.256 -0.1801 -0.5225 -0.6977
 3511SOL    HW121995   2.286   0.321   9.278 -0.9949 -0.5484  0.9758
 3511SOL    HW221996   2.148   0.374   9.263  0.4223 -2.0144  1.4584
 3512SOL     OW21997   2.682   2.319   4.045 -0.2779  0.7560 -0.4765
 3512SOL    HW121998   2.629   2.337   3.967  2.0529  0.5463 -2.1269
 3512SOL    HW221999   2.750   2.384   4.026 -0.4448  1.4552  1.2646
 3513SOL     OW22000   2.694   0.945  12.029  0.1159 -0.3237  1.1323
 3513SOL    HW122001   2.767   0.892  11.998 -0.7979 -0.9305 -0.0138
 3513SOL    HW222002   2.638   0.948  11.951  0.7317 -2.7038  0.6093
 3514SOL     OW22003   1.935   4.495   7.563 -0.8123 -0.0087  0.4373
 3514SOL    HW122004   1.873   4.507   7.491  1.3434  0.1943 -1.3637
 3514SOL    HW222005   2.012   4.461   7.517 -0.7329  1.2215 -0.3374
 3515SOL     OW22006   4.582   0.847   5.357 -0.1207 -0.0292 -0.0263
 3515SOL    HW122007   4.567   0.804   5.273 -0.0993 -0.4218  0.1727
 3515SOL    HW222008   4.614   0.935   5.335  0.1466  0.3382  1.7853
 3516SOL     OW22009   1.119   4.108  14.591 -0.3049  0.0777 -0.2510
 3516SOL    HW122010   1.159   4.077  14.510  1.5465  0.6519  0.4509
 3516SOL    HW222011   1.160   4.045  14.651 -0.4983  0.4342  0.2534
 3517SOL     OW22012   4.152   4.720   4.407  0.5189 -0.0645 -0.3295
 3517SOL    HW122013   4.184   0.027   4.321 -1.5516  2.0309 -0.4323
 3517SOL    HW222014   4.206   4.643   4.422  0.0137 -0.0541  1.4874
 3518SOL     OW22015   0.288   0.229   8.871 -0.5802  0.0942 -0.7146
 3518SOL    HW122016   0.348   0.246   8.944 -2.2042 -0.1416  0.6853
 3518SOL    HW222017   0.296   0.135   8.855 -0.7908  0.5242 -3.4006
 3519SOL     OW22018   1.997   2.702   6.972  0.0389  0.3589 -0.2547
 3519SOL    HW122019   1.981   2.610   6.991 -1.1358  0.4503 -0.7723
 3519SOL    HW222020   2.009   2.695   6.877 -0.2864  3.2409 -0.4991
 3520SOL     OW22021   2.750   3.790   8.630  0.0822 -0.1849  0.2504
 3520SOL    HW122022   2.715   3.702   8.615 -2.1596  0.6492  0.5038
 3520SOL    HW222023   2.821   3.780   8.566  1.1423  0.8016  1.2839
 3521SOL     OW22024   0.528   2.698   7.156 -0.2490  0.3437 -0.5259
 3521SOL    HW122025   0.556   2.637   7.224 -0.0209  1.2932  0.2344
 3521SOL    HW222026   0.446   2.662   7.120  0.1724 -0.5570 -0.5966
 3522SOL     OW22027   3.933   0.797   3.045 -0.8778 -0.3514 -0.3280
 3522SOL    HW122028   3.858   0.820   2.990 -1.0586 -0.8798 -0.3095
 3522SOL    HW222029   3.913   0.844   3.126  1.1114 -0.5418  0.2700
 3523SOL     OW22030   3.112   1.964   5.683  0.3090 -0.4604  0.1762
 3523SOL    HW122031   3.133   2.030   5.749  1.0230 -0.0971 -0.4200
 3523SOL    HW222032   3.059   1.904   5.734  0.3856 -2.0516 -1.6014
 3524SOL     OW22033   2.035   1.857   3.014  0.1683 -0.8511 -0.0230
 3524SOL    HW122034   2.069   1.791   2.953 -2.5024 -2.1182 -0.1418
 3524SOL    HW222035   1.976   1.811   3.073 -0.1479 -1.8423 -1.1076
 3525SOL     OW22036   1.363   3.196   6.585 -0.4917  0.6123  0.0917
 3525SOL    HW122037   1.305   3.139   6.636  0.2538  0.3563  0.6638
 3525SOL    HW222038   1.321   3.181   6.500 -0.2658  0.0583  0.0748
 3526SOL     OW22039   2.534   2.168   1.579 -0.3058  0.0981 -0.0270
 3526SOL    HW122040   2.616   2.129   1.611 -0.0758 -0.2667 -1.0532
 3526SOL    HW222041   2.466   2.116   1.621  0.9364 -0.9898  0.6523
 3527SOL     OW22042   2.304   3.069   3.494 -0.6756  0.0549  0.1722
 3527SOL    HW122043   2.337   3.149   3.454  0.3376  0.6168  2.1182
 3527SOL    HW222044   2.391   3.042   3.523 -0.4635 -0.2261 -0.7217
 3528SOL     OW22045   3.152   3.982  16.895  0.4076 -0.2713  0.2945
 3528SOL    HW122046   3.232   3.966  16.845  0.7829  0.3633  0.6864
 3528SOL    HW222047   3.083   3.925  16.861  1.3036 -0.1125 -1.8135
 3529SOL     OW22048   0.803   2.344   7.209 -0.2096  0.1501  0.4686
 3529SOL    HW122049   0.789   2.264   7.259 -0.3749 -1.1789 -1.6854
 3529SOL    HW222050   0.742   2.404   7.251 -0.7172  1.7549 -2.5316
 3530SOL     OW22051   0.181   4.718   4.693 -0.0885 -0.4259 -0.3408
 3530SOL    HW122052   0.146   4.644   4.743  2.1153 -2.2822 -1.4906
 3530SOL    HW222053   0.220   4.685   4.611  1.2588  0.0041  0.1253
 3531SOL     OW22054   4.490   2.207   3.911 -0.5848  0.3142 -0.1285
 3531SOL    HW122055   4.432   2.263   3.962  2.0763 -0.6296  3.9058
 3531SOL    HW222056   4.575   2.236   3.942  0.5921 -0.0260 -3.0331
 3532SOL     OW22057   2.154   0.258  15.992 -0.1981 -0.4395  0.1694
 3532SOL    HW122058   2.223   0.324  16.002  1.1574 -1.6340 -1.1562
 3532SOL    HW222059   2.174   0.184  16.050  3.2713  0.5685  0.2547
 3533SOL     OW22060   0.004   2.733   2.767  0.1204  0.2332 -0.5828
 3533SOL    HW122061   0.021   2.741   2.673 -1.1389 -0.3456 -0.8550
 3533SOL    HW222062   0.052   2.650   2.775 -1.5529 -0.3453  3.4865
 3534SOL     OW22063   2.806   1.086  14.304 -0.3642  0.0385  0.0822
 3534SOL    HW122064   2.833   1.047  14.387  2.7366  1.5257 -0.2416
 3534SOL    HW222065   2.888   1.103  14.258 -0.0710 -1.0090  0.2256
 3535SOL     OW22066   3.371   3.952  13.254  0.1235 -0.1231 -0.0970
 3535SOL    HW122067   3.427   4.025  13.279  0.4864 -0.1722 -0.7654
 3535SOL    HW222068   3.421   3.901  13.190 -0.6781 -0.0494 -0.7761
 3536SOL     OW22069   3.658   0.636   3.265  0.6614  0.1528 -0.0666
 3536SOL    HW122070   3.699   0.618   3.180 -2.1513 -0.0915 -1.3784
 3536SOL    HW222071   3.630   0.551   3.299  0.8395  0.4184  0.7387
 3537SOL     OW22072   3.181   2.648   1.667  0.5117 -0.2951 -0.0812
 3537SOL    HW122073   3.148   2.631   1.755  0.9686 -0.2030  0.1119
 3537SOL    HW222074   3.114   2.598   1.620  1.5240 -0.7679 -1.0219
 3538SOL     OW22075   3.120   1.380  14.443  0.3200  0.4902  0.1408
 3538SOL    HW122076   3.075   1.436  14.380 -0.0646  0.2838  0.2308
 3538SOL    HW222077   3.047   1.334  14.485  0.6020 -1.3600 -1.3998
 3539SOL     OW22078   1.153   4.373   2.666  0.4397 -0.0863 -0.5092
 3539SOL    HW122079   1.123   4.443   2.608  3.2148  0.8247 -0.8661
 3539SOL    HW222080   1.160   4.426   2.745 -0.2755 -0.5209 -0.1542
 3540SOL     OW22081   0.344   2.760   8.823  0.6743 -0.1912 -0.1999
 3540SOL    HW122082   0.282   2.725   8.759  0.6294  0.6193 -0.5980
 3540SOL    HW222083   0.382   2.827   8.767 -1.8039 -0.3999 -2.1581
 3541SOL     OW22084   0.042   1.522   6.555 -0.3795 -0.0835 -0.0223
 3541SOL    HW122085   0.044   1.581   6.630  3.0053 -0.6557  0.3599
 3541SOL    HW222086   0.086   1.578   6.490 -0.5833  1.2728  1.0190
 3542SOL     OW22087   4.283   2.718   7.056 -0.0940  0.6668 -0.4038
 3542SOL    HW122088   4.202   2.700   7.008 -0.2689 -0.3347  0.2861
 3542SOL    HW222089   4.322   2.790   7.006  0.1792 -0.5839 -1.9952
 3543SOL     OW22090   1.517   4.573  15.843 -0.2000  0.0690 -0.3603
 3543SOL    HW122091   1.493   4.544  15.755 -0.9857  0.7492 -0.3764
 3543SOL    HW222092   1.588   4.630  15.813 -2.0852  2.3533 -0.4517
 3544SOL     OW22093   3.700   0.086   4.741 -0.2124  0.1247  0.3696
 3544SOL    HW122094   3.682   0.069   4.834 -1.1700  1.9695  0.5045
 3544SOL    HW222095   3.733   0.001   4.712 -0.3186 -0.6164  2.3900
 3545SOL     OW22096   0.411   0.532   3.222 -0.0089 -0.1340 -0.2359
 3545SOL    HW122097   0.318   0.515   3.236 -0.1130 -0.2393 -1.0554
 3545SOL    HW222098   0.405   0.617   3.177 -0.5986  1.2980  2.5363
 3546SOL     OW22099   4.286   0.814   8.517 -0.7376 -0.1409  0.1960
 3546SOL    HW122100   4.279   0.909   8.529  0.6151 -0.2585  1.8958
 3546SOL    HW222101   4.371   0.801   8.560 -0.9647 -3.2661 -0.3662
 3547SOL     OW22102   3.342   1.672   0.569  0.2651  0.4759  0.4158
 3547SOL    HW122103   3.301   1.670   0.656 -0.7968 -0.1872 -0.1051
 3547SOL    HW222104   3.319   1.761   0.542 -0.0281  0.2230 -0.1619
 3548SOL     OW22105   0.031   4.122   3.755 -0.2869  0.2345 -0.1594
 3548SOL    HW122106   0.071   4.038   3.775  0.5175  0.4268 -0.9569
 3548SOL    HW222107   0.002   4.101   3.667 -0.4141  0.9792 -0.2991
 3549SOL     OW22108   1.821   2.226   4.592 -0.0519  0.3175  0.0287
 3549SOL    HW122109   1.748   2.259   4.644 -1.5644  1.0234 -2.5467
 3549SOL    HW222110   1.859   2.306   4.555 -0.6161  0.6642  0.1920
 3550SOL     OW22111   3.237   1.806   3.177 -0.1856  0.6391 -0.4417
 3550SOL    HW122112   3.319   1.791   3.130 -0.7469 -1.3632 -0.7672
 3550SOL    HW222113   3.206   1.883   3.130 -2.7108 -1.6780 -2.5988
 3551SOL     OW22114   0.658   0.779  11.947  0.2338  0.3142  0.6325
 3551SOL    HW122115   0.730   0.789  12.008  0.2047  0.3041  0.6685
 3551SOL    HW222116   0.679   0.828  11.867 -1.6708  0.7796  0.4049
 3552SOL     OW22117   4.377   0.555  17.400  0.2500 -0.6056 -0.2337
 3552SOL    HW122118   4.452   0.599  17.441  0.0374 -1.3560  0.9739
 3552SOL    HW222119   4.419   0.539  17.315  0.4535  0.1967 -0.2885
 3553SOL     OW22120   3.016   1.632  17.223  0.4661 -0.3061 -0.0652
 3553SOL    HW122121   3.099   1.615  17.268  0.1276  0.3253  0.7934
 3553SOL    HW222122   3.039   1.685  17.146  0.2659  0.5380  0.4599
 3554SOL     OW22123   2.490   2.255  14.525  0.1059  0.0672  0.1588
 3554SOL    HW122124   2.536   2.178  14.491  1.7157  0.5928  1.1372
 3554SOL    HW222125   2.567   2.312  14.531 -0.8257  0.9821  3.2671
 3555SOL     OW22126   1.857   4.298   2.955  0.1255 -0.1658 -0.0435
 3555SOL    HW122127   1.932   4.320   2.899  0.7693 -1.9563  0.1187
 3555SOL    HW222128   1.820   4.386   2.963 -2.0968 -1.1033 -0.0577
 3556SOL     OW22129   3.239   1.122   3.555  0.0995 -0.2641 -0.0533
 3556SOL    HW122130   3.168   1.073   3.596 -0.8292  1.7825  0.8082
 3556SOL    HW222131   3.188   1.149   3.478  0.9685 -0.3397 -0.6597
 3557SOL     OW22132   4.270   0.935   3.410  0.2939 -0.2695  0.2679
 3557SOL    HW122133   4.203   0.883   3.366 -0.4037  0.8587 -0.0048
 3557SOL    HW222134   4.215   0.997   3.458 -2.6059 -1.6400 -1.2692
 3558SOL     OW22135   3.396   0.643   6.696  0.2557  0.3280 -0.2588
 3558SOL    HW122136   3.339   0.713   6.729  2.1779  0.8085  2.0527
 3558SOL    HW222137   3.352   0.569   6.738  1.2306  0.5048  1.0578
 3559SOL     OW22138   4.196   1.519   1.691  0.5831  0.7520 -0.1715
 3559SOL    HW122139   4.223   1.539   1.601  2.7222  1.9820  0.7410
 3559SOL    HW222140   4.246   1.591   1.730  1.1147  0.9601 -1.2477
 3560SOL     OW22141   0.014   3.711  14.759 -0.0839  0.0370  0.4074
 3560SOL    HW122142   4.710   3.730  14.669  1.5945 -3.0290 -0.7082
 3560SOL    HW222143   0.108   3.693  14.752 -0.2416  0.4903 -2.8609
 3561SOL     OW22144   3.594   1.508   8.400  0.7983 -0.2371  0.0331
 3561SOL    HW122145   3.511   1.508   8.354  0.0143  2.4407  1.4372
 3561SOL    HW222146   3.572   1.560   8.477  2.4688 -1.6349  1.4678
 3562SOL     OW22147   2.131   2.456   2.775 -0.1241  0.4016 -0.2331
 3562SOL    HW122148   2.173   2.525   2.826 -1.4991  0.3019  1.0247
 3562SOL    HW222149   2.108   2.501   2.694 -1.1761  1.2509  0.5401
 3563SOL     OW22150   2.854   2.563   5.605  0.9148 -0.6697 -0.3872
 3563SOL    HW122151   2.858   2.592   5.696  2.0838 -0.8682 -0.3778
 3563SOL    HW222152   2.885   2.474   5.624 -1.3686 -1.6947 -1.4375
 3564SOL     OW22153   2.067   4.460   8.654  0.0407 -0.0044  0.3401
 3564SOL    HW122154   2.097   4.415   8.576 -0.4275 -0.0170  0.1687
 3564SOL    HW222155   1.987   4.499   8.620 -1.0028 -0.6386  2.0404
 3565SOL     OW22156   2.125   4.109  12.449  0.3466 -0.1802 -0.1619
 3565SOL    HW122157   2.099   4.200  12.456  2.5969  0.4567 -0.1435
 3565SOL    HW222158   2.164   4.098  12.536  0.5477 -1.0086 -0.3490
 3566SOL     OW22159   3.240   0.774  14.325  0.3054  0.1873  0.1174
 3566SOL    HW122160   3.275   0.842  14.384  1.1965 -1.5072  1.5412
 3566SOL    HW222161   3.299   0.785  14.250 -2.5770  3.3995 -1.6973
 3567SOL     OW22162   1.716   2.096   0.072 -0.4074 -0.3252  0.6877
 3567SOL    HW122163   1.642   2.146   0.037  1.1940  1.4852 -0.0698
 3567SOL    HW222164   1.712   2.097   0.168  1.6180  1.0522  0.7585
 3568SOL     OW22165   1.450   0.917   7.767 -0.1146 -0.3337 -0.7858
 3568SOL    HW122166   1.426   0.886   7.679  2.8367  0.4814 -1.8845
 3568SOL    HW222167   1.366   0.955   7.795 -0.1469 -0.0156 -1.3106
 3569SOL     OW22168   2.524   3.598   4.918 -0.5656 -0.7275 -0.4733
 3569SOL    HW122169   2.445   3.544   4.914 -0.6807 -0.6776  1.0035
 3569SOL    HW222170   2.497   3.677   4.964 -0.9384 -0.6951 -0.7505
 3570SOL     OW22171   4.523   0.661   1.223  0.0702  0.2478 -0.8425
 3570SOL    HW122172   4.583   0.665   1.149  0.6292  0.4682 -0.3792
 3570SOL    HW222173   4.472   0.739   1.201  1.1449  0.6065 -2.0814
 3571SOL     OW22174   1.987   1.075  10.708 -0.3020 -0.4744 -0.6398
 3571SOL    HW122175   1.932   1.142  10.669 -2.5019 -0.1038  3.0634
 3571SOL    HW222176   2.064   1.120  10.745 -0.1712 -0.1822 -1.2670
 3572SOL     OW22177   0.147   2.734   4.543 -0.4593 -0.4562 -0.1224
 3572SOL    HW122178   0.164   2.694   4.458  1.0607  1.2972 -0.6491
 3572SOL    HW222179   0.224   2.693   4.583 -0.6619  0.0505  0.7898
 3573SOL     OW22180   3.532   0.383   3.321 -0.4970 -0.3955  0.7224
 3573SOL    HW122181   3.463   0.321   3.343  0.9245 -2.0740  0.4198
 3573SOL    HW222182   3.585   0.328   3.264 -2.9314 -0.6740 -1.2720
 3574SOL     OW22183   0.135   4.650   1.950 -0.1897 -0.1479  0.0742
 3574SOL    HW122184   0.209   4.686   1.900 -0.3475  0.1694  0.0725
 3574SOL    HW222185   0.059   4.681   1.901 -0.3199 -1.1833 -0.3813
 3575SOL     OW22186   1.890   1.310   5.150 -0.0348  0.4013 -0.4903
 3575SOL    HW122187   1.805   1.270   5.136 -0.7279  2.2613 -1.6583
 3575SOL    HW222188   1.879   1.322   5.244  1.3868  1.3128 -0.4326
 3576SOL     OW22189   1.738   3.076   9.516  0.7617  0.0392 -0.0837
 3576SOL    HW122190   1.762   2.989   9.549  0.8167  0.6276  1.4078
 3576SOL    HW222191   1.752   3.125   9.597 -0.9627 -1.0323  0.8667
 3577SOL     OW22192   1.126   1.446   8.031  0.6918  0.1377 -0.1540
 3577SOL    HW122193   1.099   1.509   8.097  2.2788 -0.3607  0.9526
 3577SOL    HW222194   1.047   1.443   7.977  0.8451 -0.9882 -0.3206
 3578SOL     OW22195   1.491   0.849   4.748 -0.6474 -0.3671  0.1944
 3578SOL    HW122196   1.436   0.836   4.671  0.0151 -0.3834 -0.2795
 3578SOL    HW222197   1.573   0.808   4.720 -0.0442  1.2079 -0.3752
 3579SOL     OW22198   3.638   0.409   2.616 -0.1779 -0.2453  0.3626
 3579SOL    HW122199   3.565   0.347   2.622 -1.2467  0.8858 -1.0073
 3579SOL    HW222200   3.704   0.369   2.673  1.9076  0.9590 -1.2221
 3580SOL     OW22201   1.604   2.823   2.593 -0.5206 -1.0307  0.2600
 3580SOL    HW122202   1.606   2.826   2.497 -1.3694 -0.9468  0.2490
 3580SOL    HW222203   1.561   2.907   2.602  1.2399 -0.1363  0.2702
 3581SOL     OW22204   2.040   3.711   7.692 -0.0572  0.4785  0.1817
 3581SOL    HW122205   2.125   3.686   7.656  1.2740  1.4426  2.6633
 3581SOL    HW222206   2.044   3.804   7.670  0.3765  0.2659 -0.6252
 3582SOL     OW22207   3.488   0.465  10.925 -0.3316  0.1667 -0.0668
 3582SOL    HW122208   3.448   0.394  10.976 -2.3222  1.5057  0.2233
 3582SOL    HW222209   3.429   0.455  10.850  0.5598 -0.3731 -0.6998
 3583SOL     OW22210   3.079   2.651  17.072 -0.4391 -0.4334  0.8274
 3583SOL    HW122211   3.155   2.611  17.115  0.4676 -1.8991 -2.1452
 3583SOL    HW222212   3.028   2.572  17.054  0.5071 -0.6109 -1.1775
 3584SOL     OW22213   3.364   1.837   3.550  0.4470  0.3218  0.2608
 3584SOL    HW122214   3.383   1.744   3.557 -2.6173 -0.3101  0.5225
 3584SOL    HW222215   3.269   1.840   3.538  0.2665 -1.0143  1.3985
 3585SOL     OW22216   4.429   2.931  13.035  0.4484 -0.0905  0.0416
 3585SOL    HW122217   4.502   2.892  13.083  0.0615 -0.2451  0.5039
 3585SOL    HW222218   4.481   2.999  12.993  0.2846  1.0890  1.7499
 3586SOL     OW22219   4.406   0.004   5.932 -0.1056  0.0146  0.5357
 3586SOL    HW122220   4.474   0.060   5.971  2.3980 -0.9203 -2.5046
 3586SOL    HW222221   4.350   0.068   5.888 -1.5132 -0.8180  1.1262
 3587SOL     OW22222   4.006   3.355   5.769 -0.3816  0.1092 -0.1977
 3587SOL    HW122223   4.038   3.355   5.679  1.1135  0.2684  0.3288
 3587SOL    HW222224   4.022   3.446   5.794 -2.0030  0.2110  0.5139
 3588SOL     OW22225   4.279   2.902  10.178  0.2501 -0.3448 -0.8122
 3588SOL    HW122226   4.194   2.946  10.176  1.0380  1.1569 -1.3780
 3588SOL    HW222227   4.246   2.812  10.180 -0.4195 -0.1109 -1.0923
 3589SOL     OW22228   4.659   1.224   4.508 -0.5304  1.1769  0.1568
 3589SOL    HW122229   4.578   1.172   4.517  1.1368 -1.5307 -0.3462
 3589SOL    HW222230   4.640   1.262   4.422 -1.1278  0.4537 -0.0429
 3590SOL     OW22231   1.334   2.759  10.598 -0.0633  0.3202 -0.3433
 3590SOL    HW122232   1.318   2.817  10.672 -0.7707  1.8287 -1.6757
 3590SOL    HW222233   1.242   2.760  10.569  0.5315 -2.3011 -2.2934
 3591SOL     OW22234   4.526   4.691   8.602  0.5695  0.6283 -0.0519
 3591SOL    HW122235   4.582   0.047   8.591 -0.8899  1.5054 -1.3435
 3591SOL    HW222236   4.586   4.620   8.626  1.9991  1.4230 -1.2598
 3592SOL     OW22237   1.550   1.052   9.191  0.0872 -0.0803  0.2384
 3592SOL    HW122238   1.540   1.140   9.155  1.2976  0.5077  1.3384
 3592SOL    HW222239   1.623   1.021   9.138  0.0578 -1.8074  1.1990
 3593SOL     OW22240   1.646   0.060   2.671  0.2864  0.2411  0.1939
 3593SOL    HW122241   1.735   0.061   2.706 -0.0936  1.1537  1.1410
 3593SOL    HW222242   1.589   0.070   2.747  0.5692 -1.5437  0.6325
 3594SOL     OW22243   4.592   3.538   4.622  0.5684 -0.1913  0.0410
 3594SOL    HW122244   4.588   3.445   4.644 -0.6933 -0.4468 -1.2149
 3594SOL    HW222245   4.667   3.558   4.677  1.2912 -1.9853 -0.2823
 3595SOL     OW22246   0.801   3.382   5.242  0.2691  0.6366 -0.0603
 3595SOL    HW122247   0.758   3.378   5.328 -2.3916  2.1002 -1.3018
 3595SOL    HW222248   0.890   3.405   5.270  0.2114 -0.1291  0.7426
 3596SOL     OW22249   3.720   0.301   4.340 -0.4141 -0.0083  0.5375
 3596SOL    HW122250   3.702   0.278   4.431 -2.8041  1.4580  0.4372
 3596SOL    HW222251   3.746   0.392   4.356  0.6600  0.3143 -3.0561
 3597SOL     OW22252   0.454   1.248  16.390 -0.6896  0.0535  0.1068
 3597SOL    HW122253   0.433   1.293  16.309  0.0722  0.7768  0.3188
 3597SOL    HW222254   0.425   1.160  16.366 -1.2742 -0.6656  3.3824
 3598SOL     OW22255   0.291   1.464   4.165  0.1509 -0.2912  0.2206
 3598SOL    HW122256   0.305   1.371   4.184 -2.7034 -0.6833  0.2808
 3598SOL    HW222257   0.240   1.497   4.239  0.3317  1.2616 -0.3438
 3599SOL     OW22258   2.523   1.040   6.669  0.3666  0.0677  1.0050
 3599SOL    HW122259   2.570   1.101   6.726  0.3594 -0.3854  1.4958
 3599SOL    HW222260   2.592   0.975   6.660 -1.3095 -1.6457  0.4008
 3600SOL     OW22261   1.476   4.032   9.709  0.0307  0.2025  0.3886
 3600SOL    HW122262   1.491   4.050   9.802  0.4204 -2.0209  0.7437
 3600SOL    HW222263   1.515   3.945   9.709  0.6642  0.4819  1.7046
 3601SOL     OW22264   1.555   1.541   6.785 -0.4857 -0.9305  0.3401
 3601SOL    HW122265   1.469   1.556   6.822 -0.1228  0.0734  0.7709
 3601SOL    HW222266   1.603   1.561   6.865  0.5121 -0.7876 -0.2842
 3602SOL     OW22267   2.571   3.920   7.635  0.3627 -0.1977  0.6165
 3602SOL    HW122268   2.520   4.001   7.642 -0.0290 -0.5422  1.7472
 3602SOL    HW222269   2.540   3.863   7.706  3.0532  0.7230  2.5322
 3603SOL     OW22270   0.465   4.496   0.759  0.1127  0.6380  0.3983
 3603SOL    HW122271   0.475   4.479   0.665  1.2794 -0.1568  0.6640
 3603SOL    HW222272   0.389   4.555   0.760  1.3133  2.1620  1.4670
 3604SOL     OW22273   1.709   4.428  14.733  0.0649  0.3206  0.4345
 3604SOL    HW122274   1.644   4.398  14.796  0.3832 -1.6546 -0.1757
 3604SOL    HW222275   1.785   4.450  14.787  1.2106  0.5549 -1.2787
 3605SOL     OW22276   2.706   2.884   2.612 -0.2995 -0.3417  0.3765
 3605SOL    HW122277   2.626   2.878   2.663  0.9022  1.6946  2.4803
 3605SOL    HW222278   2.776   2.892   2.677  1.6800  2.5518 -2.1231
 3606SOL     OW22279   4.262   3.413   6.022 -0.4065  0.1603  0.1667
 3606SOL    HW122280   4.199   3.462   5.970 -0.7415  1.7548  2.0390
 3606SOL    HW222281   4.272   3.332   5.972  0.3983 -0.8169  1.9100
 3607SOL     OW22282   1.771   0.778   8.580  0.0479  0.6826  0.1459
 3607SOL    HW122283   1.694   0.802   8.528  0.2853 -0.8427 -0.9049
 3607SOL    HW222284   1.732   0.762   8.666  0.5266  0.6463  0.3551
 3608SOL     OW22285   1.624   1.351   9.450  0.0648 -0.5650 -0.1525
 3608SOL    HW122286   1.532   1.338   9.429 -0.0327  1.3803 -0.9341
 3608SOL    HW222287   1.656   1.392   9.370 -0.4734 -0.4159 -0.2923
 3609SOL     OW22288   2.309   4.120   2.343  0.1916  0.7934  0.3025
 3609SOL    HW122289   2.351   4.206   2.342 -0.8923  1.2852 -2.3089
 3609SOL    HW222290   2.252   4.122   2.267  1.7338 -0.2595 -0.8836
 3610SOL     OW22291   4.646   3.156  10.133  0.0152  0.0855  0.5616
 3610SOL    HW122292   4.694   3.236  10.152  0.0005  0.3615 -0.5777
 3610SOL    HW222293   4.569   3.179  10.186  0.1659  2.5923 -0.2968
 3611SOL     OW22294   2.934   1.149   6.568 -0.1833  0.0461 -0.1110
 3611SOL    HW122295   3.021   1.151   6.529 -0.5121  1.6541 -0.7287
 3611SOL    HW222296   2.892   1.074   6.524  0.5757 -0.7740  0.5578
 3612SOL     OW22297   1.122   1.436  14.640 -0.0354 -0.1152 -0.3461
 3612SOL    HW122298   1.213   1.464  14.635  0.5152 -2.0535 -1.3698
 3612SOL    HW222299   1.117   1.369  14.571 -0.1944 -1.6841  1.1755
 3613SOL     OW22300   1.188   1.752   6.336  0.4012 -0.2592 -0.0325
 3613SOL    HW122301   1.265   1.708   6.300  1.1637  1.3177 -0.3119
 3613SOL    HW222302   1.179   1.817   6.266 -0.2028 -1.1073 -0.7388
 3614SOL     OW22303   0.813   1.356   7.397  0.0596 -0.0161 -0.2659
 3614SOL    HW122304   0.736   1.343   7.453  0.7275 -1.4433  0.3389
 3614SOL    HW222305   0.792   1.436   7.349  1.9133 -0.4779 -1.8702
 3615SOL     OW22306   1.397   1.433   3.358  0.5066  0.4152 -0.3238
 3615SOL    HW122307   1.353   1.490   3.421 -1.9918 -2.4823  0.5402
 3615SOL    HW222308   1.383   1.492   3.283 -0.3475  1.9325  1.0339
 3616SOL     OW22309   3.982   4.601  10.066 -0.1809 -0.1105 -0.0657
 3616SOL    HW122310   3.931   4.520  10.069 -1.0066  0.4440  0.4770
 3616SOL    HW222311   3.914   4.663  10.041 -0.4439 -1.0860 -1.7538
 3617SOL     OW22312   0.201   0.545   7.105 -0.0335 -0.3746  0.7372
 3617SOL    HW122313   0.130   0.600   7.072  1.0854  0.8579  0.3699
 3617SOL    HW222314   0.254   0.614   7.146 -1.6800  1.5126 -0.3220
 3618SOL     OW22315   2.052   0.833  13.396 -0.5707 -0.6297  0.2633
 3618SOL    HW122316   2.054   0.922  13.362 -0.1506 -0.3539  1.0067
 3618SOL    HW222317   2.115   0.785  13.341  0.4318 -0.8111  1.5630
 3619SOL     OW22318   4.374   2.121   3.566 -0.0796 -0.2033 -0.0541
 3619SOL    HW122319   4.285   2.097   3.589  0.4098  0.3138  2.3593
 3619SOL    HW222320   4.388   2.214   3.583 -0.2199  0.4369 -3.3447
 3620SOL     OW22321   0.090   1.818   9.157  0.0592  0.5337 -0.6245
 3620SOL    HW122322   0.108   1.803   9.064  0.4934 -1.4370 -0.2266
 3620SOL    HW222323   0.053   1.905   9.143  1.0683  0.6636 -2.4839
 3621SOL     OW22324   2.855   4.334  16.550 -0.6478  0.1920 -0.4297
 3621SOL    HW122325   2.833   4.422  16.517  0.7626  0.8717  0.4356
 3621SOL    HW222326   2.947   4.324  16.526 -0.1629  0.2915  1.3930
 3622SOL     OW22327   3.941   0.679   8.789 -0.0296  0.3653  0.0960
 3622SOL    HW122328   4.029   0.697   8.822  0.3520  0.7190 -1.0870
 3622SOL    HW222329   3.945   0.712   8.699  1.6045 -1.1192 -0.3893
 3623SOL     OW22330   4.265   4.042   5.406  0.6746  0.3490 -0.3755
 3623SOL    HW122331   4.287   3.977   5.339  0.2810  0.8909 -1.0274
 3623SOL    HW222332   4.264   4.117   5.346  0.0295  0.4525 -0.2348
 3624SOL     OW22333   1.275   2.780   3.795  0.2966 -0.9207 -0.3066
 3624SOL    HW122334   1.332   2.724   3.847 -1.2316 -0.9860  1.2942
 3624SOL    HW222335   1.188   2.741   3.805  0.0799  0.1481  1.9534
 3625SOL     OW22336   3.961   2.150   7.048  0.2548  0.0575  0.2902
 3625SOL    HW122337   4.005   2.125   6.967 -2.5747  0.4743 -1.3696
 3625SOL    HW222338   3.901   2.076   7.045 -1.4183  1.4650 -1.2069
 3626SOL     OW22339   3.276   2.835   7.075  0.3161  0.2128 -0.5998
 3626SOL    HW122340   3.239   2.846   7.163  4.6263 -1.0778  1.3458
 3626SOL    HW222341   3.369   2.828   7.097 -0.0596 -2.0407  0.2430
 3627SOL     OW22342   2.384   1.185   8.081 -0.1936 -0.5613 -1.0021
 3627SOL    HW122343   2.389   1.167   7.988  0.1355  0.7003 -1.2271
 3627SOL    HW222344   2.320   1.257   8.081 -0.1917 -0.5541  1.6396
 3628SOL     OW22345   0.030   0.979  11.222  0.4215  0.3034  0.2293
 3628SOL    HW122346   0.016   1.062  11.268  0.7949 -0.2519  1.3454
 3628SOL    HW222347   0.019   0.908  11.285 -0.9309 -0.0971 -0.4635
 3629SOL     OW22348   3.955   3.156  10.506 -0.0146  0.0707  0.1415
 3629SOL    HW122349   3.913   3.180  10.424  0.7582 -0.3332 -0.3799
 3629SOL    HW222350   3.917   3.070  10.524  2.2774 -0.7506  1.1458
 3630SOL     OW22351   2.297   0.308   6.901  0.0107  0.4196  0.1512
 3630SOL    HW122352   2.369   0.245   6.907 -0.6265 -0.3162  0.1476
 3630SOL    HW222353   2.332   0.392   6.929 -1.1524  1.1399 -0.5505
 3631SOL     OW22354   2.156   1.989   4.815  0.5486  0.7383 -0.0723
 3631SOL    HW122355   2.075   2.038   4.824  0.9969  1.2536  1.0891
 3631SOL    HW222356   2.136   1.905   4.773  2.2407  0.8618 -1.1345
 3632SOL     OW22357   2.754   2.287  10.851  0.0478  0.2793 -0.5862
 3632SOL    HW122358   2.799   2.299  10.767 -0.8151  0.5324 -1.0121
 3632SOL    HW222359   2.820   2.252  10.910 -0.2621 -0.3095 -0.5923
 3633SOL     OW22360   0.486   0.746   5.246  0.2576  0.2582 -0.4698
 3633SOL    HW122361   0.517   0.693   5.319 -0.4536 -1.0755 -1.1334
 3633SOL    HW222362   0.397   0.715   5.229 -0.1544  1.1076  0.1313
 3634SOL     OW22363   3.865   3.273   4.150  1.1181  0.4144 -0.1946
 3634SOL    HW122364   3.856   3.334   4.076  1.4065 -1.7608 -2.0468
 3634SOL    HW222365   3.812   3.199   4.121 -1.2347  1.8339  0.4728
 3635SOL     OW22366   3.689   3.135   2.693 -0.2610  0.6941  0.1459
 3635SOL    HW122367   3.702   3.042   2.673 -0.8741  0.4537  0.8765
 3635SOL    HW222368   3.704   3.134   2.787  0.9256 -1.2051 -0.0450
 3636SOL     OW22369   0.685   1.283   4.879  0.2604  0.1139  0.4113
 3636SOL    HW122370   0.709   1.192   4.898  0.7218  0.2758  0.5907
 3636SOL    HW222371   0.747   1.305   4.809  2.6002 -0.2124  2.4021
 3637SOL     OW22372   2.605   0.468  13.103 -0.2824 -0.1435 -0.5275
 3637SOL    HW122373   2.587   0.394  13.161 -0.3921  0.3444  0.0520
 3637SOL    HW222374   2.545   0.458  13.030  0.7810  2.2684 -1.7359
 3638SOL     OW22375   0.940   1.099   5.599  0.0661 -0.7951 -0.1978
 3638SOL    HW122376   0.858   1.057   5.577  0.1948 -2.8026  3.2556
 3638SOL    HW222377   0.920   1.193   5.593  1.2079 -0.6168 -1.4288
 3639SOL     OW22378   1.489   0.100  11.357  0.0894 -0.5405 -0.1304
 3639SOL    HW122379   1.509   0.027  11.299  0.1904 -1.1295  0.6567
 3639SOL    HW222380   1.502   0.056  11.441  0.0218 -1.0190 -0.3703
 3640SOL     OW22381   1.869   4.167   6.556 -0.1296 -0.1957  0.4718
 3640SOL    HW122382   1.794   4.225   6.545 -0.3452 -0.0141  2.8407
 3640SOL    HW222383   1.840   4.102   6.621 -0.4495  0.4426  0.9669
 3641SOL     OW22384   0.984   3.684  11.773  0.3594  0.0654  0.2288
 3641SOL    HW122385   1.011   3.659  11.862  0.0891 -1.8554 -0.2385
 3641SOL    HW222386   1.038   3.611  11.743  2.6253  1.9181 -0.1762
 3642SOL     OW22387   2.904   2.586  11.368  0.3884  0.3179 -0.3094
 3642SOL    HW122388   2.940   2.607  11.281 -3.0426  1.2496 -1.5044
 3642SOL    HW222389   2.972   2.528  11.402 -1.3612 -1.4051  0.2355
 3643SOL     OW22390   3.469   2.322  16.264 -0.5767 -0.2777 -0.2161
 3643SOL    HW122391   3.450   2.413  16.241 -0.0705 -0.0184  0.3945
 3643SOL    HW222392   3.554   2.313  16.221 -1.7139  0.8152 -2.7449
 3644SOL     OW22393   1.478   4.460   2.816  0.5878  0.4274  0.4722
 3644SOL    HW122394   1.516   4.487   2.733  0.5129  1.9833  0.9530
 3644SOL    HW222395   1.547   4.484   2.878  0.1049  0.7901  0.8668
 3645SOL     OW22396   3.804   1.010   8.116  0.2847  0.3342  0.2741
 3645SOL    HW122397   3.848   0.931   8.084  2.2527  2.8834 -3.2663
 3645SOL    HW222398   3.816   1.000   8.211 -0.9366 -2.5050  0.1434
 3646SOL     OW22399   2.339   3.441   8.919  0.0409  0.1533 -0.4483
 3646SOL    HW122400   2.351   3.464   8.827  1.0194 -0.2217 -0.4091
 3646SOL    HW222401   2.346   3.528   8.958 -0.0334 -0.3140  0.6130
 3647SOL     OW22402   3.048   4.592   1.837 -0.4402 -0.2702 -0.2697
 3647SOL    HW122403   3.061   4.499   1.817  1.4442  0.5407 -2.7275
 3647SOL    HW222404   3.077   4.604   1.927 -0.8096  0.6374 -0.2740
 3648SOL     OW22405   1.396   2.219   5.000 -0.0361 -0.6851 -0.2765
 3648SOL    HW122406   1.401   2.315   5.004 -0.1941 -0.6300 -1.5384
 3648SOL    HW222407   1.388   2.184   5.089  0.7423 -1.0500 -0.3571
 3649SOL     OW22408   2.552   0.862   6.260  0.1577 -0.2648 -0.3263
 3649SOL    HW122409   2.567   0.790   6.199 -1.4929  0.2365 -1.3434
 3649SOL    HW222410   2.485   0.818   6.311  1.9801  0.3786  2.5959
 3650SOL     OW22411   0.188   4.396   7.888 -0.1833  0.0816  0.1535
 3650SOL    HW122412   0.155   4.392   7.977 -1.5473  1.2404 -0.3062
 3650SOL    HW222413   0.260   4.459   7.892 -0.4133  0.4876 -1.8284
 3651SOL     OW22414   1.573   3.697   3.374 -0.0883 -0.6026 -0.3483
 3651SOL    HW122415   1.562   3.641   3.451  0.1786  0.8500  0.7298
 3651SOL    HW222416   1.570   3.785   3.411 -1.4260 -0.7029 -0.2095
 3652SOL     OW22417   3.725   3.264   4.571 -0.6305  0.1149 -0.2593
 3652SOL    HW122418   3.681   3.216   4.500  0.0228 -0.7209 -0.0867
 3652SOL    HW222419   3.760   3.195   4.627  0.4751  1.3142  0.5082
 3653SOL     OW22420   1.544   0.356   8.258 -0.2393 -0.3597  0.5092
 3653SOL    HW122421   1.493   0.353   8.176  1.1288 -0.3579 -0.3438
 3653SOL    HW222422   1.605   0.286   8.236  0.3739  1.1242 -2.5572
 3654SOL     OW22423   3.231   1.890  17.233 -0.6507  0.1371  0.0276
 3654SOL    HW122424   3.195   1.863  17.148  2.1406 -0.9136 -0.8481
 3654SOL    HW222425   3.274   1.810  17.262  0.0720  0.5747  0.1726
 3655SOL     OW22426   1.040   1.795  17.145 -0.5380  0.3139  0.2599
 3655SOL    HW122427   1.025   1.726  17.210 -1.2755  0.6974  0.4921
 3655SOL    HW222428   1.014   1.745  17.068  0.6193  0.6307 -0.3415
 3656SOL     OW22429   2.109   2.784   4.058  0.0253  0.3560  0.2663
 3656SOL    HW122430   2.130   2.704   4.010  2.0185  0.7218  0.5197
 3656SOL    HW222431   2.152   2.850   4.004  1.5213  0.9685  2.1969
 3657SOL     OW22432   1.514   2.696   4.630  0.1084  0.0046 -0.2176
 3657SOL    HW122433   1.555   2.774   4.666  0.1514 -0.3370  0.4849
 3657SOL    HW222434   1.492   2.728   4.543  2.0715  0.0401 -0.6897
 3658SOL     OW22435   1.597   2.548   3.948  0.3609 -0.6339 -0.1765
 3658SOL    HW122436   1.663   2.615   3.928 -2.5591  1.3944 -3.0480
 3658SOL    HW222437   1.646   2.467   3.963  0.2367 -0.7163 -0.2130
 3659SOL     OW22438   1.916   0.042   2.709 -0.5447 -0.1925  0.3869
 3659SOL    HW122439   1.922   0.136   2.693  0.7315  0.1948  3.1802
 3659SOL    HW222440   1.968   0.024   2.630 -0.5449  1.1624  0.0775
 3660SOL     OW22441   2.855   3.151   3.546 -0.4515 -0.2243 -0.0261
 3660SOL    HW122442   2.911   3.075   3.529  0.1857  0.2807 -0.1879
 3660SOL    HW222443   2.880   3.183   3.633 -0.4373  1.1948 -0.5559
 3661SOL     OW22444   3.078   2.908  11.692  0.0157  0.2915  0.6682
 3661SOL    HW122445   3.124   2.825  11.680 -0.0902  0.4883 -1.1195
 3661SOL    HW222446   3.062   2.931  11.601  1.0527 -1.2068  0.0932
 3662SOL     OW22447   2.023   4.594   3.269  0.7075 -0.1606  0.0290
 3662SOL    HW122448   2.089   4.657   3.240 -0.0030 -0.6001 -2.5396
 3662SOL    HW222449   1.951   4.609   3.208  0.7434  0.3034  0.0998
 3663SOL     OW22450   4.468   0.450   3.384  0.2574 -0.1005  0.5585
 3663SOL    HW122451   4.416   0.443   3.464 -0.7280  1.1768  0.0318
 3663SOL    HW222452   4.522   0.527   3.405  1.7970 -1.2893  0.9219
 3664SOL     OW22453   0.363   1.145   3.052  0.1457  0.2356  0.1370
 3664SOL    HW122454   0.411   1.090   2.991 -1.6009 -0.4140 -0.6445
 3664SOL    HW222455   0.403   1.102   3.128 -2.3507  0.0678  1.3321
 3665SOL     OW22456   1.281   2.960   9.366 -0.1673  0.1226  0.3001
 3665SOL    HW122457   1.366   3.002   9.381  0.1761  0.3400 -2.3633
 3665SOL    HW222458   1.276   2.975   9.272  1.1487  0.8584  0.3334
 3666SOL     OW22459   3.268   0.348  11.621 -0.4823 -0.0104 -0.1369
 3666SOL    HW122460   3.293   0.293  11.696  1.4693  0.8889 -0.1218
 3666SOL    HW222461   3.309   0.305  11.546 -0.6546 -0.4959  0.0420
 3667SOL     OW22462   4.329   4.715   3.741 -0.2875  0.3631 -0.5133
 3667SOL    HW122463   4.349   4.632   3.698 -2.0535 -0.0876 -0.4715
 3667SOL    HW222464   4.249   4.693   3.789 -0.4715  2.1939  0.0197
 3668SOL     OW22465   1.004   2.976   7.803  0.1483 -0.2768 -0.3655
 3668SOL    HW122466   1.040   3.039   7.741  0.4958 -0.1114  0.0081
 3668SOL    HW222467   1.070   2.908   7.793  0.1072 -0.4200  0.3447
 3669SOL     OW22468   1.526   1.378   6.024 -0.3730 -0.0017 -0.7120
 3669SOL    HW122469   1.563   1.345   6.106  0.0263 -0.3676 -1.0434
 3669SOL    HW222470   1.614   1.391   5.989 -0.6316  0.6200 -1.1363
 3670SOL     OW22471   4.666   4.250   5.715  0.2466  0.2111 -0.3718
 3670SOL    HW122472   4.595   4.191   5.690 -0.8116  1.4327 -0.2391
 3670SOL    HW222473   4.631   4.337   5.696  0.6586  0.3020 -0.7161
 3671SOL     OW22474   1.307   0.807  16.411  0.1498 -0.0079  0.2236
 3671SOL    HW122475   1.286   0.889  16.456 -2.3622 -0.3604 -0.2835
 3671SOL    HW222476   1.265   0.823  16.326 -2.3069  0.9700  1.6156
 3672SOL     OW22477   3.452   1.434   3.190  0.2866  0.1154 -0.1682
 3672SOL    HW122478   3.379   1.490   3.217  1.7900  2.2816 -0.6255
 3672SOL    HW222479   3.408   1.353   3.163  0.1773 -0.8841  2.9563
 3673SOL     OW22480   3.865   4.624   8.278 -0.5435 -0.2448  0.1095
 3673SOL    HW122481   3.868   4.589   8.367  1.1645 -3.0335 -1.0796
 3673SOL    HW222482   3.887   4.716   8.293 -0.0818 -0.4594  0.7465
 3674SOL     OW22483   0.396   0.937   7.372  0.0192  0.2168 -0.4783
 3674SOL    HW122484   0.409   0.921   7.465  1.0724 -0.5024 -0.7551
 3674SOL    HW222485   0.489   0.944   7.352 -0.1357  0.9288 -0.9670
 3675SOL     OW22486   0.833   2.651  14.993  0.3940  0.0757  0.2090
 3675SOL    HW122487   0.873   2.570  14.961 -0.2219  0.2959 -1.0972
 3675SOL    HW222488   0.740   2.631  14.990  0.6136 -0.5098 -2.7456
 3676SOL     OW22489   0.543   3.020   0.327  0.3877  0.6678  0.5420
 3676SOL    HW122490   0.577   3.058   0.246  2.3179  1.2072  1.6128
 3676SOL    HW222491   0.457   2.997   0.292  0.5442  0.0827  0.5440
 3677SOL     OW22492   3.424   1.419   6.177 -0.2865  0.4157 -0.5565
 3677SOL    HW122493   3.413   1.507   6.213  0.1382  0.1019  0.3307
 3677SOL    HW222494   3.343   1.375   6.203  0.3154  0.4647  1.3617
 3678SOL     OW22495   1.559   2.387   3.060 -0.0273 -0.3462  0.3962
 3678SOL    HW122496   1.629   2.447   3.086  0.4337  0.0920 -1.8900
 3678SOL    HW222497   1.603   2.309   3.094  1.3500 -0.0525 -0.7168
 3679SOL     OW22498   2.585   0.264   7.833 -0.1686  0.1112 -0.8838
 3679SOL    HW122499   2.514   0.211   7.869 -0.0138  0.5719  0.0873
 3679SOL    HW222500   2.556   0.274   7.742  0.6002 -1.1372 -1.2677
 3680SOL     OW22501   1.417   1.709   5.337 -0.0614 -0.2127 -0.0029
 3680SOL    HW122502   1.509   1.714   5.311  0.0077 -1.9889 -0.0863
 3680SOL    HW222503   1.391   1.618   5.347 -1.1802  0.1773  0.6516
 3681SOL     OW22504   4.158   0.007   8.797 -0.1991  0.1286  0.0951
 3681SOL    HW122505   4.148   0.101   8.807 -2.0751 -0.0980  0.2342
 3681SOL    HW222506   4.136   4.704   8.887  1.8844  0.3889  0.6665
 3682SOL     OW22507   0.140   2.856   1.727 -0.0785 -0.1716 -0.2273
 3682SOL    HW122508   0.129   2.814   1.812  0.8462  0.9257  0.4520
 3682SOL    HW222509   0.086   2.798   1.675 -1.7143  0.3189  0.9325
 3683SOL     OW22510   1.468   3.870   6.811  0.1519 -0.0430 -0.3711
 3683SOL    HW122511   1.561   3.889   6.799 -0.0964  1.0084 -0.6551
 3683SOL    HW222512   1.466   3.775   6.800 -0.8554 -0.3466  2.2222
 3684SOL     OW22513   3.304   3.656  10.619 -0.0663 -0.1891  0.1269
 3684SOL    HW122514   3.268   3.743  10.606 -1.9364 -0.9662  0.1513
 3684SOL    HW222515   3.357   3.669  10.699  4.1612  0.0480 -2.7056
 3685SOL     OW22516   3.004   3.095  10.191  0.5209 -0.2529 -0.1387
 3685SOL    HW122517   3.052   3.176  10.174  1.3571 -0.9177 -0.9589
 3685SOL    HW222518   2.915   3.127  10.206  1.5716  1.0169  3.3493
 3686SOL     OW22519   4.438   4.300  10.615 -0.4015  0.3760  0.3886
 3686SOL    HW122520   4.473   4.297  10.526 -1.6716  0.1593 -0.1064
 3686SOL    HW222521   4.344   4.312  10.600  0.2039  0.8005 -3.0410
 3687SOL     OW22522   2.377   4.703   1.978  0.5977 -0.1536 -0.1208
 3687SOL    HW122523   2.389   0.077   1.971 -0.2852  0.0204  0.7460
 3687SOL    HW222524   2.348   4.672   1.891 -1.4632  0.9266  0.1837
 3688SOL     OW22525   0.063   4.106   2.015 -0.3641 -0.0500 -0.1812
 3688SOL    HW122526   0.114   4.095   2.095  0.9135 -0.2864 -1.0395
 3688SOL    HW222527   0.054   4.200   2.006  0.2408  0.1663  1.4525
 3689SOL     OW22528   1.553   4.461  17.623  0.1205  0.1594 -0.3730
 3689SOL    HW122529   1.643   4.488  17.640  0.1956  1.0606 -2.1469
 3689SOL    HW222530   1.519   4.463   0.027 -0.1540 -0.8756 -0.4544
 3690SOL     OW22531   2.501   3.637  16.762  0.0095 -0.0447  0.2991
 3690SOL    HW122532   2.466   3.562  16.809  0.0891  0.4333  1.1224
 3690SOL    HW222533   2.487   3.613  16.671 -1.6674  2.1397 -0.0214
 3691SOL     OW22534   1.732   4.467   8.325  0.1368 -0.1419  0.1410
 3691SOL    HW122535   1.652   4.425   8.294  0.1814  1.9188 -2.8102
 3691SOL    HW222536   1.715   4.461   8.419 -2.3816 -1.3776 -0.3716
 3692SOL     OW22537   3.605   4.508  16.258 -0.6617 -0.2055  0.1192
 3692SOL    HW122538   3.681   4.457  16.287 -0.5411  1.5461  2.9253
 3692SOL    HW222539   3.561   4.450  16.196 -0.3888 -1.3383  0.9715
 3693SOL     OW22540   1.945   0.783   8.248  0.3559 -0.1561  0.0199
 3693SOL    HW122541   1.930   0.716   8.315 -2.2596 -1.0085 -1.4116
 3693SOL    HW222542   1.986   0.853   8.298  0.2463  1.2480 -1.8503
 3694SOL     OW22543   1.774   1.051   2.113  0.1975 -0.7764  0.2975
 3694SOL    HW122544   1.722   1.128   2.089  1.9065  0.0232 -0.8436
 3694SOL    HW222545   1.826   1.084   2.186  1.5883  0.9330 -1.4516
 3695SOL     OW22546   1.026   3.871  13.727  0.1565  0.2804 -0.4677
 3695SOL    HW122547   0.974   3.935  13.776  1.4859 -1.0004  2.6257
 3695SOL    HW222548   0.966   3.835  13.662  0.6370  1.1367 -1.3814
 3696SOL     OW22549   2.749   2.349   8.496 -0.2993 -0.2292  0.3840
 3696SOL    HW122550   2.689   2.314   8.561  0.1052  0.9022  1.3664
 3696SOL    HW222551   2.801   2.406   8.552 -2.1023  0.9343  0.8478
 3697SOL     OW22552   3.827   2.929   6.662 -0.1092  0.2853 -0.0523
 3697SOL    HW122553   3.848   3.014   6.702  0.5120  0.2193 -0.2398
 3697SOL    HW222554   3.918   2.902   6.648  0.4222  1.0590  1.9730
 3698SOL     OW22555   4.666   2.879  10.215  0.2811 -0.1952  0.0069
 3698SOL    HW122556   4.597   2.816  10.192 -0.3948  1.4599 -2.5099
 3698SOL    HW222557   4.614   2.960  10.212  1.0694  0.3580  1.5593
 3699SOL     OW22558   0.903   4.167   4.180 -0.4534 -0.1832  0.2321
 3699SOL    HW122559   0.940   4.214   4.255 -0.3435  0.3648 -0.1696
 3699SOL    HW222560   0.984   4.134   4.142 -0.2639 -1.5599  1.8476
 3700SOL     OW22561   0.636   2.558  13.902 -0.2727  0.5561 -0.0169
 3700SOL    HW122562   0.664   2.643  13.869  0.2625  0.3376 -0.1282
 3700SOL    HW222563   0.544   2.575  13.920 -0.7932  0.0887 -2.2688
 3701SOL     OW22564   3.491   2.107   3.255  0.2478  0.2440  0.1724
 3701SOL    HW122565   3.494   2.078   3.163  0.9811  2.6417 -0.5425
 3701SOL    HW222566   3.439   2.187   3.251 -0.7872 -0.4899 -1.0378
 3702SOL     OW22567   1.565   4.003   6.489 -0.6909  0.0929  0.1077
 3702SOL    HW122568   1.596   3.915   6.509 -2.1876 -0.8934 -1.9697
 3702SOL    HW222569   1.625   4.029   6.419  0.6740  2.3858  2.0844
 3703SOL     OW22570   1.444   0.884   0.050  0.2017  0.4756  0.4588
 3703SOL    HW122571   1.477   0.906   0.137  1.8415 -1.3235  0.2885
 3703SOL    HW222572   1.418   0.970   0.018  2.2110  0.2809 -1.6945
 3704SOL     OW22573   1.615   3.514   7.943 -0.9412  0.1838 -0.5868
 3704SOL    HW122574   1.639   3.422   7.946  1.8616  0.9469  0.2662
 3704SOL    HW222575   1.529   3.504   7.903 -1.3112  1.6218 -0.1744
 3705SOL     OW22576   3.651   3.438  16.739 -0.1946 -0.3740  0.1593
 3705SOL    HW122577   3.564   3.443  16.779  0.5091 -0.1480  1.6749
 3705SOL    HW222578   3.669   3.528  16.711 -3.0255  0.6216  1.5349
 3706SOL     OW22579   0.399   0.602   2.570 -0.6774 -0.0894 -0.5514
 3706SOL    HW122580   0.468   0.550   2.611 -1.3523  0.0378  0.7428
 3706SOL    HW222581   0.383   0.672   2.633  1.4380 -0.2620  0.1603
 3707SOL     OW22582   3.025   0.344   8.121 -0.0055 -0.0241  0.0529
 3707SOL    HW122583   3.079   0.422   8.133  0.2236 -0.4863  1.9970
 3707SOL    HW222584   3.067   0.288   8.186  1.0808  0.8527  0.1136
 3708SOL     OW22585   2.948   3.716   2.922  0.2296  0.4491  0.4607
 3708SOL    HW122586   2.935   3.696   3.015 -0.4525  0.3293  0.3400
 3708SOL    HW222587   2.991   3.801   2.935 -2.1441  1.4855  1.5206
 3709SOL     OW22588   3.465   4.508   2.819 -0.1584  0.5670 -0.1522
 3709SOL    HW122589   3.418   4.591   2.818  0.4805  0.9562  1.6510
 3709SOL    HW222590   3.531   4.540   2.759 -0.3487  0.5891 -0.3510
 3710SOL     OW22591   1.710   1.852  13.431  0.0127  0.1924  0.3081
 3710SOL    HW122592   1.656   1.774  13.422  0.5966 -0.1024 -0.6678
 3710SOL    HW222593   1.767   1.860  13.355  3.1282  0.2686  2.6523
 3711SOL     OW22594   2.977   0.033   6.907 -0.0847  0.0748 -0.1734
 3711SOL    HW122595   3.030   0.006   6.832 -0.1820 -1.1080  0.1874
 3711SOL    HW222596   2.937   0.107   6.861  1.2375 -0.5628 -2.3766
 3712SOL     OW22597   4.440   3.072   1.444 -0.2945 -0.5099 -0.4059
 3712SOL    HW122598   4.365   3.090   1.387  0.8300 -2.4181 -2.4952
 3712SOL    HW222599   4.470   3.161   1.465  0.6900 -0.9796  0.1373
 3713SOL     OW22600   3.492   2.216  11.888  0.3316 -0.6151  0.4675
 3713SOL    HW122601   3.570   2.215  11.833  1.4284  0.1494  1.9983
 3713SOL    HW222602   3.500   2.282  11.957  2.8024  0.0695 -0.4625
 3714SOL     OW22603   2.149   4.681   9.467  0.3657 -0.0491  0.3405
 3714SOL    HW122604   2.114   0.001   9.546  0.7471  0.6468  0.1516
 3714SOL    HW222605   2.169   4.595   9.503 -0.4648 -0.0156  0.8846
 3715SOL     OW22606   1.893   0.280   8.008  0.0120  0.2846 -0.1431
 3715SOL    HW122607   1.824   0.275   8.073 -0.7722 -2.0416 -1.1249
 3715SOL    HW222608   1.860   0.210   7.950  2.4147 -1.5371  0.6915
 3716SOL     OW22609   2.650   4.174   4.603 -0.0481  0.3674 -0.3626
 3716SOL    HW122610   2.677   4.250   4.654 -0.9370 -0.0620  0.7390
 3716SOL    HW222611   2.555   4.165   4.610  0.0010 -1.2904 -1.6160
 3717SOL     OW22612   1.067   4.332   5.856  0.2513 -0.2340 -0.0580
 3717SOL    HW122613   0.976   4.358   5.842  1.0365  1.7568 -1.4748
 3717SOL    HW222614   1.063   4.256   5.798  0.4562 -0.7248  0.5748
 3718SOL     OW22615   1.777   3.360  10.368  0.2769  0.1367 -0.5511
 3718SOL    HW122616   1.734   3.438  10.402 -1.2410 -0.4664 -1.0957
 3718SOL    HW222617   1.871   3.380  10.374  0.7588 -2.4088  0.3037
 3719SOL     OW22618   2.069   1.221   2.006 -0.4935  0.1163  0.2138
 3719SOL    HW122619   2.107   1.133   2.013 -0.2062  0.2339  0.1179
 3719SOL    HW222620   2.057   1.239   1.913 -1.4204  0.4894  0.4116
 3720SOL     OW22621   2.643   0.267   5.525  0.4915 -0.4889 -0.0896
 3720SOL    HW122622   2.668   0.175   5.534  0.4387 -0.5895 -0.9628
 3720SOL    HW222623   2.602   0.272   5.611 -0.3836 -0.9512 -0.4733
 3721SOL     OW22624   0.270   0.751   3.099 -0.0707 -0.0121  0.5207
 3721SOL    HW122625   0.333   0.811   3.059  0.9842 -1.5690 -0.1378
 3721SOL    HW222626   0.235   0.799   3.174 -0.5117  1.0909 -0.4034
 3722SOL     OW22627   2.830   4.503  17.499  0.4105 -0.4589 -0.2061
 3722SOL    HW122628   2.920   4.521  17.470  0.4832  3.3324  2.4402
 3722SOL    HW222629   2.842   4.507  17.594 -0.1482  3.2459 -0.2915
 3723SOL     OW22630   2.206   0.815   6.087  0.3826  0.2846  0.4508
 3723SOL    HW122631   2.120   0.850   6.110  1.0167  2.4640 -0.5943
 3723SOL    HW222632   2.238   0.788   6.173  0.5615  1.5240  0.7634
 3724SOL     OW22633   1.009   2.430   2.551  0.0500 -0.4664  0.0062
 3724SOL    HW122634   0.980   2.518   2.529  1.5509 -0.4889 -2.0555
 3724SOL    HW222635   1.020   2.439   2.645  1.6236 -0.9659 -0.1375
 3725SOL     OW22636   2.710   0.656  13.852  0.4371  0.7934  0.4304
 3725SOL    HW122637   2.678   0.746  13.866 -4.5751 -1.1524  1.3913
 3725SOL    HW222638   2.627   0.612  13.870  0.8471 -0.5124 -0.9373
 3726SOL     OW22639   1.603   2.072  12.988 -0.3648  0.3575  0.0068
 3726SOL    HW122640   1.511   2.097  12.985 -1.2640 -2.7694  2.9491
 3726SOL    HW222641   1.613   2.019  12.909 -0.1360  0.4147 -0.0037
 3727SOL     OW22642   3.441   0.357   4.244  0.5814  0.3209  0.1544
 3727SOL    HW122643   3.402   0.443   4.229  0.7517  0.2098 -0.9343
 3727SOL    HW222644   3.528   0.373   4.208  0.3300  4.6578  1.5507
 3728SOL     OW22645   0.247   2.565   8.635  0.3257  0.0802  0.0536
 3728SOL    HW122646   0.178   2.554   8.569 -0.1555 -1.4578  0.8141
 3728SOL    HW222647   0.191   2.537   8.708  1.5135  0.9451  1.2808
 3729SOL     OW22648   2.513   3.094   7.674  0.2599 -0.0592  0.3582
 3729SOL    HW122649   2.537   3.109   7.583 -0.5242 -0.0976  0.1532
 3729SOL    HW222650   2.588   3.139   7.714 -0.0935  1.6661 -0.9231
 3730SOL     OW22651   2.720   0.754   5.821  0.1384  0.0198  0.6597
 3730SOL    HW122652   2.751   0.669   5.790 -0.2258 -0.4589  1.6122
 3730SOL    HW222653   2.763   0.803   5.751  1.9120  1.7509  2.9485
 3731SOL     OW22654   1.075   1.147   1.895 -0.6746  0.5079  0.1042
 3731SOL    HW122655   1.102   1.238   1.884  0.3735  0.0745 -0.9214
 3731SOL    HW222656   1.143   1.133   1.961 -1.2841  2.6322  1.1842
 3732SOL     OW22657   2.396   1.827  16.303  0.4196  0.5298 -0.2504
 3732SOL    HW122658   2.442   1.745  16.322 -0.0594  0.0020 -1.3576
 3732SOL    HW222659   2.436   1.891  16.362 -2.1858  1.1349  0.8589
 3733SOL     OW22660   4.345   0.546  10.829  0.0640 -0.1631 -0.3717
 3733SOL    HW122661   4.263   0.500  10.812 -0.2036  0.3121 -0.3471
 3733SOL    HW222662   4.379   0.485  10.894 -0.2582  0.1426  0.0843
 3734SOL     OW22663   3.905   3.439   3.942 -0.8538 -0.5596 -0.2478
 3734SOL    HW122664   3.967   3.506   3.973 -0.7582 -0.4252 -0.7218
 3734SOL    HW222665   3.839   3.500   3.908 -1.6682 -0.3445  1.7633
 3735SOL     OW22666   4.425   3.635   6.163 -0.0006  0.1625 -0.3529
 3735SOL    HW122667   4.417   3.546   6.129 -1.6975  1.3113 -2.9948
 3735SOL    HW222668   4.520   3.636   6.168 -0.1601  0.0778  2.7529
 3736SOL     OW22669   0.661   1.338   9.719 -0.4845  0.0146  0.5762
 3736SOL    HW122670   0.644   1.367   9.809 -1.0146  1.5374 -0.0337
 3736SOL    HW222671   0.741   1.292   9.745 -1.0830  0.0937  2.6029
 3737SOL     OW22672   2.537   0.167  16.418  0.3848  0.0862  0.8030
 3737SOL    HW122673   2.556   0.196  16.507  0.7647 -1.6842  1.2923
 3737SOL    HW222674   2.449   0.132  16.425  0.1419  0.6198  0.3781
 3738SOL     OW22675   3.386   3.636   1.130 -0.5985 -0.2780 -0.1622
 3738SOL    HW122676   3.346   3.655   1.215  0.5436  0.9131  0.1073
 3738SOL    HW222677   3.306   3.619   1.080 -0.6548 -0.7193  0.0756
 3739SOL     OW22678   0.257   3.104   6.974 -0.7328  0.2377  0.3167
 3739SOL    HW122679   0.285   3.161   7.045 -0.6591  0.9231 -0.2683
 3739SOL    HW222680   0.210   3.039   7.026 -1.6418 -1.2591 -2.3526
 3740SOL     OW22681   0.029   3.881   3.934  0.2005 -0.4870  0.4732
 3740SOL    HW122682   0.085   3.815   3.974 -1.9092 -1.5505  1.6247
 3740SOL    HW222683   4.716   3.829   3.862 -0.5679  0.0729  0.4275
 3741SOL     OW22684   0.455   1.305  12.180  0.1093  0.7844  0.2502
 3741SOL    HW122685   0.413   1.245  12.243 -1.8948  2.2647  0.3234
 3741SOL    HW222686   0.546   1.303  12.211  0.0777  0.0470  0.3071
 3742SOL     OW22687   1.860   3.583   8.490  0.1412 -0.0335 -0.0629
 3742SOL    HW122688   1.892   3.630   8.568  0.2003  1.9605 -1.2780
 3742SOL    HW222689   1.806   3.520   8.538 -0.8237  0.5429 -0.3783
 3743SOL     OW22690   1.882   4.241  17.288 -0.4271 -0.1202  0.0894
 3743SOL    HW122691   1.863   4.310  17.225  4.0012  1.1650  0.1705
 3743SOL    HW222692   1.906   4.170  17.228 -0.9805  0.8239 -1.2555
 3744SOL     OW22693   3.401   3.077   7.201 -0.1628 -0.0692 -0.6622
 3744SOL    HW122694   3.345   3.095   7.125 -1.8401  2.2520  1.1346
 3744SOL    HW222695   3.478   3.023   7.179 -0.0790 -0.3084  0.2307
 3745SOL     OW22696   1.861   2.779   4.802 -0.2673 -0.0228 -0.4316
 3745SOL    HW122697   1.772   2.785   4.768  0.1408 -0.9844 -1.6578
 3745SOL    HW222698   1.908   2.858   4.775 -0.4452 -0.8392 -3.1314
 3746SOL     OW22699   1.832   3.155   9.759  0.0652  0.2199  0.5792
 3746SOL    HW122700   1.912   3.120   9.796  1.8762  1.6341 -1.9730
 3746SOL    HW222701   1.790   3.195   9.835 -0.6026 -0.8219  0.7642
 3747SOL     OW22702   4.184   3.732   2.966  0.4620 -0.2281 -0.5844
 3747SOL    HW122703   4.247   3.661   2.968 -0.2595 -0.8066  1.1864
 3747SOL    HW222704   4.117   3.693   2.910 -1.1188  0.7635  0.5951
 3748SOL     OW22705   3.123   2.340   2.387  0.2154  0.2832  0.1896
 3748SOL    HW122706   3.191   2.405   2.406  1.4226 -0.3231 -1.9785
 3748SOL    HW222707   3.155   2.261   2.430 -0.2956  0.9396  1.7688
 3749SOL     OW22708   3.262   4.611   6.962 -0.5678  0.3626  0.1584
 3749SOL    HW122709   3.269   4.595   7.056 -2.7938 -1.6131 -0.0109
 3749SOL    HW222710   3.180   4.572   6.931 -0.2394 -1.8412  2.1320
 3750SOL     OW22711   4.591   1.782   3.972  0.2298  0.8432 -0.3964
 3750SOL    HW122712   4.554   1.854   3.921 -1.0623  0.5770  0.1839
 3750SOL    HW222713   4.590   1.712   3.906  0.2999  0.0023  0.4978
 3751SOL     OW22714   1.775   3.388   5.537 -0.3214 -0.0601 -0.2348
 3751SOL    HW122715   1.686   3.394   5.504 -0.7170 -0.7918  0.6974
 3751SOL    HW222716   1.765   3.320   5.603 -0.7558 -0.0746 -0.3184
 3752SOL     OW22717   4.265   3.629  16.307 -0.1596 -0.6392 -0.2352
 3752SOL    HW122718   4.225   3.543  16.297 -2.4136  0.6024 -1.6853
 3752SOL    HW222719   4.301   3.633  16.396 -1.1042  1.2452  0.0696
 3753SOL     OW22720   2.582   2.581   7.915  0.2895  0.0642  0.0184
 3753SOL    HW122721   2.587   2.641   7.841  1.0167  0.4543  0.3849
 3753SOL    HW222722   2.541   2.639   7.979  2.7426  0.9066  0.8097
 3754SOL     OW22723   1.636   0.247  11.168 -0.3473  0.1778 -0.5879
 3754SOL    HW122724   1.601   0.233  11.256 -1.2206  0.9699 -0.8099
 3754SOL    HW222725   1.691   0.325  11.177  0.0627 -0.0338 -1.2081
 3755SOL     OW22726   0.373   4.599  11.927 -0.3916  0.4441 -0.0345
 3755SOL    HW122727   0.381   4.533  11.857 -0.4003 -1.1193  1.4349
 3755SOL    HW222728   0.436   4.668  11.907 -2.2467  1.8543 -0.9793
 3756SOL     OW22729   2.411   2.517  13.553 -0.1209 -0.1990  0.3509
 3756SOL    HW122730   2.385   2.608  13.541 -3.9144 -1.2629  0.5712
 3756SOL    HW222731   2.325   2.476  13.555 -0.1291 -0.1753  0.4710
 3757SOL     OW22732   1.110   1.114   6.050 -0.4642  0.0774  0.0318
 3757SOL    HW122733   1.080   1.202   6.028  1.6685  0.6844 -0.4677
 3757SOL    HW222734   1.199   1.126   6.085 -0.1566 -2.7103  0.2321
 3758SOL     OW22735   0.679   3.009   7.719 -0.0950  0.0953  0.3441
 3758SOL    HW122736   0.605   2.965   7.677 -0.2941 -0.3679  1.1838
 3758SOL    HW222737   0.680   2.974   7.808 -1.5200 -0.1781  0.2448
 3759SOL     OW22738   0.663   4.279  16.247 -0.2685  0.3431  0.1659
 3759SOL    HW122739   0.591   4.277  16.310 -0.4153  1.1071  0.0316
 3759SOL    HW222740   0.725   4.325  16.304 -0.3660  0.5772  0.0836
 3760SOL     OW22741   1.683   1.384   1.580 -0.3902 -0.0451  0.1355
 3760SOL    HW122742   1.639   1.385   1.495 -0.8722  0.0891  0.3859
 3760SOL    HW222743   1.733   1.465   1.569  1.8964 -1.2175  1.9307
 3761SOL     OW22744   2.864   2.967   9.394  0.1540  1.0574 -0.0334
 3761SOL    HW122745   2.793   2.965   9.458 -0.1891  2.3774 -0.3639
 3761SOL    HW222746   2.858   3.058   9.364  0.9817  0.4329 -2.0724
 3762SOL     OW22747   3.536   4.683   4.924  0.0963  0.0361  0.2086
 3762SOL    HW122748   3.478   4.627   4.872 -0.7597 -0.6121  1.8515
 3762SOL    HW222749   3.474   0.013   4.977  0.9574 -1.1076  2.3248
 3763SOL     OW22750   1.078   4.645   7.663 -0.0823  0.5248  0.0298
 3763SOL    HW122751   1.144   4.582   7.631 -1.1806 -0.3273 -0.5649
 3763SOL    HW222752   1.122   0.005   7.689  0.9409  0.5586 -1.8138
 3764SOL     OW22753   3.133   2.558   7.496  0.1085  0.1363 -0.2084
 3764SOL    HW122754   3.218   2.591   7.466  0.0486 -0.2229 -0.7777
 3764SOL    HW222755   3.128   2.590   7.586 -2.0711  1.5461 -0.8211
 3765SOL     OW22756   0.070   0.987   4.060 -0.0450 -0.5768 -0.4512
 3765SOL    HW122757   0.018   1.016   3.985  0.7700 -1.9177 -1.5340
 3765SOL    HW222758   0.154   1.002   4.017 -0.7110  0.0450 -1.5119
 3766SOL     OW22759   1.587   1.409   3.632 -0.0710  0.1570 -0.6775
 3766SOL    HW122760   1.609   1.377   3.544  1.1728 -1.4870  0.2277
 3766SOL    HW222761   1.493   1.426   3.636  0.1511  0.9660  0.9967
 3767SOL     OW22762   3.965   3.124   4.832  0.1321  0.0954  0.1246
 3767SOL    HW122763   4.045   3.140   4.781 -0.0885  2.0610  0.4199
 3767SOL    HW222764   3.957   3.206   4.880  2.2901 -0.3995  1.3612
 3768SOL     OW22765   1.746   1.022   8.967 -0.5015  0.0036 -0.4063
 3768SOL    HW122766   1.837   1.051   8.967 -0.5802  0.2307  0.4476
 3768SOL    HW222767   1.760   0.928   8.980  1.4445 -0.0460 -2.8159
 3769SOL     OW22768   0.060   4.467   0.781  0.1537 -0.3618  0.3267
 3769SOL    HW122769   0.078   4.391   0.725 -1.0789  0.0437 -0.6301
 3769SOL    HW222770   0.124   4.531   0.750  0.1411 -0.8995 -0.8197
 3770SOL     OW22771   3.088   4.420   6.879 -0.8510  0.4080 -0.2748
 3770SOL    HW122772   3.123   4.440   6.792  2.4540 -0.0212  0.9847
 3770SOL    HW222773   3.082   4.325   6.871 -0.2295  0.2927  0.7231
 3771SOL     OW22774   2.516   3.849   6.991  0.0539 -0.2084  0.2805
 3771SOL    HW122775   2.549   3.895   6.914  2.5821  0.1594  1.5883
 3771SOL    HW222776   2.508   3.921   7.054 -0.0637 -0.5600  0.6685
 3772SOL     OW22777   0.857   0.214   9.766  0.0850 -0.0162 -0.3408
 3772SOL    HW122778   0.948   0.205   9.738  0.8812  1.5026  1.7542
 3772SOL    HW222779   0.827   0.123   9.765  1.3276 -0.4332  0.7755
 3773SOL     OW22780   0.425   3.302   6.329  0.7054  0.4309 -0.4321
 3773SOL    HW122781   0.504   3.310   6.383 -0.0987 -0.4274  0.8558
 3773SOL    HW222782   0.390   3.221   6.364  0.2103  0.9965  0.3885
 3774SOL     OW22783   2.499   4.647   4.438  0.0993 -0.1592  0.3274
 3774SOL    HW122784   2.537   4.560   4.443 -0.0616 -0.1537  1.4966
 3774SOL    HW222785   2.568   4.705   4.469  0.2751 -0.1242 -0.1212
 3775SOL     OW22786   2.497   4.640   8.860 -0.6956  0.5239  0.4756
 3775SOL    HW122787   2.416   4.630   8.810 -1.4861  0.7125  1.7083
 3775SOL    HW222788   2.464   4.661   8.948  1.8528  0.9489  1.3347
 3776SOL     OW22789   3.187   2.837   7.353  0.7602  0.5834 -0.6363
 3776SOL    HW122790   3.233   2.753   7.355 -1.1126 -0.3916  1.1311
 3776SOL    HW222791   3.114   2.812   7.410  1.6316 -0.2571  0.1020
 3777SOL     OW22792   4.704   0.301   1.259  0.6649  0.0115  0.3540
 3777SOL    HW122793   0.035   0.268   1.332  0.1928  1.7010  1.4615
 3777SOL    HW222794   4.668   0.213   1.248  0.3734 -0.1062  2.2001
 3778SOL     OW22795   0.029   2.463   5.961 -0.4780  0.5540  0.5763
 3778SOL    HW122796   0.088   2.538   5.960 -0.0798  0.2566  1.4839
 3778SOL    HW222797   4.677   2.487   5.903  0.2339 -1.5159 -1.1810
 3779SOL     OW22798   4.349   3.975   5.946 -0.2150  1.1027 -0.3384
 3779SOL    HW122799   4.400   4.054   5.928  1.9603 -0.1333  0.3082
 3779SOL    HW222800   4.259   4.005   5.957  0.1493  1.8034  0.7359
 3780SOL     OW22801   3.026   1.529   7.911 -0.1404  0.1605  0.2454
 3780SOL    HW122802   3.086   1.555   7.841  0.0959  2.4765  1.3122
 3780SOL    HW222803   3.008   1.617   7.946 -2.0786 -0.9839  2.1180
 3781SOL     OW22804   3.455   2.736   8.061  0.3578  0.4433  0.6215
 3781SOL    HW122805   3.370   2.773   8.038 -0.7706 -0.5207  3.3152
 3781SOL    HW222806   3.439   2.709   8.151 -0.6353  1.0528  0.6264
 3782SOL     OW22807   2.345   2.489  15.150 -0.1781  0.1283  0.3722
 3782SOL    HW122808   2.277   2.530  15.098  1.7986 -1.3454 -3.4076
 3782SOL    HW222809   2.406   2.562  15.162  0.0749  0.3924 -2.4380
 3783SOL     OW22810   2.597   4.626  16.397 -0.1021  0.0641 -0.7721
 3783SOL    HW122811   2.629   4.711  16.366 -2.0270  0.7090 -0.9475
 3783SOL    HW222812   2.528   4.618  16.332  0.2410  0.5152 -1.1933
 3784SOL     OW22813   3.162   1.037   4.744 -0.2150 -0.1880  0.5757
 3784SOL    HW122814   3.212   1.040   4.826 -0.1178 -0.7897  0.5387
 3784SOL    HW222815   3.118   0.952   4.740  0.2916 -0.5004  1.6682
 3785SOL     OW22816   1.461   2.557   6.391  0.2009  0.2666  0.1232
 3785SOL    HW122817   1.485   2.640   6.432  1.1573 -0.7774  1.6937
 3785SOL    HW222818   1.374   2.589   6.370 -0.0765  0.1805  1.1215
 3786SOL     OW22819   3.571   4.591   3.408  0.2682 -0.0197  0.0704
 3786SOL    HW122820   3.488   4.609   3.452 -0.2663  0.2979 -1.0701
 3786SOL    HW222821   3.602   4.682   3.408  0.1960  0.0095  2.9517
 3787SOL     OW22822   2.897   1.314   7.770 -0.0342 -0.2468 -0.3606
 3787SOL    HW122823   2.917   1.390   7.826  1.3618 -1.3090  0.5786
 3787SOL    HW222824   2.988   1.286   7.761 -0.5154 -1.6489 -0.8434
 3788SOL     OW22825   1.702   2.776   8.532 -0.1172  0.2840  0.3404
 3788SOL    HW122826   1.776   2.836   8.533 -0.4315  0.6750  0.2556
 3788SOL    HW222827   1.638   2.827   8.581  0.3935 -0.4642  1.8093
 3789SOL     OW22828   0.052   3.011   8.152 -0.5977 -0.2731  0.2373
 3789SOL    HW122829   4.690   3.001   8.198 -1.2528 -1.6831 -1.2660
 3789SOL    HW222830   0.058   2.922   8.116  0.4252 -0.0682 -0.1046
 3790SOL     OW22831   3.747   4.167   2.894 -0.0822 -0.0794 -0.3812
 3790SOL    HW122832   3.672   4.211   2.935  0.6214  0.0588  0.7603
 3790SOL    HW222833   3.771   4.244   2.841  1.2160 -0.2099  0.0162
 3791SOL     OW22834   2.479   2.729   7.556 -0.4909  0.0281 -0.0124
 3791SOL    HW122835   2.460   2.635   7.567 -0.3594 -0.3607 -3.2447
 3791SOL    HW222836   2.430   2.732   7.474  1.6657  1.1749 -1.2626
 3792SOL     OW22837   1.894   4.707   8.324 -0.0926 -0.0783  0.0648
 3792SOL    HW122838   1.862   0.042   8.395  0.6172 -1.3287  1.3724
 3792SOL    HW222839   1.832   4.635   8.318 -0.3381  0.1528 -0.1907
 3793SOL     OW22840   3.103   3.127   4.310 -0.5604  0.0200 -0.1321
 3793SOL    HW122841   3.172   3.070   4.276  1.5143  2.5503 -0.1674
 3793SOL    HW222842   3.140   3.146   4.396 -0.1906 -0.7843 -0.1106
 3794SOL     OW22843   0.177   0.683   8.081 -0.3182  0.0487 -0.2607
 3794SOL    HW122844   0.163   0.590   8.061  0.4412 -0.3397  0.9763
 3794SOL    HW222845   0.136   0.695   8.166  1.5646  0.9769  0.5279
 3795SOL     OW22846   1.272   3.692   7.562  0.5655 -0.0262  0.5358
 3795SOL    HW122847   1.248   3.753   7.632  1.2875 -0.9576  1.5948
 3795SOL    HW222848   1.325   3.738   7.497  0.8360 -1.6527 -0.3858
 3796SOL     OW22849   2.012   1.092   9.036 -0.3584  0.0330 -0.0229
 3796SOL    HW122850   2.085   1.122   8.981  1.0282 -1.1402  1.1461
 3796SOL    HW222851   2.048   1.013   9.076  0.2150  1.2010  1.7683
 3797SOL     OW22852   2.121   2.847  11.545  0.4667  0.0245 -0.2263
 3797SOL    HW122853   2.064   2.923  11.541  0.3444  0.0296  1.6949
 3797SOL    HW222854   2.200   2.877  11.591 -0.0060  0.7481  0.0940
 3798SOL     OW22855   0.186   4.160   6.799  0.1412 -0.1439 -0.0142
 3798SOL    HW122856   0.104   4.209   6.802 -0.4086 -1.0912  0.6152
 3798SOL    HW222857   0.173   4.110   6.718  0.3364  0.4046 -0.3879
 3799SOL     OW22858   1.527   3.795   9.280 -0.4303 -0.1047  0.1554
 3799SOL    HW122859   1.459   3.742   9.320 -0.3726 -0.8059 -0.6853
 3799SOL    HW222860   1.604   3.739   9.288 -0.6097 -0.0893  1.9947
 3800SOL     OW22861   3.384   1.979   2.295 -0.0445  0.5732 -0.3967
 3800SOL    HW122862   3.380   1.889   2.328 -0.3686  1.1797  1.2231
 3800SOL    HW222863   3.463   2.008   2.341  1.0189 -1.3683 -0.9976
 3801SOL     OW22864   4.629   4.415   4.660  0.1316  0.1425  0.3314
 3801SOL    HW122865   4.537   4.424   4.686 -0.1165  1.3241 -0.9276
 3801SOL    HW222866   4.620   4.334   4.611  1.0230 -0.4282  1.1175
 3802SOL     OW22867   0.343   3.378   4.961  0.8241 -0.1234 -0.0006
 3802SOL    HW122868   0.372   3.394   4.872 -2.8660 -0.4760 -1.2517
 3802SOL    HW222869   0.373   3.446   5.021  2.0617  1.8731 -2.9466
 3803SOL     OW22870   0.770   0.667   5.676  0.2183  0.0005  0.1615
 3803SOL    HW122871   0.697   0.622   5.718  1.5533 -2.8015 -0.5217
 3803SOL    HW222872   0.846   0.609   5.672  0.0975 -0.1384 -0.2154
 3804SOL     OW22873   4.005   4.211   3.216 -0.7523 -0.1113 -0.0098
 3804SOL    HW122874   3.947   4.284   3.194 -0.5475  0.0846  0.0931
 3804SOL    HW222875   3.982   4.142   3.154  0.4226  0.0532 -0.6399
 3805SOL     OW22876   0.406   1.772   2.502 -0.6760 -0.3869  0.0996
 3805SOL    HW122877   0.341   1.811   2.443  0.5527 -0.3997 -1.2635
 3805SOL    HW222878   0.378   1.680   2.502  1.4269 -1.0319  1.2665
 3806SOL     OW22879   3.754   2.174   3.318 -0.6341 -0.2254  0.3540
 3806SOL    HW122880   3.751   2.268   3.300  1.7634 -0.2069  0.0835
 3806SOL    HW222881   3.659   2.160   3.310 -0.7393  0.2522  0.7877
 3807SOL     OW22882   4.204   2.580   6.087  0.4566  1.1153  0.1583
 3807SOL    HW122883   4.208   2.519   6.160 -1.8116  0.6164 -0.1284
 3807SOL    HW222884   4.287   2.626   6.102  1.2560 -0.1309 -0.4359
 3808SOL     OW22885   0.209   2.443  13.311 -0.1488  0.1698  0.7092
 3808SOL    HW122886   0.265   2.366  13.318 -0.3022 -0.0605 -0.6691
 3808SOL    HW222887   0.249   2.481  13.233 -1.2775  0.6757  0.3749
 3809SOL     OW22888   4.101   3.215   8.640  0.3708 -0.9238 -0.4030
 3809SOL    HW122889   4.021   3.268   8.630  1.3192  1.1470  3.0572
 3809SOL    HW222890   4.164   3.285   8.655 -0.0742 -0.7254  0.5292
 3810SOL     OW22891   1.621   2.242   2.688  0.0265 -0.2171 -0.0877
 3810SOL    HW122892   1.658   2.330   2.679 -1.6673  0.5988  1.0538
 3810SOL    HW222893   1.562   2.246   2.763 -0.4393 -0.5172 -0.4426
 3811SOL     OW22894   3.275   2.553  13.136 -0.1134 -0.3415 -0.4302
 3811SOL    HW122895   3.349   2.611  13.155 -0.7960  0.7228 -1.0189
 3811SOL    HW222896   3.323   2.472  13.119  0.5138 -0.5929  2.6587
 3812SOL     OW22897   4.517   3.729  16.946 -0.2343 -0.3120 -0.7575
 3812SOL    HW122898   4.479   3.755  16.862 -0.0102 -1.5221 -1.2444
 3812SOL    HW222899   4.445   3.697  17.001  1.0297  1.4152  1.8986
 3813SOL     OW22900   1.603   3.970   3.442 -0.3651 -0.1950  0.5024
 3813SOL    HW122901   1.614   3.979   3.348  0.2791  0.1227  0.6024
 3813SOL    HW222902   1.612   4.064   3.460 -0.5521 -0.1911  0.5714
 3814SOL     OW22903   0.841   1.638   2.111  0.0059 -0.0027  0.2541
 3814SOL    HW122904   0.887   1.554   2.107  0.5643  0.3481 -0.8429
 3814SOL    HW222905   0.868   1.680   2.029 -1.2872  0.2869 -0.0297
 3815SOL     OW22906   3.790   1.440   4.358 -0.3233 -0.0920  0.2474
 3815SOL    HW122907   3.695   1.431   4.354 -0.5915  1.8959  2.2008
 3815SOL    HW222908   3.806   1.527   4.322 -0.6308  0.1482  0.6974
 3816SOL     OW22909   2.509   3.221  12.926 -0.2721 -0.0299  0.0210
 3816SOL    HW122910   2.567   3.272  12.983 -1.3322 -0.5786  1.5702
 3816SOL    HW222911   2.422   3.236  12.961  0.1075  2.3458 -0.0274
 3817SOL     OW22912   3.230   3.916   7.181  0.6105 -0.1509  0.1616
 3817SOL    HW122913   3.307   3.951   7.225  0.6753  0.9280 -0.7987
 3817SOL    HW222914   3.255   3.824   7.174  0.7274 -0.1842  1.1339
 3818SOL     OW22915   2.935   2.880   2.462 -0.3306 -0.1277 -0.0616
 3818SOL    HW122916   2.988   2.954   2.492  1.9675 -2.1052  0.7232
 3818SOL    HW222917   2.849   2.923   2.465 -0.3493 -0.1201 -0.7426
 3819SOL     OW22918   4.007   2.216   3.412 -0.7046 -0.1936  0.0820
 3819SOL    HW122919   3.932   2.174   3.370 -1.1226 -0.2100  0.8432
 3819SOL    HW222920   4.055   2.252   3.338 -0.3623 -1.7622 -0.4734
 3820SOL     OW22921   3.943   4.198   1.622 -0.1855  0.2129  0.3171
 3820SOL    HW122922   3.921   4.276   1.673 -1.4707  0.5208 -0.7267
 3820SOL    HW222923   4.002   4.152   1.682  1.4455  2.1485  0.2075
 3821SOL     OW22924   4.433   3.981   8.468 -0.0360 -0.2485  0.2865
 3821SOL    HW122925   4.381   4.051   8.427  0.5354  2.2345  3.8213
 3821SOL    HW222926   4.522   4.015   8.460  0.4402 -1.5925 -0.1431
 3822SOL     OW22927   0.775   0.454   5.425  0.2065  0.3926 -0.6636
 3822SOL    HW122928   0.829   0.457   5.504 -1.7938  3.0146  0.6079
 3822SOL    HW222929   0.835   0.495   5.364  1.0022  0.4654  0.1783
 3823SOL     OW22930   0.299   2.782   3.816  0.2314  0.0443  0.1678
 3823SOL    HW122931   0.303   2.783   3.720 -0.1992  0.6507  0.1617
 3823SOL    HW222932   0.227   2.720   3.833  1.8581 -1.7942  0.3379
 3824SOL     OW22933   0.702   2.813  13.797  0.3664  0.2210  0.6647
 3824SOL    HW122934   0.777   2.765  13.761 -0.0877  0.5336 -0.6776
 3824SOL    HW222935   0.643   2.822  13.723  1.9474  0.4720 -0.5732
 3825SOL     OW22936   1.581   2.907  14.651 -0.5068  0.7281 -0.6658
 3825SOL    HW122937   1.554   2.853  14.725  1.5328 -1.1663 -1.2919
 3825SOL    HW222938   1.656   2.853  14.623 -0.5269 -0.2684  1.2379
 3826SOL     OW22939   3.673   2.608   2.146 -0.2899 -0.7797 -0.5518
 3826SOL    HW122940   3.620   2.626   2.068  1.2941 -0.9048 -1.6439
 3826SOL    HW222941   3.622   2.537   2.186  0.3986 -0.8833  0.1399
 3827SOL     OW22942   4.036   0.468   2.583 -0.3343  0.4814 -0.1644
 3827SOL    HW122943   4.088   0.513   2.650 -1.3157 -0.5986  1.3165
 3827SOL    HW222944   3.992   0.544   2.545 -1.2051  0.3310  0.5377
 3828SOL     OW22945   3.260   3.371  13.240  0.1008  0.6196 -0.0941
 3828SOL    HW122946   3.245   3.461  13.268 -0.2488 -0.0391  1.8176
 3828SOL    HW222947   3.353   3.368  13.218  0.6974  2.8404  2.1869
 3829SOL     OW22948   1.450   0.409   9.340 -0.2385  0.1774  0.4201
 3829SOL    HW122949   1.460   0.503   9.330 -3.8415  0.5342 -0.0155
 3829SOL    HW222950   1.363   0.397   9.302  0.0087  1.6444 -0.6047
 3830SOL     OW22951   1.165   2.793   2.516  0.2023 -0.0281  0.1991
 3830SOL    HW122952   1.184   2.835   2.432 -0.0218 -1.2444 -0.4723
 3830SOL    HW222953   1.097   2.729   2.494 -0.7006  0.5214  1.4527
 3831SOL     OW22954   1.439   1.866   4.608 -0.1597  0.2575 -0.3107
 3831SOL    HW122955   1.494   1.891   4.534 -0.1822  2.4305  0.3961
 3831SOL    HW222956   1.499   1.819   4.667  0.2230  0.5744 -0.4445
 3832SOL     OW22957   3.676   2.734   3.700 -0.1913 -0.2842  0.0796
 3832SOL    HW122958   3.668   2.828   3.716  1.0049 -0.0676 -0.6748
 3832SOL    HW222959   3.661   2.739   3.606 -1.0628  0.6208  0.2594
 3833SOL     OW22960   3.881   1.480   8.338  0.4617 -0.6124  0.5379
 3833SOL    HW122961   3.797   1.508   8.303  0.2574 -0.8341  0.8568
 3833SOL    HW222962   3.862   1.487   8.431 -0.3816  0.2370  0.3066
 3834SOL     OW22963   0.555   2.560   4.522  0.2457  0.5145  0.0424
 3834SOL    HW122964   0.602   2.487   4.562 -0.7557 -0.2711 -0.2382
 3834SOL    HW222965   0.501   2.512   4.460  2.2268 -2.1720  0.4117
 3835SOL     OW22966   0.397   0.943  11.909 -0.7301 -0.3854  0.6198
 3835SOL    HW122967   0.447   0.930  11.989 -2.8327 -0.0773  2.0028
 3835SOL    HW222968   0.411   0.857  11.869  1.2751  0.5678 -0.7181
 3836SOL     OW22969   3.271   4.332  16.381  0.8471 -0.9831 -0.3695
 3836SOL    HW122970   3.262   4.427  16.372  0.6920 -0.7533  2.2300
 3836SOL    HW222971   3.213   4.321  16.456 -2.0162  2.0181 -2.1627
 3837SOL     OW22972   3.167   1.302   7.725 -0.3626 -0.7264  0.7295
 3837SOL    HW122973   3.240   1.342   7.773  0.6047 -2.1540  0.4817
 3837SOL    HW222974   3.209   1.216   7.737 -0.9916 -0.7481  2.7812
 3838SOL     OW22975   2.883   2.453   2.410 -0.7311  0.2029 -0.1880
 3838SOL    HW122976   2.911   2.522   2.350 -0.1933 -0.2568 -0.4604
 3838SOL    HW222977   2.956   2.392   2.403 -0.1090  0.9894 -0.4877
 3839SOL     OW22978   2.107   4.674  12.037 -0.1576  0.2129  0.2300
 3839SOL    HW122979   2.110   0.045  12.010  0.4308 -0.1453 -0.9271
 3839SOL    HW222980   2.107   4.633  11.950 -0.7177  0.9340 -0.1149
 3840SOL     OW22981   2.052   4.020   8.077  0.1441 -0.0978  0.2106
 3840SOL    HW122982   1.999   4.098   8.093  0.7721  0.8339 -2.3631
 3840SOL    HW222983   2.126   4.068   8.040  0.7827  0.8943  2.7718
 3841SOL     OW22984   2.209   1.221   4.403 -0.1433  0.9828 -0.0242
 3841SOL    HW122985   2.176   1.163   4.334 -0.7830 -0.3509  1.3944
 3841SOL    HW222986   2.250   1.294   4.357  2.5875  0.7102  1.9945
 3842SOL     OW22987   1.975   3.724   4.158  0.0590  0.0412 -0.1562
 3842SOL    HW122988   1.943   3.648   4.110 -0.2559  0.0560  0.0328
 3842SOL    HW222989   1.953   3.798   4.101  3.1146  0.2836 -1.0325
 3843SOL     OW22990   0.430   0.108   2.168  0.2155  0.2335  0.6268
 3843SOL    HW122991   0.367   0.162   2.215  0.5110  2.9377 -2.0378
 3843SOL    HW222992   0.386   0.028   2.196  1.1844 -1.2005 -1.9199
 3844SOL     OW22993   2.653   2.400  11.067  0.2610 -0.4623 -0.1245
 3844SOL    HW122994   2.564   2.423  11.040 -0.8178 -0.7834  3.2012
 3844SOL    HW222995   2.692   2.359  10.990 -0.3126 -0.7433 -0.2701
 3845SOL     OW22996   0.985   1.386   6.010  0.3665  0.7322 -0.0968
 3845SOL    HW122997   0.938   1.349   5.935 -1.5319 -0.2649  1.5915
 3845SOL    HW222998   1.016   1.469   5.974  1.4631  0.1228 -0.5343
 3846SOL     OW22999   3.429   3.273  14.438 -0.3600 -0.1988 -0.1159
 3846SOL    HW123000   3.473   3.299  14.357  0.5308 -0.2655  0.3452
 3846SOL    HW223001   3.416   3.183  14.406 -1.8116 -0.2826  0.6962
 3847SOL     OW23002   3.778   0.706  11.540  0.2204  0.1196 -0.1401
 3847SOL    HW123003   3.690   0.733  11.565  0.7147  1.1903  0.4642
 3847SOL    HW223004   3.797   0.626  11.589 -1.4901  0.3117  0.8383
 3848SOL     OW23005   3.576   0.918   2.135 -0.7589 -0.7586  0.3054
 3848SOL    HW123006   3.486   0.948   2.125 -0.6106 -0.3333  0.2604
 3848SOL    HW223007   3.580   0.848   2.070  1.1386  0.7879 -1.2648
 3849SOL     OW23008   2.848   3.331  13.079 -0.3607 -0.2382  0.3630
 3849SOL    HW123009   2.892   3.416  13.080 -1.2598  0.2340 -0.4104
 3849SOL    HW223010   2.761   3.366  13.096 -1.3760 -2.4855 -0.1857
 3850SOL     OW23011   3.563   2.177  13.283  0.2850  0.0195  0.1615
 3850SOL    HW123012   3.472   2.153  13.303  1.1101 -0.9572  2.7000
 3850SOL    HW223013   3.562   2.258  13.232 -0.2385 -0.6607 -0.9261
 3851SOL     OW23014   0.885   3.576  10.355  0.3740  0.5477 -0.1382
 3851SOL    HW123015   0.874   3.550  10.447 -1.5236  1.3207 -0.1344
 3851SOL    HW223016   0.814   3.521  10.322  1.8221 -1.7179  0.5131
 3852SOL     OW23017   3.742   2.590  16.886 -0.2398  0.1025  0.2284
 3852SOL    HW123018   3.815   2.652  16.883 -1.6913  1.7647 -0.8275
 3852SOL    HW223019   3.793   2.531  16.942  0.4487  1.5216  1.1015
 3853SOL     OW23020   1.056   4.331  14.743 -0.1076 -0.2476  0.0646
 3853SOL    HW123021   1.067   4.243  14.706  0.7768 -0.4253  0.7546
 3853SOL    HW223022   0.972   4.363  14.709 -1.2959 -3.2216  0.1343
 3854SOL     OW23023   1.101   1.588   7.220  0.6247 -0.5163  0.1317
 3854SOL    HW123024   1.095   1.659   7.284 -1.3606 -0.4239 -0.1420
 3854SOL    HW223025   1.071   1.636   7.143  2.2403  1.3484  0.6741
 3855SOL     OW23026   0.472   4.431  10.318 -0.1296  0.1877 -0.1981
 3855SOL    HW123027   0.385   4.466  10.302 -0.3429  0.6078  1.9256
 3855SOL    HW223028   0.521   4.514  10.312  0.9208 -0.4727 -0.8569
 3856SOL     OW23029   1.980   0.911   8.674  0.0278 -0.1955 -0.5180
 3856SOL    HW123030   1.910   0.861   8.632 -0.0675 -2.1938  2.0460
 3856SOL    HW223031   2.033   0.922   8.595  1.1404  3.0235  0.6663
 3857SOL     OW23032   3.104   3.314   7.621  0.3124  0.3820  0.0089
 3857SOL    HW123033   3.151   3.375   7.565  1.3940 -1.4997 -1.1376
 3857SOL    HW223034   3.106   3.353   7.709  1.4663 -0.3030  0.2981
 3858SOL     OW23035   1.168   0.270   8.134  0.2864 -0.4599  0.6004
 3858SOL    HW123036   1.151   0.183   8.099  0.2858 -0.9462  1.8078
 3858SOL    HW223037   1.139   0.327   8.062 -1.3497  0.2587  1.8358
 3859SOL     OW23038   0.961   0.939  14.460  0.7812  0.1054 -0.3371
 3859SOL    HW123039   0.878   0.957  14.416  0.6969  0.9735  0.1794
 3859SOL    HW223040   1.012   0.910  14.385 -0.1497  0.5274 -1.1324
 3860SOL     OW23041   4.465   1.508   4.842  0.1912 -0.1316 -0.1720
 3860SOL    HW123042   4.533   1.575   4.849  0.3349 -0.4364  1.3384
 3860SOL    HW223043   4.480   1.465   4.926  0.2625 -1.4081 -0.8310
 3861SOL     OW23044   1.775   1.053   5.837 -0.4754  0.4367  0.2337
 3861SOL    HW123045   1.691   1.010   5.852  0.5280 -1.8201 -0.5747
 3861SOL    HW223046   1.768   1.125   5.899 -0.8976  1.2800 -0.7895
 3862SOL     OW23047   3.685   1.598   3.440 -0.4493 -0.3997  0.0432
 3862SOL    HW123048   3.715   1.688   3.434  0.4133 -0.5328  2.4318
 3862SOL    HW223049   3.621   1.608   3.511 -0.1300 -0.1732  0.2962
 3863SOL     OW23050   3.494   2.066  17.481  0.0230 -0.5173 -0.2121
 3863SOL    HW123051   3.495   1.975  17.453 -2.8804 -0.3446 -0.9103
 3863SOL    HW223052   3.530   2.105  17.401  0.5934  0.6327  0.6018
 3864SOL     OW23053   1.707   1.619  12.849  0.3988  0.0944 -0.1094
 3864SOL    HW123054   1.733   1.560  12.920  2.8914  1.4547  0.1276
 3864SOL    HW223055   1.612   1.621  12.861  0.8042  1.2987  3.0945
 3865SOL     OW23056   4.047   1.585  10.263  0.3622 -0.0425  0.2870
 3865SOL    HW123057   4.124   1.595  10.320  0.5625 -1.0391  0.1953
 3865SOL    HW223058   4.085   1.613  10.180  0.7270  2.7341  1.3690
 3866SOL     OW23059   1.909   0.806   7.787 -0.1125  0.4295  0.3597
 3866SOL    HW123060   1.875   0.740   7.847 -2.3816  0.6869 -0.6227
 3866SOL    HW223061   1.946   0.882   7.832  0.2727  1.0580 -0.9937
 3867SOL     OW23062   3.501   0.300  17.642  0.0192  0.4233 -0.4545
 3867SOL    HW123063   3.415   0.319  17.604 -0.0997  0.6642 -0.0619
 3867SOL    HW223064   3.512   0.207  17.620 -2.1268  0.3976 -1.4330
 3868SOL     OW23065   1.902   2.122  16.946 -0.0970 -0.0814 -0.9710
 3868SOL    HW123066   1.907   2.027  16.958 -0.8858 -0.2797 -2.2008
 3868SOL    HW223067   1.841   2.130  16.873 -1.0413  0.6155 -0.0939
 3869SOL     OW23068   0.763   3.837   3.753  0.3072  0.3768  0.1273
 3869SOL    HW123069   0.729   3.886   3.827 -1.2260 -0.8232  0.2270
 3869SOL    HW223070   0.720   3.879   3.679  1.4042 -0.3310 -0.9123
 3870SOL     OW23071   0.113   2.138  16.783 -0.1897  0.0433 -0.0247
 3870SOL    HW123072   0.134   2.051  16.815  3.2523  1.9220  2.7750
 3870SOL    HW223073   0.106   2.186  16.865 -0.7278 -0.9123  0.4912
 3871SOL     OW23074   3.272   1.450   0.926 -0.1752  0.0407 -0.5147
 3871SOL    HW123075   3.259   1.379   0.989  2.1398  2.1848  2.3891
 3871SOL    HW223076   3.189   1.445   0.879 -1.3474  0.2319  1.5705
 3872SOL     OW23077   1.916   3.188  13.995  0.4907 -0.2770  0.1671
 3872SOL    HW123078   1.955   3.108  14.032  0.8381  0.6081  1.6973
 3872SOL    HW223079   1.831   3.164  13.959  1.1653 -2.3071 -0.0955
 3873SOL     OW23080   3.837   2.011  16.151 -0.7509  0.4049 -0.6535
 3873SOL    HW123081   3.872   2.056  16.227 -2.6828 -0.7748  0.9190
 3873SOL    HW223082   3.782   2.086  16.130 -1.5663  0.0280  0.1744
 3874SOL     OW23083   1.513   4.351   9.638  0.4161  0.3182 -0.0187
 3874SOL    HW123084   1.501   4.411   9.712 -0.9942 -0.2600  0.2275
 3874SOL    HW223085   1.482   4.265   9.667 -1.0961  0.6423 -0.6506
 3875SOL     OW23086   2.856   1.039   2.450 -0.2044 -0.5115 -0.2205
 3875SOL    HW123087   2.768   1.008   2.469  0.3057 -3.3362 -2.5010
 3875SOL    HW223088   2.883   1.105   2.514  0.3742  1.4401 -2.4872
 3876SOL     OW23089   0.398   4.035  11.004  0.0883  0.0792  0.1856
 3876SOL    HW123090   0.351   3.994  10.932  1.6771 -0.4005 -0.5817
 3876SOL    HW223091   0.360   3.987  11.078 -0.6642  1.1790  0.5182
 3877SOL     OW23092   3.908   0.127  15.294 -0.0430 -0.2628 -0.1342
 3877SOL    HW123093   4.003   0.121  15.281 -0.1857  1.7671 -2.1729
 3877SOL    HW223094   3.895   0.086  15.380 -0.1829 -0.1568 -0.1059
 3878SOL     OW23095   2.222   3.628  13.328  0.4263  0.2990 -0.1040
 3878SOL    HW123096   2.236   3.595  13.417 -2.2535 -0.5440 -0.0115
 3878SOL    HW223097   2.263   3.713  13.346  0.6432  0.6386 -2.2116
 3879SOL     OW23098   3.570   1.495   2.422  0.3816  0.4510 -0.6669
 3879SOL    HW123099   3.615   1.462   2.344 -2.3050 -5.4563  0.3321
 3879SOL    HW223100   3.613   1.445   2.491 -4.0233 -0.5188  1.3539
 3880SOL     OW23101   2.415   1.816  10.790 -0.3029 -0.3651 -0.5128
 3880SOL    HW123102   2.423   1.827  10.885  0.1965 -0.1969 -0.5730
 3880SOL    HW223103   2.320   1.804  10.791 -0.4574  1.2182  2.1304
 3881SOL     OW23104   2.909   2.634   3.472  0.4719  0.6556  0.3082
 3881SOL    HW123105   2.948   2.684   3.543  1.4698  0.7103 -0.2687
 3881SOL    HW223106   2.934   2.693   3.400 -1.0519  1.4716  0.4552
 3882SOL     OW23107   1.588   0.291   5.571 -0.5784 -0.3463  0.0791
 3882SOL    HW123108   1.599   0.238   5.650  2.0610 -0.2082 -0.2008
 3882SOL    HW223109   1.674   0.334   5.569  0.0380 -1.6609 -1.4824
 3883SOL     OW23110   1.759   2.670  17.085  0.4721  0.6818 -0.2390
 3883SOL    HW123111   1.677   2.670  17.035  0.1927 -1.0774  0.2051
 3883SOL    HW223112   1.779   2.582  17.119  0.9352  0.4282 -1.1739
 3884SOL     OW23113   2.789   2.697   2.219  0.1414  0.4221  0.0280
 3884SOL    HW123114   2.784   2.792   2.231  1.2665  0.5803 -0.6951
 3884SOL    HW223115   2.727   2.674   2.288  0.6038  0.5804  0.5021
 3885SOL     OW23116   4.308   3.097   4.263 -0.0883 -0.0133 -0.1713
 3885SOL    HW123117   4.256   3.164   4.218 -0.2537 -0.6385 -0.9113
 3885SOL    HW223118   4.254   3.019   4.250  1.3077 -1.2851  1.7344
 3886SOL     OW23119   0.296   3.440  16.586 -0.0205 -0.5128  0.0432
 3886SOL    HW123120   0.245   3.449  16.666 -1.1349  0.1944 -0.7308
 3886SOL    HW223121   0.305   3.529  16.551  0.3505  0.0053  1.4883
 3887SOL     OW23122   1.124   2.604   4.213  0.2476  0.2503  0.2993
 3887SOL    HW123123   1.124   2.526   4.158  0.2872 -0.7489  1.7054
 3887SOL    HW223124   1.214   2.635   4.204  0.8994 -1.4819  0.8409
 3888SOL     OW23125   4.287   1.995  11.345  0.4702  0.0926  0.1492
 3888SOL    HW123126   4.289   2.085  11.312 -0.2305  0.2775  0.6154
 3888SOL    HW223127   4.366   1.970  11.297  0.7685 -1.6769  1.5490
 3889SOL     OW23128   1.866   2.475   4.026 -0.1386 -0.7343  0.2538
 3889SOL    HW123129   1.877   2.542   3.959  0.7124 -0.7400  0.3873
 3889SOL    HW223130   1.912   2.512   4.101 -1.9600 -5.0528  3.5544
 3890SOL     OW23131   4.012   4.528   9.053 -0.5419 -0.3069  0.2465
 3890SOL    HW123132   4.028   4.441   9.015  0.8387  0.1123 -0.1376
 3890SOL    HW223133   3.923   4.509   9.083 -0.8004 -0.1003 -0.3813
 3891SOL     OW23134   4.231   1.486  17.643 -0.3030  0.1109 -0.2273
 3891SOL    HW123135   4.178   1.472   0.036 -0.2816 -0.5039 -0.3157
 3891SOL    HW223136   4.320   1.468  17.674 -0.8076 -0.5875  0.8510
 3892SOL     OW23137   0.449   3.259   3.170 -0.0203  0.2071  0.2725
 3892SOL    HW123138   0.527   3.294   3.125 -1.1432  2.4820  0.1037
 3892SOL    HW223139   0.383   3.263   3.100 -0.6919 -0.6590  0.8642
 3893SOL     OW23140   1.836   1.161   0.610  0.3259  0.2511  0.6018
 3893SOL    HW123141   1.802   1.086   0.560 -0.5670  1.6136 -0.8097
 3893SOL    HW223142   1.928   1.162   0.586 -0.6658  3.3691 -3.0032
 3894SOL     OW23143   0.746   1.855  11.575  1.0175  0.3493 -0.2154
 3894SOL    HW123144   0.726   1.781  11.632  0.4888 -0.6928 -1.7559
 3894SOL    HW223145   0.687   1.926  11.600  0.2607  0.3787 -2.0773
 3895SOL     OW23146   1.039   4.615  14.486  0.5577 -0.0525  0.4603
 3895SOL    HW123147   1.115   4.615  14.544  0.5344 -1.0693  0.4878
 3895SOL    HW223148   1.047   4.531  14.441 -1.6623 -0.4722  0.8464
 3896SOL     OW23149   3.667   4.525   1.381 -0.2963  0.0924 -0.0015
 3896SOL    HW123150   3.752   4.542   1.340  0.2104  2.7167  2.1163
 3896SOL    HW223151   3.608   4.581   1.332 -0.2628  1.0721  1.0738
 3897SOL     OW23152   1.921   4.459   4.917  0.0670 -0.1369 -0.1656
 3897SOL    HW123153   1.935   4.552   4.902 -0.4271  0.2074  1.6208
 3897SOL    HW223154   1.855   4.455   4.986  0.4219  0.1618  0.1855
 3898SOL     OW23155   0.705   0.486   8.002 -0.6041  0.3160  0.2460
 3898SOL    HW123156   0.636   0.550   7.982 -1.2266 -0.7163 -0.9247
 3898SOL    HW223157   0.721   0.522   8.089  1.9063  1.2896 -0.5927
 3899SOL     OW23158   2.759   4.286   7.089  0.2816  0.5438  0.2159
 3899SOL    HW123159   2.842   4.254   7.054 -0.5385 -0.3462 -0.9041
 3899SOL    HW223160   2.711   4.331   7.018  0.3198 -1.2615 -0.9482
 3900SOL     OW23161   3.477   1.714  16.374  0.2842  0.3105  0.1784
 3900SOL    HW123162   3.549   1.759  16.330  1.8754 -0.4662  1.9619
 3900SOL    HW223163   3.426   1.775  16.427  2.5989  0.5871  2.1036
 3901SOL     OW23164   2.394   3.982   2.627  0.0659  0.3748  0.2706
 3901SOL    HW123165   2.334   3.909   2.644  0.0175  0.2620 -0.4094
 3901SOL    HW223166   2.339   4.032   2.567 -0.3615  2.0300  2.0288
 3902SOL     OW23167   3.946   0.520   8.145 -0.6251 -0.0773 -0.3902
 3902SOL    HW123168   3.946   0.424   8.139  0.7214 -0.2299  2.1178
 3902SOL    HW223169   4.001   0.542   8.070 -1.2839  0.6060 -0.6760
 3903SOL     OW23170   1.718   4.562   1.423  0.0240 -0.1630 -0.0655
 3903SOL    HW123171   1.685   4.485   1.469 -0.5415 -1.5076 -2.7699
 3903SOL    HW223172   1.639   4.616   1.434  0.8373  0.8812  0.6935
 3904SOL     OW23173   1.628   4.523   7.100  0.3259 -0.3937  0.1787
 3904SOL    HW123174   1.673   4.599   7.065  1.0563 -0.8054  0.2191
 3904SOL    HW223175   1.656   4.526   7.192  0.9221  0.2526 -0.0296
 3905SOL     OW23176   1.082   3.013  13.514  0.2530  0.2387 -0.2391
 3905SOL    HW123177   1.144   3.048  13.450  0.8403 -1.2615 -0.4930
 3905SOL    HW223178   1.128   2.933  13.541 -2.3304 -1.2497 -0.2449
 3906SOL     OW23179   3.434   4.039   3.856 -0.1348 -0.0398  0.5995
 3906SOL    HW123180   3.409   3.951   3.828 -0.4225 -0.4000  1.9531
 3906SOL    HW223181   3.506   4.062   3.797  2.5828  0.1130  3.9391
 3907SOL     OW23182   3.988   4.035   2.093 -0.1275 -0.3517  0.7685
 3907SOL    HW123183   4.006   3.952   2.137  1.8693 -1.9421 -3.0512
 3907SOL    HW223184   4.028   4.100   2.151  1.2031  1.2385 -1.9202
 3908SOL     OW23185   0.010   4.684  11.772 -0.2041 -0.0309 -0.4216
 3908SOL    HW123186   0.057   4.675  11.855  1.1586  1.0574 -1.0649
 3908SOL    HW223187   0.073   4.662  11.704  0.2841  1.2241 -0.3773
 3909SOL     OW23188   3.695   2.619   4.212 -0.1034 -0.1833  0.0251
 3909SOL    HW123189   3.751   2.552   4.172 -0.9292  0.4773 -2.2457
 3909SOL    HW223190   3.648   2.574   4.283 -0.3900  0.1058  0.0191
 3910SOL     OW23191   1.631   1.264   1.812  0.3351 -0.1039  0.4864
 3910SOL    HW123192   1.644   1.321   1.736  1.6512 -0.6973  0.2699
 3910SOL    HW223193   1.664   1.183   1.772  1.2611 -0.1240  1.2985
 3911SOL     OW23194   2.806   0.782  10.688  0.1325  0.0063  0.2738
 3911SOL    HW123195   2.766   0.695  10.682  1.7990 -0.7555  0.1679
 3911SOL    HW223196   2.877   0.776  10.624  0.2222  1.0497  0.2861
 3912SOL     OW23197   0.260   3.210   2.970  0.4509 -0.4204  0.0689
 3912SOL    HW123198   0.248   3.122   3.006  1.8990 -0.5851  0.1901
 3912SOL    HW223199   0.191   3.216   2.905 -0.5063 -0.4399  1.0952
 3913SOL     OW23200   0.463   2.689   5.087 -0.3502 -0.2027  0.0899
 3913SOL    HW123201   0.415   2.770   5.104 -1.5776 -0.9321  0.0758
 3913SOL    HW223202   0.400   2.628   5.049  1.2962 -2.5990  1.1983
 3914SOL     OW23203   0.456   1.962  11.474 -0.3776  0.1282  0.1592
 3914SOL    HW123204   0.363   1.980  11.488 -0.0062 -0.0429  2.9277
 3914SOL    HW223205   0.451   1.867  11.484  1.8406  0.0941  0.9083
 3915SOL     OW23206   0.849   0.885   0.393 -0.2760  0.8812  0.0919
 3915SOL    HW123207   0.924   0.919   0.443 -0.1052  1.0222 -0.2617
 3915SOL    HW223208   0.855   0.789   0.388  0.1722  0.8818  0.5938
 3916SOL     OW23209   3.891   2.078   5.999 -0.5778 -0.2467 -0.2309
 3916SOL    HW123210   3.951   2.129   6.054  0.9673 -1.7500 -0.5057
 3916SOL    HW223211   3.849   2.147   5.948  0.2792  1.1583  0.9692
 3917SOL     OW23212   2.573   1.220   0.603 -0.4674 -0.1230  0.3138
 3917SOL    HW123213   2.483   1.207   0.634 -0.4669 -0.0404  0.3528
 3917SOL    HW223214   2.594   1.286   0.670 -1.0007  0.2156  0.1450
 3918SOL     OW23215   2.954   1.263  10.071 -0.2432  0.5657  0.4090
 3918SOL    HW123216   3.015   1.232  10.004 -1.6206 -2.0121  0.3266
 3918SOL    HW223217   2.872   1.250  10.023 -1.3465  1.9832  1.9082
 3919SOL     OW23218   0.451   0.713  16.546  0.0405  0.2464  0.3534
 3919SOL    HW123219   0.420   0.802  16.561  0.7848  0.7867 -1.3244
 3919SOL    HW223220   0.520   0.713  16.612  1.6787  0.0626 -1.3511
 3920SOL     OW23221   1.839   4.619   5.278 -0.2840  0.0672 -0.2487
 3920SOL    HW123222   1.819   4.651   5.366 -1.6548 -0.4251 -0.3945
 3920SOL    HW223223   1.929   4.586   5.281 -1.1726 -2.3246 -0.6490
 3921SOL     OW23224   2.467   4.644   4.160 -0.5816 -0.0026 -0.4831
 3921SOL    HW123225   2.409   4.720   4.154 -2.6399 -1.7108 -2.4323
 3921SOL    HW223226   2.478   4.645   4.255  0.5486  0.3435 -0.6193
 3922SOL     OW23227   1.114   0.067  16.618 -0.2450  0.7705  0.6319
 3922SOL    HW123228   1.199   0.107  16.636  0.7266 -0.3703 -1.4714
 3922SOL    HW223229   1.137   4.706  16.576 -1.2660  0.6481  0.3014
 3923SOL     OW23230   2.223   0.289  16.990  0.6589  0.1510  0.1084
 3923SOL    HW123231   2.162   0.354  16.956 -0.3260 -1.7167 -1.6820
 3923SOL    HW223232   2.257   0.343  17.062 -0.8575 -0.2709  1.1403
 3924SOL     OW23233   3.918   2.604   5.708  0.5949 -0.6035 -0.2370
 3924SOL    HW123234   3.965   2.687   5.720  2.0231 -1.3878 -0.3828
 3924SOL    HW223235   3.943   2.586   5.617 -0.4333 -1.6631 -0.3006
 3925SOL     OW23236   3.745   0.876   6.424 -0.0561  0.3330  0.0715
 3925SOL    HW123237   3.650   0.873   6.433 -0.0895 -0.0994 -0.4287
 3925SOL    HW223238   3.774   0.915   6.506  2.0308  0.1583 -0.6001
 3926SOL     OW23239   1.468   0.508   5.387  0.2416 -0.1328 -0.8916
 3926SOL    HW123240   1.519   0.496   5.307  1.9304 -0.2066  0.2027
 3926SOL    HW223241   1.499   0.433   5.437 -1.4106 -1.1642 -1.4044
 3927SOL     OW23242   2.906   0.046   2.146  0.0604 -0.4910 -0.1014
 3927SOL    HW123243   2.879   0.069   2.057  0.2898 -1.6820 -0.4806
 3927SOL    HW223244   2.838   0.099   2.187  1.2584 -0.0742  1.3373
 3928SOL     OW23245   0.036   4.051   9.530  0.4662 -0.0631  0.5566
 3928SOL    HW123246   4.716   3.970   9.558  0.7582 -0.2853  0.3383
 3928SOL    HW223247   4.700   4.125   9.553  0.0159 -0.9761  2.3128
 3929SOL     OW23248   3.088   1.296   9.782 -0.8897  0.5430  0.1065
 3929SOL    HW123249   3.127   1.219   9.823 -1.2020  1.1924  1.6288
 3929SOL    HW223250   3.067   1.257   9.697 -0.1813  1.1777 -0.3615
 3930SOL     OW23251   4.083   2.728   1.367 -0.2817 -0.5145  0.1264
 3930SOL    HW123252   4.046   2.795   1.310  2.1223  0.7827  0.1061
 3930SOL    HW223253   4.003   2.675   1.369 -0.4515 -0.2336  1.0465
 3931SOL     OW23254   2.755   3.082   5.320 -0.8260  0.2210  0.1777
 3931SOL    HW123255   2.672   3.067   5.273 -0.2924  0.5172 -0.8668
 3931SOL    HW223256   2.812   3.005   5.314 -1.4123 -0.2702  0.8653
 3932SOL     OW23257   3.967   3.344  11.879  0.0651  0.5874 -0.4036
 3932SOL    HW123258   3.969   3.294  11.797 -2.9464  0.6522 -0.4895
 3932SOL    HW223259   4.045   3.400  11.877 -1.5037  2.7041 -1.8283
 3933SOL     OW23260   3.327   2.300   2.037 -0.0302 -0.6597 -1.1662
 3933SOL    HW123261   3.341   2.248   2.115  0.7061  1.6782  0.2595
 3933SOL    HW223262   3.234   2.282   2.023 -0.2427 -1.8038  1.8639
 3934SOL     OW23263   3.216   2.789  15.326  0.1945 -0.1607 -0.1225
 3934SOL    HW123264   3.290   2.819  15.273 -1.3515  1.3335 -1.4419
 3934SOL    HW223265   3.164   2.748  15.257  1.9121  0.6595 -1.9298
 3935SOL     OW23266   0.280   1.293   6.991  0.0592 -0.0446 -0.5614
 3935SOL    HW123267   0.363   1.261   6.956  0.0376 -0.4727 -0.2183
 3935SOL    HW223268   0.214   1.267   6.928  0.1939 -0.9068 -0.3474
 3936SOL     OW23269   3.933   0.524   4.679 -0.3330 -0.3927 -0.3499
 3936SOL    HW123270   4.000   0.539   4.745  0.2612  0.6574 -1.1998
 3936SOL    HW223271   3.891   0.610   4.684 -1.5318 -0.9750 -0.2662
 3937SOL     OW23272   2.191   1.985   5.402 -0.3796  0.4540 -0.2335
 3937SOL    HW123273   2.136   2.064   5.406  0.8607  1.2263  1.5149
 3937SOL    HW223274   2.165   1.956   5.314 -0.6667 -0.4926  0.1616
 3938SOL     OW23275   1.981   0.934   6.185  0.0756  0.0767 -0.3886
 3938SOL    HW123276   1.945   0.993   6.119 -0.2901  0.6187  0.2841
 3938SOL    HW223277   1.989   0.999   6.255 -3.1620 -1.3492  1.2755
 3939SOL     OW23278   3.662   1.342   3.375  0.4659  0.3709 -0.1770
 3939SOL    HW123279   3.608   1.362   3.300  1.0114  2.1588 -0.0982
 3939SOL    HW223280   3.664   1.431   3.411 -0.5672 -0.0094  0.8051
 3940SOL     OW23281   2.317   4.208  15.173  0.0796 -0.0289 -0.3195
 3940SOL    HW123282   2.327   4.303  15.165 -1.5773 -0.0076 -2.3416
 3940SOL    HW223283   2.230   4.198  15.213  0.1625 -1.3179 -0.4809
 3941SOL     OW23284   0.122   4.704  13.644 -0.2723  0.2857  0.0565
 3941SOL    HW123285   0.085   4.623  13.609  2.4063 -0.6137 -0.7145
 3941SOL    HW223286   0.038   0.028  13.650 -0.6270 -0.0042 -2.4974
 3942SOL     OW23287   1.516   3.140   9.352 -0.3600 -0.1246 -0.7997
 3942SOL    HW123288   1.588   3.098   9.398 -1.2106  2.3975  2.7605
 3942SOL    HW223289   1.558   3.207   9.298 -1.1671  2.8309  2.2894
 3943SOL     OW23290   3.771   4.007  11.884 -0.5523  0.1654  0.3003
 3943SOL    HW123291   3.721   4.066  11.828  1.7127 -0.7553 -2.6794
 3943SOL    HW223292   3.847   4.002  11.827  0.2779  0.1546  1.4078
 3944SOL     OW23293   0.554   2.359  13.737 -0.8240  0.1441 -0.3484
 3944SOL    HW123294   0.599   2.424  13.790  1.4713 -1.3410 -0.4969
 3944SOL    HW223295   0.617   2.286  13.735 -0.9642  0.0171 -0.0648
 3945SOL     OW23296   4.713   0.921   8.478  0.0333 -0.3330 -0.4530
 3945SOL    HW123297   0.086   0.902   8.475 -0.3714 -2.4373  0.3625
 3945SOL    HW223298   4.711   0.990   8.544  1.4566 -0.3227 -0.4252
 3946SOL     OW23299   3.920   4.540   7.740 -0.2185  0.1226 -0.3323
 3946SOL    HW123300   3.880   4.621   7.708 -2.2839 -1.2137 -1.1025
 3946SOL    HW223301   3.969   4.505   7.666  1.8628 -0.9412  1.5709
 3947SOL     OW23302   1.615   2.683   8.957  0.3056  0.2970 -0.1926
 3947SOL    HW123303   1.681   2.751   8.945 -0.1230  0.7503  0.0685
 3947SOL    HW223304   1.548   2.721   9.014  0.1149 -0.0257 -0.2023
 3948SOL     OW23305   1.282   0.090   2.749  0.3044 -0.0402  0.3968
 3948SOL    HW123306   1.284   0.178   2.710 -0.3183 -0.2541 -0.1291
 3948SOL    HW223307   1.210   0.094   2.813 -1.2704 -0.7626 -1.3251
 3949SOL     OW23308   2.336   2.651  13.313 -0.0271  0.0393  0.3423
 3949SOL    HW123309   2.276   2.723  13.334 -1.7087 -0.2912 -3.2161
 3949SOL    HW223310   2.382   2.684  13.236 -0.1208  0.2675  0.3837
 3950SOL     OW23311   1.084   0.566  14.302  0.0151 -0.0999 -0.5627
 3950SOL    HW123312   1.140   0.599  14.372  0.4193  1.1909 -1.4910
 3950SOL    HW223313   1.001   0.604  14.331  0.2300  0.5136 -0.7471
 3951SOL     OW23314   2.184   3.800   1.094  0.1001  0.1083  0.2149
 3951SOL    HW123315   2.201   3.857   1.170 -0.8126  2.1804 -1.1568
 3951SOL    HW223316   2.089   3.790   1.098  0.0105  0.7034 -0.5974
 3952SOL     OW23317   1.702   1.010   5.283 -0.1887 -0.3736 -0.1578
 3952SOL    HW123318   1.696   1.042   5.373 -2.2826 -0.8433 -0.1376
 3952SOL    HW223319   1.794   0.983   5.279  0.0636  0.7509 -1.8812
 3953SOL     OW23320   2.756   4.664   8.837  0.2110 -0.1122  0.5439
 3953SOL    HW123321   2.671   4.631   8.865  1.1511 -1.5124  1.6969
 3953SOL    HW223322   2.797   4.656   8.923  2.3617 -1.0504 -0.5722
 3954SOL     OW23323   1.884   1.177   9.458  0.0755  0.2306  0.0333
 3954SOL    HW123324   1.940   1.235   9.407  0.4527 -1.1893 -1.1468
 3954SOL    HW223325   1.821   1.245   9.483  0.4802  0.4999  0.3103
 3955SOL     OW23326   1.350   2.165   6.306 -0.2570 -0.5243  0.3197
 3955SOL    HW123327   1.394   2.239   6.265  1.1396 -2.7318 -2.2079
 3955SOL    HW223328   1.369   2.100   6.238 -1.2781  0.7756 -1.2035
 3956SOL     OW23329   3.248   2.577   4.152  0.5270 -0.3548 -0.1479
 3956SOL    HW123330   3.153   2.583   4.146  0.8287  0.9630 -3.3976
 3956SOL    HW223331   3.274   2.506   4.094  1.3428  0.9889 -1.4584
 3957SOL     OW23332   3.367   3.336   2.683 -0.2557 -0.1585  0.2468
 3957SOL    HW123333   3.318   3.418   2.697  0.7981  0.0954  2.3708
 3957SOL    HW223334   3.367   3.287   2.765 -0.5213  0.3614  0.5569
 3958SOL     OW23335   0.269   3.090   6.419  0.5258  0.3582 -0.5760
 3958SOL    HW123336   0.278   3.068   6.512  0.7535  0.6731 -0.5231
 3958SOL    HW223337   0.180   3.125   6.422 -0.6420 -2.6756  0.4261
 3959SOL     OW23338   4.267   1.109   3.071  0.0764 -0.3367  0.3348
 3959SOL    HW123339   4.173   1.097   3.089 -0.4974  1.9427 -1.0817
 3959SOL    HW223340   4.287   1.042   3.006 -0.6837  0.3798 -0.6593
 3960SOL     OW23341   4.012   1.888   9.696 -0.2275  0.0516 -0.0516
 3960SOL    HW123342   3.955   1.829   9.746  1.6573 -0.6178  1.2911
 3960SOL    HW223343   4.090   1.832   9.702  0.5147  1.0070 -0.7248
 3961SOL     OW23344   2.938   4.237   7.543 -0.2884  0.1874 -0.0799
 3961SOL    HW123345   2.956   4.150   7.580 -0.5289 -0.3855 -1.3032
 3961SOL    HW223346   2.986   4.295   7.603 -3.0562  2.0629  0.2763
 3962SOL     OW23347   0.111   1.959   5.202 -0.0871 -0.0668  0.2572
 3962SOL    HW123348   0.206   1.954   5.209 -0.1619  0.2143  1.4328
 3962SOL    HW223349   0.095   2.032   5.142 -1.5007  0.4856  1.2971
 3963SOL     OW23350   0.357   3.191  12.567  0.0289 -0.3757 -0.1135
 3963SOL    HW123351   0.373   3.247  12.491  0.0672  0.9529  0.8900
 3963SOL    HW223352   0.442   3.162  12.602  0.1148  3.0618  2.4867
 3964SOL     OW23353   0.022   1.004   0.536 -0.1445 -0.6146  1.0227
 3964SOL    HW123354   0.057   1.068   0.598 -1.6250  0.6242  0.5877
 3964SOL    HW223355   0.077   0.926   0.537  1.9016  0.8013 -0.9776
 3965SOL     OW23356   1.742   2.403   5.184  0.4919 -0.2134 -0.0507
 3965SOL    HW123357   1.773   2.380   5.096  1.8913 -1.4290  0.7598
 3965SOL    HW223358   1.734   2.498   5.180  0.0751 -0.2684 -0.5009
 3966SOL     OW23359   1.655   2.075  15.186 -0.3991  0.8084  0.5238
 3966SOL    HW123360   1.598   2.064  15.109 -0.3719  0.3282  0.5743
 3966SOL    HW223361   1.671   1.982  15.203  0.0824  1.1555  1.9344
 3967SOL     OW23362   4.375   4.514   3.968 -0.4582 -0.0457 -0.5954
 3967SOL    HW123363   4.428   4.522   3.889  0.0740  0.4126 -0.1979
 3967SOL    HW223364   4.428   4.462   4.028  0.5160  1.6759  0.0588
 3968SOL     OW23365   2.553   4.448   4.979  0.0647 -0.0772  0.1218
 3968SOL    HW123366   2.494   4.511   5.020 -3.3800 -1.4899 -2.6781
 3968SOL    HW223367   2.499   4.371   4.964  0.8286 -0.6210  0.1694
 3969SOL     OW23368   4.398   1.214   6.481 -0.3353  0.4369 -0.9547
 3969SOL    HW123369   4.489   1.239   6.500 -0.5166 -0.4546  1.1443
 3969SOL    HW223370   4.413   1.124   6.451 -0.2358  0.7578 -1.8787
 3970SOL     OW23371   0.674   0.761   6.890 -0.1474  0.2992  0.1686
 3970SOL    HW123372   0.724   0.745   6.970  0.6196 -1.0403 -0.5569
 3970SOL    HW223373   0.607   0.693   6.887 -0.8097  0.9949 -0.8988
 3971SOL     OW23374   1.529   1.906  12.744 -0.1105  0.1725 -0.2297
 3971SOL    HW123375   1.610   1.881  12.699  0.0572  0.9865 -0.3719
 3971SOL    HW223376   1.501   1.976  12.686 -0.0555 -1.6456 -2.4575
 3972SOL     OW23377   0.959   1.866   0.768 -0.0334  0.2307 -0.1142
 3972SOL    HW123378   0.931   1.886   0.679  2.3996 -0.2615 -0.9944
 3972SOL    HW223379   0.949   1.951   0.812 -2.3126  1.0293 -2.1552
 3973SOL     OW23380   2.204   4.454   3.641 -0.3941 -0.0979  0.7037
 3973SOL    HW123381   2.253   4.530   3.610  0.4018 -1.7553 -2.0995
 3973SOL    HW223382   2.113   4.472   3.619 -0.0358  1.8446  0.7791
 3974SOL     OW23383   3.474   2.638  16.908 -0.2070  0.3280  0.0971
 3974SOL    HW123384   3.466   2.726  16.945 -1.8155  0.2414 -0.0429
 3974SOL    HW223385   3.569   2.634  16.909 -0.1308  1.8957 -0.6379
 3975SOL     OW23386   0.496   0.269   1.728  0.1424  0.5760  0.4616
 3975SOL    HW123387   0.496   0.326   1.651 -0.5000 -1.0397 -0.7109
 3975SOL    HW223388   0.586   0.237   1.734 -0.6556 -1.3579  2.2921
 3976SOL     OW23389   0.867   4.272  12.690 -0.2788 -0.5463  0.9034
 3976SOL    HW123390   0.911   4.205  12.742 -0.2587 -1.4623 -0.2975
 3976SOL    HW223391   0.919   4.344  12.726 -0.4823 -0.4900  1.0883
 3977SOL     OW23392   1.561   3.620  11.966  0.3525 -0.1965  0.5473
 3977SOL    HW123393   1.627   3.684  11.939 -0.9931  0.2407 -1.6661
 3977SOL    HW223394   1.493   3.632  11.899  0.1029 -0.6315  0.7254
 3978SOL     OW23395   3.010   1.518   5.577  0.2669 -0.2584  0.6294
 3978SOL    HW123396   2.972   1.471   5.651  0.8015  0.3668  1.2969
 3978SOL    HW223397   3.071   1.574   5.624  2.0817 -0.3468 -1.5616
 3979SOL     OW23398   1.735   1.109  16.886 -0.3594  0.0621  0.5024
 3979SOL    HW123399   1.790   1.102  16.964 -0.1347 -1.6919  0.1670
 3979SOL    HW223400   1.808   1.126  16.826 -0.1721 -2.3797  0.0482
 3980SOL     OW23401   1.649   2.475   4.345  0.5605  0.6566 -0.1555
 3980SOL    HW123402   1.731   2.487   4.297 -0.1966  0.0760 -1.5934
 3980SOL    HW223403   1.656   2.555   4.397  0.3850 -0.9887  2.3750
 3981SOL     OW23404   1.233   3.839  11.560 -0.7526 -0.5148  0.4051
 3981SOL    HW123405   1.251   3.907  11.495  0.0562 -1.7033 -0.6090
 3981SOL    HW223406   1.252   3.882  11.643  1.5642  0.7986 -0.8100
 3982SOL     OW23407   1.032   3.306   3.824 -0.4145 -0.1198  0.4007
 3982SOL    HW123408   0.971   3.235   3.839  0.7386 -0.9901  0.9179
 3982SOL    HW223409   1.117   3.269   3.846 -1.0981 -1.7062  0.3098
 3983SOL     OW23410   1.184   3.522  15.670 -0.5363  0.1432  0.5557
 3983SOL    HW123411   1.208   3.446  15.617 -1.8049  0.1724 -0.0624
 3983SOL    HW223412   1.266   3.536  15.717  0.0828 -1.1009 -0.1524
 3984SOL     OW23413   3.335   3.455   5.020  0.2236 -0.2146 -0.2205
 3984SOL    HW123414   3.325   3.396   5.095  1.4147  0.2965  0.3333
 3984SOL    HW223415   3.353   3.542   5.054 -0.3447 -0.2723  0.2256
 3985SOL     OW23416   4.628   1.671   4.558 -0.0873 -0.3866 -0.3424
 3985SOL    HW123417   4.578   1.597   4.523  1.1338 -1.7981  0.8593
 3985SOL    HW223418   4.695   1.616   4.600 -1.6689  0.1107  2.8221
 3986SOL     OW23419   2.701   0.443  13.564 -0.2714 -0.0948  0.2973
 3986SOL    HW123420   2.764   0.385  13.522 -0.4629 -0.0108 -0.1091
 3986SOL    HW223421   2.752   0.472  13.640  0.9383 -0.6778 -0.2992
 3987SOL     OW23422   3.525   1.609   1.633 -0.9735  0.0167 -0.9449
 3987SOL    HW123423   3.481   1.670   1.574 -0.9640 -0.0758 -1.0480
 3987SOL    HW223424   3.477   1.643   1.709  0.7579  1.5043 -0.5241
 3988SOL     OW23425   1.540   4.228   5.981  0.9245  1.2588 -0.1531
 3988SOL    HW123426   1.632   4.204   5.971  1.0332  1.1077  1.2010
 3988SOL    HW223427   1.539   4.324   5.982 -2.6138  1.2375 -1.0573
 3989SOL     OW23428   0.700   4.076   7.251  0.4606 -0.3294  0.1466
 3989SOL    HW123429   0.710   4.137   7.178 -2.0108 -1.0232 -0.7681
 3989SOL    HW223430   0.692   3.989   7.212 -0.3853 -0.5894  0.8980
 3990SOL     OW23431   0.748   0.998   3.852 -0.0848  0.5236 -0.0630
 3990SOL    HW123432   0.771   0.905   3.859 -2.0190  0.1389  1.3217
 3990SOL    HW223433   0.736   0.994   3.757 -1.3380 -1.9427  0.1826
 3991SOL     OW23434   2.788   0.336   3.633  0.5212 -0.3335 -0.4252
 3991SOL    HW123435   2.819   0.272   3.569  2.4403  1.8410 -1.6604
 3991SOL    HW223436   2.832   0.319   3.716  0.2271 -0.0703 -0.2126
 3992SOL     OW23437   0.194   0.574   2.895 -0.4047  0.5702 -0.3798
 3992SOL    HW123438   0.197   0.631   2.818 -1.6069  1.6664  0.3707
 3992SOL    HW223439   0.269   0.603   2.946 -0.4899 -0.3057  0.2485
 3993SOL     OW23440   3.647   3.111   3.015 -0.0996 -0.7993 -0.3317
 3993SOL    HW123441   3.645   3.106   3.110  0.7552 -1.4330 -0.3454
 3993SOL    HW223442   3.556   3.127   2.992  0.2343  1.6829  0.0904
 3994SOL     OW23443   4.344   3.692  13.390  0.1462  0.3312  0.4819
 3994SOL    HW123444   4.323   3.772  13.439 -1.1186 -1.0341  2.2029
 3994SOL    HW223445   4.258   3.668  13.357  0.6924 -1.5257  0.4135
 3995SOL     OW23446   2.318   2.083   6.773  0.1075 -0.0968  0.0323
 3995SOL    HW123447   2.298   2.068   6.865 -2.4590 -2.0701 -0.8386
 3995SOL    HW223448   2.414   2.082   6.783  0.0724 -1.4933  0.3003
 3996SOL     OW23449   0.182   4.258   5.878  0.0866 -0.1857  0.0230
 3996SOL    HW123450   0.095   4.297   5.875 -0.5914 -1.7070  0.1004
 3996SOL    HW223451   0.202   4.280   5.969 -1.9537 -3.4110  1.2519
 3997SOL     OW23452   0.005   3.805   2.219 -0.3348 -0.3999  0.4106
 3997SOL    HW123453   0.080   3.864   2.214 -0.7247  0.1847  1.5801
 3997SOL    HW223454   4.718   3.787   2.313  0.9722 -1.0344  0.3837
 3998SOL     OW23455   4.307   3.095   6.482 -0.3177  0.8316 -0.3098
 3998SOL    HW123456   4.390   3.106   6.528 -0.9391  2.5205  0.4331
 3998SOL    HW223457   4.331   3.104   6.390 -1.8734  0.1103 -0.7876
 3999SOL     OW23458   1.233   4.595   1.338 -0.5467 -0.0879 -0.3871
 3999SOL    HW123459   1.207   4.558   1.253 -3.1286 -0.0344  0.3882
 3999SOL    HW223460   1.250   4.514   1.386  1.2740  1.1426  0.9978
 4000SOL     OW23461   0.654   1.562   7.006  0.8640  0.4219 -0.5632
 4000SOL    HW123462   0.709   1.529   6.934 -0.7799 -1.4938 -0.9398
 4000SOL    HW223463   0.565   1.563   6.972  1.6689 -1.3253 -2.7549
 4001SOL     OW23464   1.078   2.840  11.543  0.2940  0.6729  0.3691
 4001SOL    HW123465   0.988   2.807  11.549  0.3392  0.5064  0.1541
 4001SOL    HW223466   1.121   2.767  11.498 -0.0509  0.5104  0.2983
 4002SOL     OW23467   4.088   3.471   6.722 -1.0104  0.3178 -0.1866
 4002SOL    HW123468   4.098   3.429   6.637 -0.4905  0.0613  0.0002
 4002SOL    HW223469   4.177   3.462   6.757 -1.5815 -1.3370  0.8208
 4003SOL     OW23470   2.737   3.151   3.271 -0.1843  0.4676  0.3402
 4003SOL    HW123471   2.756   3.166   3.364  0.2553 -0.6932  0.4422
 4003SOL    HW223472   2.723   3.056   3.273 -0.0338  0.4304 -0.6884
 4004SOL     OW23473   2.072   0.029  11.329  0.1749  0.0539 -0.0801
 4004SOL    HW123474   1.984   4.712  11.328  0.9414 -1.5753 -3.3476
 4004SOL    HW223475   2.106   0.010  11.242  0.7007 -2.2840  0.6471
 4005SOL     OW23476   2.120   3.055   1.049 -0.4390 -0.1107 -0.2167
 4005SOL    HW123477   2.163   3.008   1.120 -0.7177  0.0553  0.0606
 4005SOL    HW223478   2.094   3.141   1.084 -1.2885  0.0089 -1.1275
 4006SOL     OW23479   2.314   1.010  10.256 -0.0046  0.2386  0.2159
 4006SOL    HW123480   2.343   0.921  10.235 -1.5120 -0.0229 -0.6831
 4006SOL    HW223481   2.394   1.050  10.221  0.8791 -1.1248  0.6368
 4007SOL     OW23482   4.462   3.922   8.849 -0.0918  0.0394  0.1365
 4007SOL    HW123483   4.465   4.016   8.865 -2.4283  0.1849 -0.2823
 4007SOL    HW223484   4.532   3.890   8.906  1.4445 -1.5649 -2.6380
 4008SOL     OW23485   3.692   3.778   4.126  0.4472 -0.5924 -0.7064
 4008SOL    HW123486   3.677   3.718   4.199 -0.9710  0.1222 -0.4024
 4008SOL    HW223487   3.605   3.818   4.125  0.0947 -1.3290  1.4064
 4009SOL     OW23488   3.193   0.316  16.573  0.0528 -0.7425  0.2971
 4009SOL    HW123489   3.195   0.243  16.512 -2.2901 -0.7126  0.2082
 4009SOL    HW223490   3.234   0.276  16.650 -1.5280 -0.8296  1.0855
 4010SOL     OW23491   2.770   1.079   1.706  0.3804  0.1691  0.5929
 4010SOL    HW123492   2.789   1.132   1.783  0.0200  0.4730  0.4707
 4010SOL    HW223493   2.849   1.026   1.712  0.0037 -0.0272  3.5884
 4011SOL     OW23494   0.348   2.558  14.656  0.1005  0.0119 -0.7819
 4011SOL    HW123495   0.302   2.518  14.583  1.4392 -1.2685 -0.9401
 4011SOL    HW223496   0.289   2.550  14.731  0.3110 -1.0526 -0.7239
 4012SOL     OW23497   4.216   4.056   9.040 -0.0069  0.4774  0.4571
 4012SOL    HW123498   4.157   3.981   9.041 -0.6685  0.9624 -1.2546
 4012SOL    HW223499   4.300   4.011   9.038 -0.5783 -0.5732  0.3087
 4013SOL     OW23500   3.836   2.835   4.920 -0.3604 -0.1231  0.6724
 4013SOL    HW123501   3.851   2.895   4.847  0.1151  1.7695  2.3312
 4013SOL    HW223502   3.807   2.889   4.994 -1.5779  0.9564 -0.5913
 4014SOL     OW23503   4.398   3.073  15.176 -0.1575 -0.3160 -0.2558
 4014SOL    HW123504   4.489   3.082  15.147 -0.3946 -1.3685 -1.2929
 4014SOL    HW223505   4.359   3.026  15.103 -0.7371 -0.8842  0.4218
 4015SOL     OW23506   3.169   0.470   8.444 -0.3705 -0.5207 -0.3320
 4015SOL    HW123507   3.243   0.413   8.460  1.7679  2.1110 -0.7716
 4015SOL    HW223508   3.098   0.409   8.463 -1.3483  1.5438  2.7930
 4016SOL     OW23509   3.892   1.139   2.818 -0.0616  0.0302 -0.1858
 4016SOL    HW123510   3.886   1.071   2.751 -0.5276  0.1452 -0.2639
 4016SOL    HW223511   3.922   1.209   2.759  1.0216 -1.5478 -1.5195
 4017SOL     OW23512   4.209   2.581   2.559 -0.2501  0.2434  0.1775
 4017SOL    HW123513   4.295   2.602   2.523 -0.8154  3.3661  0.6185
 4017SOL    HW223514   4.243   2.505   2.606 -2.2375 -0.3435  0.6709
 4018SOL     OW23515   1.211   0.758   0.874 -0.0776  0.0032  0.3035
 4018SOL    HW123516   1.151   0.727   0.942 -1.2900 -0.4917 -1.0001
 4018SOL    HW223517   1.261   0.677   0.860  0.5154  0.4160  0.0323
 4019SOL     OW23518   4.265   3.431   2.482 -0.2476 -0.3556  0.3965
 4019SOL    HW123519   4.172   3.410   2.471 -0.4850  0.2031  1.3385
 4019SOL    HW223520   4.297   3.437   2.392  0.6759  1.0791  0.8241
 4020SOL     OW23521   2.231   1.276  16.268 -0.0380  0.2083  0.2447
 4020SOL    HW123522   2.203   1.368  16.271 -0.6231 -0.0111  1.6336
 4020SOL    HW223523   2.312   1.289  16.218  0.7045 -0.6024  1.2477
 4021SOL     OW23524   2.313   0.884   5.213  0.1168  0.1038  0.2154
 4021SOL    HW123525   2.297   0.870   5.120  1.4536 -1.4761  0.2117
 4021SOL    HW223526   2.312   0.794   5.246 -0.1552  0.2101  0.4978
 4022SOL     OW23527   3.219   2.358   3.506 -0.1339 -0.8168  1.0299
 4022SOL    HW123528   3.308   2.357   3.469  0.0958  1.4153  1.5449
 4022SOL    HW223529   3.233   2.334   3.598 -0.3852 -0.1851  1.2308
 4023SOL     OW23530   0.650   0.717   0.110  0.2044 -0.1410 -0.2073
 4023SOL    HW123531   0.743   0.702   0.124  0.6953  0.4229 -2.7134
 4023SOL    HW223532   0.637   0.694   0.017 -1.4074  0.7493 -0.2020
 4024SOL     OW23533   1.971   0.616   8.483  0.8175 -0.2849  0.0724
 4024SOL    HW123534   2.061   0.628   8.515  0.8212  2.7886 -1.1081
 4024SOL    HW223535   1.924   0.681   8.534 -0.4704 -2.4163  1.6077
 4025SOL     OW23536   0.491   2.133   1.837 -0.0884 -0.4749 -0.0080
 4025SOL    HW123537   0.529   2.202   1.783 -0.6354  1.1232  1.6570
 4025SOL    HW223538   0.441   2.189   1.897  0.0493  0.8926 -1.1757
 4026SOL     OW23539   3.806   3.259  10.308 -0.1113 -0.1275 -0.1850
 4026SOL    HW123540   3.813   3.350  10.278  0.3964 -0.2624 -0.4720
 4026SOL    HW223541   3.737   3.227  10.250 -0.5870 -0.0837  0.3636
 4027SOL     OW23542   2.225   2.232   4.135  0.0428 -0.1779  0.0680
 4027SOL    HW123543   2.205   2.189   4.218  1.3773  1.2977  1.1617
 4027SOL    HW223544   2.295   2.178   4.099  1.0282  0.3205  1.2416
 4028SOL     OW23545   4.612   2.406   4.358 -0.0263 -0.4022  0.4118
 4028SOL    HW123546   4.536   2.358   4.392  0.2879  0.4680  2.3689
 4028SOL    HW223547   4.680   2.374   4.418  1.0380  2.3710  0.6593
 4029SOL     OW23548   0.766   2.767  10.081  0.3636 -0.4276 -0.3256
 4029SOL    HW123549   0.780   2.756  10.175  1.5988  0.8030 -0.3748
 4029SOL    HW223550   0.760   2.861  10.064 -1.6996 -0.9139 -2.3931
 4030SOL     OW23551   1.822   1.906   4.711 -0.0169 -0.5321 -0.0279
 4030SOL    HW123552   1.780   1.980   4.669  0.6737  0.0285  0.2696
 4030SOL    HW223553   1.831   1.845   4.637 -0.8640 -1.0208  0.2663
 4031SOL     OW23554   2.793   0.544   5.355  0.7558  0.0764 -0.0469
 4031SOL    HW123555   2.860   0.494   5.402  0.9440  1.4894  1.1957
 4031SOL    HW223556   2.861   0.605   5.324  1.0342  0.0943  0.5890
 4032SOL     OW23557   1.246   3.652   3.900 -0.1552 -0.6092 -0.7501
 4032SOL    HW123558   1.200   3.702   3.833  3.1689  2.7487 -0.5352
 4032SOL    HW223559   1.169   3.605   3.933 -0.7393  0.5533 -0.4314
 4033SOL     OW23560   1.027   0.585   0.679  0.3937  0.2336  0.1758
 4033SOL    HW123561   1.104   0.628   0.718 -0.1509  1.0050  0.3973
 4033SOL    HW223562   0.981   0.571   0.762 -1.8769  0.0013 -1.1206
 4034SOL     OW23563   2.378   3.906  17.619 -0.8456 -0.4306 -0.0005
 4034SOL    HW123564   2.398   3.831  17.563 -0.7653 -1.1064  0.9317
 4034SOL    HW223565   2.285   3.913  17.597 -1.5605 -1.0574  2.8505
 4035SOL     OW23566   2.215   3.333   6.455 -0.4004  0.2190  0.0089
 4035SOL    HW123567   2.159   3.411   6.449  1.4886  1.7499  1.8005
 4035SOL    HW223568   2.277   3.353   6.525  0.7614  0.0899 -0.9946
 4036SOL     OW23569   2.879   4.426   0.595 -0.2392 -0.1109 -0.1679
 4036SOL    HW123570   2.864   4.511   0.553  0.5468  1.1159  1.9989
 4036SOL    HW223571   2.922   4.386   0.519  0.9080  0.9018 -0.0541
 4037SOL     OW23572   0.424   1.734   4.683  0.2024 -0.5579 -0.1308
 4037SOL    HW123573   0.486   1.668   4.714  1.1169 -0.4558 -1.7741
 4037SOL    HW223574   0.389   1.692   4.605  1.4641  1.2452 -1.6588
 4038SOL     OW23575   1.330   1.832  16.837 -0.5013 -0.3364 -0.7901
 4038SOL    HW123576   1.415   1.862  16.869 -0.4317  0.2915 -1.5641
 4038SOL    HW223577   1.302   1.773  16.908  1.5002  0.8114  0.9610
 4039SOL     OW23578   1.209   0.608   1.217 -0.1408  0.1909  0.0248
 4039SOL    HW123579   1.225   0.516   1.240 -1.5414 -0.0500  0.0460
 4039SOL    HW223580   1.172   0.604   1.129  0.5296 -0.5738 -0.2189
 4040SOL     OW23581   0.434   1.547   6.829  0.0681 -0.2204  0.1023
 4040SOL    HW123582   0.349   1.590   6.817  0.2398  0.2763  0.6368
 4040SOL    HW223583   0.423   1.455   6.806 -1.6318  0.4797 -1.9226
 4041SOL     OW23584   3.485   0.887   5.705 -0.5597  0.1650  0.0760
 4041SOL    HW123585   3.522   0.941   5.775  0.3241 -0.2830 -0.0396
 4041SOL    HW223586   3.465   0.954   5.639  0.7052 -0.1651 -0.6415
 4042SOL     OW23587   4.642   1.407   5.294 -0.2897  0.3534  0.2055
 4042SOL    HW123588   0.000   1.423   5.345  0.5885  0.5639 -1.2177
 4042SOL    HW223589   4.568   1.449   5.337 -0.2280  2.6650 -2.0035
 4043SOL     OW23590   0.587   1.765  17.104 -0.4099  0.4017  0.1145
 4043SOL    HW123591   0.512   1.714  17.134 -1.6096  1.0488 -1.7754
 4043SOL    HW223592   0.645   1.689  17.104  0.5717  1.1589  3.5916
 4044SOL     OW23593   3.508   2.671   1.051  0.1206 -0.7480 -0.4858
 4044SOL    HW123594   3.428   2.619   1.056  0.5126 -1.0196  2.8390
 4044SOL    HW223595   3.580   2.613   1.027 -0.6286 -1.1302 -1.8264
 4045SOL     OW23596   1.420   3.867   7.383  0.5277  0.0790 -0.1830
 4045SOL    HW123597   1.430   3.961   7.395 -0.1431 -0.2089  2.7045
 4045SOL    HW223598   1.508   3.835   7.363  0.0200  0.5690 -3.2558
 4046SOL     OW23599   0.370   3.297   1.160 -0.0322  0.3456  0.2092
 4046SOL    HW123600   0.342   3.226   1.218 -0.2921  1.0214  0.9100
 4046SOL    HW223601   0.294   3.312   1.103  0.5830 -0.5022 -0.8495
 4047SOL     OW23602   0.091   2.035   3.269  0.2788  0.1404  0.1497
 4047SOL    HW123603   0.114   2.127   3.259 -0.1887  0.2520  0.1321
 4047SOL    HW223604   0.024   2.053   3.334  0.7432 -0.7508  0.8868
 4048SOL     OW23605   2.734   2.366   7.989 -0.0522 -0.6065 -0.2151
 4048SOL    HW123606   2.817   2.400   8.023 -0.1744 -1.2793  0.7548
 4048SOL    HW223607   2.676   2.437   7.963 -1.9264 -2.1162 -0.1305
 4049SOL     OW23608   0.940   0.541   5.226 -0.6964 -0.4682  0.3179
 4049SOL    HW123609   1.002   0.585   5.167 -0.9421  0.6508  0.8966
 4049SOL    HW223610   0.890   0.498   5.156  0.6360 -1.5487  0.0208
 4050SOL     OW23611   2.425   2.208  10.010  0.2359 -0.0516  0.5647
 4050SOL    HW123612   2.349   2.259   9.980 -1.0858 -1.5437  1.3760
 4050SOL    HW223613   2.399   2.117   9.993  0.7695  0.4288 -2.7697
 4051SOL     OW23614   2.953   2.326   3.443 -0.2302  0.1458  0.4190
 4051SOL    HW123615   3.042   2.359   3.430  0.2087 -1.1630  0.1130
 4051SOL    HW223616   2.935   2.328   3.536  0.4181  2.7141  0.4918
 4052SOL     OW23617   2.684   4.655   9.163  0.1534 -0.1952 -0.7277
 4052SOL    HW123618   2.666   4.597   9.237  0.5002  1.9469  1.0145
 4052SOL    HW223619   2.596   4.676   9.132 -0.4286 -0.5700  0.6985
 4053SOL     OW23620   3.573   2.139  17.212 -0.5252  0.4280 -0.4180
 4053SOL    HW123621   3.657   2.099  17.190 -0.7909  0.2574 -1.1299
 4053SOL    HW223622   3.590   2.226  17.178 -0.0143  0.2418 -0.6448
 4054SOL     OW23623   1.036   3.738  14.565 -0.1035 -0.5413  0.6110
 4054SOL    HW123624   1.057   3.647  14.544  1.5061  0.5706 -2.6880
 4054SOL    HW223625   0.990   3.772  14.489 -2.2055 -2.0152  1.2356
 4055SOL     OW23626   3.213   0.358   2.538 -0.3001  0.0420  0.0797
 4055SOL    HW123627   3.138   0.318   2.583  0.2569  1.9175  2.7191
 4055SOL    HW223628   3.197   0.445   2.574  0.0146  0.4032 -0.6849
 4056SOL     OW23629   1.048   4.448   6.844 -0.2636  0.3893 -0.0578
 4056SOL    HW123630   0.955   4.463   6.858 -0.4749 -1.9342  1.0092
 4056SOL    HW223631   1.068   4.500   6.766 -0.6882  0.7225  0.0553
 4057SOL     OW23632   2.417   3.536   9.447 -0.3035  0.2205  0.1184
 4057SOL    HW123633   2.483   3.570   9.507 -1.5218  2.0336  0.4257
 4057SOL    HW223634   2.444   3.591   9.374  1.5352 -0.7570  0.0663
 4058SOL     OW23635   1.722   0.574  14.335  0.1708  0.1009  0.2022
 4058SOL    HW123636   1.772   0.652  14.360 -0.3130  0.3156  0.4866
 4058SOL    HW223637   1.742   0.570  14.241  0.6654  1.5179  0.2542
 4059SOL     OW23638   2.239   0.986   8.184  0.0981 -1.1549 -0.1670
 4059SOL    HW123639   2.255   0.908   8.131 -3.8125 -2.5932  0.7588
 4059SOL    HW223640   2.300   1.050   8.147 -0.9580  0.4580  0.8719
 4060SOL     OW23641   0.914   4.079   1.191 -0.0853  0.1423  0.6134
 4060SOL    HW123642   0.851   4.142   1.227 -1.5051 -0.8568 -0.1319
 4060SOL    HW223643   0.862   4.002   1.216  1.6969 -0.5416  2.1759
 4061SOL     OW23644   3.782   4.509   4.808 -0.4862  0.1162 -0.4283
 4061SOL    HW123645   3.739   4.507   4.894 -2.3878 -0.0176 -1.3905
 4061SOL    HW223646   3.774   4.423   4.766 -0.9124  0.7572 -1.6458
 4062SOL     OW23647   2.272   0.326   0.312  0.6571  0.0129 -0.1426
 4062SOL    HW123648   2.354   0.332   0.264  1.0071  1.3263  0.5895
 4062SOL    HW223649   2.282   0.236   0.343 -0.5694  0.1602  0.7123
 4063SOL     OW23650   3.430   0.437   6.920 -0.5282 -0.3733  0.1819
 4063SOL    HW123651   3.346   0.399   6.895 -0.7914  0.7920 -0.6983
 4063SOL    HW223652   3.483   0.392   6.853 -0.8296 -0.4585  0.0025
 4064SOL     OW23653   2.075   3.397   5.461 -0.2379 -0.2188  0.5108
 4064SOL    HW123654   2.090   3.460   5.531 -2.4046  0.2848  0.5544
 4064SOL    HW223655   1.980   3.397   5.475  0.1617  0.7407  3.1198
 4065SOL     OW23656   2.692   0.816   2.613 -0.7300  0.0529  0.1256
 4065SOL    HW123657   2.753   0.743   2.598 -0.2336 -0.0432  2.6802
 4065SOL    HW223658   2.616   0.766   2.645 -2.3326  2.9949  0.9296
 4066SOL     OW23659   2.300   4.094   3.410 -0.0113 -0.4877 -0.5225
 4066SOL    HW123660   2.394   4.114   3.413 -0.4807  1.2768  1.5821
 4066SOL    HW223661   2.263   4.170   3.366  0.0109 -0.4354 -0.4505
 4067SOL     OW23662   3.826   4.471   8.503  0.5239  0.2286  0.2510
 4067SOL    HW123663   3.786   4.392   8.539  2.2208 -0.1302  1.3590
 4067SOL    HW223664   3.910   4.466   8.549  0.3436 -0.5189  0.5064
 4068SOL     OW23665   3.234   2.631   0.091 -0.8172 -0.1099  0.0778
 4068SOL    HW123666   3.229   2.719   0.127 -0.7465 -0.3965  0.7818
 4068SOL    HW223667   3.171   2.582   0.144 -2.3188  1.4282 -0.2688
 4069SOL     OW23668   4.086   3.318   6.230 -0.8377  0.2139 -0.1409
 4069SOL    HW123669   4.148   3.358   6.169 -0.2206 -2.7496 -1.4605
 4069SOL    HW223670   4.088   3.223   6.214 -0.7343  0.3582 -1.0044
 4070SOL     OW23671   1.032   3.591   8.402  0.6090  0.3486  0.3634
 4070SOL    HW123672   1.123   3.572   8.424  1.3625  0.5713 -2.5044
 4070SOL    HW223673   1.000   3.604   8.491  2.5895  4.0686  0.5191
 4071SOL     OW23674   4.504   0.371   2.344 -0.3121  0.1540  0.2992
 4071SOL    HW123675   4.451   0.419   2.407 -0.0871  0.6077  0.1386
 4071SOL    HW223676   4.522   0.439   2.279  0.4858 -0.4770 -0.1559
 4072SOL     OW23677   0.884   4.474  16.045  0.0194  0.5101  0.3328
 4072SOL    HW123678   0.866   4.380  16.041  2.2548  0.1810 -1.8494
 4072SOL    HW223679   0.970   4.482  16.086  0.9138  0.6738 -1.6074
 4073SOL     OW23680   1.589   3.048   6.672  0.4372  0.2300  0.1822
 4073SOL    HW123681   1.515   3.106   6.656  1.0385  0.3362 -2.1531
 4073SOL    HW223682   1.585   3.033   6.767  2.6463 -0.4160  0.1647
 4074SOL     OW23683   1.536   2.551  12.749  0.3257 -0.3448  0.0785
 4074SOL    HW123684   1.550   2.646  12.754  3.2360 -0.6810 -1.7665
 4074SOL    HW223685   1.501   2.536  12.661 -1.5589  0.8149  0.6159
 4075SOL     OW23686   1.069   1.056   8.619 -0.4258  0.0313 -0.5519
 4075SOL    HW123687   1.040   1.147   8.628 -1.1034 -0.0916 -1.4962
 4075SOL    HW223688   1.158   1.068   8.653 -1.4205  1.5073  1.4684
 4076SOL     OW23689   2.179   4.413  17.251 -0.2452 -0.2936  0.5086
 4076SOL    HW123690   2.271   4.393  17.236 -0.4131  1.8652 -3.2227
 4076SOL    HW223691   2.147   4.375  17.169 -0.6184 -0.4709  0.7360
 4077SOL     OW23692   0.293   0.078   0.405  0.0683 -0.3849  0.1239
 4077SOL    HW123693   0.377   0.044   0.375 -1.5104 -4.0728 -0.2232
 4077SOL    HW223694   0.233   0.029   0.348  1.4960  0.1185 -1.7859
 4078SOL     OW23695   1.580   1.267   2.079 -0.1992  0.0840  0.2302
 4078SOL    HW123696   1.609   1.291   1.992  0.5447  0.1412  0.4962
 4078SOL    HW223697   1.609   1.339   2.135  0.5441 -0.0563  0.0199
 4079SOL     OW23698   3.342   0.991  13.450  0.1180 -0.0541  0.4987
 4079SOL    HW123699   3.318   0.971  13.359 -1.6796 -2.2033  1.4556
 4079SOL    HW223700   3.260   1.031  13.479  0.6855  1.4503  0.0524
 4080SOL     OW23701   3.431   4.556   5.178  0.0109 -0.0656  0.3572
 4080SOL    HW123702   3.450   4.552   5.272  0.0119 -0.2425  0.3497
 4080SOL    HW223703   3.491   4.485   5.158  0.0801 -0.1248  0.7784
 4081SOL     OW23704   2.053   0.169   1.572  0.6541  0.5072 -0.0072
 4081SOL    HW123705   2.027   0.224   1.647 -2.3974 -1.2161  0.1704
 4081SOL    HW223706   2.020   0.087   1.609  1.9155 -0.1289 -0.3167
 4082SOL     OW23707   2.781   3.507  15.837 -0.6502  0.3371 -0.2995
 4082SOL    HW123708   2.818   3.529  15.751 -1.4404 -0.5254 -0.8559
 4082SOL    HW223709   2.724   3.435  15.812  0.9468 -1.0473  0.0310
 4083SOL     OW23710   2.038   2.920   5.403  0.0242 -0.4204  0.0172
 4083SOL    HW123711   2.032   2.842   5.349 -2.1069  1.5315 -2.5825
 4083SOL    HW223712   1.946   2.940   5.418 -0.1122  1.2883 -3.1806
 4084SOL     OW23713   2.423   3.439   1.941  0.0270  0.2506 -0.4740
 4084SOL    HW123714   2.425   3.524   1.898  0.0594  0.9890  0.9786
 4084SOL    HW223715   2.444   3.460   2.032 -0.7950 -0.3259 -0.1480
 4085SOL     OW23716   0.482   1.185   6.843 -0.1244  0.0983  0.3036
 4085SOL    HW123717   0.529   1.173   6.760  1.3958  1.5477  0.9596
 4085SOL    HW223718   0.548   1.144   6.900 -0.8379 -1.6274 -0.1239
 4086SOL     OW23719   1.751   2.027   8.800 -0.0098  0.5984 -0.3284
 4086SOL    HW123720   1.748   2.094   8.732 -0.9585  1.4910  0.5831
 4086SOL    HW223721   1.720   2.082   8.872  2.5215  0.3595  0.9450
 4087SOL     OW23722   3.471   4.160  15.319 -0.3363 -0.3168  0.1293
 4087SOL    HW123723   3.448   4.184  15.408 -2.4693  0.9874 -0.7759
 4087SOL    HW223724   3.417   4.082  15.307  0.9098 -1.1589 -0.0461
 4088SOL     OW23725   2.864   3.268   6.832 -0.1676 -0.2737 -0.1392
 4088SOL    HW123726   2.946   3.312   6.854 -0.3076 -0.8780  1.5793
 4088SOL    HW223727   2.885   3.208   6.760 -2.4446 -0.6825 -0.4571
 4089SOL     OW23728   1.702   3.581   9.219  0.3485 -0.5084  0.0770
 4089SOL    HW123729   1.633   3.567   9.154  0.7623 -0.2615 -0.4171
 4089SOL    HW223730   1.782   3.584   9.166 -1.0601  0.1318 -2.0399
 4090SOL     OW23731   4.166   0.805   6.873  0.5211  0.0574  0.2167
 4090SOL    HW123732   4.210   0.756   6.942  1.7057 -0.5534 -0.9521
 4090SOL    HW223733   4.158   0.729   6.815  3.0796 -0.2690  0.2881
 4091SOL     OW23734   4.354   0.736   7.052 -0.3802 -0.2183  0.5645
 4091SOL    HW123735   4.403   0.811   7.086 -0.5994  1.0669 -1.9312
 4091SOL    HW223736   4.387   0.665   7.106  0.2636 -0.3864 -0.0469
 4092SOL     OW23737   1.033   2.857  17.585 -0.2278  0.2620 -0.3579
 4092SOL    HW123738   0.954   2.830  17.632 -1.2793  2.0983 -1.0926
 4092SOL    HW223739   0.991   2.860  17.499 -0.7914 -0.1068 -0.0979
 4093SOL     OW23740   2.052   0.529   4.913 -0.1612 -0.3259  0.7767
 4093SOL    HW123741   2.071   0.530   4.819  1.5604 -0.6318  1.1225
 4093SOL    HW223742   2.072   0.622   4.925  1.0791 -0.9618  3.3828
 4094SOL     OW23743   3.906   3.107   7.707  0.6368 -0.6166 -0.2123
 4094SOL    HW123744   3.853   3.180   7.740  0.6306 -0.5550 -0.3587
 4094SOL    HW223745   3.923   3.151   7.624  3.4761 -0.4507  0.4802
 4095SOL     OW23746   1.275   0.543  15.130 -0.2418 -0.0352 -0.1304
 4095SOL    HW123747   1.257   0.579  15.043 -3.2153 -0.4485  0.3102
 4095SOL    HW223748   1.351   0.489  15.107  0.2082  0.9796 -1.0468
 4096SOL     OW23749   4.245   4.417   7.087 -0.4783  0.0919 -0.6893
 4096SOL    HW123750   4.337   4.390   7.086 -0.6090 -0.4127  1.6567
 4096SOL    HW223751   4.256   4.498   7.136  1.2609 -0.2574 -0.4989
 4097SOL     OW23752   2.825   0.523   7.218  0.3513 -0.6240 -0.1820
 4097SOL    HW123753   2.829   0.498   7.126 -0.3248 -0.4059 -0.2668
 4097SOL    HW223754   2.740   0.566   7.226  0.1992 -0.6859 -1.5822
 4098SOL     OW23755   4.675   0.161   7.953 -0.4375  0.3068  0.8978
 4098SOL    HW123756   4.624   0.115   7.885 -0.7607  1.1313  0.5849
 4098SOL    HW223757   4.634   0.133   8.034  0.0054 -2.9505  0.0203
 4099SOL     OW23758   0.004   3.399   7.512 -0.5185 -0.4273  0.2093
 4099SOL    HW123759   4.659   3.434   7.573  2.2283  0.8900  2.4278
 4099SOL    HW223760   0.077   3.460   7.524 -0.5263 -0.1838 -1.0222
 4100SOL     OW23761   0.932   1.270   7.899  0.1315 -0.0823 -0.0996
 4100SOL    HW123762   0.968   1.275   7.810 -0.1150 -3.3788 -0.3786
 4100SOL    HW223763   0.844   1.291   7.867 -0.3190 -1.4399  0.2546
 4101SOL     OW23764   0.677   0.196   2.110  0.2089 -0.0463 -0.0731
 4101SOL    HW123765   0.600   0.138   2.113 -0.9867  1.5093 -0.8294
 4101SOL    HW223766   0.654   0.274   2.159  0.9194  0.2208 -0.1761
 4102SOL     OW23767   0.579   4.063   5.094 -0.2007  0.5657 -0.3272
 4102SOL    HW123768   0.502   4.071   5.038 -0.2286 -0.1217 -0.3972
 4102SOL    HW223769   0.604   4.154   5.110  3.1374 -0.0371 -2.1088
 4103SOL     OW23770   1.194   1.005   5.482 -0.1636 -0.4084 -0.6223
 4103SOL    HW123771   1.114   1.054   5.502  0.6868 -0.4422  2.8211
 4103SOL    HW223772   1.192   0.938   5.550 -2.3463  0.9727  0.6636
 4104SOL     OW23773   4.528   1.968   3.779 -0.0044 -0.2179  0.1444
 4104SOL    HW123774   4.492   1.975   3.690 -0.7221  1.5431  0.5805
 4104SOL    HW223775   4.514   2.056   3.813  0.5583 -1.0312  2.4953
 4105SOL     OW23776   2.942   4.104   2.163  0.2562  0.2186 -0.2990
 4105SOL    HW123777   2.855   4.107   2.123  0.7497 -2.5439 -1.5490
 4105SOL    HW223778   2.962   4.014   2.187  0.9869  0.6062  0.5638
 4106SOL     OW23779   1.655   3.052   3.009 -0.1488 -0.6342 -0.3553
 4106SOL    HW123780   1.645   3.120   3.075  3.2344 -0.4979 -0.0066
 4106SOL    HW223781   1.610   3.091   2.934 -3.2353 -0.1453  1.7520
 4107SOL     OW23782   3.026   2.070  16.123  0.5590  0.5226  0.2772
 4107SOL    HW123783   3.072   2.101  16.201 -0.6291  0.0012  1.1658
 4107SOL    HW223784   3.096   2.041  16.064  0.9216  0.2023  0.8632
 4108SOL     OW23785   1.323   3.787   6.010  0.0895  0.1180  0.0998
 4108SOL    HW123786   1.344   3.853   6.076  0.6910 -1.0484  1.0631
 4108SOL    HW223787   1.410   3.752   5.989  0.8935  2.7353 -1.0391
 4109SOL     OW23788   1.926   3.921   3.011  0.7525 -0.2741 -0.0509
 4109SOL    HW123789   2.003   3.876   3.047  0.9998 -0.0981 -0.3609
 4109SOL    HW223790   1.952   4.013   3.010  0.1078 -0.0862  0.2736
 4110SOL     OW23791   4.704   3.327   8.220  0.1500  0.3186  0.2111
 4110SOL    HW123792   4.660   3.275   8.287 -1.5031 -0.2140 -1.2822
 4110SOL    HW223793   0.017   3.256   8.164 -0.4099 -0.7817  1.2701
 4111SOL     OW23794   0.533   0.345   8.284  0.1256  0.5187 -0.4997
 4111SOL    HW123795   0.484   0.369   8.206 -2.6745 -1.4223  0.6658
 4111SOL    HW223796   0.515   0.416   8.345  0.7031 -1.0268  1.4851
 4112SOL     OW23797   2.556   3.694   3.526 -0.3505 -0.4468  0.1389
 4112SOL    HW123798   2.574   3.678   3.618  0.8181  1.4807  0.2485
 4112SOL    HW223799   2.616   3.767   3.510 -2.1050  0.8342 -0.7089
 4113SOL     OW23800   0.554   1.045  10.944 -0.5726  0.6292  0.0524
 4113SOL    HW123801   0.568   0.989  11.021  0.4473 -0.2450 -0.7820
 4113SOL    HW223802   0.595   1.127  10.973 -0.3159 -0.2802  2.2724
 4114SOL     OW23803   0.828   0.523   4.333 -0.4935 -0.2043 -0.2220
 4114SOL    HW123804   0.784   0.476   4.404 -1.4712 -1.6878 -1.8226
 4114SOL    HW223805   0.808   0.469   4.257 -0.8873  0.7449 -0.7935
 4115SOL     OW23806   4.191   1.782  13.430  0.1756 -0.2582  0.8802
 4115SOL    HW123807   4.262   1.839  13.458 -0.6969  2.4499 -2.4768
 4115SOL    HW223808   4.214   1.692  13.456  0.8504 -0.5644 -0.7848
 4116SOL     OW23809   2.991   1.011   3.630  0.1459 -0.2825 -1.0348
 4116SOL    HW123810   3.006   0.922   3.663 -0.5927 -0.1074 -0.2126
 4116SOL    HW223811   2.919   1.033   3.689  1.3848 -1.3992  0.9381
 4117SOL     OW23812   3.565   2.061   2.953  0.2625  0.4739  0.3607
 4117SOL    HW123813   3.552   2.137   2.897 -2.0536  0.4270  0.8216
 4117SOL    HW223814   3.505   1.993   2.921  1.0521 -0.3207  0.5831
 4118SOL     OW23815   3.178   0.382  14.345  0.9743 -0.7402  0.2078
 4118SOL    HW123816   3.273   0.393  14.352  0.9548 -0.9943  0.8714
 4118SOL    HW223817   3.154   0.463  14.391  0.2231 -0.3447 -0.8789
 4119SOL     OW23818   2.980   4.429   5.485  0.5239  0.1669  0.0644
 4119SOL    HW123819   2.928   4.452   5.409  1.9788 -2.8765 -1.8477
 4119SOL    HW223820   3.036   4.355   5.461 -1.4924 -0.9734 -1.1348
 4120SOL     OW23821   4.429   1.214   3.322  0.3143  0.1539  0.0321
 4120SOL    HW123822   4.346   1.174   3.296  0.6429 -1.2227  1.0762
 4120SOL    HW223823   4.439   1.170   3.407  1.2940  0.5193  0.0989
 4121SOL     OW23824   4.443   1.225  16.965 -0.5328 -0.3761 -0.2076
 4121SOL    HW123825   4.514   1.229  17.029 -0.0341 -0.2945 -0.7670
 4121SOL    HW223826   4.416   1.317  16.967 -0.8874 -0.4401 -2.3987
 4122SOL     OW23827   0.518   4.352   1.090  0.5810  0.3546  0.2852
 4122SOL    HW123828   0.543   4.434   1.132 -1.2043  0.8272  0.4139
 4122SOL    HW223829   0.457   4.316   1.155 -0.8796  0.6299 -0.9277
 4123SOL     OW23830   1.151   2.857   5.828 -0.3115 -0.3157 -0.3702
 4123SOL    HW123831   1.068   2.819   5.799 -1.5769  0.4616  2.3064
 4123SOL    HW223832   1.210   2.841   5.754 -0.1014  0.4211 -0.3637
 4124SOL     OW23833   0.973   4.450   5.084  0.1074  0.3840  0.4265
 4124SOL    HW123834   1.042   4.384   5.082 -0.6015 -0.2250 -2.8022
 4124SOL    HW223835   0.992   4.512   5.155  0.1225  1.3851 -0.4443
 4125SOL     OW23836   0.480   1.406  16.143  0.7863  0.1337 -0.2957
 4125SOL    HW123837   0.523   1.489  16.124 -0.7744  0.9151 -0.4301
 4125SOL    HW223838   0.528   1.353  16.080 -0.1018 -3.0488  1.7110
 4126SOL     OW23839   3.106   4.247   7.807 -0.2795 -0.2571  0.0302
 4126SOL    HW123840   3.184   4.191   7.803 -0.4383 -0.4416 -0.5516
 4126SOL    HW223841   3.078   4.243   7.898 -1.1366 -0.4542 -0.2465
 4127SOL     OW23842   3.817   4.332  16.347 -0.7193  0.1482  0.3308
 4127SOL    HW123843   3.846   4.260  16.291 -0.7060  0.6297 -0.2763
 4127SOL    HW223844   3.830   4.294  16.434 -0.0395 -2.5496 -0.9616
 4128SOL     OW23845   1.686   3.635  11.425 -0.7476  0.1143 -0.3147
 4128SOL    HW123846   1.615   3.644  11.362  0.6532  1.3644 -1.7004
 4128SOL    HW223847   1.687   3.718  11.474 -0.8841 -0.4161  0.5923
 4129SOL     OW23848   3.309   3.016   7.759  0.4650  0.0342  0.4782
 4129SOL    HW123849   3.342   2.929   7.737  1.9454  0.8786 -0.6140
 4129SOL    HW223850   3.378   3.063   7.713 -2.6075  4.4061  0.3711
 4130SOL     OW23851   1.335   0.946   7.113  0.4490 -0.1575  0.1327
 4130SOL    HW123852   1.319   0.957   7.020 -0.6800 -0.9231  0.2229
 4130SOL    HW223853   1.244   0.964   7.140  1.3420  3.8789  0.4431
 4131SOL     OW23854   2.314   4.065  13.520  0.0163  0.4527 -0.3827
 4131SOL    HW123855   2.362   4.034  13.597 -0.4867  0.4927 -0.0597
 4131SOL    HW223856   2.369   4.015  13.458 -0.6782 -0.6367 -0.1280
 4132SOL     OW23857   2.669   3.033  16.739  0.1547 -0.2299 -0.2676
 4132SOL    HW123858   2.593   3.016  16.794  0.7212  0.4617  0.7485
 4132SOL    HW223859   2.714   2.950  16.755 -1.0986 -0.4817  2.0308
 4133SOL     OW23860   4.187   0.808  13.875  0.2066  0.6528 -0.3870
 4133SOL    HW123861   4.139   0.818  13.957  0.9877 -0.2207  0.1733
 4133SOL    HW223862   4.263   0.864  13.895 -0.4787  0.6804  2.0878
 4134SOL     OW23863   2.418   0.379   9.951  0.6179  0.7385 -0.0508
 4134SOL    HW123864   2.479   0.331  10.007 -1.0015 -0.6253  0.5244
 4134SOL    HW223865   2.477   0.386   9.875  0.2316  0.4041 -0.3766
 4135SOL     OW23866   0.608   2.113  11.629  0.0237  0.7549 -1.0597
 4135SOL    HW123867   0.590   2.205  11.610  1.3212  1.4912  1.2545
 4135SOL    HW223868   0.546   2.064  11.575  1.5819 -1.1610 -1.0830
 4136SOL     OW23869   2.593   4.474   5.372 -0.2226 -0.2498 -0.3893
 4136SOL    HW123870   2.499   4.486   5.356  0.2064  2.8436 -0.4830
 4136SOL    HW223871   2.604   4.380   5.387  3.7184 -0.0374 -2.0680
 4137SOL     OW23872   4.112   4.279   4.083 -0.4209 -0.1479 -0.5327
 4137SOL    HW123873   4.159   4.343   4.031 -0.1911  0.7145  0.7349
 4137SOL    HW223874   4.180   4.211   4.086  0.4943  0.8581  1.3315
 4138SOL     OW23875   3.007   1.820   8.110 -0.4378  0.2945 -0.1707
 4138SOL    HW123876   2.984   1.912   8.101  0.3503  0.4456 -0.5974
 4138SOL    HW223877   3.075   1.820   8.043  2.0563 -0.1033  2.3550
 4139SOL     OW23878   0.646   1.996   2.229 -0.6218  0.6642 -0.0084
 4139SOL    HW123879   0.593   2.062   2.184  0.0363  1.9528  1.0871
 4139SOL    HW223880   0.682   1.944   2.157  0.1153 -0.2301  1.0047
 4140SOL     OW23881   2.896   0.735   8.042  0.9552 -0.2850  0.4949
 4140SOL    HW123882   2.875   0.707   8.131  0.3782 -0.6225  0.2556
 4140SOL    HW223883   2.825   0.700   7.988  0.8595  1.1303 -0.2936
 4141SOL     OW23884   0.811   3.240   5.861  0.3379 -0.2490 -0.2118
 4141SOL    HW123885   0.840   3.184   5.933  2.6481  0.5626 -0.5255
 4141SOL    HW223886   0.746   3.175   5.834 -0.3545  0.4306 -0.1965
 4142SOL     OW23887   2.804   0.289  14.758  0.0568 -0.4742  0.2454
 4142SOL    HW123888   2.784   0.382  14.759  0.4431 -0.3937  0.2063
 4142SOL    HW223889   2.895   0.284  14.730  0.1881  2.5089  0.1527
 4143SOL     OW23890   3.536   2.758   0.655 -0.1810  0.0239 -0.2124
 4143SOL    HW123891   3.483   2.681   0.634  0.5346 -0.5322  0.0273
 4143SOL    HW223892   3.497   2.778   0.741 -1.4565  0.0395 -0.7975
 4144SOL     OW23893   2.749   3.912   3.196 -0.4383  0.4729  0.6700
 4144SOL    HW123894   2.810   3.964   3.144 -0.3188 -0.2403  0.0926
 4144SOL    HW223895   2.665   3.924   3.151  0.4825 -0.5695 -1.3600
 4145SOL     OW23896   2.634   2.979   0.838  0.1405 -0.3708 -0.1506
 4145SOL    HW123897   2.598   3.067   0.842  0.4461 -0.1543 -2.8321
 4145SOL    HW223898   2.724   2.998   0.866 -0.1179  0.3377  0.2014
 4146SOL     OW23899   0.409   3.636  11.386  0.3939 -0.1207  0.0746
 4146SOL    HW123900   0.344   3.691  11.429  1.3838 -0.6444  2.2769
 4146SOL    HW223901   0.357   3.561  11.356  1.4034  0.2874 -2.6906
 4147SOL     OW23902   1.935   2.579   9.962  0.2202 -0.5247  0.0202
 4147SOL    HW123903   1.895   2.516  10.021 -0.0467 -3.0125 -2.7887
 4147SOL    HW223904   1.894   2.662   9.984  1.8040  0.6916 -1.5912
 4148SOL     OW23905   3.360   4.391   1.321  0.2002 -0.0957 -0.4555
 4148SOL    HW123906   3.283   4.381   1.376  0.3273 -0.4254 -0.3380
 4148SOL    HW223907   3.316   4.386   1.236  2.5650 -2.2860 -1.5687
 4149SOL     OW23908   0.617   2.942   5.374 -0.1653  0.0233  0.2265
 4149SOL    HW123909   0.698   2.993   5.362  1.4432 -1.9140  2.8464
 4149SOL    HW223910   0.653   2.855   5.389 -3.7196 -1.4872 -0.1185
 4150SOL     OW23911   2.201   3.706  16.656  0.4043  0.0915 -0.1676
 4150SOL    HW123912   2.260   3.739  16.724  0.4706 -0.3486 -0.0097
 4150SOL    HW223913   2.261   3.651  16.607 -0.7872  0.0345 -1.5661
 4151SOL     OW23914   4.134   2.130   3.975 -0.4538  0.6156  0.2955
 4151SOL    HW123915   4.118   2.058   3.913  1.3804 -0.9433  1.6381
 4151SOL    HW223916   4.216   2.099   4.015 -0.3110  0.0824 -0.4090
 4152SOL     OW23917   1.721   1.697   7.488  0.3834  0.1996 -0.2589
 4152SOL    HW123918   1.711   1.792   7.498  0.4267  0.3863 -1.9662
 4152SOL    HW223919   1.634   1.663   7.508  0.8651 -1.6220 -1.2570
 4153SOL     OW23920   1.160   4.130   9.643  0.4493 -1.1015  0.1413
 4153SOL    HW123921   1.192   4.083   9.566 -1.4651 -1.7957 -0.2079
 4153SOL    HW223922   1.172   4.056   9.703 -1.0047  0.6199  2.5881
 4154SOL     OW23923   1.957   3.360  15.298 -0.3748 -0.2113  0.7473
 4154SOL    HW123924   1.978   3.335  15.208 -1.4917  2.2718 -0.1931
 4154SOL    HW223925   1.872   3.316  15.298 -0.2854 -0.3952 -1.3360
 4155SOL     OW23926   1.309   3.323   2.565 -0.3616 -0.7079 -0.5301
 4155SOL    HW123927   1.323   3.383   2.638 -1.6512 -0.3120 -0.5920
 4155SOL    HW223928   1.288   3.388   2.498 -1.0013 -0.8682 -0.4876
 4156SOL     OW23929   2.290   0.904   6.907 -0.3131  0.3177  0.1490
 4156SOL    HW123930   2.319   0.976   6.962  0.6667 -0.3788  0.5371
 4156SOL    HW223931   2.372   0.856   6.895 -0.0500  0.3279  2.0195
 4157SOL     OW23932   2.016   3.895  15.013  0.5410  0.0025 -0.2069
 4157SOL    HW123933   2.108   3.920  14.999  0.2682  1.2572  0.2162
 4157SOL    HW223934   1.979   3.920  14.928 -0.0444  1.7185  0.5444
 4158SOL     OW23935   2.150   2.765   8.112 -0.0561  0.1148  0.0023
 4158SOL    HW123936   2.070   2.713   8.121  0.1561 -0.1279  0.4877
 4158SOL    HW223937   2.186   2.758   8.201 -1.2614 -1.8836  0.3189
 4159SOL     OW23938   2.634   4.591   0.923 -0.5767 -0.6401  0.2041
 4159SOL    HW123939   2.629   4.642   0.843  1.4226  0.4856  0.8064
 4159SOL    HW223940   2.604   4.645   0.996 -0.6195 -0.3959  0.0030
 4160SOL     OW23941   0.752   4.255   7.056  0.1153  0.1465 -0.0191
 4160SOL    HW123942   0.838   4.262   7.098  1.5739 -3.7471 -2.4271
 4160SOL    HW223943   0.750   4.326   6.992 -1.0607  1.3747  1.3507
 4161SOL     OW23944   4.687   1.079  10.207  0.3688  0.5495  0.0607
 4161SOL    HW123945   4.631   1.114  10.138 -1.6106 -2.6297  0.0565
 4161SOL    HW223946   4.656   0.989  10.216  0.7405  0.5964  1.8078
 4162SOL     OW23947   0.735   0.379   7.459  0.2375 -0.0566 -0.2060
 4162SOL    HW123948   0.725   0.290   7.491 -0.9335  0.4867  0.9254
 4162SOL    HW223949   0.777   0.430   7.529 -0.0573 -0.8184  0.5215
 4163SOL     OW23950   2.263   2.157   7.959  0.5412  0.1483 -0.1114
 4163SOL    HW123951   2.290   2.231   8.014  1.4766 -0.3582  0.1084
 4163SOL    HW223952   2.340   2.103   7.975  0.1683 -0.8317 -1.6977
 4164SOL     OW23953   1.514   1.766  16.118  0.0604  0.1074  0.0802
 4164SOL    HW123954   1.438   1.717  16.147  0.6836 -0.4175  0.8368
 4164SOL    HW223955   1.493   1.856  16.142  5.2223  1.2282  0.4706
 4165SOL     OW23956   0.643   1.973  15.780 -0.1482 -0.4671  0.1644
 4165SOL    HW123957   0.605   2.039  15.721 -0.6063 -1.9167 -1.1721
 4165SOL    HW223958   0.730   2.012  15.788 -0.4245  0.4622 -1.3532
 4166SOL     OW23959   2.167   3.350   1.165  0.8253  0.7944  0.4051
 4166SOL    HW123960   2.202   3.418   1.108 -0.2917  0.2673 -0.9011
 4166SOL    HW223961   2.109   3.407   1.215  0.2593  1.0674 -0.5682
 4167SOL     OW23962   0.177   2.794  13.052  0.1621 -0.6030 -0.9982
 4167SOL    HW123963   0.252   2.745  13.084 -2.0562 -3.1054  0.3661
 4167SOL    HW223964   0.176   2.862  13.120 -0.0489 -0.5151 -1.0884
 4168SOL     OW23965   3.859   1.209   4.467 -0.1651  0.1340  0.1616
 4168SOL    HW123966   3.818   1.279   4.417 -0.1477 -0.2353 -0.3707
 4168SOL    HW223967   3.823   1.231   4.553 -2.7284 -3.0993 -0.0864
 4169SOL     OW23968   1.014   3.290   3.095  1.0080 -0.1343  0.0937
 4169SOL    HW123969   0.997   3.207   3.139  0.3936 -0.4751 -0.7912
 4169SOL    HW223970   0.927   3.320   3.071 -0.2840 -3.0044  1.1130
 4170SOL     OW23971   4.142   0.280   2.392 -0.1354  0.2616  0.0137
 4170SOL    HW123972   4.163   0.334   2.315  0.7197  0.4333  0.3579
 4170SOL    HW223973   4.084   0.338   2.441  0.8561  2.2490 -1.1361
 4171SOL     OW23974   0.457   2.689   8.519 -0.0523  0.1416  0.3142
 4171SOL    HW123975   0.392   2.637   8.565 -2.0832 -0.4693 -3.2468
 4171SOL    HW223976   0.537   2.680   8.572  1.0750  1.0780 -1.2314
 4172SOL     OW23977   2.924   2.560   4.433 -0.1795 -0.3075  0.1816
 4172SOL    HW123978   2.976   2.543   4.511  1.5071  0.8845 -0.6668
 4172SOL    HW223979   2.843   2.517   4.461 -0.4929  0.0677 -0.1412
 4173SOL     OW23980   0.847   2.258   6.248  0.1350  0.2405 -0.4180
 4173SOL    HW123981   0.903   2.335   6.255 -0.7752  0.8677  0.0420
 4173SOL    HW223982   0.759   2.297   6.252  0.3387  0.7546 -0.8858
 4174SOL     OW23983   1.112   1.314   2.360 -0.6675 -0.4864  0.0486
 4174SOL    HW123984   1.154   1.355   2.436 -1.4616 -1.3750  0.9674
 4174SOL    HW223985   1.162   1.356   2.290 -3.0061 -2.1773 -2.6515
 4175SOL     OW23986   1.608   2.422   5.754  0.1235 -0.3447 -0.1949
 4175SOL    HW123987   1.544   2.472   5.703  0.0139 -2.4254 -2.0882
 4175SOL    HW223988   1.594   2.333   5.721  1.2116 -0.2545 -0.9147
 4176SOL     OW23989   3.045   4.408   8.151  0.1862  0.7541  0.1225
 4176SOL    HW123990   3.097   4.331   8.131 -0.7467 -0.1956  1.3463
 4176SOL    HW223991   3.107   4.460   8.202  0.0306  0.7360  0.3290
 4177SOL     OW23992   3.239   2.908   2.981 -0.2756 -0.1922 -0.2219
 4177SOL    HW123993   3.196   2.845   2.923  1.9162 -1.3201 -0.6535
 4177SOL    HW223994   3.230   2.860   3.064  1.6401 -0.9584 -0.4511
 4178SOL     OW23995   0.072   3.701  17.013 -0.3257 -0.1216  0.6007
 4178SOL    HW123996   4.709   3.724  16.973 -0.0774 -0.4903 -0.1198
 4178SOL    HW223997   0.053   3.697  17.107  0.5583 -0.1050  0.7860
 4179SOL     OW23998   2.276   1.817   0.178  0.3128  0.4417 -0.1089
 4179SOL    HW123999   2.352   1.759   0.180 -0.5579 -0.7491 -2.0141
 4179SOL    HW224000   2.319   1.882   0.123  1.3767 -0.8857 -0.8443
 4180SOL     OW24001   1.410   4.572   1.993  1.2352 -0.0365  0.0890
 4180SOL    HW124002   1.321   4.559   1.961  0.8803  2.6872 -0.0155
 4180SOL    HW224003   1.453   4.537   1.914  3.1193  1.8929  0.2595
 4181SOL     OW24004   1.395   4.207   8.834 -0.2430  0.1614  0.9295
 4181SOL    HW124005   1.313   4.162   8.855  0.8809 -2.6954 -0.7488
 4181SOL    HW224006   1.354   4.293   8.827  0.3891  0.3006 -1.0653
 4182SOL     OW24007   3.272   1.979   4.429  0.1887 -0.0904  0.3985
 4182SOL    HW124008   3.205   1.959   4.495 -0.3735 -1.9923 -0.7182
 4182SOL    HW224009   3.220   1.946   4.355  1.8627  2.8362 -2.0818
 4183SOL     OW24010   1.396   2.760  15.643  0.4770 -0.2099 -0.6019
 4183SOL    HW124011   1.480   2.715  15.629  0.0560 -1.2814  0.3214
 4183SOL    HW224012   1.346   2.697  15.695 -1.5264  0.5844 -1.5743
 4184SOL     OW24013   3.589   3.029   7.668  0.0147 -0.0780 -0.4506
 4184SOL    HW124014   3.608   2.995   7.581  2.3718  0.4593 -0.1331
 4184SOL    HW224015   3.615   2.951   7.718  1.2133 -0.4347 -1.6512
 4185SOL     OW24016   1.307   1.480   2.552 -0.2492 -0.3624  0.6181
 4185SOL    HW124017   1.372   1.542   2.586  0.4064 -1.0065  0.5609
 4185SOL    HW224018   1.263   1.464   2.636  0.9098  0.9400  1.4784
 4186SOL     OW24019   1.524   2.200   6.556  0.1466 -0.2392 -0.4202
 4186SOL    HW124020   1.460   2.191   6.627 -0.2190 -0.6576 -0.8026
 4186SOL    HW224021   1.466   2.203   6.481  1.3800  0.2226 -1.3530
 4187SOL     OW24022   2.984   2.998   9.107  0.2331  0.1703  0.5725
 4187SOL    HW124023   2.943   2.982   9.023 -1.6148  1.9071  1.1218
 4187SOL    HW224024   2.996   2.910   9.142 -0.7462  0.4930  1.7406
 4188SOL     OW24025   1.393   4.462  14.358  0.2967  0.3788  0.1986
 4188SOL    HW124026   1.474   4.506  14.383  0.9053 -0.8271  0.3865
 4188SOL    HW224027   1.382   4.400  14.430 -0.8099 -0.4768 -0.6895
 4189SOL     OW24028   4.246   1.689  15.254  0.3128 -0.2950 -0.7721
 4189SOL    HW124029   4.169   1.740  15.278  1.3506  1.8125 -1.8852
 4189SOL    HW224030   4.204   1.612  15.214 -1.1706 -0.2379  0.6525
 4190SOL     OW24031   1.169   3.383  12.440 -0.3265  0.2305 -0.0679
 4190SOL    HW124032   1.121   3.393  12.523 -0.2722  0.6069 -0.0808
 4190SOL    HW224033   1.220   3.464  12.449  1.8528 -1.2117  0.3392
 4191SOL     OW24034   2.477   1.378   9.219 -0.0336  0.7864 -0.0425
 4191SOL    HW124035   2.570   1.375   9.196 -0.2225  2.6857 -1.0868
 4191SOL    HW224036   2.435   1.333   9.146 -1.2323  1.5308  0.2026
 4192SOL     OW24037   1.609   0.115   4.515 -0.0759 -0.3563  0.1637
 4192SOL    HW124038   1.683   0.062   4.485  1.6597  1.9468  0.3499
 4192SOL    HW224039   1.569   0.062   4.584  0.0597 -0.4412  0.1779
 4193SOL     OW24040   1.068   2.075   7.942 -0.3865  0.4195  0.0384
 4193SOL    HW124041   1.117   2.013   7.996  0.9547  0.1306 -1.5316
 4193SOL    HW224042   1.101   2.061   7.853 -1.5000 -1.4093 -0.1086
 4194SOL     OW24043   2.096   0.149   2.317 -0.3976 -0.5789  0.1186
 4194SOL    HW124044   2.046   0.140   2.398 -3.6173 -0.1052 -1.8134
 4194SOL    HW224045   2.082   0.063   2.278 -0.4467 -1.1951  1.4905
 4195SOL     OW24046   1.343   1.859  13.418 -0.4867 -0.2698 -0.2452
 4195SOL    HW124047   1.292   1.939  13.431  2.0887  1.7643 -2.5240
 4195SOL    HW224048   1.409   1.908  13.368  1.6156 -0.2002  2.5806
 4196SOL     OW24049   3.052   0.663  17.301 -0.3855 -0.0782  0.4763
 4196SOL    HW124050   3.147   0.652  17.305 -0.4651 -0.1072  2.1779
 4196SOL    HW224051   3.039   0.731  17.367  1.4890 -0.0680  0.8408
 4197SOL     OW24052   4.370   4.665   2.956 -0.4251  0.5465  0.1544
 4197SOL    HW124053   4.399   4.699   2.872  1.7419 -1.4250  0.1059
 4197SOL    HW224054   4.274   4.665   2.949 -0.4463 -2.6337  0.2807
 4198SOL     OW24055   2.122   3.500   2.979  0.0766  0.8879  0.2211
 4198SOL    HW124056   2.175   3.474   3.054 -0.5720 -2.3462 -0.4591
 4198SOL    HW224057   2.184   3.478   2.909  0.0174 -0.5656  0.6418
 4199SOL     OW24058   0.956   4.279   6.160  0.0867  0.0419  0.0742
 4199SOL    HW124059   0.904   4.239   6.230  1.5513 -1.5509  0.2425
 4199SOL    HW224060   0.887   4.302   6.098  1.4886  0.7181 -1.2365
 4200SOL     OW24061   3.160   0.030   3.226 -0.3940  0.7211 -0.1994
 4200SOL    HW124062   3.205   4.676   3.187 -2.3842  0.2103 -1.5349
 4200SOL    HW224063   3.080   4.702   3.245  0.4945 -0.3840  0.7240
 4201SOL     OW24064   2.693   1.564   4.393  0.0201  0.0120  0.2375
 4201SOL    HW124065   2.682   1.653   4.427 -0.2105  0.6251 -1.4295
 4201SOL    HW224066   2.722   1.579   4.303 -1.7081 -3.4523 -0.8912
 4202SOL     OW24067   1.113   4.225   5.083 -0.4339  0.0383  0.2311
 4202SOL    HW124068   1.152   4.190   5.162 -1.2242  0.8063  0.9569
 4202SOL    HW224069   1.153   4.163   5.022 -1.4496 -0.2598 -0.1301
 4203SOL     OW24070   2.849   2.544   5.878 -0.2358  0.2320  0.1555
 4203SOL    HW124071   2.826   2.463   5.923  0.3560 -0.2924 -0.4778
 4203SOL    HW224072   2.771   2.592   5.905 -0.7287  1.3096 -3.1309
 4204SOL     OW24073   4.280   0.244   6.776  0.7051 -0.0144  0.0044
 4204SOL    HW124074   4.190   0.276   6.784  0.0128 -2.0865  0.5463
 4204SOL    HW224075   4.271   0.172   6.714  1.5325 -1.4855  1.6071
 4205SOL     OW24076   2.365   0.080   8.067 -0.3062 -0.3131  0.7752
 4205SOL    HW124077   2.412   4.719   8.086  1.9083 -0.0239 -3.4912
 4205SOL    HW224078   2.396   0.130   8.142  0.5283  1.1418 -0.5473
 4206SOL     OW24079   2.283   4.507  14.760 -0.3075  1.0133  0.3828
 4206SOL    HW124080   2.210   4.490  14.819  0.8436  0.6704  1.7094
 4206SOL    HW224081   2.260   4.460  14.680 -2.2511  1.3547  0.7515
 4207SOL     OW24082   1.318   4.273   1.095 -0.1729 -0.0201 -0.2783
 4207SOL    HW124083   1.276   4.214   1.158 -2.3715  2.0420  0.2112
 4207SOL    HW224084   1.307   4.220   1.016 -0.9320  1.2919 -1.0700
 4208SOL     OW24085   3.391   3.118   8.161  0.3446  0.8601 -0.3200
 4208SOL    HW124086   3.381   3.158   8.247 -1.2800  1.0883 -0.6079
 4208SOL    HW224087   3.382   3.028   8.194  0.2399  0.9808 -0.0183
 4209SOL     OW24088   1.315   4.227   9.183 -0.0200  0.4931  0.0541
 4209SOL    HW124089   1.342   4.143   9.145  0.1314  0.6161 -0.1070
 4209SOL    HW224090   1.227   4.210   9.216  1.0294 -1.0077  2.1245
 4210SOL     OW24091   2.081   1.639   0.118  0.5816 -0.0864  0.4504
 4210SOL    HW124092   2.027   1.662   0.042 -0.6795  1.4773  1.8263
 4210SOL    HW224093   2.148   1.708   0.113 -1.0777  1.5963  1.1408
 4211SOL     OW24094   0.847   1.650   2.380  0.2115 -0.2659  0.4662
 4211SOL    HW124095   0.835   1.675   2.288 -2.2545  0.5149  1.0170
 4211SOL    HW224096   0.942   1.655   2.393 -0.0736 -0.5402  2.5714
 4212SOL     OW24097   0.448   3.053  15.575  0.2270 -0.5493 -0.1067
 4212SOL    HW124098   0.532   3.008  15.565 -0.0584 -1.0886 -0.0445
 4212SOL    HW224099   0.457   3.140  15.534  0.7016  0.1594  1.5190
 4213SOL     OW24100   1.156   0.413  15.974  0.0405 -0.0105 -0.3649
 4213SOL    HW124101   1.184   0.360  16.049 -0.8347  1.2307  0.8466
 4213SOL    HW224102   1.216   0.396  15.901  1.1132  0.0487  0.5046
 4214SOL     OW24103   3.540   3.353   1.985  0.2835  0.1104  0.1559
 4214SOL    HW124104   3.526   3.346   2.079  0.2210  0.3463  0.1638
 4214SOL    HW224105   3.510   3.440   1.961 -0.9498 -0.3306  0.1309
 4215SOL     OW24106   1.507   3.991  11.758  0.2114 -0.3305  0.1535
 4215SOL    HW124107   1.535   4.031  11.840 -1.0383 -1.5018  1.1466
 4215SOL    HW224108   1.419   3.962  11.780 -0.9679  2.9709 -0.2914
 4216SOL     OW24109   1.353   1.550  14.545 -0.2015  0.8782  0.0940
 4216SOL    HW124110   1.421   1.616  14.561  2.0456 -1.2577 -0.6513
 4216SOL    HW224111   1.403   1.490  14.489  1.1666  0.8394  1.3430
 4217SOL     OW24112   4.051   0.376   6.040  0.5192 -0.3584  0.2901
 4217SOL    HW124113   4.040   0.281   6.046  2.8096 -0.5941  0.4841
 4217SOL    HW224114   3.974   0.411   6.084  2.4986 -0.6792  3.9178
 4218SOL     OW24115   3.010   0.902   7.004  0.1412 -0.0769 -0.4721
 4218SOL    HW124116   3.094   0.868   7.033  0.7633 -0.0951 -2.3072
 4218SOL    HW224117   2.963   0.911   7.087 -1.7857 -2.7143 -1.2770
 4219SOL     OW24118   2.524   1.847   6.287 -1.0234 -0.0676  0.0474
 4219SOL    HW124119   2.532   1.862   6.381 -0.5720 -0.1312  0.0176
 4219SOL    HW224120   2.586   1.775   6.275 -2.0245 -0.8135 -0.6411
 4220SOL     OW24121   1.181   3.352   4.482  0.4887 -0.3238 -0.1883
 4220SOL    HW124122   1.222   3.267   4.499 -0.1523 -0.5531  0.2122
 4220SOL    HW224123   1.125   3.338   4.405  0.6632  1.1443 -0.5824
 4221SOL     OW24124   1.956   4.627   1.540 -0.4218  0.7463  0.0912
 4221SOL    HW124125   1.868   4.600   1.516  0.0572 -0.2061 -0.5834
 4221SOL    HW224126   2.002   4.606   1.459  0.1490 -0.7283  0.7879
 4222SOL     OW24127   2.032   4.287  14.613 -0.9592 -0.1817  0.3689
 4222SOL    HW124128   2.106   4.330  14.570 -1.1958  0.3756  0.5170
 4222SOL    HW224129   1.997   4.352  14.675 -0.8973  0.4607 -0.2728
 4223SOL     OW24130   1.451   1.177  10.160 -0.5324 -0.0049 -0.2905
 4223SOL    HW124131   1.383   1.119  10.193  0.9644 -1.2305  0.6731
 4223SOL    HW224132   1.516   1.180  10.230  1.9127 -2.7701 -2.4059
 4224SOL     OW24133   1.451   0.979   3.264  0.1693 -0.3238  0.2423
 4224SOL    HW124134   1.518   1.047   3.253  0.4359 -0.8766 -1.5729
 4224SOL    HW224135   1.469   0.926   3.186  0.1688 -1.7965  1.2422
 4225SOL     OW24136   0.066   4.145   9.202 -0.1974 -0.0425  0.0501
 4225SOL    HW124137   0.119   4.102   9.268  0.0813  3.0823  1.8874
 4225SOL    HW224138   0.134   4.173   9.141 -0.0157  0.3153  0.4198
 4226SOL     OW24139   1.516   2.675  16.925  0.2703  0.3675  0.7101
 4226SOL    HW124140   1.529   2.679  16.831 -0.2256  3.3363  0.7685
 4226SOL    HW224141   1.484   2.762  16.951  0.8816  1.1435 -1.1662
 4227SOL     OW24142   3.958   3.280  17.672  0.8714  0.2152  0.6281
 4227SOL    HW124143   3.920   3.261  17.586 -1.0319  1.7343  1.1311
 4227SOL    HW224144   4.044   3.243  17.649  1.7832  1.0874  2.6775
 4228SOL     OW24145   1.717   4.599   7.990  0.1932  0.4443  0.1372
 4228SOL    HW124146   1.808   4.568   7.999 -0.1155 -0.0691  1.6299
 4228SOL    HW224147   1.706   4.601   7.895 -3.4453  0.4410  0.5649
 4229SOL     OW24148   4.350   3.513   5.500 -0.2684  0.2854 -1.1785
 4229SOL    HW124149   4.398   3.582   5.545 -2.3996  0.3963  0.9618
 4229SOL    HW224150   4.266   3.555   5.480  0.5673  2.8679  0.7240
 4230SOL     OW24151   2.630   3.593   3.777  0.6578  0.6545  0.0836
 4230SOL    HW124152   2.659   3.653   3.846 -1.4239  3.0674 -1.1131
 4230SOL    HW224153   2.699   3.530   3.793  0.1843  0.1311  0.0675
 4231SOL     OW24154   3.865   2.619  13.820 -0.0638  0.2279  0.3402
 4231SOL    HW124155   3.900   2.705  13.843 -0.1676 -0.4833  3.0869
 4231SOL    HW224156   3.776   2.639  13.849 -1.1857 -1.6450 -1.7948
 4232SOL     OW24157   4.475   1.485   4.377 -0.6172 -0.1132  0.1197
 4232SOL    HW124158   4.519   1.548   4.320 -0.7209  0.5774  0.7970
 4232SOL    HW224159   4.394   1.470   4.327 -0.3825  1.5607 -0.7669
 4233SOL     OW24160   3.077   1.754  12.284 -0.4340 -0.0641 -0.0232
 4233SOL    HW124161   3.095   1.669  12.324  1.2506 -1.3296 -3.4321
 4233SOL    HW224162   3.007   1.735  12.222 -0.4398 -1.3824  0.3792
 4234SOL     OW24163   1.288   1.454   5.914  0.6282 -0.5056  0.2558
 4234SOL    HW124164   1.278   1.548   5.926 -0.8086 -0.6714  0.3697
 4234SOL    HW224165   1.358   1.434   5.976  1.3962  1.0149 -0.1275
 4235SOL     OW24166   0.495   0.883   2.988  0.0262  0.0274  0.0647
 4235SOL    HW124167   0.521   0.793   2.970  3.4188  0.9298  0.5931
 4235SOL    HW224168   0.578   0.930   2.987  2.1765 -3.8617 -3.2091
 4236SOL     OW24169   4.556   3.285  15.464  0.3280  0.2442 -0.4039
 4236SOL    HW124170   4.614   3.285  15.388  1.9119  1.5857  0.8119
 4236SOL    HW224171   4.597   3.234  15.534 -2.5439 -1.8315 -0.2617
 4237SOL     OW24172   3.464   3.286  12.767 -0.1734 -0.1677  0.2552
 4237SOL    HW124173   3.440   3.352  12.701 -2.2235 -2.7972 -1.5991
 4237SOL    HW224174   3.404   3.314  12.837  0.2520 -0.8592  0.8892
 4238SOL     OW24175   1.084   0.768   7.075 -0.0752  0.0994  0.2255
 4238SOL    HW124176   1.115   0.748   6.986 -0.9718 -2.1910  0.4437
 4238SOL    HW224177   1.125   0.701   7.130 -1.9057 -1.7121 -0.6291
 4239SOL     OW24178   4.316   4.390   2.665  0.3905 -0.2203  0.1755
 4239SOL    HW124179   4.366   4.376   2.745  0.1525 -0.5473  0.2722
 4239SOL    HW224180   4.331   4.309   2.615 -0.9830  0.6321 -1.6286
 4240SOL     OW24181   2.884   0.127   0.705 -0.1569  0.2366 -0.6257
 4240SOL    HW124182   2.886   0.168   0.791 -0.9783  0.8642 -0.9082
 4240SOL    HW224183   2.971   0.090   0.692  0.1144  0.9099 -0.7117
 4241SOL     OW24184   4.615   2.772  10.596 -0.5331  0.0203 -0.3071
 4241SOL    HW124185   4.584   2.689  10.630 -0.0409  0.4931  1.2654
 4241SOL    HW224186   4.677   2.732  10.535  1.1053  0.0780  1.3153
 4242SOL     OW24187   1.632   2.274  12.778  0.0162 -0.5013 -0.0568
 4242SOL    HW124188   1.554   2.261  12.831 -1.4832  0.1008 -2.0829
 4242SOL    HW224189   1.595   2.278  12.690  1.8072  2.7038 -0.6784
 4243SOL     OW24190   1.407   2.163   9.163 -0.3762 -0.0888 -0.1196
 4243SOL    HW124191   1.485   2.179   9.110 -0.7307 -0.6011 -0.7909
 4243SOL    HW224192   1.438   2.155   9.254 -3.1705 -1.7792  0.6816
 4244SOL     OW24193   3.649   4.182   0.465 -0.5494 -0.2486  0.1666
 4244SOL    HW124194   3.687   4.182   0.377  1.3357 -0.4293  0.9895
 4244SOL    HW224195   3.697   4.110   0.506 -0.2811 -1.5445 -2.4090
 4245SOL     OW24196   0.460   3.625   2.220 -0.3598  0.0105 -0.3952
 4245SOL    HW124197   0.499   3.684   2.155 -2.5356  1.9226  0.0330
 4245SOL    HW224198   0.529   3.609   2.284  0.5209  1.6071 -0.9446
 4246SOL     OW24199   2.153   4.004  10.730  0.0675 -0.4969 -0.0420
 4246SOL    HW124200   2.152   3.931  10.792 -1.9051 -0.7221 -0.3307
 4246SOL    HW224201   2.182   3.962  10.649 -0.0860 -2.1360  0.7431
 4247SOL     OW24202   2.723   1.671   7.819 -0.1982  0.1894 -0.0927
 4247SOL    HW124203   2.743   1.676   7.912 -0.6770  1.8448 -0.0784
 4247SOL    HW224204   2.805   1.676   7.771  0.2987  0.8248  0.8468
 4248SOL     OW24205   0.599   3.572   8.569 -0.9344 -0.4043  0.1577
 4248SOL    HW124206   0.527   3.613   8.616 -0.4603 -0.7007  1.1380
 4248SOL    HW224207   0.606   3.627   8.490 -1.5968 -1.1328 -0.4057
 4249SOL     OW24208   0.653   1.855  13.643 -0.4426 -0.2918 -0.4284
 4249SOL    HW124209   0.657   1.820  13.732  1.2995 -2.4323 -1.3455
 4249SOL    HW224210   0.694   1.783  13.595 -1.0920 -3.0019  3.1599
 4250SOL     OW24211   4.090   1.259   3.803  0.1755 -0.6395 -0.7029
 4250SOL    HW124212   4.051   1.346   3.806  1.3005 -0.1348 -0.8066
 4250SOL    HW224213   4.023   1.225   3.863 -0.7136 -1.5504 -2.2027
 4251SOL     OW24214   1.216   0.782  11.224  0.1816 -0.0521 -0.1505
 4251SOL    HW124215   1.301   0.795  11.266 -0.0748 -0.7032  0.5728
 4251SOL    HW224216   1.159   0.774  11.301 -1.4944 -2.0466 -1.5999
 4252SOL     OW24217   2.569   0.101  15.827 -0.1164  0.5696 -0.2559
 4252SOL    HW124218   2.664   0.103  15.816 -0.5346  2.6703 -3.5982
 4252SOL    HW224219   2.562   0.080  15.919 -1.1305  0.0068 -0.4701
 4253SOL     OW24220   2.908   2.388   3.689 -0.1003  0.0169 -0.0407
 4253SOL    HW124221   2.898   2.462   3.629 -0.1896  0.8011  0.9376
 4253SOL    HW224222   2.886   2.423   3.776 -2.1969 -0.4254 -0.3963
 4254SOL     OW24223   2.054   1.969   9.145 -0.3400  0.4474  0.0363
 4254SOL    HW124224   2.053   1.986   9.051  0.3097 -1.4500 -0.3206
 4254SOL    HW224225   2.144   1.937   9.156 -0.4456  0.3537  0.5921
 4255SOL     OW24226   1.075   3.685   6.011 -0.2483 -0.1446  0.4274
 4255SOL    HW124227   1.012   3.739   6.060  0.7951 -1.0539  2.7321
 4255SOL    HW224228   1.153   3.739   6.020  0.2227 -0.2553 -3.1615
 4256SOL     OW24229   3.012   3.954   0.341  0.1812  0.0159  0.0760
 4256SOL    HW124230   2.928   3.955   0.386  0.1849 -1.6579  0.1315
 4256SOL    HW224231   3.027   3.861   0.360 -0.7295 -0.1856 -0.1588
 4257SOL     OW24232   4.047   1.062   4.638 -0.3348 -0.1021 -0.0189
 4257SOL    HW124233   4.013   1.103   4.558  0.0934 -0.5899 -0.4443
 4257SOL    HW224234   3.970   1.022   4.678 -1.3605 -1.4045 -3.2870
 4258SOL     OW24235   2.204   1.491   3.741 -0.1184 -0.6640 -1.2833
 4258SOL    HW124236   2.123   1.498   3.690  1.1690  0.2291 -3.1971
 4258SOL    HW224237   2.249   1.426   3.687  1.3891  1.1470 -2.1628
 4259SOL     OW24238   2.120   1.077   4.196 -0.6847 -0.0027  0.0466
 4259SOL    HW124239   2.164   1.017   4.135  0.3270  2.4518 -1.6369
 4259SOL    HW224240   2.056   1.016   4.232  0.3036 -0.2796  1.3249
 4260SOL     OW24241   4.059   4.065   6.322  0.2194 -0.1465  0.1448
 4260SOL    HW124242   4.056   4.029   6.233 -1.0899 -0.9430  0.5077
 4260SOL    HW224243   3.999   4.139   6.322 -0.3893 -0.6431  0.9229
 4261SOL     OW24244   4.607   0.901  16.106  0.0803  0.1979 -0.2396
 4261SOL    HW124245   4.679   0.910  16.168 -2.2648 -1.9362  2.8105
 4261SOL    HW224246   4.590   0.993  16.087 -1.1220  0.2541  1.1147
 4262SOL     OW24247   1.560   0.899   5.079 -0.4902 -0.3826  0.4602
 4262SOL    HW124248   1.617   0.929   5.149 -1.5362 -0.3125  1.2673
 4262SOL    HW224249   1.620   0.828   5.054 -0.8212  0.4003 -2.6584
 4263SOL     OW24250   0.765   1.319   2.718 -0.2224  0.5180 -0.3296
 4263SOL    HW124251   0.762   1.293   2.626  1.0610  0.8203 -0.4530
 4263SOL    HW224252   0.859   1.324   2.734  0.1049 -1.4615 -1.7339
 4264SOL     OW24253   3.563   3.651   7.958 -0.1092 -0.1218  0.7630
 4264SOL    HW124254   3.481   3.643   8.007  0.1415 -0.4975  1.1174
 4264SOL    HW224255   3.526   3.632   7.871 -0.8774 -2.4592  1.6021
 4265SOL     OW24256   3.253   0.807   7.053  0.7140 -0.5225 -0.2552
 4265SOL    HW124257   3.284   0.716   7.051 -1.7173 -1.3417 -0.6509
 4265SOL    HW224258   3.262   0.831   7.145  0.9396 -0.9288 -0.1675
 4266SOL     OW24259   2.833   2.076   2.100 -0.0974  0.2403  0.4672
 4266SOL    HW124260   2.801   2.081   2.190 -0.1658 -0.0900  0.4580
 4266SOL    HW224261   2.775   2.136   2.052 -0.1716 -0.7310 -0.6469
 4267SOL     OW24262   1.925   1.780   8.413 -0.0045  0.3230  0.2603
 4267SOL    HW124263   1.996   1.746   8.360  1.4887  1.5655  1.4601
 4267SOL    HW224264   1.847   1.762   8.361  0.1979 -3.0131  1.1542
 4268SOL     OW24265   2.968   4.645   6.346 -0.1158  0.0965 -0.5569
 4268SOL    HW124266   2.960   4.679   6.256 -1.1685 -1.8031 -1.1827
 4268SOL    HW224267   3.064   4.641   6.341 -0.0990  0.0720 -0.1956
 4269SOL     OW24268   2.071   4.059   9.001 -0.0191 -0.9022 -0.6462
 4269SOL    HW124269   1.980   4.080   9.022  0.4674  1.8917 -1.3099
 4269SOL    HW224270   2.112   4.146   8.991  0.0089 -0.8850 -0.3792
 4270SOL     OW24271   0.816   2.732   5.222  0.1040  0.1393  0.3314
 4270SOL    HW124272   0.790   2.751   5.132  0.9900 -1.6034 -0.2984
 4270SOL    HW224273   0.898   2.781   5.224 -1.2260  2.3596 -0.5430
 4271SOL     OW24274   2.395   1.674   4.912  0.3273  0.2156 -0.2747
 4271SOL    HW124275   2.419   1.584   4.933  1.7669  1.2897  2.6880
 4271SOL    HW224276   2.439   1.684   4.827  0.7270  2.1755  0.1684
 4272SOL     OW24277   0.569   1.155   8.181 -0.0983  0.1721  0.1230
 4272SOL    HW124278   0.642   1.150   8.242 -0.2873  0.0810  0.3413
 4272SOL    HW224279   0.601   1.116   8.100 -1.2228 -0.6450  0.0718
 4273SOL     OW24280   4.166   3.766   7.767  0.1964  0.6889 -0.8992
 4273SOL    HW124281   4.170   3.718   7.850  0.3587 -1.1627 -1.9693
 4273SOL    HW224282   4.111   3.839   7.795  0.2008 -0.8172  3.0012
 4274SOL     OW24283   2.239   3.398   2.582  0.2356 -0.1032  0.3070
 4274SOL    HW124284   2.297   3.435   2.514 -1.1801 -1.3012 -1.5490
 4274SOL    HW224285   2.170   3.367   2.524  0.3538 -1.9750  1.1704
 4275SOL     OW24286   0.280   1.359   5.602 -0.2162  0.6537 -0.5511
 4275SOL    HW124287   0.362   1.327   5.565 -0.4625 -2.2710  1.4132
 4275SOL    HW224288   0.228   1.385   5.526 -0.2685 -1.8410 -1.3667
 4276SOL     OW24289   4.226   0.609   3.887  0.0334  0.4046  0.4235
 4276SOL    HW124290   4.224   0.683   3.826  0.1523 -1.6139 -2.0337
 4276SOL    HW224291   4.173   0.646   3.958 -1.8400 -0.3352 -0.5850
 4277SOL     OW24292   4.099   0.608   7.932  0.1177  0.7909 -0.3839
 4277SOL    HW124293   4.061   0.696   7.933 -0.9739  0.3104 -0.8528
 4277SOL    HW224294   4.131   0.592   7.843  1.2901 -0.7999  0.3272
 4278SOL     OW24295   4.698   1.315   5.589 -0.2219  0.6088 -0.1452
 4278SOL    HW124296   4.639   1.240   5.580 -0.1347  0.6256 -0.9178
 4278SOL    HW224297   4.647   1.373   5.644 -2.0393  0.0057 -1.1958
 4279SOL     OW24298   1.200   0.557   2.146  0.6222 -0.8542  0.2413
 4279SOL    HW124299   1.182   0.635   2.199  0.5825  0.4902 -1.7043
 4279SOL    HW224300   1.274   0.587   2.093  0.1411  1.0256  0.6246
 4280SOL     OW24301   0.389   2.093   5.653 -0.4902 -0.2801  0.1492
 4280SOL    HW124302   0.323   2.084   5.722  0.7517  1.2402  1.5374
 4280SOL    HW224303   0.472   2.062   5.691 -0.1955 -1.0139 -1.0553
 4281SOL     OW24304   0.334   0.860   5.962  0.2685  0.0070  0.8943
 4281SOL    HW124305   0.414   0.876   5.911 -0.0948  0.5719  0.5050
 4281SOL    HW224306   0.277   0.816   5.899 -0.4807  2.5028 -0.1923
 4282SOL     OW24307   1.141   3.187  15.993 -0.1479  0.7431 -0.0328
 4282SOL    HW124308   1.128   3.200  16.087  1.0689  0.9157  0.1143
 4282SOL    HW224309   1.137   3.092  15.981 -0.8906  0.9546 -1.4856
 4283SOL     OW24310   1.460   0.622  13.333 -0.3883  0.1410  0.4388
 4283SOL    HW124311   1.476   0.658  13.420  0.9766 -0.7248  0.5385
 4283SOL    HW224312   1.365   0.610  13.332 -0.6711  2.6044 -0.2888
 4284SOL     OW24313   1.571   2.099   4.809  0.0304 -0.1897 -0.3271
 4284SOL    HW124314   1.512   2.150   4.865 -0.6825  0.5219 -1.7089
 4284SOL    HW224315   1.511   2.096   4.734  0.9996  0.0319 -1.0956
 4285SOL     OW24316   2.178   4.346   4.923 -0.0819 -0.1143  0.0898
 4285SOL    HW124317   2.225   4.413   4.872 -0.7244 -1.6043 -2.4362
 4285SOL    HW224318   2.087   4.370   4.910 -0.5881 -1.1673  1.8358
 4286SOL     OW24319   2.300   1.568   0.556 -0.2216 -0.1486  0.0051
 4286SOL    HW124320   2.337   1.528   0.635  1.2128  0.8003 -0.1834
 4286SOL    HW224321   2.303   1.663   0.568 -0.9091 -0.3513  1.6882
 4287SOL     OW24322   3.558   1.805   8.288 -0.1358  0.1365 -0.7812
 4287SOL    HW124323   3.527   1.778   8.374 -0.6578  2.1910 -0.3231
 4287SOL    HW224324   3.481   1.824   8.235 -0.6870 -0.3519 -0.1526
 4288SOL     OW24325   2.221   2.841   7.858  0.2199  0.1515  0.2616
 4288SOL    HW124326   2.180   2.814   7.940  1.0645  0.4500  0.7803
 4288SOL    HW224327   2.206   2.756   7.817 -0.0801 -0.5397  1.7827
 4289SOL     OW24328   0.893   4.654  17.440  0.4439  0.4123 -0.0873
 4289SOL    HW124329   0.958   4.697  17.495  0.9953  0.4841 -0.7878
 4289SOL    HW224330   0.862   4.585  17.498  0.8777  2.0145  2.0464
 4290SOL     OW24331   1.142   4.574   3.547 -0.2365  0.8823 -0.0094
 4290SOL    HW124332   1.126   4.648   3.487  2.0361 -0.6419 -2.4678
 4290SOL    HW224333   1.171   4.503   3.490  2.8208  1.4071  0.9285
 4291SOL     OW24334   4.485   4.221  10.320  0.0135 -0.1228 -0.1130
 4291SOL    HW124335   4.474   4.149  10.258 -1.3396 -0.2432  0.2682
 4291SOL    HW224336   4.558   4.263  10.275  1.9804 -2.9433  0.4654
 4292SOL     OW24337   4.227   1.065   6.938  0.0124  0.3494 -0.4466
 4292SOL    HW124338   4.202   1.079   7.029 -0.9573 -1.0502 -0.4959
 4292SOL    HW224339   4.187   0.980   6.918  1.0792 -0.2909  0.1353
 4293SOL     OW24340   1.080   0.956   5.801 -0.2523  0.2082  0.7032
 4293SOL    HW124341   1.035   1.013   5.739 -0.1168 -3.4910 -2.7903
 4293SOL    HW224342   1.079   1.005   5.884 -0.5042  1.1647  0.1384
 4294SOL     OW24343   0.062   2.308  16.486 -0.2616  0.6171  0.0053
 4294SOL    HW124344   0.089   2.360  16.410 -2.1270  0.8031 -0.5282
 4294SOL    HW224345   4.714   2.364  16.521  0.5458  2.2648 -1.0258
 4295SOL     OW24346   3.140   3.383   4.846 -0.7318 -0.0413 -1.0321
 4295SOL    HW124347   3.130   3.299   4.891 -0.6183 -0.5727 -2.0034
 4295SOL    HW224348   3.221   3.424   4.878 -2.0567  0.3229  1.8730
 4296SOL     OW24349   1.302   1.238   6.805  0.5864  0.5779  0.4237
 4296SOL    HW124350   1.242   1.293   6.755  0.3197  1.7870  2.0878
 4296SOL    HW224351   1.350   1.298   6.862  2.1267 -1.1375  0.9272
 4297SOL     OW24352   2.616   1.954   3.240  0.2607  0.2738 -0.3508
 4297SOL    HW124353   2.564   1.881   3.206  0.4754  1.0596 -2.3780
 4297SOL    HW224354   2.586   1.960   3.330  0.2345 -3.6303 -0.0937
 4298SOL     OW24355   0.288   3.395   6.873 -0.0903 -0.0503 -0.3945
 4298SOL    HW124356   0.356   3.451   6.837  1.7558 -1.8293  0.2697
 4298SOL    HW224357   0.331   3.309   6.874  1.0551  0.5407 -0.0270
 4299SOL     OW24358   1.877   0.259   8.505 -0.0260 -0.1503  0.1840
 4299SOL    HW124359   1.875   0.335   8.448 -1.1374 -1.8730 -2.0792
 4299SOL    HW224360   1.788   0.266   8.541 -0.0828  0.8343 -0.1555
 4300SOL     OW24361   1.016   3.627   5.019  0.1129 -0.1950 -0.4279
 4300SOL    HW124362   0.958   3.697   4.988 -0.5809 -1.5706 -2.2173
 4300SOL    HW224363   0.992   3.553   4.964  2.5800  0.8966 -3.0028
 4301SOL     OW24364   1.776   3.812   8.940 -0.4582 -0.3971  0.4852
 4301SOL    HW124365   1.849   3.802   9.002 -0.8091  1.0135  1.1428
 4301SOL    HW224366   1.765   3.905   8.960 -3.4965 -0.9316  1.3482
 4302SOL     OW24367   3.313   1.174  13.781 -0.2119 -0.1109  0.2057
 4302SOL    HW124368   3.323   1.259  13.823  1.5071 -0.2771  0.1332
 4302SOL    HW224369   3.223   1.184  13.751 -0.1284 -2.6554 -0.9404
 4303SOL     OW24370   1.387   0.624   1.623 -0.4849  0.4645 -0.0419
 4303SOL    HW124371   1.421   0.641   1.536  2.5974  0.5460  1.1686
 4303SOL    HW224372   1.471   0.610   1.668 -1.6284 -0.0726  1.9569
 4304SOL     OW24373   4.446   0.542  17.121  0.2438  0.7496 -0.2010
 4304SOL    HW124374   4.367   0.597  17.126  0.3531  0.7193  2.1658
 4304SOL    HW224375   4.511   0.605  17.152  0.5619  0.7749 -0.9172
 4305SOL     OW24376   2.475   1.346   1.105  0.1901 -0.3521 -0.3028
 4305SOL    HW124377   2.527   1.280   1.058 -0.8799 -0.4613 -1.3495
 4305SOL    HW224378   2.460   1.296   1.185  0.3577  0.7364  0.3982
 4306SOL     OW24379   1.842   0.817  14.404  0.1981 -0.8624 -0.1808
 4306SOL    HW124380   1.823   0.902  14.445  0.4892  0.3548 -2.5517
 4306SOL    HW224381   1.928   0.845  14.372  0.6565  0.9813  2.6549
 4307SOL     OW24382   3.892   2.462  11.894 -0.0054 -0.2482 -0.6016
 4307SOL    HW124383   3.836   2.488  11.821  0.8148  3.3148  0.0529
 4307SOL    HW224384   3.970   2.512  11.869  0.1703  0.8976  2.2538
 4308SOL     OW24385   2.175   1.513   8.823  0.8177  0.0186 -0.3619
 4308SOL    HW124386   2.237   1.447   8.854 -0.3209 -0.6509  0.4938
 4308SOL    HW224387   2.163   1.498   8.729  1.1637 -1.7151 -0.1295
 4309SOL     OW24388   1.547   0.270   7.196  0.0713 -0.4090 -0.3403
 4309SOL    HW124389   1.626   0.309   7.160  1.3936 -1.8863  0.9944
 4309SOL    HW224390   1.573   0.260   7.287  0.1385  2.3053 -0.0445
 4310SOL     OW24391   0.287   3.678  16.437  0.1694  0.1182 -0.3109
 4310SOL    HW124392   0.221   3.747  16.441 -1.2122 -1.2826  0.8224
 4310SOL    HW224393   0.288   3.652  16.345  0.2302  0.4643 -0.4067
 4311SOL     OW24394   0.057   0.765   1.874  0.0789 -0.1186  0.2715
 4311SOL    HW124395   0.001   0.746   1.950  1.7772  0.6573  1.7222
 4311SOL    HW224396   0.123   0.697   1.884  0.5352  0.1025 -1.3018
 4312SOL     OW24397   1.930   3.738  11.686 -0.2574 -0.2412  0.1867
 4312SOL    HW124398   1.860   3.772  11.631 -0.6447 -2.7128 -0.8618
 4312SOL    HW224399   1.888   3.762  11.769 -2.5667  0.6488 -1.2541
 4313SOL     OW24400   1.701   0.830   2.492  0.1241 -0.1144  0.6080
 4313SOL    HW124401   1.685   0.924   2.498 -0.8050 -0.1087 -1.7515
 4313SOL    HW224402   1.672   0.793   2.575 -2.5720  0.0159 -0.2573
 4314SOL     OW24403   3.993   0.826   4.324  0.1593 -0.1150  0.2151
 4314SOL    HW124404   4.062   0.884   4.356  1.2813  1.2860 -4.7278
 4314SOL    HW224405   3.920   0.866   4.372 -0.6820 -1.2678 -0.0908
 4315SOL     OW24406   0.904   3.001   3.657  0.7331 -0.1307  0.3139
 4315SOL    HW124407   0.910   2.918   3.703  0.6165 -0.6690 -0.6534
 4315SOL    HW224408   0.829   2.984   3.601  2.3871  1.2122 -2.3605
 4316SOL     OW24409   0.336   3.658   4.678  0.5638 -0.0086  0.0841
 4316SOL    HW124410   0.347   3.676   4.585 -2.7786 -0.5481 -0.4039
 4316SOL    HW224411   0.322   3.564   4.680  1.7264 -0.1776  0.7918
 4317SOL     OW24412   1.632   0.197   6.403 -0.3797  0.3130 -0.0908
 4317SOL    HW124413   1.576   0.141   6.457  1.1294 -0.6767  0.4515
 4317SOL    HW224414   1.700   0.218   6.467  2.1751 -1.8908 -2.1156
 4318SOL     OW24415   3.978   1.689   4.053 -0.1516  0.5755 -0.3047
 4318SOL    HW124416   4.024   1.772   4.064 -0.3301  0.6109  0.1702
 4318SOL    HW224417   3.916   1.691   4.126 -1.8145 -1.5425 -1.6379
 4319SOL     OW24418   0.114   0.927  10.010 -0.0274  0.2179 -0.7419
 4319SOL    HW124419   0.018   0.924  10.013  0.0299  0.0275  1.4909
 4319SOL    HW224420   0.129   0.881   9.928 -1.4611 -1.6091  0.0039
 4320SOL     OW24421   3.746   3.447   5.572 -0.0276 -0.6023  0.1446
 4320SOL    HW124422   3.791   3.371   5.610  0.2774 -0.3994  0.1926
 4320SOL    HW224423   3.657   3.413   5.562  0.5912 -1.6966 -1.6960
 4321SOL     OW24424   2.862   2.818  11.513  0.2805 -0.3264 -0.5229
 4321SOL    HW124425   2.881   2.747  11.451 -0.9531 -1.0024 -0.1164
 4321SOL    HW224426   2.897   2.771  11.589  2.0890 -2.7286 -2.8088
 4322SOL     OW24427   1.967   0.938   5.328  0.1995  0.0819 -1.0432
 4322SOL    HW124428   1.994   0.893   5.408 -1.2965  1.1039  0.0458
 4322SOL    HW224429   1.991   0.868   5.268 -0.6681  0.2064 -1.5439
 4323SOL     OW24430   1.548   1.661   4.318  0.5694 -0.1975 -0.9512
 4323SOL    HW124431   1.617   1.722   4.343 -0.5067  0.7504 -0.3162
 4323SOL    HW224432   1.492   1.642   4.393  1.0790  0.5171 -0.3878
 4324SOL     OW24433   2.224   4.567   4.760 -0.2114 -0.0001  0.1033
 4324SOL    HW124434   2.137   4.599   4.785  0.3732  0.9410  0.9642
 4324SOL    HW224435   2.268   4.652   4.748 -0.3354  0.2800  1.6283
 4325SOL     OW24436   0.556   0.750  11.493  0.0702 -0.1788  0.1365
 4325SOL    HW124437   0.629   0.812  11.479  1.1504 -1.2741  0.9654
 4325SOL    HW224438   0.506   0.762  11.412  2.4627  1.0096 -1.1703
 4326SOL     OW24439   0.828   1.919   2.680 -0.4890  0.3770  0.2978
 4326SOL    HW124440   0.914   1.923   2.639  0.0777 -0.3929  1.4520
 4326SOL    HW224441   0.767   1.931   2.606  1.5553 -2.1242 -1.7820
 4327SOL     OW24442   2.872   1.068   4.366  0.1609 -0.1491  0.1993
 4327SOL    HW124443   2.819   1.148   4.366  1.7838  0.9119  1.4559
 4327SOL    HW224444   2.876   1.056   4.461 -1.2675  2.5378  0.5911
 4328SOL     OW24445   4.372   1.111   3.909 -0.0762 -0.0877 -0.2363
 4328SOL    HW124446   4.359   1.205   3.891  1.9456 -0.0968 -1.6848
 4328SOL    HW224447   4.379   1.108   4.005  1.5362 -1.4648 -0.4042
 4329SOL     OW24448   3.237   1.056   6.421  0.2131 -0.1953 -0.2770
 4329SOL    HW124449   3.172   1.025   6.358 -1.3377 -0.6323  1.5505
 4329SOL    HW224450   3.286   0.974   6.432  0.7325 -0.0841 -1.7330
 4330SOL     OW24451   2.203   1.817   6.923 -0.1625 -0.1902 -0.2610
 4330SOL    HW124452   2.155   1.867   6.990  0.1063 -0.4633  0.1317
 4330SOL    HW224453   2.256   1.758   6.976 -0.9271 -2.6812 -2.2934
 4331SOL     OW24454   2.133   2.697  13.679  0.3145 -0.2103 -0.7671
 4331SOL    HW124455   2.149   2.612  13.638  0.7666  0.6547 -2.4224
 4331SOL    HW224456   2.196   2.753  13.634  1.4229 -0.5776  0.3243
 4332SOL     OW24457   1.780   3.335   7.366 -0.2443  0.2613  0.9087
 4332SOL    HW124458   1.755   3.411   7.314  0.9566  0.9045  1.2685
 4332SOL    HW224459   1.724   3.338   7.443  0.1990 -0.7202  1.2768
 4333SOL     OW24460   0.401   0.356   3.480 -0.0655  0.5003  0.0894
 4333SOL    HW124461   0.320   0.310   3.502  1.4093 -0.3299  3.8542
 4333SOL    HW224462   0.412   0.347   3.385  0.4877 -0.7726  0.2710
 4334SOL     OW24463   3.568   3.438   5.247 -0.0376 -0.1430  0.1690
 4334SOL    HW124464   3.491   3.489   5.271 -2.5266 -3.2638 -1.3194
 4334SOL    HW224465   3.548   3.348   5.221  0.7310  0.0327 -1.0369
 4335SOL     OW24466   1.877   0.679   2.860  0.1653  0.4465  0.2689
 4335SOL    HW124467   1.806   0.692   2.797  0.1512  2.0837  0.6122
 4335SOL    HW224468   1.950   0.690   2.798 -0.6980  1.1095 -0.6322
 4336SOL     OW24469   4.401   1.947   6.616 -0.5909  0.0401 -0.1359
 4336SOL    HW124470   4.493   1.943   6.642 -1.2982 -1.2873  2.1834
 4336SOL    HW224471   4.363   1.878   6.671 -1.4742  1.5383  1.1032
 4337SOL     OW24472   2.039   2.055   9.662  0.3141 -0.5853 -0.0528
 4337SOL    HW124473   1.993   1.997   9.723 -3.0183  2.6979  0.5374
 4337SOL    HW224474   2.129   2.054   9.696  0.5371 -0.6351 -0.6410
 4338SOL     OW24475   2.595   2.440   2.074 -0.1969 -0.1003  0.1537
 4338SOL    HW124476   2.601   2.403   2.162 -0.8761  0.3500  0.3896
 4338SOL    HW224477   2.562   2.530   2.083  0.0596 -0.2521  2.7028
 4339SOL     OW24478   2.280   2.233  17.385 -0.0741  0.0308  0.2116
 4339SOL    HW124479   2.238   2.195  17.308 -1.8634 -1.8829  2.1251
 4339SOL    HW224480   2.362   2.263  17.346 -0.3673 -1.8091 -1.8454
 4340SOL     OW24481   4.698   3.953   5.315 -0.1130 -0.1487 -0.0191
 4340SOL    HW124482   4.682   3.924   5.405 -1.7462 -0.5739 -0.4478
 4340SOL    HW224483   4.715   4.044   5.339  0.7848  0.3607 -2.6336
 4341SOL     OW24484   1.121   3.664   6.507  0.7236 -0.0965 -0.3240
 4341SOL    HW124485   1.158   3.734   6.560 -2.1527  0.4706  0.9397
 4341SOL    HW224486   1.156   3.587   6.552 -2.8463 -1.7690 -0.4371
 4342SOL     OW24487   0.406   0.290   5.875  0.3573  0.1736  0.4899
 4342SOL    HW124488   0.412   0.233   5.798 -0.6998 -0.4451  0.8693
 4342SOL    HW224489   0.412   0.229   5.948 -0.3188 -0.9896 -0.4256
 4343SOL     OW24490   1.690   0.041   7.004  0.2050 -0.5553 -0.4401
 4343SOL    HW124491   1.623   0.010   6.943  1.0235 -1.3513 -0.9311
 4343SOL    HW224492   1.668   0.123   7.048 -2.6156 -1.6571  0.2400
 4344SOL     OW24493   2.772   3.751  16.216  0.0021 -0.7439 -0.0916
 4344SOL    HW124494   2.819   3.696  16.153  0.7560 -0.2365  0.0182
 4344SOL    HW224495   2.684   3.715  16.210  1.2444 -3.6025 -1.3848
 4345SOL     OW24496   2.860   3.759   3.645  0.1277  0.1892 -0.4224
 4345SOL    HW124497   2.929   3.719   3.592  1.8490  0.3886  1.6735
 4345SOL    HW224498   2.807   3.682   3.662 -0.7303  0.9718  0.4427
 4346SOL     OW24499   1.000   3.380   7.479 -0.1692 -0.0592  0.1428
 4346SOL    HW124500   1.075   3.389   7.420  0.0729 -0.1461  0.4416
 4346SOL    HW224501   0.964   3.295   7.453  1.1821 -1.0214  1.4390
 4347SOL     OW24502   3.092   2.819   8.249 -0.9568 -0.5713  0.5074
 4347SOL    HW124503   3.062   2.877   8.179 -1.2199 -1.2466  0.0606
 4347SOL    HW224504   3.157   2.877   8.290 -0.8193 -0.1404 -0.3249
 4348SOL     OW24505   4.598   1.598   2.998 -0.7256 -0.0091  0.2822
 4348SOL    HW124506   4.622   1.509   2.974  1.6087  0.7987 -0.4097
 4348SOL    HW224507   4.660   1.647   2.943 -0.6180 -1.0846 -0.5494
 4349SOL     OW24508   3.926   1.305   5.347 -0.2345  0.2516  0.0422
 4349SOL    HW124509   3.973   1.378   5.385 -0.4454 -0.1480  1.0588
 4349SOL    HW224510   4.002   1.248   5.333 -0.1508  1.0999 -3.0878
 4350SOL     OW24511   4.462   4.043   5.659 -0.4443 -0.0636  0.2350
 4350SOL    HW124512   4.425   3.995   5.733 -1.7316  2.1423  1.0158
 4350SOL    HW224513   4.398   4.040   5.589  0.2337  2.9546 -0.4971
 4351SOL     OW24514   3.130   4.016  15.596  0.3712  0.0951  0.0942
 4351SOL    HW124515   3.206   3.960  15.612  0.5602  0.1879 -0.4683
 4351SOL    HW224516   3.161   4.106  15.611  0.6703 -0.1504  0.8974
 4352SOL     OW24517   3.902   3.608   1.354  0.1945  0.2093 -0.3962
 4352SOL    HW124518   3.856   3.620   1.436  2.5561 -0.3347  0.9997
 4352SOL    HW224519   3.906   3.698   1.320 -1.1062  0.1673 -0.6609
 4353SOL     OW24520   3.510   3.788   8.892 -0.7986 -0.5697  0.7051
 4353SOL    HW124521   3.541   3.846   8.822 -0.5671 -1.5128  0.0287
 4353SOL    HW224522   3.415   3.783   8.881 -0.5471 -0.5818 -1.6316
 4354SOL     OW24523   1.091   3.011   5.482 -0.0059 -0.3048  0.7555
 4354SOL    HW124524   1.061   3.014   5.391  1.0083  1.3155  0.4703
 4354SOL    HW224525   1.092   2.919   5.508 -0.4565 -1.1729 -2.2306
 4355SOL     OW24526   0.928   3.602  13.978  0.3890  0.4508  0.0418
 4355SOL    HW124527   1.017   3.624  13.950  1.1879 -2.1145  0.6095
 4355SOL    HW224528   0.940   3.570  14.067  0.2711  2.6616  0.8665
 4356SOL     OW24529   3.954   3.915   6.566  0.1408  0.1150 -0.3719
 4356SOL    HW124530   4.007   3.929   6.488  1.0179 -3.2283 -0.3536
 4356SOL    HW224531   3.888   3.984   6.573 -0.5873 -0.7780  1.6062
 4357SOL     OW24532   4.336   4.523   4.465  0.2110 -0.1240  0.3052
 4357SOL    HW124533   4.366   4.465   4.395  0.0533  0.7987 -0.5168
 4357SOL    HW224534   4.289   4.459   4.519 -0.4196 -0.4402 -0.6156
 4358SOL     OW24535   3.520   2.046   5.796  0.1480 -0.2217  0.1843
 4358SOL    HW124536   3.577   2.035   5.873 -1.9924  1.8127  2.0506
 4358SOL    HW224537   3.573   2.111   5.749 -2.6466  3.5518  2.3240
 4359SOL     OW24538   3.244   0.733  16.541 -0.2878  0.8160  0.5256
 4359SOL    HW124539   3.327   0.711  16.583 -0.4664  0.4091  0.6674
 4359SOL    HW224540   3.173   0.686  16.584  0.3283 -0.8650 -0.2779
 4360SOL     OW24541   2.567   4.138   3.321 -0.2317  0.2861  0.1582
 4360SOL    HW124542   2.614   4.146   3.238 -1.2485 -0.5437 -0.5021
 4360SOL    HW224543   2.609   4.059   3.353 -0.1425 -0.2132 -1.1658
 4361SOL     OW24544   3.933   3.618   4.727 -0.3446 -0.0867 -0.4216
 4361SOL    HW124545   3.894   3.546   4.778 -1.6284  0.3209 -0.8169
 4361SOL    HW224546   3.961   3.569   4.650  1.7023 -0.1519  0.3573
 4362SOL     OW24547   1.747   1.203   7.739  0.4337  0.3377 -0.0713
 4362SOL    HW124548   1.662   1.243   7.759 -0.5951 -1.2536 -1.2741
 4362SOL    HW224549   1.781   1.274   7.684  0.7043  0.5459  0.3594
 4363SOL     OW24550   0.740   4.320   6.670 -0.2985 -0.1343  0.0747
 4363SOL    HW124551   0.795   4.271   6.732 -0.2109 -0.4799 -0.2762
 4363SOL    HW224552   0.653   4.281   6.677 -0.5927  0.6087  0.5472
 4364SOL     OW24553   2.151   2.858  17.535 -0.3028  0.4439  0.0567
 4364SOL    HW124554   2.110   2.799  17.598  1.1346 -0.1864  0.4224
 4364SOL    HW224555   2.150   2.808  17.453  0.6732 -0.5147  0.6281
 4365SOL     OW24556   2.624   2.101   4.906  0.2108  0.5703  0.2044
 4365SOL    HW124557   2.630   2.047   4.985 -0.4846  1.1341  0.6348
 4365SOL    HW224558   2.542   2.146   4.926  0.6364  1.6677 -0.5051
 4366SOL     OW24559   0.793   4.133   7.500 -0.1856 -0.2122 -0.1530
 4366SOL    HW124560   0.753   4.101   7.419  0.9452 -1.7592 -0.0837
 4366SOL    HW224561   0.762   4.061   7.556 -1.1932  0.5529  0.2836
 4367SOL     OW24562   4.203   2.167   9.397  0.0681 -0.2519  0.2323
 4367SOL    HW124563   4.267   2.144   9.465 -1.1460  1.6057  1.9786
 4367SOL    HW224564   4.233   2.111   9.325 -3.2999 -2.1571  0.3435
 4368SOL     OW24565   1.902   2.084   7.486  0.9086  0.6016 -0.2597
 4368SOL    HW124566   1.883   2.141   7.561 -1.2697 -0.9912  0.4133
 4368SOL    HW224567   1.983   2.043   7.518 -1.7939 -3.2202  1.6830
 4369SOL     OW24568   0.253   1.460   6.109  0.3174 -0.2262 -0.0117
 4369SOL    HW124569   0.341   1.496   6.100  0.0012  1.0679  1.9795
 4369SOL    HW224570   0.255   1.401   6.033 -1.2809 -2.1433  1.4343
 4370SOL     OW24571   1.517   4.584   4.641  0.0515  0.8300  0.1148
 4370SOL    HW124572   1.588   4.524   4.663 -0.7699  0.4535  1.7497
 4370SOL    HW224573   1.472   4.527   4.579  0.1719 -0.9296  1.6196
 4371SOL     OW24574   1.628   3.086  11.405  0.0599  0.1629  0.1593
 4371SOL    HW124575   1.672   3.057  11.326 -2.3775 -3.0063 -0.0700
 4371SOL    HW224576   1.677   3.037  11.471  3.8085  4.1407  0.2833
 4372SOL     OW24577   1.590   0.882  16.903 -0.4749 -0.2942  0.3177
 4372SOL    HW124578   1.526   0.885  16.832  1.3204  1.8940 -1.2337
 4372SOL    HW224579   1.629   0.969  16.890 -0.2198 -0.6380 -1.1235
 4373SOL     OW24580   0.826   4.412  17.134 -0.6203 -0.0247 -0.1174
 4373SOL    HW124581   0.910   4.366  17.124 -0.3766  0.2921  0.4890
 4373SOL    HW224582   0.778   4.362  17.200 -0.8454  0.9713  0.4677
 4374SOL     OW24583   4.656   3.685   7.061  0.0767 -0.0863  0.3425
 4374SOL    HW124584   4.709   3.630   7.118  0.5742 -2.4911 -2.4590
 4374SOL    HW224585   4.625   3.747   7.127 -1.3418 -1.0740  0.5933
 4375SOL     OW24586   1.089   1.389  13.681 -0.6408 -0.0093  0.4274
 4375SOL    HW124587   1.142   1.418  13.755  1.8220  0.6439 -1.5922
 4375SOL    HW224588   1.002   1.410  13.713 -1.2106 -1.3848 -0.1909
 4376SOL     OW24589   2.729   2.007   3.814  0.1133  0.6125 -1.1111
 4376SOL    HW124590   2.735   1.975   3.724 -1.0623  0.4673 -1.1413
 4376SOL    HW224591   2.671   2.081   3.794  2.0540  2.1918 -0.8976
 4377SOL     OW24592   4.347   3.070   4.531 -0.4208  0.0812 -0.6034
 4377SOL    HW124593   4.337   3.098   4.440 -1.9280 -2.3457 -1.2077
 4377SOL    HW224594   4.375   2.981   4.510  0.9478 -0.5457  3.7436
 4378SOL     OW24595   0.306   0.254   4.752 -0.4596  0.4601 -0.8949
 4378SOL    HW124596   0.252   0.302   4.689 -1.6376 -1.0663 -1.0583
 4378SOL    HW224597   0.281   0.164   4.731 -4.2916  1.5209 -1.0180
 4379SOL     OW24598   0.664   1.316   1.350  0.2358 -0.4012 -0.6645
 4379SOL    HW124599   0.668   1.275   1.264  0.5351 -1.3916 -0.1798
 4379SOL    HW224600   0.725   1.386   1.326 -1.7309  0.8506 -2.0899
 4380SOL     OW24601   3.236   4.460  12.900  0.6519 -0.1397  0.0874
 4380SOL    HW124602   3.239   4.478  12.994 -2.3688 -0.0446  0.1655
 4380SOL    HW224603   3.157   4.406  12.898 -0.7120  1.8102  1.6067
 4381SOL     OW24604   1.884   0.290   6.486  0.4245 -0.2735  0.8087
 4381SOL    HW124605   1.920   0.276   6.573  0.0337 -1.2676  0.8034
 4381SOL    HW224606   1.932   0.369   6.460  1.6401 -1.6587 -1.0530
 4382SOL     OW24607   4.476   3.734  14.031  0.9313 -0.0778 -0.8288
 4382SOL    HW124608   4.486   3.687  13.948  0.1816 -1.3503 -0.2019
 4382SOL    HW224609   4.540   3.805  14.020  0.5538  0.2019 -1.2170
 4383SOL     OW24610   1.010   2.900   8.577 -0.0230 -0.1293 -0.6604
 4383SOL    HW124611   1.088   2.954   8.567 -0.6192  0.3774 -2.5643
 4383SOL    HW224612   0.945   2.962   8.608 -0.0304 -0.3518 -0.2305
 4384SOL     OW24613   2.021   4.176   7.008  0.0839 -0.1475 -0.2737
 4384SOL    HW124614   1.935   4.193   6.968  0.4632  0.1760 -0.9448
 4384SOL    HW224615   1.992   4.132   7.088 -1.0004  3.5143  1.3329
 4385SOL     OW24616   2.412   2.219  13.706  0.3244  0.7365 -0.0855
 4385SOL    HW124617   2.343   2.175  13.655 -0.8770  2.6995 -0.1644
 4385SOL    HW224618   2.463   2.140  13.725 -0.2252  0.5154  0.4810
 4386SOL     OW24619   3.935   4.228   4.467 -0.5703 -0.3691  0.4430
 4386SOL    HW124620   3.943   4.268   4.380  0.6059  1.7882  1.5317
 4386SOL    HW224621   3.925   4.133   4.460 -0.6874 -0.3403  0.2202
 4387SOL     OW24622   3.491   3.031   4.783 -0.2279  0.3940  0.6827
 4387SOL    HW124623   3.422   3.032   4.849 -0.7917 -1.7354  0.1396
 4387SOL    HW224624   3.478   2.944   4.744  0.8036 -0.3866  2.0749
 4388SOL     OW24625   3.273   1.376   2.545 -0.0571  0.1881 -0.1140
 4388SOL    HW124626   3.358   1.385   2.590 -0.0742 -1.3875  0.2312
 4388SOL    HW224627   3.271   1.281   2.535 -0.0655 -0.2936  4.4177
 4389SOL     OW24628   4.257   4.618   2.544 -0.3823  0.2858 -0.1204
 4389SOL    HW124629   4.281   4.529   2.569 -0.0241  0.8406  1.4950
 4389SOL    HW224630   4.219   4.604   2.457 -0.8648  0.0169  0.1307
 4390SOL     OW24631   2.504   1.672   8.555 -0.3226 -0.4450 -0.1987
 4390SOL    HW124632   2.571   1.604   8.567  0.1659 -0.1166 -1.0848
 4390SOL    HW224633   2.518   1.724   8.634 -0.6705 -2.0342  0.9258
 4391SOL     OW24634   1.221   1.851   2.961 -0.8063  0.3221 -0.1786
 4391SOL    HW124635   1.311   1.817   2.955 -0.3659  1.2218  1.3051
 4391SOL    HW224636   1.185   1.813   2.881 -1.7431  0.0064  0.3977
 4392SOL     OW24637   2.192   1.536  11.791 -0.4109 -0.3842  0.4376
 4392SOL    HW124638   2.118   1.596  11.794  0.5312  0.8306 -0.8029
 4392SOL    HW224639   2.274   1.585  11.782 -0.5493 -0.0690  0.9174
 4393SOL     OW24640   1.232   2.444   8.836  0.0757 -0.5896 -0.3285
 4393SOL    HW124641   1.139   2.459   8.822 -0.3168 -0.9718  1.8795
 4393SOL    HW224642   1.262   2.532   8.813  0.8796 -0.9354 -0.5873
 4394SOL     OW24643   2.111   3.269  15.493 -0.2097  0.5183 -0.0662
 4394SOL    HW124644   2.114   3.179  15.462  0.2785 -0.1120  1.7919
 4394SOL    HW224645   2.051   3.302  15.426 -0.5325  0.3816  0.1537
 4395SOL     OW24646   4.637   2.712  12.961  0.1553  0.0773 -0.3177
 4395SOL    HW124647   4.604   2.703  13.051  2.0104 -0.2317  0.3318
 4395SOL    HW224648   0.010   2.724  12.979 -0.2584 -0.6945  2.3868
 4396SOL     OW24649   0.351   4.251   6.117  0.2581  0.3005 -0.3002
 4396SOL    HW124650   0.375   4.161   6.096  1.1384 -0.2648  3.0805
 4396SOL    HW224651   0.380   4.234   6.207 -2.9059 -0.2863  0.6071
 4397SOL     OW24652   2.925   1.653  11.549  0.2236  0.1755 -0.4898
 4397SOL    HW124653   2.843   1.698  11.569  1.1418  0.7869  1.9259
 4397SOL    HW224654   2.894   1.588  11.486 -0.6582  1.4794 -1.4094
 4398SOL     OW24655   1.816   0.960   2.978 -0.1699 -0.4135  0.0719
 4398SOL    HW124656   1.741   1.017   2.964  0.0923 -0.1186 -0.1413
 4398SOL    HW224657   1.764   0.879   2.980  0.5451 -0.8873 -0.3445
 4399SOL     OW24658   0.452   2.636  16.239 -0.2577 -1.1104 -0.3778
 4399SOL    HW124659   0.373   2.584  16.246 -0.1653 -1.4128 -1.6612
 4399SOL    HW224660   0.411   2.689  16.171  2.0913 -0.5712 -1.3845
 4400SOL     OW24661   3.141   2.454  16.169 -0.3282  0.7612 -0.4389
 4400SOL    HW124662   3.049   2.468  16.189 -0.3826  1.7239 -1.3692
 4400SOL    HW224663   3.152   2.374  16.220 -0.4666  0.4415 -0.9252
 4401SOL     OW24664   0.105   2.856   2.271 -0.5364  0.2582 -0.3554
 4401SOL    HW124665   0.171   2.835   2.204 -1.1236 -2.4496 -0.0906
 4401SOL    HW224666   0.142   2.942   2.294 -0.5168 -0.1221  1.0226
 4402SOL     OW24667   4.579   2.506   6.845 -0.6953  0.0333 -0.0129
 4402SOL    HW124668   4.498   2.501   6.895 -1.3785  2.5455 -0.8197
 4402SOL    HW224669   4.612   2.596   6.854  0.2923 -0.3107 -0.2470
 4403SOL     OW24670   3.674   1.726   4.773  0.7205  0.0106 -0.1793
 4403SOL    HW124671   3.698   1.635   4.755 -0.7661 -0.1959 -1.1317
 4403SOL    HW224672   3.579   1.717   4.771  0.7989 -0.9012  0.1913
 4404SOL     OW24673   2.687   4.435   0.091  0.3484 -0.9477 -0.7321
 4404SOL    HW124674   2.617   4.408   0.031 -1.6498 -0.1303  1.2110
 4404SOL    HW224675   2.723   4.350   0.116 -0.3419 -0.9402  0.3027
 4405SOL     OW24676   1.865   1.946   9.991 -0.0910  0.3148 -0.0776
 4405SOL    HW124677   1.827   1.890  10.059 -0.6438  1.1944  0.3438
 4405SOL    HW224678   1.953   1.912   9.974  0.8366  1.9008  1.5527
 4406SOL     OW24679   2.408   4.667   9.121  0.0522  0.0558 -0.0668
 4406SOL    HW124680   2.337   0.003   9.151 -3.0265 -3.6790 -0.1328
 4406SOL    HW224681   2.367   4.584   9.146  0.0321 -0.3539 -1.4440
 4407SOL     OW24682   3.506   0.039   7.059  0.0251  0.3944  0.0695
 4407SOL    HW124683   3.431   0.022   7.001 -0.0913  0.5465  0.1745
 4407SOL    HW224684   3.577   0.033   6.996  0.0071  0.3952  0.0491
 4408SOL     OW24685   2.300   2.685  16.747  0.5642 -1.0979 -0.0818
 4408SOL    HW124686   2.350   2.624  16.692 -0.6297  0.4402 -2.8348
 4408SOL    HW224687   2.278   2.637  16.826  4.0366  1.1022  2.2266
 4409SOL     OW24688   0.128   4.431  16.438  0.0619  0.5129 -0.3722
 4409SOL    HW124689   0.206   4.379  16.454 -1.3645 -1.9111 -1.3621
 4409SOL    HW224690   0.129   4.491  16.513 -0.5476  1.7705 -1.3746
 4410SOL     OW24691   4.691   1.387  12.151 -0.1848  0.2307 -0.0205
 4410SOL    HW124692   4.713   1.362  12.240  2.4071 -2.4632 -1.3916
 4410SOL    HW224693   4.698   1.481  12.161  0.2422  0.2730 -0.6826
 4411SOL     OW24694   0.839   1.307   0.001  0.2301  0.3376  0.0418
 4411SOL    HW124695   0.753   1.327   0.037 -0.1095 -0.1099 -0.5127
 4411SOL    HW224696   0.839   1.212   0.015 -1.0978  0.2262 -0.6868
 4412SOL     OW24697   2.227   2.159  10.577 -0.5229 -0.1793  0.3387
 4412SOL    HW124698   2.276   2.212  10.514 -0.3147  1.3962  1.8511
 4412SOL    HW224699   2.303   2.139  10.630  0.3176  1.4465 -0.2530
 4413SOL     OW24700   1.551   2.877  12.300  0.0611 -0.0931  0.1252
 4413SOL    HW124701   1.607   2.954  12.313 -1.5877  1.4130 -1.5098
 4413SOL    HW224702   1.590   2.811  12.356 -1.0977 -0.3547  0.6311
 4414SOL     OW24703   1.806   4.293   0.325  0.5806  0.0126 -0.1553
 4414SOL    HW124704   1.854   4.320   0.247  0.1623  0.2142 -0.3480
 4414SOL    HW224705   1.864   4.317   0.397  0.0186 -2.6668  1.1973
 4415SOL     OW24706   3.191   2.175  12.817 -0.2141 -0.0695  0.2642
 4415SOL    HW124707   3.124   2.206  12.756 -0.7405  0.1619  0.9638
 4415SOL    HW224708   3.254   2.147  12.751 -2.5190 -0.4330 -1.7905
 4416SOL     OW24709   2.926   4.461   2.463 -0.7268 -0.7017  0.4779
 4416SOL    HW124710   2.972   4.429   2.386 -1.4857  0.5230 -0.4751
 4416SOL    HW224711   2.934   4.554   2.444 -0.1128 -0.9351 -0.3891
 4417SOL     OW24712   4.399   3.385  16.069  0.1121  0.1141  0.5263
 4417SOL    HW124713   4.413   3.393  16.163 -0.1422 -0.4588  0.6134
 4417SOL    HW224714   4.338   3.458  16.056 -0.0078  0.2374  1.8013
 4418SOL     OW24715   3.181   0.799   5.341  0.0994 -0.4642 -0.1505
 4418SOL    HW124716   3.253   0.770   5.397  0.8663  0.8021 -0.4869
 4418SOL    HW224717   3.230   0.827   5.264  0.4501  0.4180  0.4005
 4419SOL     OW24718   2.911   2.128   6.192  0.3016  0.0201 -0.2857
 4419SOL    HW124719   2.892   2.221   6.202 -1.4905 -0.5412  1.6225
 4419SOL    HW224720   2.944   2.103   6.278  0.2435 -0.4006 -0.3844
 4420SOL     OW24721   2.125   4.682  16.014 -0.2179  0.2566 -0.0013
 4420SOL    HW124722   2.207   4.669  16.060 -0.0933  0.5308 -0.1456
 4420SOL    HW224723   2.067   4.620  16.057  0.5151 -0.9455 -0.7652
 4421SOL     OW24724   4.157   2.118   2.613  0.2315 -0.4907  0.5642
 4421SOL    HW124725   4.095   2.045   2.614 -1.2635  0.7559 -2.0428
 4421SOL    HW224726   4.143   2.167   2.532 -2.3781  0.8621  1.8111
 4422SOL     OW24727   2.723   3.820   7.182 -0.0753 -0.6016  0.1708
 4422SOL    HW124728   2.708   3.913   7.198  0.9165 -0.6992  1.6147
 4422SOL    HW224729   2.677   3.808   7.099  1.3906  1.7250 -0.9794
 4423SOL     OW24730   2.068   3.294   2.374 -0.1267  0.0951 -0.6688
 4423SOL    HW124731   2.029   3.324   2.292  0.7745 -1.3630 -1.6269
 4423SOL    HW224732   2.161   3.295   2.352  0.4463  1.8255  1.7924
 4424SOL     OW24733   4.265   0.163  11.679  0.3332 -0.0466 -0.4417
 4424SOL    HW124734   4.198   0.148  11.613  0.5105  2.3410 -1.1712
 4424SOL    HW224735   4.224   0.232  11.731 -0.7050 -0.6227 -0.4974
 4425SOL     OW24736   2.539   1.159  12.656 -0.1070  0.6066  0.3515
 4425SOL    HW124737   2.536   1.253  12.675  1.9194  0.5111  1.2017
 4425SOL    HW224738   2.483   1.154  12.579  1.1215 -5.5003 -0.1526
 4426SOL     OW24739   0.418   3.269   5.338  0.7217 -0.2512 -0.3052
 4426SOL    HW124740   0.407   3.349   5.286 -4.3499  1.1734  2.8933
 4426SOL    HW224741   0.436   3.204   5.270 -0.2857 -0.3706 -0.4612
 4427SOL     OW24742   4.270   4.336   1.688  0.4847 -0.6880  0.2162
 4427SOL    HW124743   4.276   4.301   1.777 -1.9491  1.3883  1.2240
 4427SOL    HW224744   4.269   4.254   1.638  1.3830  0.4697 -1.6965
 4428SOL     OW24745   2.804   0.715   4.252  0.3598  0.6994  0.0130
 4428SOL    HW124746   2.890   0.746   4.282  0.4286 -0.9588  1.5455
 4428SOL    HW224747   2.831   0.704   4.160 -1.0291 -1.6676 -0.1145
 4429SOL     OW24748   2.438   4.308   9.053  0.1855 -0.0300  0.4417
 4429SOL    HW124749   2.382   4.305   8.976 -0.8939  0.2350  1.2214
 4429SOL    HW224750   2.373   4.331   9.120 -0.5865 -1.0067  0.0192
 4430SOL     OW24751   4.586   0.486   3.142 -0.2557 -0.0960 -0.2979
 4430SOL    HW124752   4.533   0.462   3.217 -1.9972  0.1421 -1.4622
 4430SOL    HW224753   4.540   0.495   3.059  1.7959 -0.2289 -1.4639
 4431SOL     OW24754   0.581   3.701   9.970 -0.0705 -0.4191  0.3845
 4431SOL    HW124755   0.655   3.657   9.928  1.6691  2.2920  0.6332
 4431SOL    HW224756   0.516   3.631   9.977 -2.2113  1.7024  1.8218
 4432SOL     OW24757   3.819   2.666   1.379 -0.4581  0.2651 -0.3780
 4432SOL    HW124758   3.741   2.705   1.341  0.7898  0.5709 -2.6378
 4432SOL    HW224759   3.798   2.633   1.467 -0.5554 -0.8262 -0.8025
 4433SOL     OW24760   0.720   4.564   1.603 -0.1190 -0.4357 -0.2587
 4433SOL    HW124761   0.711   4.584   1.696 -3.4325  0.0957 -0.7028
 4433SOL    HW224762   0.706   4.645   1.555 -0.8366 -0.7847 -0.6340
 4434SOL     OW24763   0.420   2.100  17.091  0.0909 -0.3691 -0.1053
 4434SOL    HW124764   0.354   2.107  17.160 -0.0084  0.9281 -0.3354
 4434SOL    HW224765   0.377   2.156  17.026  0.0410  0.2885  0.4874
 4435SOL     OW24766   2.757   1.961  16.508  0.4623 -0.1646  0.2194
 4435SOL    HW124767   2.804   1.897  16.563 -0.1495 -1.6446 -0.9892
 4435SOL    HW224768   2.671   1.945  16.547 -0.4096 -0.4070 -1.8122
 4436SOL     OW24769   2.281   4.136   5.364  0.2423  0.1890 -0.5014
 4436SOL    HW124770   2.233   4.200   5.416 -1.5799 -0.8708 -0.8523
 4436SOL    HW224771   2.369   4.137   5.402  1.4583  1.6140 -3.3552
 4437SOL     OW24772   0.547   3.246   4.164  0.1388  0.0674 -0.6473
 4437SOL    HW124773   0.584   3.306   4.099  0.4879 -0.7789 -1.2226
 4437SOL    HW224774   0.618   3.183   4.176  1.0487  1.3762  0.8637
 4438SOL     OW24775   1.836   2.865   8.838 -0.1189  0.1172 -0.3575
 4438SOL    HW124776   1.814   2.930   8.770 -3.4056  0.0025  0.6164
 4438SOL    HW224777   1.825   2.917   8.917  2.5836  1.2163 -0.7015
 4439SOL     OW24778   1.953   1.474   7.982 -0.0833 -0.2760  0.6068
 4439SOL    HW124779   1.897   1.442   7.911 -1.1047  1.9295  0.4202
 4439SOL    HW224780   1.891   1.441   8.047 -0.6835  0.2759  0.3172
 4440SOL     OW24781   0.727   0.077   5.050 -0.3666 -0.1576 -0.5397
 4440SOL    HW124782   0.719   4.716   5.099 -1.2416  0.3040  0.0626
 4440SOL    HW224783   0.729   0.138   5.123  0.1874 -0.8701  0.0414
 4441SOL     OW24784   1.492   1.566   4.052  0.4577  0.3325  0.7047
 4441SOL    HW124785   1.515   1.582   4.144  0.6679 -0.2968  0.7649
 4441SOL    HW224786   1.427   1.495   4.059  1.5965 -0.6490  1.4057
 4442SOL     OW24787   3.274   1.405   4.731 -0.1950 -0.0768 -0.6170
 4442SOL    HW124788   3.258   1.498   4.721 -1.6081 -0.4541 -1.7911
 4442SOL    HW224789   3.197   1.371   4.777 -1.1208  2.6002 -0.2019
 4443SOL     OW24790   3.813   2.345  14.743 -0.0249 -0.3689 -0.4555
 4443SOL    HW124791   3.829   2.272  14.803  0.4766 -0.6954 -0.9938
 4443SOL    HW224792   3.720   2.350  14.766  0.0796  1.2476 -0.3946
 4444SOL     OW24793   1.157   1.646   2.400 -0.3591  0.4544  0.0359
 4444SOL    HW124794   1.163   1.587   2.325 -3.0060 -1.8938  1.6370
 4444SOL    HW224795   1.212   1.597   2.462  0.8356  1.1665 -0.4721
 4445SOL     OW24796   0.283   1.760   8.049 -0.0344  0.6924 -0.1954
 4445SOL    HW124797   0.303   1.818   8.123 -2.0089  3.5643 -1.8794
 4445SOL    HW224798   0.256   1.679   8.091 -0.4494  0.6727 -0.4861
 4446SOL     OW24799   3.839   2.892   8.713 -0.7765  0.2718 -0.0027
 4446SOL    HW124800   3.887   2.824   8.762  0.1245  0.6883 -0.3165
 4446SOL    HW224801   3.853   2.860   8.624 -4.0358  1.5268 -0.9542
 4447SOL     OW24802   4.694   3.912   8.008  0.2776 -0.4320 -0.6760
 4447SOL    HW124803   0.025   3.991   7.993 -0.8839  0.6717  1.3318
 4447SOL    HW224804   4.609   3.937   7.972 -1.1813 -1.3604  2.1273
 4448SOL     OW24805   4.121   1.809   7.038  0.5292  0.1227 -0.1410
 4448SOL    HW124806   4.050   1.856   7.082  0.1943 -0.9582  0.4661
 4448SOL    HW224807   4.189   1.812   7.106  1.3055  1.3165 -0.9572
 4449SOL     OW24808   0.667   2.222   3.261 -0.0029 -0.3622 -0.1855
 4449SOL    HW124809   0.580   2.215   3.222  0.7898  0.2698 -2.0940
 4449SOL    HW224810   0.653   2.316   3.269 -1.3122 -0.4099 -1.9512
 4450SOL     OW24811   1.785   1.987  16.496 -0.0278  0.0786  0.1950
 4450SOL    HW124812   1.730   1.912  16.471 -0.2385 -0.4838  2.3730
 4450SOL    HW224813   1.734   2.063  16.468 -0.6676 -1.5097 -2.9517
 4451SOL     OW24814   2.169   1.122  12.495 -0.4175  0.1340  0.4161
 4451SOL    HW124815   2.130   1.036  12.480  1.4128 -0.5918 -0.1991
 4451SOL    HW224816   2.253   1.113  12.449  0.3360 -0.7060  1.9322
 4452SOL     OW24817   3.175   1.934   1.114 -0.7046  0.0096 -0.4054
 4452SOL    HW124818   3.235   1.868   1.080  1.0123  0.8376  1.0414
 4452SOL    HW224819   3.191   1.932   1.208 -2.5462 -0.9117 -0.1139
 4453SOL     OW24820   4.379   1.090   4.985  0.2462  0.2319 -0.0629
 4453SOL    HW124821   4.344   1.123   4.903  0.6693  2.7518  0.7824
 4453SOL    HW224822   4.448   1.154   5.002  0.8635 -0.7758  1.3644
 4454SOL     OW24823   0.154   0.548   5.623  0.2051 -0.0626 -0.1784
 4454SOL    HW124824   0.099   0.554   5.545 -0.6372  0.7836  0.4748
 4454SOL    HW224825   0.163   0.453   5.625 -0.8674 -0.2033 -1.7211
 4455SOL     OW24826   1.993   4.592  17.068 -0.3145  0.7967 -0.4827
 4455SOL    HW124827   1.912   4.542  17.068 -0.8753  1.7039  0.2029
 4455SOL    HW224828   2.039   4.559  17.145 -0.1575 -3.5410 -2.4247
 4456SOL     OW24829   2.119   0.514   4.645  0.1699  0.6946 -0.0607
 4456SOL    HW124830   2.208   0.548   4.649  0.4883  0.0272 -1.6654
 4456SOL    HW224831   2.083   0.548   4.563 -0.1867  2.2534  0.7317
 4457SOL     OW24832   4.590   1.995   8.267 -0.4560  0.0602 -0.3351
 4457SOL    HW124833   4.588   1.978   8.172 -2.0643 -1.8524  0.0513
 4457SOL    HW224834   4.674   2.041   8.276 -0.9925  0.7683  1.0962
 4458SOL     OW24835   1.294   0.251   1.111 -0.0339  0.1251 -0.3231
 4458SOL    HW124836   1.357   0.313   1.073 -1.5683  2.5949  1.1684
 4458SOL    HW224837   1.276   0.293   1.195 -0.3111 -1.2293  0.2907
 4459SOL     OW24838   0.933   1.615  11.604 -0.1484  0.1826  0.1009
 4459SOL    HW124839   0.916   1.706  11.580  1.8328  0.6211  0.3576
 4459SOL    HW224840   1.022   1.629  11.636  0.1088 -2.2641  0.4011
 4460SOL     OW24841   2.612   2.743   7.175 -0.4946  0.1372 -0.3000
 4460SOL    HW124842   2.538   2.691   7.144 -0.8243  2.0363 -2.7284
 4460SOL    HW224843   2.687   2.684   7.170 -0.0214  0.6883  0.2532
 4461SOL     OW24844   0.021   2.758   8.038 -0.0938 -0.4000  0.1615
 4461SOL    HW124845   0.072   2.693   7.990 -0.1066 -0.5458  0.3440
 4461SOL    HW224846   4.673   2.772   7.973 -1.1846 -3.1606  0.7424
 4462SOL     OW24847   4.221   2.095   4.838 -0.4539 -0.7758  0.0556
 4462SOL    HW124848   4.195   2.006   4.861 -1.4231 -0.0168  1.8723
 4462SOL    HW224849   4.134   2.136   4.842  0.3056  0.4950  3.5636
 4463SOL     OW24850   3.441   2.964  10.673 -0.1393 -0.3093 -0.0129
 4463SOL    HW124851   3.450   3.034  10.608 -0.1701 -0.0736  0.2365
 4463SOL    HW224852   3.402   2.896  10.619 -3.0947  1.2390  0.1824
 4464SOL     OW24853   1.225   3.655   8.658  0.7994 -0.7552 -0.8747
 4464SOL    HW124854   1.247   3.748   8.655 -0.3235 -0.4705  0.2375
 4464SOL    HW224855   1.256   3.629   8.571  2.6277 -0.7046 -0.2433
 4465SOL     OW24856   2.604   0.496  11.904  0.1123 -0.1810  0.3920
 4465SOL    HW124857   2.634   0.549  11.830  1.1138 -0.0346  0.8988
 4465SOL    HW224858   2.677   0.439  11.927  1.5523  0.3920 -2.7711
 4466SOL     OW24859   0.545   0.341   3.983  0.4724  0.1549 -0.2113
 4466SOL    HW124860   0.615   0.351   4.048  0.5385  1.3061 -0.4605
 4466SOL    HW224861   0.510   0.427   3.959 -2.4236 -0.8756  0.3206
 4467SOL     OW24862   0.695   4.052  16.888 -0.4943 -0.1064 -0.1844
 4467SOL    HW124863   0.605   4.042  16.918 -0.1932 -0.8025  0.4648
 4467SOL    HW224864   0.685   4.144  16.865 -1.0244  0.2639  1.5870
 4468SOL     OW24865   1.148   0.473   8.638 -0.1007  0.4017  0.1233
 4468SOL    HW124866   1.199   0.495   8.716 -0.4996 -0.4679  0.6233
 4468SOL    HW224867   1.218   0.476   8.572  1.5870 -0.1842  1.8847
 4469SOL     OW24868   3.242   0.975   9.347 -0.0597  0.1104 -0.4497
 4469SOL    HW124869   3.193   0.900   9.313  0.1443 -0.3215  0.2304
 4469SOL    HW224870   3.328   0.971   9.305  0.0321 -0.6770 -0.1841
 4470SOL     OW24871   2.163   3.320   4.514 -0.1441  0.3596  0.4709
 4470SOL    HW124872   2.256   3.340   4.499  0.0429 -0.3866  0.6217
 4470SOL    HW224873   2.167   3.228   4.487  0.2224  0.2461  0.8995
 4471SOL     OW24874   0.322   0.848  10.729  0.3086 -0.3352  0.6509
 4471SOL    HW124875   0.253   0.784  10.712  0.0969 -0.2723  1.2800
 4471SOL    HW224876   0.333   0.892  10.645  0.0160  2.1310  1.8864
 4472SOL     OW24877   2.255   0.381   8.602 -0.3831 -0.3043  0.1182
 4472SOL    HW124878   2.188   0.325   8.563  0.7338 -1.5944  0.0414
 4472SOL    HW224879   2.336   0.337   8.579  0.0206 -0.2095  1.3494
 4473SOL     OW24880   1.493   4.386   6.914 -0.5341  0.1399  0.0869
 4473SOL    HW124881   1.484   4.294   6.937  0.5763 -0.3296 -1.2669
 4473SOL    HW224882   1.541   4.421   6.989 -1.8008  1.9547  0.0346
 4474SOL     OW24883   1.198   3.649  14.860  0.3266 -0.3446 -0.1156
 4474SOL    HW124884   1.282   3.695  14.872 -0.7038  0.3315  4.4555
 4474SOL    HW224885   1.205   3.603  14.776  1.8657  1.1187 -0.8160
 4475SOL     OW24886   1.173   0.573  15.382  0.2516  0.4072  0.6462
 4475SOL    HW124887   1.095   0.518  15.387  1.4360 -1.2275  1.3428
 4475SOL    HW224888   1.204   0.547  15.295  0.5951  2.1109  0.2586
 4476SOL     OW24889   0.555   4.345   3.157 -0.0186 -0.2247 -0.4709
 4476SOL    HW124890   0.584   4.322   3.069  1.3926  2.6118 -0.7466
 4476SOL    HW224891   0.631   4.390   3.193  0.3192 -1.6570  0.5744
 4477SOL     OW24892   2.229   4.545   6.914  0.4189  0.6264  0.1641
 4477SOL    HW124893   2.202   4.603   6.843  2.1764  2.6413  1.1160
 4477SOL    HW224894   2.221   4.584   7.001 -2.6041  1.5493 -0.5408
 4478SOL     OW24895   3.229   4.308   4.921  0.5369 -0.1918 -0.0694
 4478SOL    HW124896   3.213   4.278   5.010  1.8128 -0.3084  0.1204
 4478SOL    HW224897   3.284   4.233   4.897  0.9823  0.2778 -0.5344
 4479SOL     OW24898   3.909   2.273  15.821 -0.1487  0.1296 -0.3371
 4479SOL    HW124899   3.890   2.357  15.779 -1.2157 -0.0062 -0.1245
 4479SOL    HW224900   3.963   2.231  15.754 -1.7419  0.1354 -1.5985
 4480SOL     OW24901   4.006   2.430   3.604 -0.1744  0.0307 -0.1885
 4480SOL    HW124902   4.022   2.345   3.564  0.2214  0.1671 -0.3156
 4480SOL    HW224903   4.058   2.490   3.551  2.2346 -2.4207 -0.5939
 4481SOL     OW24904   0.407   4.633   7.486  0.7114  0.1937  0.8734
 4481SOL    HW124905   0.381   0.004   7.485 -2.1184 -0.6429 -2.2880
 4481SOL    HW224906   0.329   4.585   7.458  2.1223 -0.7964 -1.3636
 4482SOL     OW24907   1.534   4.086   9.443 -0.1505 -0.5367 -0.0577
 4482SOL    HW124908   1.503   4.078   9.534 -0.6680 -1.5079 -0.3248
 4482SOL    HW224909   1.482   4.025   9.391  1.2421 -3.3919  1.8859
 4483SOL     OW24910   0.113   3.714   3.179 -0.6723  0.1245 -0.4029
 4483SOL    HW124911   0.172   3.770   3.229  0.0866 -1.7635  0.8075
 4483SOL    HW224912   0.144   3.731   3.090 -1.4215 -0.6228 -0.8071
 4484SOL     OW24913   2.027   2.614   8.725  0.0489 -0.1780 -0.4137
 4484SOL    HW124914   2.011   2.524   8.697 -2.1797  0.8386 -2.3779
 4484SOL    HW224915   1.980   2.600   8.807  0.2770 -2.8725 -0.7190
 4485SOL     OW24916   2.613   0.299   7.016  0.8143 -0.1423 -0.5477
 4485SOL    HW124917   2.550   0.370   7.031  0.8587 -0.5162  1.4287
 4485SOL    HW224918   2.664   0.345   6.950 -0.0325  0.8194 -0.5450
 4486SOL     OW24919   4.231   3.550  15.816  0.4617 -0.2543  0.0891
 4486SOL    HW124920   4.287   3.599  15.876  1.9984 -0.2319 -1.3737
 4486SOL    HW224921   4.255   3.573  15.727 -1.2382 -0.4333 -0.4251
 4487SOL     OW24922   1.488   4.621   3.133  0.3436  0.0830  0.2711
 4487SOL    HW124923   1.420   4.574   3.182  1.6505 -0.2534  1.7460
 4487SOL    HW224924   1.546   4.641   3.207 -0.2135  1.6771  0.2915
 4488SOL     OW24925   2.013   1.212   6.822 -0.4112 -0.5623  0.3600
 4488SOL    HW124926   2.003   1.123   6.788  0.6370 -0.6230  0.2370
 4488SOL    HW224927   2.020   1.194   6.916  0.2358 -0.6185  0.3001
 4489SOL     OW24928   3.633   0.626   8.662 -0.4116 -0.6205 -0.1947
 4489SOL    HW124929   3.652   0.684   8.735  1.7865 -2.3750  0.6438
 4489SOL    HW224930   3.558   0.575   8.691 -1.4128  0.7406 -0.3955
 4490SOL     OW24931   0.609   3.007   3.819 -0.4462 -0.5715  0.0730
 4490SOL    HW124932   0.521   3.023   3.852 -0.7374 -1.2552 -0.3771
 4490SOL    HW224933   0.603   2.913   3.801  0.5977 -0.8014  0.8887
 4491SOL     OW24934   0.769   2.133   9.855 -0.1277  0.1396 -0.5367
 4491SOL    HW124935   0.727   2.214   9.827  1.3922  1.2290  0.3144
 4491SOL    HW224936   0.860   2.149   9.829  0.4297 -1.8336  0.1877
 4492SOL     OW24937   3.040   3.100   8.798 -0.0993 -0.3899 -0.2933
 4492SOL    HW124938   2.961   3.048   8.814  1.0570 -0.8663  3.9760
 4492SOL    HW224939   3.053   3.088   8.704 -3.2223  3.0784 -1.1503
 4493SOL     OW24940   3.728   4.506  13.931 -0.0231  0.4242  0.7824
 4493SOL    HW124941   3.774   4.460  14.001  0.1649  1.2588  1.2117
 4493SOL    HW224942   3.805   4.549  13.895  1.1728 -1.7348  0.7758
 4494SOL     OW24943   0.715   2.042   4.186 -0.3800 -0.0757  0.2061
 4494SOL    HW124944   0.667   1.980   4.241  0.2785 -0.4440  0.3689
 4494SOL    HW224945   0.804   2.014   4.209  0.2631  0.9937 -1.0033
 4495SOL     OW24946   4.402   3.573   2.688  0.3817 -0.2402 -0.3605
 4495SOL    HW124947   4.355   3.529   2.617 -3.1066  0.6454  1.4050
 4495SOL    HW224948   4.345   3.641   2.724  1.6413  0.6572 -0.0536
 4496SOL     OW24949   1.803   2.501  17.515  0.4437 -0.5137 -0.4217
 4496SOL    HW124950   1.784   2.594  17.527  1.5118 -0.2390 -0.8987
 4496SOL    HW224951   1.734   2.475  17.454  1.7420 -1.1613 -1.6057
 4497SOL     OW24952   1.987   4.570  16.758 -0.0829  0.3485 -0.3203
 4497SOL    HW124953   1.943   4.636  16.811 -0.1466  0.3325 -0.3534
 4497SOL    HW224954   1.987   4.614  16.673 -0.2050  1.1501  0.0991
 4498SOL     OW24955   0.951   0.099  13.994  0.0441 -0.9573  0.0086
 4498SOL    HW124956   0.904   0.060  13.921  0.7468 -1.3045 -0.2521
 4498SOL    HW224957   0.934   0.026  14.053  1.2655 -0.8116  0.5454
 4499SOL     OW24958   4.369   4.442   7.617 -0.0626  0.6199 -0.0746
 4499SOL    HW124959   4.462   4.461   7.605  0.3282 -0.4064  1.2711
 4499SOL    HW224960   4.323   4.521   7.644 -0.6773  0.3259 -0.2704
 4500SOL     OW24961   1.968   2.152  14.582 -0.2590  0.2435 -0.4209
 4500SOL    HW124962   2.059   2.127  14.596  0.2146  2.3774  0.2289
 4500SOL    HW224963   1.977   2.172  14.489  2.1774  0.7404 -0.0710
 4501SOL     OW24964   4.282   1.095  15.790  0.1888 -0.0931 -0.2960
 4501SOL    HW124965   4.375   1.118  15.795  0.3857 -0.6434 -1.4859
 4501SOL    HW224966   4.289   1.047  15.707  0.4567 -0.1498 -0.2426
 4502SOL     OW24967   1.769   2.974  11.625 -0.1850 -0.0116 -0.2823
 4502SOL    HW124968   1.759   2.904  11.562  0.9909 -0.4203 -0.0200
 4502SOL    HW224969   1.737   2.928  11.703  1.5336 -2.0590 -0.7961
 4503SOL     OW24970   0.186   2.504  16.050  0.5545 -0.3347 -0.0116
 4503SOL    HW124971   0.192   2.475  15.959 -0.5345  0.1521 -0.2492
 4503SOL    HW224972   0.118   2.571  16.039 -2.4156 -3.0541  1.8237
 4504SOL     OW24973   3.403   3.798   8.230 -0.0799 -0.2758  0.1191
 4504SOL    HW124974   3.332   3.839   8.279  0.6738  1.4221 -0.1978
 4504SOL    HW224975   3.479   3.849   8.258  0.0865 -1.3261  1.6072
 4505SOL     OW24976   2.693   2.451   4.663 -0.4055 -0.6797  0.4771
 4505SOL    HW124977   2.674   2.434   4.755 -0.7726 -0.7968  0.3766
 4505SOL    HW224978   2.671   2.544   4.661  1.6998 -0.1871 -0.1924
 4506SOL     OW24979   0.683   3.199  11.050 -0.1425 -0.1217  0.1233
 4506SOL    HW124980   0.736   3.201  10.970 -0.1607  0.0535  0.1151
 4506SOL    HW224981   0.600   3.167  11.016  0.4715  0.8644 -2.3152
 4507SOL     OW24982   1.705   0.341  16.058 -0.5190 -0.4669 -0.0312
 4507SOL    HW124983   1.624   0.356  16.009  0.2746  1.3507 -0.8087
 4507SOL    HW224984   1.673   0.331  16.147 -0.3060  1.2710  0.2365
 4508SOL     OW24985   0.130   1.889   5.561  0.0088 -0.6824  0.1485
 4508SOL    HW124986   0.101   1.831   5.491  2.5216 -0.8138 -0.7960
 4508SOL    HW224987   0.165   1.960   5.507 -0.6845 -1.6173 -1.4996
 4509SOL     OW24988   0.553   1.191  11.946  0.2280  0.2595  0.1243
 4509SOL    HW124989   0.497   1.224  12.017 -2.2580 -0.9898 -1.2716
 4509SOL    HW224990   0.523   1.102  11.930 -0.8116  0.7594 -0.7175
 4510SOL     OW24991   4.492   1.689   4.202 -0.3090 -0.6481 -0.5497
 4510SOL    HW124992   4.506   1.731   4.117 -1.6233  2.5608  0.8105
 4510SOL    HW224993   4.411   1.640   4.189 -2.2261  2.4685 -0.2880
 4511SOL     OW24994   2.454   0.456  12.549 -0.2642 -0.3503  0.0474
 4511SOL    HW124995   2.518   0.486  12.484 -0.0737  1.0617  0.8745
 4511SOL    HW224996   2.396   0.410  12.490 -0.9416 -1.6275  1.7001
 4512SOL     OW24997   0.132   0.382  16.213  0.4733 -0.3258  0.0170
 4512SOL    HW124998   0.136   0.455  16.151  1.4481 -0.2562  0.1611
 4512SOL    HW224999   0.161   0.317  16.148 -0.1555 -1.1185  0.5281
 4513SOL     OW25000   3.256   1.461   7.350 -0.1541  0.3412  0.3131
 4513SOL    HW125001   3.301   1.399   7.408  1.2391  0.3236 -0.7943
 4513SOL    HW225002   3.327   1.470   7.286 -2.9569  0.0807 -2.8213
 4514SOL     OW25003   0.687   3.333  16.697 -0.3110 -0.0418  0.5220
 4514SOL    HW125004   0.732   3.328  16.613 -0.1024  1.0118  0.5695
 4514SOL    HW225005   0.752   3.291  16.754 -0.6761 -0.2902  0.7517
 4515SOL     OW25006   3.160   1.800  11.069  0.1825 -0.0677  0.5614
 4515SOL    HW125007   3.251   1.828  11.079 -0.1850  1.2967  0.1605
 4515SOL    HW225008   3.144   1.789  11.163 -2.1542  0.3878  0.2289
 4516SOL     OW25009   1.734   0.324   6.182  0.3104  0.0040 -0.0862
 4516SOL    HW125010   1.778   0.393   6.231  2.6817 -2.1617  0.8322
 4516SOL    HW225011   1.708   0.270   6.257  0.4141  2.1448  1.4764
 4517SOL     OW25012   2.491   3.708   7.796 -0.2529 -0.2992  0.4533
 4517SOL    HW125013   2.524   3.618   7.791 -0.3118 -0.3432  0.8610
 4517SOL    HW225014   2.536   3.745   7.871  2.8183 -1.6936 -0.6990
 4518SOL     OW25015   2.813   4.225   2.867 -0.3111  0.3604  0.3170
 4518SOL    HW125016   2.863   4.302   2.840  1.5138 -1.1252 -0.5650
 4518SOL    HW225017   2.814   4.172   2.788 -1.5390  1.0700 -0.1655
 4519SOL     OW25018   1.911   1.837   5.700  0.0509 -0.0334  0.0955
 4519SOL    HW125019   1.902   1.766   5.763 -0.6015 -1.8937 -2.1028
 4519SOL    HW225020   1.902   1.800   5.612 -0.8264 -1.8256  0.9390
 4520SOL     OW25021   4.548   1.650   6.288  0.3791  0.4519 -0.2664
 4520SOL    HW125022   4.530   1.557   6.277  1.2070  0.2593  0.0273
 4520SOL    HW225023   4.600   1.668   6.210 -1.4077 -0.7602 -1.7519
 4521SOL     OW25024   4.133   0.978   5.075 -0.2493  0.1153 -0.3375
 4521SOL    HW125025   4.088   1.058   5.047 -0.7167 -0.1330 -0.2911
 4521SOL    HW225026   4.222   1.013   5.071 -0.2655 -0.0192 -1.8735
 4522SOL     OW25027   3.952   4.100  10.041  0.1613  0.0819  0.8233
 4522SOL    HW125028   4.043   4.091  10.068  0.0531 -3.8293 -0.1257
 4522SOL    HW225029   3.940   4.014  10.001  1.0306  0.6877 -0.7222
 4523SOL     OW25030   1.279   2.162   0.171 -0.4946  0.6901  0.3256
 4523SOL    HW125031   1.186   2.174   0.155 -0.8286  0.5062  2.1083
 4523SOL    HW225032   1.273   2.071   0.198  1.9077  1.1400  2.3827
 4524SOL     OW25033   4.214   2.090   5.153  0.0771  0.1343  0.0155
 4524SOL    HW125034   4.145   2.075   5.218  0.3915  0.6766  0.4712
 4524SOL    HW225035   4.174   2.044   5.078 -1.7865 -1.4356  1.9832
 4525SOL     OW25036   0.636   2.415  11.555 -0.2432 -0.1243  0.4413
 4525SOL    HW125037   0.623   2.494  11.504 -2.6907 -1.7018 -1.4037
 4525SOL    HW225038   0.571   2.422  11.624 -3.0132 -0.2973 -2.1716
 4526SOL     OW25039   2.490   2.289   8.879 -0.5330 -0.3297  0.5208
 4526SOL    HW125040   2.445   2.368   8.850 -1.8272 -0.5932  1.8087
 4526SOL    HW225041   2.432   2.262   8.951 -0.5255 -0.4784  0.4720
 4527SOL     OW25042   0.556   4.440   6.138  0.9827  0.1831 -0.1316
 4527SOL    HW125043   0.527   4.526   6.110  0.3538 -1.0906 -3.3577
 4527SOL    HW225044   0.473   4.391   6.131 -0.0647  1.5804  2.4490
 4528SOL     OW25045   3.575   1.051   1.644  0.3515 -0.0522  0.7393
 4528SOL    HW125046   3.621   0.979   1.688  1.8196 -1.1667 -2.6327
 4528SOL    HW225047   3.562   1.116   1.713  0.8687  0.0244  0.7644
 4529SOL     OW25048   0.496   3.449  15.138 -0.4124  0.5114  0.7013
 4529SOL    HW125049   0.588   3.474  15.129 -0.8119  1.8452  0.3409
 4529SOL    HW225050   0.483   3.483  15.226 -2.3519 -1.7732  1.2986
 4530SOL     OW25051   3.098   3.213  16.195 -0.1076  0.3209 -0.2267
 4530SOL    HW125052   3.169   3.272  16.170 -0.3195  0.6797  0.0304
 4530SOL    HW225053   3.055   3.188  16.113 -0.0874 -1.4629  0.3079
 4531SOL     OW25054   2.403   2.897  15.829  0.1114  0.0112  0.1157
 4531SOL    HW125055   2.375   2.955  15.900  2.0051 -1.6720  2.2595
 4531SOL    HW225056   2.374   2.813  15.864 -3.3286  2.0817  2.2254
 4532SOL     OW25057   2.674   1.119   4.031 -0.2522 -0.5888 -0.2707
 4532SOL    HW125058   2.741   1.188   4.031 -0.2926 -0.5498 -0.2798
 4532SOL    HW225059   2.600   1.179   4.032  0.7222  0.6308 -1.5985
 4533SOL     OW25060   4.130   4.152   8.705 -0.0002 -0.2795 -0.0608
 4533SOL    HW125061   4.152   4.187   8.791  0.6417 -0.8075 -0.0116
 4533SOL    HW225062   4.157   4.061   8.708 -1.6523 -0.7522 -0.0720
 4534SOL     OW25063   1.257   4.717   4.979  0.0158 -0.0072 -0.5288
 4534SOL    HW125064   1.173   0.002   4.932 -0.4149 -0.8199  0.1333
 4534SOL    HW225065   1.272   0.085   5.011  0.4298  0.1912 -1.2751
 4535SOL     OW25066   1.348   0.593   2.746  0.1724  0.9547  0.1412
 4535SOL    HW125067   1.366   0.512   2.698  0.3942  0.2597  1.4249
 4535SOL    HW225068   1.256   0.608   2.724 -0.5378  0.2440  2.6547
 4536SOL     OW25069   3.346   2.214   7.933 -0.6700  0.0071  0.1826
 4536SOL    HW125070   3.432   2.237   7.899 -0.5699  0.9536  1.0948
 4536SOL    HW225071   3.313   2.159   7.861 -1.7464 -2.4159  2.5448
 4537SOL     OW25072   4.680   1.939   4.546 -0.1825  0.2853 -0.2075
 4537SOL    HW125073   4.650   1.849   4.562  1.8125 -0.4262 -0.5279
 4537SOL    HW225074   4.658   1.973   4.633  0.7591  2.1246 -0.6896
 4538SOL     OW25075   0.059   3.329   4.973  0.1076 -0.1784 -0.3918
 4538SOL    HW125076   0.048   3.408   4.919 -1.3450  1.3343  2.0754
 4538SOL    HW225077   0.154   3.321   4.963  0.2899  2.2132 -0.7079
 4539SOL     OW25078   1.267   2.895   5.066 -0.4821 -0.4125 -0.6950
 4539SOL    HW125079   1.240   2.834   5.134  1.2302 -1.3060 -0.8106
 4539SOL    HW225080   1.262   2.976   5.116  0.6809 -1.4780  1.1185
 4540SOL     OW25081   2.777   0.538   9.088  0.1980 -0.1121 -0.3112
 4540SOL    HW125082   2.700   0.580   9.051  0.3171 -1.2566 -1.8753
 4540SOL    HW225083   2.734   0.476   9.147  2.7848  0.0216  1.7255
 4541SOL     OW25084   4.549   3.856   7.412 -0.2534 -0.4450 -0.3365
 4541SOL    HW125085   4.613   3.842   7.482 -1.6980 -1.3158  0.8221
 4541SOL    HW225086   4.489   3.916   7.457  0.6083 -0.4874  0.8590
 4542SOL     OW25087   2.610   0.855   4.037 -0.0499 -0.0553 -0.1514
 4542SOL    HW125088   2.567   0.836   4.120 -3.2091  0.2273 -1.7221
 4542SOL    HW225089   2.632   0.948   4.041  1.2817 -0.3664 -0.2669
 4543SOL     OW25090   3.749   0.763   9.002 -0.5771 -0.3440  0.4202
 4543SOL    HW125091   3.812   0.727   8.941 -0.8880  1.2980 -0.8577
 4543SOL    HW225092   3.686   0.805   8.943  0.5940  2.8863  1.4530
 4544SOL     OW25093   3.467   3.885  16.284  0.4296  0.0441 -0.8105
 4544SOL    HW125094   3.463   3.872  16.189  2.3385  3.1568 -1.3379
 4544SOL    HW225095   3.441   3.976  16.301  3.0223  0.8047 -0.7545
 4545SOL     OW25096   3.761   0.227   0.675 -0.0807  0.1108  0.1985
 4545SOL    HW125097   3.730   0.245   0.586  1.1914 -1.0399 -0.4758
 4545SOL    HW225098   3.832   0.167   0.652 -1.0880 -1.0855  0.1583
 4546SOL     OW25099   2.938   2.812   7.487 -0.7480 -0.0075 -0.1862
 4546SOL    HW125100   2.901   2.884   7.538  0.5739 -0.0147  0.8079
 4546SOL    HW225101   2.866   2.750   7.478 -1.8111  1.2230 -0.0751
 4547SOL     OW25102   4.379   2.576   5.072 -0.7041  0.3653 -0.1940
 4547SOL    HW125103   4.314   2.506   5.070  0.3333 -0.5794 -1.1505
 4547SOL    HW225104   4.441   2.510   5.101 -1.1419 -0.0241 -0.1549
 4548SOL     OW25105   0.150   3.040   5.466 -0.2569 -0.0045 -0.2368
 4548SOL    HW125106   0.228   3.005   5.422 -2.2103 -0.2157 -3.4772
 4548SOL    HW225107   0.166   3.135   5.468 -2.4723  0.3552 -0.1057
 4549SOL     OW25108   2.310   1.526  14.048  0.1653 -0.0040  0.5517
 4549SOL    HW125109   2.356   1.602  14.083  0.6559  0.1281 -0.3723
 4549SOL    HW225110   2.274   1.496  14.132 -1.4908  3.5929  1.1071
 4550SOL     OW25111   4.110   3.038   3.040 -0.0131 -0.1567 -0.3323
 4550SOL    HW125112   4.160   3.111   3.077 -1.5505  0.8674 -0.2843
 4550SOL    HW225113   4.126   3.057   2.948  0.7424 -3.2508 -0.8640
 4551SOL     OW25114   0.477   3.125   6.782 -0.2435  0.8156 -0.1806
 4551SOL    HW125115   0.408   3.090   6.838 -0.7189  2.4194  0.2100
 4551SOL    HW225116   0.527   3.179   6.844  0.2936 -2.1482  2.0167
 4552SOL     OW25117   2.463   4.429   3.311 -0.1561  0.1630 -0.0960
 4552SOL    HW125118   2.481   4.335   3.314 -0.9227 -0.0046 -0.5895
 4552SOL    HW225119   2.367   4.436   3.309 -0.1770 -0.2421 -0.4350
 4553SOL     OW25120   4.172   3.900   3.201  0.0418 -0.1795 -0.0711
 4553SOL    HW125121   4.145   3.825   3.147  1.9091 -1.8553  1.2931
 4553SOL    HW225122   4.148   3.972   3.143  0.7463  0.7319  0.7759
 4554SOL     OW25123   1.542   0.380  16.258 -0.5379  0.0438  0.0701
 4554SOL    HW125124   1.457   0.406  16.292 -0.6910  0.8518 -0.9434
 4554SOL    HW225125   1.585   0.465  16.272 -0.7925  0.0666  0.7341
 4555SOL     OW25126   0.922   0.282   3.650  0.1411 -0.3895 -0.3032
 4555SOL    HW125127   0.965   0.347   3.707  2.7876 -2.9244  0.6015
 4555SOL    HW225128   0.838   0.266   3.693 -1.2676  0.2321 -2.8454
 4556SOL     OW25129   0.458   2.588   9.601 -0.4466  0.6799 -0.0165
 4556SOL    HW125130   0.488   2.507   9.642  0.3622  1.6008  1.2132
 4556SOL    HW225131   0.476   2.563   9.510  1.4456 -1.7714  1.0372
 4557SOL     OW25132   1.035   4.553   3.869  0.1272 -0.2494 -0.0279
 4557SOL    HW125133   0.970   4.613   3.831 -1.3325 -1.0381  1.2232
 4557SOL    HW225134   0.989   4.502   3.936  1.3755  1.1737  1.9166
 4558SOL     OW25135   4.651   1.464   1.758  0.0104  0.0319  0.0925
 4558SOL    HW125136   4.687   1.522   1.826 -1.3622  0.9749  0.0273
 4558SOL    HW225137   4.619   1.405   1.827 -2.9552  1.4961 -0.0292
 4559SOL     OW25138   0.109   3.637   2.709 -0.2803 -1.2444  0.2757
 4559SOL    HW125139   0.053   3.563   2.688 -0.2722 -0.7176 -1.6087
 4559SOL    HW225140   0.154   3.605   2.786 -2.1120 -2.5576  0.7849
 4560SOL     OW25141   0.708   3.260  15.182  0.2457  0.7567  0.0944
 4560SOL    HW125142   0.721   3.181  15.131  0.5790  1.5659 -1.0821
 4560SOL    HW225143   0.734   3.329  15.121  0.1893  2.6057  2.1631
 4561SOL     OW25144   0.118   3.720   7.878  0.7064  0.1956 -0.1294
 4561SOL    HW125145   0.061   3.794   7.900 -1.6328 -1.0616 -1.9809
 4561SOL    HW225146   0.113   3.675   7.962  1.0862 -0.5446 -0.5022
 4562SOL     OW25147   3.294   0.281   1.336  0.0485  0.0386  0.0863
 4562SOL    HW125148   3.250   0.246   1.259 -1.4832  1.2161  0.4215
 4562SOL    HW225149   3.226   0.315   1.395  1.7222  0.6320  1.6884
 4563SOL     OW25150   4.434   1.349   6.178  0.7657 -0.1647 -0.1906
 4563SOL    HW125151   4.430   1.253   6.168  0.8533 -0.2430  0.5242
 4563SOL    HW225152   4.515   1.346   6.229  0.9459 -0.6420 -0.5033
 4564SOL     OW25153   2.650   4.061   6.308  0.9707  0.2293 -0.3299
 4564SOL    HW125154   2.733   4.013   6.309  0.8954  0.1335  1.1677
 4564SOL    HW225155   2.587   4.008   6.258 -0.2610  0.5000  0.9475
 4565SOL     OW25156   1.040   2.957  10.271  0.4903  0.2842 -0.4818
 4565SOL    HW125157   0.957   2.968  10.317  0.9560  0.1091  0.4056
 4565SOL    HW225158   1.090   2.912  10.340  0.9484  1.2068 -0.2215
 4566SOL     OW25159   0.080   3.979   1.632 -0.0262  0.4380 -0.5100
 4566SOL    HW125160   0.045   3.942   1.712 -0.6583 -0.5317 -1.2367
 4566SOL    HW225161   0.089   3.907   1.569 -1.4647  0.6395 -0.9317
 4567SOL     OW25162   4.424   0.813   4.726  0.0262  0.0147  0.3462
 4567SOL    HW125163   4.413   0.906   4.746  0.6613  0.0747  0.4108
 4567SOL    HW225164   4.519   0.821   4.727  0.1192 -0.9880 -0.2470
 4568SOL     OW25165   2.670   0.504   9.477 -0.2370  0.0646 -0.4185
 4568SOL    HW125166   2.695   0.596   9.479 -0.4700  0.1218 -0.1099
 4568SOL    HW225167   2.585   0.529   9.442 -0.2453 -1.1104 -1.2582
 4569SOL     OW25168   0.625   2.709  11.714  0.3430 -0.0179 -0.3923
 4569SOL    HW125169   0.545   2.681  11.759 -0.0230  0.6100 -0.6490
 4569SOL    HW225170   0.660   2.773  11.777  1.0498 -0.1977 -0.6074
 4570SOL     OW25171   2.588   0.854   8.863  0.1327 -0.1374 -0.1621
 4570SOL    HW125172   2.677   0.821   8.875 -0.1146 -0.7089  0.1117
 4570SOL    HW225173   2.540   0.772   8.855 -1.3209  0.7343 -0.2529
 4571SOL     OW25174   1.209   0.253   0.058 -0.4286  0.4001 -0.0407
 4571SOL    HW125175   1.122   0.256   0.098  0.1376  2.2921  1.0721
 4571SOL    HW225176   1.241   0.340   0.081  0.7440 -0.0562  0.0744
 4572SOL     OW25177   3.646   2.216   7.933  0.5791 -0.2063  0.2988
 4572SOL    HW125178   3.710   2.188   7.869  0.5891  0.6352 -0.0567
 4572SOL    HW225179   3.689   2.290   7.977 -0.2981  0.8653 -0.6543
 4573SOL     OW25180   3.306   0.588  11.261 -0.2245 -0.0078  0.7103
 4573SOL    HW125181   3.339   0.513  11.211 -1.9537 -0.3302  0.0246
 4573SOL    HW225182   3.221   0.555  11.291 -0.0003 -1.8990 -0.7025
 4574SOL     OW25183   0.550   4.533   3.828 -0.0884  0.2355 -0.3089
 4574SOL    HW125184   0.531   4.615   3.874  1.8329 -0.5959  1.9386
 4574SOL    HW225185   0.638   4.542   3.792  0.4580 -2.0448  0.4917
 4575SOL     OW25186   1.032   0.133   6.805  0.0951  0.3667 -0.7502
 4575SOL    HW125187   1.063   0.070   6.740  3.3877  1.6140 -0.4206
 4575SOL    HW225188   0.939   0.135   6.782 -0.2460 -1.7880  0.4084
 4576SOL     OW25189   0.725   3.426  12.324 -0.0319 -0.2675  0.4387
 4576SOL    HW125190   0.760   3.483  12.255 -0.6067  1.8352  1.8930
 4576SOL    HW225191   0.785   3.351  12.321 -0.2304 -0.3464 -2.2691
 4577SOL     OW25192   4.164   1.172   2.563 -0.6253  0.1934  0.2176
 4577SOL    HW125193   4.090   1.228   2.541 -0.7382 -0.5649 -1.3338
 4577SOL    HW225194   4.220   1.234   2.610 -1.4083 -0.8678  2.5270
 4578SOL     OW25195   0.770   1.878  13.063  0.3477 -0.7970  0.0840
 4578SOL    HW125196   0.750   1.802  13.008  0.0509 -0.7750  0.1666
 4578SOL    HW225197   0.791   1.845  13.151 -0.2387  0.1571  0.5770
 4579SOL     OW25198   3.298   0.563   6.097 -0.0296 -0.7625 -0.1486
 4579SOL    HW125199   3.291   0.482   6.046  0.0164 -0.1201 -1.1777
 4579SOL    HW225200   3.344   0.623   6.039 -1.9270  0.2344 -0.6251
 4580SOL     OW25201   4.444   0.030   2.690 -0.6274  0.5296 -0.2713
 4580SOL    HW125202   4.352   0.024   2.668 -0.7960  1.8158  0.0833
 4580SOL    HW225203   4.490   4.694   2.628  0.8987  0.9583  0.4556
 4581SOL     OW25204   0.739   1.149  12.832  0.2085  0.0094 -0.0332
 4581SOL    HW125205   0.713   1.057  12.825  1.1083 -0.0062 -3.2987
 4581SOL    HW225206   0.667   1.181  12.779  0.9796  3.1518  0.8546
 4582SOL     OW25207   3.457   3.420   8.764 -0.3338  0.9010  0.4397
 4582SOL    HW125208   3.521   3.371   8.815 -0.0403 -0.1557 -0.9657
 4582SOL    HW225209   3.402   3.473   8.823 -0.5773  0.7358  0.3581
 4583SOL     OW25210   0.403   1.691   7.197 -0.6422  0.0404  0.3850
 4583SOL    HW125211   0.386   1.604   7.161  0.3328  0.4483 -1.0286
 4583SOL    HW225212   0.314   1.727   7.199 -0.0462  1.3802  2.1653
 4584SOL     OW25213   3.402   4.502   4.165  0.4366 -0.2252  0.2044
 4584SOL    HW125214   3.452   4.539   4.092  1.4247 -1.0251  0.4705
 4584SOL    HW225215   3.445   4.422   4.196  1.3877 -0.6553 -2.1832
 4585SOL     OW25216   1.887   0.454   7.197  0.3395  0.1969 -0.4648
 4585SOL    HW125217   1.852   0.418   7.115  1.1742 -1.3619 -0.1250
 4585SOL    HW225218   1.815   0.517   7.198  0.2630  0.0991  0.1060
 4586SOL     OW25219   4.158   3.662   0.896 -0.2763  0.1188  0.1668
 4586SOL    HW125220   4.112   3.717   0.959 -0.6016 -0.4922  0.4606
 4586SOL    HW225221   4.111   3.582   0.918 -1.2764  0.1736 -1.8287
 4587SOL     OW25222   2.761   1.425   4.756  0.1782 -0.4670 -0.0399
 4587SOL    HW125223   2.714   1.359   4.806 -0.3276 -0.4592 -0.5045
 4587SOL    HW225224   2.739   1.511   4.791 -0.4367 -0.8429  0.4766
 4588SOL     OW25225   1.152   0.893   5.219  0.5919 -0.3753  0.5446
 4588SOL    HW125226   1.112   0.834   5.283 -0.3856  0.9443  1.1461
 4588SOL    HW225227   1.186   0.956   5.283 -0.1766 -1.1286  1.6975
 4589SOL     OW25228   4.146   0.060  10.203  0.1948  0.2445 -0.2044
 4589SOL    HW125229   4.124   0.022  10.288  0.5960 -0.1807 -0.2922
 4589SOL    HW225230   4.088   0.015  10.141 -0.8248 -0.5952  1.3623
 4590SOL     OW25231   1.580   3.092   2.358 -0.6254 -0.1981 -0.3916
 4590SOL    HW125232   1.667   3.061   2.335 -0.1479  1.0282 -0.2583
 4590SOL    HW225233   1.537   3.073   2.275 -1.9263 -2.9915  0.9050
 4591SOL     OW25234   4.048   3.584   0.676  0.2533  0.1231 -0.0898
 4591SOL    HW125235   4.038   3.489   0.687  0.3398  0.2319  0.9734
 4591SOL    HW225236   4.103   3.601   0.753  1.0853  2.0775 -1.1317
 4592SOL     OW25237   1.418   2.247   3.753  0.2582 -0.2159 -0.3194
 4592SOL    HW125238   1.408   2.172   3.695 -1.7850 -2.0457  2.4444
 4592SOL    HW225239   1.483   2.214   3.815 -0.8387  1.1374  1.5459
 4593SOL     OW25240   2.605   1.401   7.372  0.4359  0.2686  0.2250
 4593SOL    HW125241   2.624   1.320   7.421 -0.9799 -0.4351 -0.3713
 4593SOL    HW225242   2.637   1.370   7.287  0.1816 -2.7376  1.1973
 4594SOL     OW25243   0.294   2.692  17.455  0.1369 -0.7224 -0.1505
 4594SOL    HW125244   0.326   2.626  17.394  0.5397  0.5287 -1.3101
 4594SOL    HW225245   0.362   2.680  17.521  0.4516  0.2863 -0.2832
 4595SOL     OW25246   0.751   1.695  14.124  0.0004 -0.0459  0.3618
 4595SOL    HW125247   0.796   1.730  14.201  2.7999  0.8294 -1.6803
 4595SOL    HW225248   0.726   1.607  14.152  2.2092 -0.6517  0.4331
 4596SOL     OW25249   2.915   0.543   2.465 -0.1670  0.0912  0.1660
 4596SOL    HW125250   2.966   0.622   2.445  1.4902 -0.6902  1.3401
 4596SOL    HW225251   2.921   0.500   2.380 -0.6113 -1.2171  0.8049
 4597SOL     OW25252   3.189   4.204  16.150  0.0308 -0.2674  0.1369
 4597SOL    HW125253   3.116   4.266  16.143 -1.0540 -1.8347 -2.5673
 4597SOL    HW225254   3.226   4.248  16.226 -2.2514 -2.2441  2.4297
 4598SOL     OW25255   3.346   1.065   3.926  0.4767  0.1518 -0.2937
 4598SOL    HW125256   3.253   1.078   3.947 -0.2323 -1.2625 -2.5374
 4598SOL    HW225257   3.326   0.998   3.860 -0.0759  0.0117  0.0186
 4599SOL     OW25258   4.477   1.434   0.106  0.4127 -0.2415 -0.0212
 4599SOL    HW125259   4.558   1.451   0.057  2.4152 -0.5375  3.1488
 4599SOL    HW225260   4.492   1.459   0.198 -0.8956  0.4747 -0.0025
 4600SOL     OW25261   0.760   4.607   5.938  0.4832 -0.1320  0.4640
 4600SOL    HW125262   0.736   4.636   6.026  0.8195  1.1149  0.1384
 4600SOL    HW225263   0.786   4.691   5.902 -1.1513 -0.0137 -0.4383
 4601SOL     OW25264   0.350   2.515   5.394 -0.3956  0.0734  0.3161
 4601SOL    HW125265   0.275   2.564   5.428 -1.3575 -2.2328  1.5000
 4601SOL    HW225266   0.412   2.587   5.380  0.0447 -0.0416  1.7266
 4602SOL     OW25267   0.323   2.773   8.291  0.3824 -0.0772  0.4159
 4602SOL    HW125268   0.378   2.770   8.369 -1.2803 -0.3436  1.5558
 4602SOL    HW225269   0.272   2.850   8.311 -2.2771 -1.2746 -1.7580
 4603SOL     OW25270   3.991   2.955   1.228  0.0006  0.1115  0.3314
 4603SOL    HW125271   3.919   3.017   1.241  0.3794  0.2153  2.0230
 4603SOL    HW225272   4.045   2.990   1.157  0.7383  0.1039  0.8859
 4604SOL     OW25273   2.673   2.916   8.596 -0.0173 -0.3765  0.1109
 4604SOL    HW125274   2.616   2.988   8.568 -2.1423 -2.2050 -0.3092
 4604SOL    HW225275   2.721   2.947   8.672 -0.0652  2.0314 -0.8584
 4605SOL     OW25276   4.333   4.715  14.438  0.4813 -0.2540  0.7447
 4605SOL    HW125277   4.310   4.650  14.505 -0.7695 -0.3546  0.2324
 4605SOL    HW225278   4.249   0.006  14.393  1.6534  2.1268 -0.7734
 4606SOL     OW25279   0.661   2.216  15.379 -0.1247 -0.0459  0.2692
 4606SOL    HW125280   0.577   2.220  15.333  1.2505  2.3905 -2.0090
 4606SOL    HW225281   0.724   2.276  15.340 -0.1029 -0.0823  0.2480
 4607SOL     OW25282   3.390   4.010   5.747 -0.2993 -0.6346  0.1558
 4607SOL    HW125283   3.357   3.978   5.663  2.1551 -1.4648 -0.4886
 4607SOL    HW225284   3.329   4.082   5.762 -1.4190 -1.0570 -2.4661
 4608SOL     OW25285   2.867   0.343   9.364 -0.5158 -0.0012 -0.5716
 4608SOL    HW125286   2.826   0.409   9.421  0.5829  0.5889 -0.4762
 4608SOL    HW225287   2.798   0.277   9.365  0.6428 -1.1799  0.8561
 4609SOL     OW25288   3.918   1.302   8.611 -0.3338  0.4901 -0.2505
 4609SOL    HW125289   3.942   1.386   8.573 -0.0310  0.6180  0.2333
 4609SOL    HW225290   3.838   1.329   8.655 -1.2975 -2.1901 -0.3329
 4610SOL     OW25291   0.165   1.814  11.292  0.1238 -0.0295  0.0024
 4610SOL    HW125292   0.188   1.877  11.223 -0.6965  1.5966  1.2199
 4610SOL    HW225293   0.193   1.855  11.375  2.2143  0.7693 -1.0860
 4611SOL     OW25294   3.181   2.594   7.800 -0.4788  0.1442  0.0200
 4611SOL    HW125295   3.086   2.606   7.805 -0.4515  0.4479 -0.1543
 4611SOL    HW225296   3.193   2.517   7.855  0.2718  1.7064  2.0375
 4612SOL     OW25297   3.876   3.784   8.430  0.1515 -0.3146 -0.7723
 4612SOL    HW125298   3.958   3.743   8.458 -0.3422  0.7139  2.2184
 4612SOL    HW225299   3.831   3.789   8.515 -0.4867  0.9283 -1.1984
 4613SOL     OW25300   0.717   1.026   6.978  0.3657 -0.3986  0.1118
 4613SOL    HW125301   0.809   1.018   7.004  0.3895 -1.1902 -0.2224
 4613SOL    HW225302   0.702   0.939   6.941 -0.7267 -0.5198  0.8319
 4614SOL     OW25303   3.669   0.053  13.831  0.3512  0.4117 -0.0811
 4614SOL    HW125304   3.733   0.114  13.865 -2.5692  2.5297  1.5773
 4614SOL    HW225305   3.720   0.008  13.763 -0.2297 -0.6555  0.1841
 4615SOL     OW25306   3.427   0.245   3.023 -0.5411 -0.0108 -0.7546
 4615SOL    HW125307   3.367   0.171   3.032 -0.6791  0.1078 -0.7157
 4615SOL    HW225308   3.506   0.200   2.992  1.0512  1.7613  0.6793
 4616SOL     OW25309   0.794   4.115   6.391  0.1164 -0.2878 -0.2514
 4616SOL    HW125310   0.853   4.163   6.449  1.2119 -1.8331 -0.0849
 4616SOL    HW225311   0.821   4.026   6.412  1.0722  0.2698  0.9253
 4617SOL     OW25312   0.879   2.264  11.619 -0.0298  0.2259 -0.0329
 4617SOL    HW125313   0.789   2.289  11.601 -0.4559 -1.6946 -0.5656
 4617SOL    HW225314   0.931   2.295  11.544 -1.1905  0.2261 -0.8355
 4618SOL     OW25315   3.233   1.313   0.150  0.5764  0.6369 -0.5343
 4618SOL    HW125316   3.186   1.359   0.080  1.6211  0.6210 -1.2323
 4618SOL    HW225317   3.298   1.269   0.096  2.2253  1.2314  0.9669
 4619SOL     OW25318   0.546   0.513   1.031 -0.3067 -0.0837  0.1126
 4619SOL    HW125319   0.510   0.549   1.111  0.6525 -2.0329  1.4221
 4619SOL    HW225320   0.481   0.548   0.970 -0.7807 -2.5515 -0.8134
 4620SOL     OW25321   1.488   2.009   3.607 -0.0562 -0.5780 -0.3304
 4620SOL    HW125322   1.507   1.916   3.590  1.2652 -0.5182  0.8001
 4620SOL    HW225323   1.450   2.031   3.522  1.1326 -0.1048 -0.7462
 4621SOL     OW25324   3.868   3.469  11.576  0.6341  0.8520  0.1257
 4621SOL    HW125325   3.868   3.513  11.661  0.8249  1.2559 -0.0852
 4621SOL    HW225326   3.920   3.389  11.587  1.3121  1.4928  1.4706
 4622SOL     OW25327   3.549   2.648   8.875 -0.5974 -0.3631 -0.3130
 4622SOL    HW125328   3.608   2.581   8.909 -1.3768  0.3772  2.4948
 4622SOL    HW225329   3.602   2.655   8.795 -1.3789  0.2438 -0.7732
 4623SOL     OW25330   2.786   3.513   5.870 -0.0142  0.5149 -1.2362
 4623SOL    HW125331   2.871   3.494   5.831  0.0856 -0.8274 -0.3728
 4623SOL    HW225332   2.729   3.439   5.849 -0.6883  0.6319  0.1687
 4624SOL     OW25333   0.013   1.367   3.693  0.0904  0.4135 -0.0268
 4624SOL    HW125334   4.669   1.383   3.624 -2.2266 -1.4812  1.6902
 4624SOL    HW225335   0.064   1.309   3.637  0.9366  2.8082 -1.7483
 4625SOL     OW25336   2.077   0.230   7.059 -0.3164 -0.2693 -0.0614
 4625SOL    HW125337   2.025   0.187   6.991  1.7740  0.8797 -2.3903
 4625SOL    HW225338   2.150   0.268   7.011  0.2572 -0.6399  0.5210
 4626SOL     OW25339   3.720   2.021   6.439 -0.5374  0.1807  0.3269
 4626SOL    HW125340   3.644   2.047   6.491 -1.0547 -0.7379  0.0262
 4626SOL    HW225341   3.705   2.084   6.369  1.9409 -0.2392 -0.5716
 4627SOL     OW25342   1.816   0.437   3.289 -0.3430 -0.1902  0.2839
 4627SOL    HW125343   1.858   0.490   3.222  1.8413 -2.5744 -0.2379
 4627SOL    HW225344   1.755   0.383   3.238  1.7674 -1.8239 -0.5244
 4628SOL     OW25345   3.664   1.602   5.401  0.3089  0.0906 -0.5457
 4628SOL    HW125346   3.574   1.627   5.422  0.7407  0.5914  0.7387
 4628SOL    HW225347   3.651   1.536   5.334 -1.8043  1.9162 -1.9463
 4629SOL     OW25348   2.229   4.667   8.745  0.2016 -0.1577 -0.6118
 4629SOL    HW125349   2.173   4.590   8.752  0.5988 -0.4759 -0.9267
 4629SOL    HW225350   2.159   0.011   8.747  0.1915 -0.1974  0.4682
 4630SOL     OW25351   3.173   3.238   4.065 -0.2307 -0.2297  0.2045
 4630SOL    HW125352   3.128   3.191   4.136 -0.5985  0.9424  0.7463
 4630SOL    HW225353   3.210   3.319   4.101  3.9873 -1.6576 -0.8444
 4631SOL     OW25354   4.661   2.131   6.964 -0.5911 -0.0038  0.2627
 4631SOL    HW125355   0.016   2.077   6.943 -1.2040 -1.2868  1.3880
 4631SOL    HW225356   4.694   2.219   6.945 -2.2874  0.5669  0.0050
 4632SOL     OW25357   0.048   2.608  15.647  0.0754  0.1603  1.1317
 4632SOL    HW125358   4.686   2.604  15.599  0.4902 -3.0307  0.7246
 4632SOL    HW225359   0.034   2.553  15.723 -2.0441  2.1598  2.1597
 4633SOL     OW25360   0.323   3.178   7.219 -0.1057 -0.1684 -0.4307
 4633SOL    HW125361   0.390   3.110   7.225  1.0848  1.2089  1.9865
 4633SOL    HW225362   0.304   3.190   7.312 -0.6008 -1.6417 -0.3402
 4634SOL     OW25363   1.954   1.301   9.203  0.2998  0.4501  0.6816
 4634SOL    HW125364   2.007   1.369   9.162 -0.7435  1.2867  0.7092
 4634SOL    HW225365   1.979   1.217   9.164  0.0810  0.0686  1.3459
 4635SOL     OW25366   4.393   3.153   1.742 -0.1813  0.5149 -0.6036
 4635SOL    HW125367   4.475   3.106   1.723  0.6311  2.2469 -1.4117
 4635SOL    HW225368   4.380   3.207   1.664  2.7833  0.5659 -1.0691
 4636SOL     OW25369   2.182   3.559   8.500  0.5477 -0.6869 -0.9006
 4636SOL    HW125370   2.089   3.542   8.487 -0.0954  1.6231  0.6434
 4636SOL    HW225371   2.208   3.548   8.409 -0.3961 -0.1179 -1.2424
 4637SOL     OW25372   3.498   1.105   5.495 -0.2058  0.3408 -0.1610
 4637SOL    HW125373   3.571   1.127   5.552  0.7500  1.0600 -1.6627
 4637SOL    HW225374   3.434   1.172   5.520 -1.2006 -0.2645 -1.0813
 4638SOL     OW25375   3.947   3.274  16.378 -0.7113 -0.2336 -0.1693
 4638SOL    HW125376   4.004   3.344  16.408 -1.2078 -0.3166  0.9455
 4638SOL    HW225377   3.910   3.247  16.462 -1.8016 -1.4666 -1.0341
 4639SOL     OW25378   3.537   3.085   3.317 -0.0677 -0.0413  0.0774
 4639SOL    HW125379   3.531   3.122   3.406  1.6601 -0.5614  0.4258
 4639SOL    HW225380   3.490   3.006   3.342  0.7637  0.1255  2.1914
 4640SOL     OW25381   3.786   1.950   3.117 -0.2397  0.6761 -0.1602
 4640SOL    HW125382   3.752   2.009   3.184 -0.7189  0.2081  0.0130
 4640SOL    HW225383   3.719   1.945   3.049 -0.8199  2.2965  0.2951
 4641SOL     OW25384   4.375   2.053   9.579 -0.3244 -0.0132  0.3783
 4641SOL    HW125385   4.446   1.992   9.599  0.7586  1.1887  0.2339
 4641SOL    HW225386   4.419   2.137   9.593 -0.8323  0.4326 -0.7280
 4642SOL     OW25387   0.353   4.615   5.878  0.2559 -0.9580  0.2111
 4642SOL    HW125388   0.355   4.682   5.947 -2.6180  0.1768 -0.8066
 4642SOL    HW225389   0.413   4.658   5.817  0.3511  2.4119  2.6549
 4643SOL     OW25390   1.636   0.634  13.566  0.1806  0.0042  0.1888
 4643SOL    HW125391   1.654   0.726  13.544 -1.3175  0.5109  1.0543
 4643SOL    HW225392   1.697   0.597  13.503 -0.5005  0.0894 -0.5297
 4644SOL     OW25393   2.710   0.818   8.537  0.1954 -0.4628 -0.0487
 4644SOL    HW125394   2.740   0.839   8.626 -1.8735 -0.5778  0.6862
 4644SOL    HW225395   2.785   0.765   8.508  0.0136 -0.6946 -0.0988
 4645SOL     OW25396   2.117   2.120  10.186 -0.2766  0.1176  0.0935
 4645SOL    HW125397   2.040   2.078  10.223  1.0442 -3.8596 -1.7429
 4645SOL    HW225398   2.086   2.167  10.108  0.4868  0.1564 -0.1935
 4646SOL     OW25399   3.216   4.170   2.949  0.0236  0.0204 -0.2988
 4646SOL    HW125400   3.186   4.172   3.040 -1.3463  0.9144 -0.7873
 4646SOL    HW225401   3.217   4.264   2.929  0.2265 -0.3881 -2.1908
 4647SOL     OW25402   3.308   4.275  10.816  0.9110 -0.3947  0.0286
 4647SOL    HW125403   3.386   4.287  10.870 -0.1673  1.5541  1.1067
 4647SOL    HW225404   3.241   4.297  10.880 -0.0034 -0.9093 -0.7391
 4648SOL     OW25405   1.374   1.139   3.910 -0.0671  0.0626  0.1394
 4648SOL    HW125406   1.413   1.080   3.845 -0.8516  0.7187 -0.9153
 4648SOL    HW225407   1.280   1.129   3.900 -0.1533  1.7116 -0.6383
 4649SOL     OW25408   2.427   2.592  10.435  0.3806  0.3675  0.1902
 4649SOL    HW125409   2.384   2.564  10.354 -0.8061 -1.2122  1.3898
 4649SOL    HW225410   2.346   2.627  10.470 -0.3568  0.3992 -1.5147
 4650SOL     OW25411   3.114   2.447  11.814  0.4550  0.8032 -0.0452
 4650SOL    HW125412   3.126   2.417  11.904  0.1907 -1.0807 -0.6231
 4650SOL    HW225413   3.127   2.363  11.770 -0.0107  0.2192  0.9363
 4651SOL     OW25414   1.264   4.423   8.902 -0.6107  0.9122 -0.5530
 4651SOL    HW125415   1.172   4.430   8.928 -0.5165 -1.8995  0.5126
 4651SOL    HW225416   1.290   4.516   8.900  0.1723  0.7028  0.1377
 4652SOL     OW25417   4.377   2.256   7.262  0.1620 -0.4405 -0.6144
 4652SOL    HW125418   4.388   2.311   7.340 -1.5728  0.3626 -0.9224
 4652SOL    HW225419   4.357   2.327   7.202 -0.7425 -0.0151  0.1818
 4653SOL     OW25420   0.800   1.364  14.436  0.1123  0.0905  0.2153
 4653SOL    HW125421   0.881   1.315  14.451  0.5258  1.3228  1.9258
 4653SOL    HW225422   0.776   1.378  14.527 -0.4068  1.0591 -0.0649
 4654SOL     OW25423   1.242   1.755   6.592 -0.1297 -0.0734  0.4409
 4654SOL    HW125424   1.331   1.774   6.563  0.8967 -0.3609  3.3943
 4654SOL    HW225425   1.204   1.757   6.504  1.7872  1.0351 -0.3718
 4655SOL     OW25426   1.834   2.574   5.828 -0.1927  0.0682 -0.4958
 4655SOL    HW125427   1.762   2.519   5.797 -2.4623  2.7637 -0.0420
 4655SOL    HW225428   1.848   2.528   5.910 -1.1347 -0.0846 -0.4275
 4656SOL     OW25429   3.314   1.154  15.267 -0.4108  0.0766  0.3537
 4656SOL    HW125430   3.381   1.103  15.221 -1.2847 -0.5347 -0.2380
 4656SOL    HW225431   3.258   1.081  15.294  1.2162 -1.0916  0.5614
 4657SOL     OW25432   0.845   4.708  13.757 -0.0750 -0.5983  0.3603
 4657SOL    HW125433   0.801   4.634  13.798 -1.5448 -0.8319 -1.5999
 4657SOL    HW225434   0.898   4.668  13.688  1.8845  0.4968  1.2459
 4658SOL     OW25435   3.175   3.738  15.842 -0.0526  0.2969  0.4901
 4658SOL    HW125436   3.090   3.781  15.851 -0.3362  0.2804 -1.9540
 4658SOL    HW225437   3.178   3.669  15.908 -1.5460  0.5806  0.8561
 4659SOL     OW25438   1.647   1.330   5.520 -0.0654 -0.2462 -0.2557
 4659SOL    HW125439   1.588   1.255   5.509 -0.2969  0.1521 -1.7150
 4659SOL    HW225440   1.590   1.391   5.566  1.0329  0.1194  0.6266
 4660SOL     OW25441   4.662   4.298   3.095 -0.1359 -0.1780  0.0747
 4660SOL    HW125442   4.682   4.237   3.166  0.1734 -0.3187 -0.1330
 4660SOL    HW225443   0.018   4.353   3.111  0.8030 -1.2931 -0.5710
 4661SOL     OW25444   1.374   0.901  14.155 -0.3952  0.4875  0.2917
 4661SOL    HW125445   1.369   0.837  14.084 -1.1101  1.2077 -0.3063
 4661SOL    HW225446   1.380   0.838  14.228 -0.9427  1.6888  1.3737
 4662SOL     OW25447   3.992   1.509  12.078  0.4792  0.0532  0.1336
 4662SOL    HW125448   4.086   1.528  12.078  1.0096 -2.5585  0.4262
 4662SOL    HW225449   3.945   1.589  12.055  0.9521  0.1398 -0.5279
 4663SOL     OW25450   1.272   0.083   7.404 -0.1323  0.1971  0.1442
 4663SOL    HW125451   1.187   0.117   7.375 -0.4471 -0.4843  0.2774
 4663SOL    HW225452   1.255   4.711   7.393 -2.0318  0.7577 -1.5928
 4664SOL     OW25453   3.054   1.891   2.909 -0.0913 -0.1283  0.1107
 4664SOL    HW125454   3.083   1.942   2.984 -0.0049  1.0328 -0.7236
 4664SOL    HW225455   2.962   1.917   2.906  0.2587  1.1643  0.5218
 4665SOL     OW25456   3.996   3.322   0.724  0.0486  0.5214 -0.4142
 4665SOL    HW125457   4.039   3.241   0.753 -1.7388 -0.5087 -0.6640
 4665SOL    HW225458   3.965   3.293   0.638 -0.9620  0.1037  0.0904
 4666SOL     OW25459   0.614   2.151  10.947 -0.4605  0.0025 -0.0449
 4666SOL    HW125460   0.622   2.084  10.879  1.9634  0.7985 -0.5450
 4666SOL    HW225461   0.601   2.102  11.028  0.7899 -0.8451 -0.3452
 4667SOL     OW25462   0.400   0.917   1.841  0.6998  0.1487 -0.1768
 4667SOL    HW125463   0.495   0.923   1.852  0.6951 -0.1280  0.0214
 4667SOL    HW225464   0.384   0.831   1.804  1.0327 -1.6869  3.9982
 4668SOL     OW25465   2.866   4.182  11.430  0.0530  0.1904 -0.1576
 4668SOL    HW125466   2.812   4.103  11.425 -1.5987  1.1954  1.6638
 4668SOL    HW225467   2.800   4.249  11.451 -1.2639 -1.3340  0.5241
 4669SOL     OW25468   2.053   1.256   7.375 -0.0663  0.5131  0.1170
 4669SOL    HW125469   2.057   1.252   7.471 -0.6822 -1.8157  0.0601
 4669SOL    HW225470   1.962   1.249   7.348  0.5672 -2.1036 -1.4217
 4670SOL     OW25471   3.118   3.076  15.201 -0.1473  0.1159  0.3561
 4670SOL    HW125472   3.176   3.008  15.167 -1.7398 -1.4376  0.7509
 4670SOL    HW225473   3.082   3.105  15.117 -1.1884 -1.6539  0.1935
 4671SOL     OW25474   3.064   0.005   1.471 -0.1800  0.1357 -0.2535
 4671SOL    HW125475   3.145   0.028   1.517 -2.0489  3.0985  1.5584
 4671SOL    HW225476   3.001   0.058   1.520  1.1537  0.9789  0.5585
 4672SOL     OW25477   4.370   1.906  14.817  0.0866  0.7644  0.2820
 4672SOL    HW125478   4.458   1.933  14.842  0.3656 -0.4265  0.6054
 4672SOL    HW225479   4.338   1.837  14.876 -0.6152  0.4291 -0.4839
 4673SOL     OW25480   0.247   0.292  16.439 -0.0063  0.5911 -0.3233
 4673SOL    HW125481   0.248   0.201  16.410  0.5142  0.2978  0.6124
 4673SOL    HW225482   0.201   0.337  16.368  3.2752  2.0261 -1.5127
 4674SOL     OW25483   0.731   0.015   8.320 -0.4297  0.2605  0.2060
 4674SOL    HW125484   0.770   0.094   8.283  2.4142 -1.2379  0.0691
 4674SOL    HW225485   0.789   4.699   8.386 -0.7361  0.0865  0.3804
 4675SOL     OW25486   3.657   0.123   2.880  0.2619  0.2177  0.2056
 4675SOL    HW125487   3.660   0.066   2.803  0.5777  2.2982 -1.3190
 4675SOL    HW225488   3.712   0.196   2.850  0.4768 -0.2284 -0.4795
 4676SOL     OW25489   4.617   0.797   6.757 -0.1251  0.0960  0.5448
 4676SOL    HW125490   4.598   0.879   6.802  0.6360  1.2533 -1.2660
 4676SOL    HW225491   4.670   0.753   6.824  0.1339  1.1300  1.0223
 4677SOL     OW25492   4.033   0.261   0.286 -0.1529 -0.0907  0.8286
 4677SOL    HW125493   4.118   0.228   0.259  0.5562  1.1241  1.5532
 4677SOL    HW225494   4.053   0.353   0.304  0.9844 -0.2028  0.1247
 4678SOL     OW25495   0.077   2.547  13.533 -0.0672 -0.3513  0.0784
 4678SOL    HW125496   0.139   2.561  13.604 -0.0776  2.9569 -0.5898
 4678SOL    HW225497   0.130   2.533  13.455  0.2424  1.4636 -0.0306
 4679SOL     OW25498   2.737   0.951   2.844  0.3619  0.6227  0.1462
 4679SOL    HW125499   2.730   1.032   2.795  1.1380  0.0571 -0.9133
 4679SOL    HW225500   2.693   0.893   2.782 -0.6081 -0.8667  2.2050
 4680SOL     OW25501   2.836   1.148   9.036  0.1746  0.5178 -0.1907
 4680SOL    HW125502   2.783   1.194   9.101  0.2310  1.0311 -0.5030
 4680SOL    HW225503   2.884   1.083   9.088 -1.6754 -0.8499 -0.1979
 4681SOL     OW25504   3.037   1.370   8.879  0.1288  0.0318 -0.2419
 4681SOL    HW125505   3.004   1.360   8.790 -2.7583 -0.6205  0.9124
 4681SOL    HW225506   2.955   1.390   8.925  1.3920 -0.8847  2.3701
 4682SOL     OW25507   2.859   1.231  17.246  0.3500  0.0084  0.2225
 4682SOL    HW125508   2.824   1.144  17.228 -0.2877  0.1886  0.5684
 4682SOL    HW225509   2.921   1.253  17.177 -1.1456  0.6821 -0.9066
 4683SOL     OW25510   1.847   2.872   4.056 -0.4171 -0.0020 -0.1923
 4683SOL    HW125511   1.854   2.823   3.973 -0.2224  2.2879 -1.5216
 4683SOL    HW225512   1.933   2.844   4.088 -0.2350  0.7530 -0.0417
 4684SOL     OW25513   0.398   3.718   8.920  0.4793 -0.1651 -0.2598
 4684SOL    HW125514   0.422   3.726   9.013 -0.6083 -2.8067  0.2618
 4684SOL    HW225515   0.334   3.788   8.909  0.7011  0.3115  1.4076
 4685SOL     OW25516   4.487   3.352   6.163  0.2674 -0.3849  0.0882
 4685SOL    HW125517   4.402   3.364   6.122  0.6642  1.6026 -0.1527
 4685SOL    HW225518   4.540   3.333   6.085 -0.5504  0.1044 -0.5797
 4686SOL     OW25519   2.091   0.067   3.672 -0.7206 -0.3036 -0.4904
 4686SOL    HW125520   2.180   0.055   3.639 -0.6008 -0.1276 -0.2288
 4686SOL    HW225521   2.049   4.712   3.631  0.4646 -0.3858 -1.5413
 4687SOL     OW25522   0.730   4.048   3.916  0.1048  0.1560  0.4291
 4687SOL    HW125523   0.664   4.115   3.936 -2.4615 -1.6510 -1.9939
 4687SOL    HW225524   0.792   4.094   3.972 -1.5723  1.4513  1.2376
 4688SOL     OW25525   3.904   3.697  12.805 -0.0474  0.5837 -0.3104
 4688SOL    HW125526   3.895   3.604  12.782  1.3136  0.3644  0.0537
 4688SOL    HW225527   3.930   3.734  12.721 -0.7373 -1.4075 -1.4100
 4689SOL     OW25528   0.775   4.585   6.658 -0.9039 -0.4723 -0.6569
 4689SOL    HW125529   0.778   4.490   6.650  1.6840 -0.3893 -0.9228
 4689SOL    HW225530   0.683   4.591   6.633 -0.7209 -1.2856 -1.5396
 4690SOL     OW25531   2.460   2.282   1.353  0.1939  0.4010  0.2350
 4690SOL    HW125532   2.507   2.236   1.423 -2.3379 -0.5588  1.3282
 4690SOL    HW225533   2.428   2.356   1.404  2.6999  0.5886  1.5291
 4691SOL     OW25534   0.671   4.059   4.243 -0.0379 -0.6248 -0.1343
 4691SOL    HW125535   0.700   4.049   4.333  2.2057  1.5956 -0.5950
 4691SOL    HW225536   0.740   4.113   4.204 -1.1048 -0.9904 -2.5767
 4692SOL     OW25537   0.013   2.771   7.533 -0.6089 -0.0543 -0.3041
 4692SOL    HW125538   0.093   2.822   7.521 -0.1324 -0.9535 -1.0379
 4692SOL    HW225539   4.665   2.836   7.519 -0.0418  0.3124 -1.4326
 4693SOL     OW25540   1.515   3.875   4.317 -0.1444  0.4255 -0.3296
 4693SOL    HW125541   1.588   3.818   4.340 -1.6198 -1.6163 -0.7704
 4693SOL    HW225542   1.440   3.831   4.358  0.7945 -0.9915 -0.1413
 4694SOL     OW25543   2.924   4.077   3.075 -0.7124 -0.1225  0.4601
 4694SOL    HW125544   2.978   4.142   3.121  1.9551 -1.2412 -1.0543
 4694SOL    HW225545   2.887   4.129   3.004  1.0101  1.4674  0.7267
 4695SOL     OW25546   3.838   3.495   4.488 -0.0152  0.2388  0.1075
 4695SOL    HW125547   3.897   3.423   4.466 -0.6104  0.8437 -3.3614
 4695SOL    HW225548   3.768   3.442   4.526 -0.9943 -0.8061 -3.1798
 4696SOL     OW25549   0.903   2.782   0.662 -0.0887 -0.0131 -0.2306
 4696SOL    HW125550   0.853   2.705   0.690 -2.1239  0.4887 -2.4626
 4696SOL    HW225551   0.990   2.744   0.652  0.6679  1.7874 -0.3641
 4697SOL     OW25552   1.725   2.885  11.907  0.2858  0.1370  0.3000
 4697SOL    HW125553   1.727   2.794  11.878  0.8650  1.1627 -2.8139
 4697SOL    HW225554   1.773   2.880  11.990  0.5632 -1.7655  0.0156
 4698SOL     OW25555   2.215   0.282   1.144  0.1860  0.6101  0.4190
 4698SOL    HW125556   2.184   0.261   1.056 -1.4935 -0.4258  1.2678
 4698SOL    HW225557   2.133   0.264   1.190 -0.9133  1.2359 -1.2773
 4699SOL     OW25558   4.042   1.971   2.042  0.1552 -0.4923  0.3794
 4699SOL    HW125559   4.072   1.881   2.028  0.4517 -0.4676  0.8508
 4699SOL    HW225560   4.058   2.008   1.956 -1.4019 -0.3572  0.1449
 4700SOL     OW25561   3.849   1.809   5.282  0.6639  0.4670  0.0830
 4700SOL    HW125562   3.765   1.803   5.328  1.5966 -1.1471  1.5613
 4700SOL    HW225563   3.875   1.723   5.314 -1.1058  0.0642  0.4620
 4701SOL     OW25564   1.649   3.562  10.505  0.1081  0.4930  0.6955
 4701SOL    HW125565   1.554   3.552  10.510  0.2840 -0.8320  1.1466
 4701SOL    HW225566   1.660   3.613  10.585  1.3283 -0.3555  1.0567
 4702SOL     OW25567   0.617   2.077   7.633 -0.0070  0.3245  0.5355
 4702SOL    HW125568   0.534   2.039   7.603  0.4832  0.6978 -1.2980
 4702SOL    HW225569   0.629   2.018   7.708  0.4280  0.3447  0.4833
 4703SOL     OW25570   1.536   0.782   8.432  0.0795 -0.3780  0.0758
 4703SOL    HW125571   1.493   0.798   8.348 -0.6882  0.4261  0.6289
 4703SOL    HW225572   1.514   0.693   8.458 -0.5882 -0.1302  0.3286
 4704SOL     OW25573   2.098   1.980   3.612 -0.2774 -0.0575  0.1511
 4704SOL    HW125574   2.061   1.957   3.527  1.2631  1.1203 -0.8405
 4704SOL    HW225575   2.145   2.062   3.594  0.0947  0.2229  2.3598
 4705SOL     OW25576   3.781   4.637   7.390  1.0941 -0.1426  0.3361
 4705SOL    HW125577   3.774   4.706   7.325  0.7439 -0.0237  0.5034
 4705SOL    HW225578   3.692   4.609   7.410  0.1448  0.6461 -2.8570
 4706SOL     OW25579   0.018   3.040   6.820  0.1176 -0.2117  0.3103
 4706SOL    HW125580   4.692   3.114   6.783 -0.3238  0.4354  2.1692
 4706SOL    HW225581   0.055   3.080   6.899  0.0814 -0.0968  0.2690
 4707SOL     OW25582   3.201   2.040  13.169  0.0571  0.1212  0.4862
 4707SOL    HW125583   3.184   1.958  13.123  0.8015  0.1352  0.1834
 4707SOL    HW225584   3.179   2.029  13.261 -2.2574  2.3472  0.2043
 4708SOL     OW25585   3.922   2.203   1.857 -0.7067 -0.0061 -0.5092
 4708SOL    HW125586   3.950   2.294   1.862  0.7158 -0.5377  1.1081
 4708SOL    HW225587   4.004   2.163   1.829  0.2929 -0.2270  2.7291
 4709SOL     OW25588   4.099   4.090   1.064  0.6530  0.0307  0.0200
 4709SOL    HW125589   4.106   4.116   1.156  1.1326 -0.1426  0.0321
 4709SOL    HW225590   4.137   4.165   1.018 -2.1994  0.1792 -2.0804
 4710SOL     OW25591   0.386   2.804   8.007  0.5951  0.1307  0.2481
 4710SOL    HW125592   0.365   2.790   8.099  1.5785  0.8106  0.5772
 4710SOL    HW225593   0.320   2.856   7.962  0.6453  0.0625  0.0937
 4711SOL     OW25594   1.037   2.998   8.881 -0.2103  0.3900 -0.7048
 4711SOL    HW125595   0.947   2.978   8.858 -0.5371  1.4762 -0.4114
 4711SOL    HW225596   1.055   3.085   8.846  2.0568  1.3159  2.7025
 4712SOL     OW25597   4.719   0.234   3.276 -0.6063  0.6372  0.3494
 4712SOL    HW125598   0.091   0.244   3.254 -0.8103 -0.7753 -1.1828
 4712SOL    HW225599   4.692   0.325   3.260 -1.8219  0.1487 -0.3969
 4713SOL     OW25600   0.951   3.410   5.644  0.1245  0.2976  0.2401
 4713SOL    HW125601   1.029   3.361   5.619 -0.4587  1.1969 -3.3039
 4713SOL    HW225602   0.911   3.349   5.706  0.4702 -2.1769 -1.9679
 4714SOL     OW25603   2.403   1.262   3.865 -0.0675  0.2860  0.0325
 4714SOL    HW125604   2.309   1.284   3.865 -0.4280 -1.2683  0.7689
 4714SOL    HW225605   2.395   1.170   3.842  0.6809 -0.3814  2.4288
 4715SOL     OW25606   3.201   3.574  10.959 -0.0182 -0.2750  0.0283
 4715SOL    HW125607   3.264   3.573  11.030  0.1002  0.3449 -0.0719
 4715SOL    HW225608   3.179   3.667  10.953 -1.3842 -0.7218 -2.0742
 4716SOL     OW25609   4.340   2.786   6.688  0.0707  0.4131  0.1101
 4716SOL    HW125610   4.396   2.715   6.719 -0.4743  0.3918  1.0424
 4716SOL    HW225611   4.404   2.851   6.661  0.0359  0.1573 -0.5976
 4717SOL     OW25612   0.886   2.024   8.759 -0.2226 -0.4680 -0.0123
 4717SOL    HW125613   0.809   2.005   8.813 -0.8361 -1.3078 -1.1838
 4717SOL    HW225614   0.940   2.074   8.820 -1.1178 -0.7549  1.0240
 4718SOL     OW25615   1.254   1.090   4.178 -0.0064  0.4835  0.1849
 4718SOL    HW125616   1.194   1.033   4.225  0.0374 -0.1917 -0.5858
 4718SOL    HW225617   1.302   1.128   4.252  1.6545  0.3093 -0.8037
 4719SOL     OW25618   4.509   0.117   0.465 -0.2562  0.4396 -0.8146
 4719SOL    HW125619   4.596   0.100   0.501 -0.6166  0.4162  0.0396
 4719SOL    HW225620   4.483   0.187   0.524  1.4690  0.6764 -0.3324
 4720SOL     OW25621   1.992   3.890   0.282  0.4682 -0.5060 -0.0362
 4720SOL    HW125622   2.059   3.929   0.338  1.5049 -0.7282 -1.1176
 4720SOL    HW225623   1.937   3.968   0.288 -1.8668 -2.5263  4.2047
 4721SOL     OW25624   2.827   0.062   4.935  0.6640 -0.0037  0.2845
 4721SOL    HW125625   2.733   0.066   4.951  0.4837 -3.4492  0.0793
 4721SOL    HW225626   2.847   0.118   5.010  0.5506 -1.6290  1.5437
 4722SOL     OW25627   1.505   4.220   5.664  0.0111  0.3889  0.3963
 4722SOL    HW125628   1.472   4.158   5.729  2.5718  1.8316  3.1121
 4722SOL    HW225629   1.569   4.270   5.716 -1.2510  0.4969  1.8447
 4723SOL     OW25630   4.579   2.332   3.130 -0.1097  0.2630  0.4236
 4723SOL    HW125631   4.528   2.294   3.201 -2.1632 -1.1599 -1.8228
 4723SOL    HW225632   4.518   2.396   3.093  1.2046 -0.3510 -2.8456
 4724SOL     OW25633   1.795   3.150   5.200  0.1285 -0.1899 -0.0622
 4724SOL    HW125634   1.884   3.181   5.184  0.3628 -0.8201  0.0020
 4724SOL    HW225635   1.796   3.110   5.287 -0.8990  0.1837  0.1222
 4725SOL     OW25636   1.208   0.430   5.438  0.3192 -0.1117  0.1036
 4725SOL    HW125637   1.286   0.478   5.407  1.3826 -2.4745 -0.8598
 4725SOL    HW225638   1.254   0.348   5.458 -0.9438 -1.4450 -2.4605
 4726SOL     OW25639   4.034   1.243   4.983  0.0366 -0.1212  0.3404
 4726SOL    HW125640   3.993   1.329   4.994 -0.8066 -0.8881  3.0902
 4726SOL    HW225641   4.118   1.255   5.027 -0.4177 -0.8361  1.4072
 4727SOL     OW25642   0.227   0.434   5.162 -0.0958 -0.6382  0.1945
 4727SOL    HW125643   0.274   0.351   5.162  0.7024 -0.1892  1.1373
 4727SOL    HW225644   0.148   0.402   5.118  0.5098  0.6878 -1.8848
 4728SOL     OW25645   2.335   3.719   5.106  0.0689  0.1372  0.3126
 4728SOL    HW125646   2.412   3.775   5.098  0.2210  0.2441  2.4239
 4728SOL    HW225647   2.322   3.698   5.199 -2.1840  2.3093  0.5074
 4729SOL     OW25648   1.109   1.115  10.543  0.4290  0.4178  0.2981
 4729SOL    HW125649   1.126   1.203  10.511  1.8252  0.3660  0.8977
 4729SOL    HW225650   1.051   1.129  10.619  0.7128 -0.7796  0.7391
 4730SOL     OW25651   0.868   3.200  16.825 -0.5516 -0.0479  0.4402
 4730SOL    HW125652   0.811   3.124  16.814 -1.4318  0.3966  1.9756
 4730SOL    HW225653   0.857   3.227  16.916 -0.3460  2.0384 -0.1451
 4731SOL     OW25654   4.088   0.828  14.143 -0.2063  0.2670  0.5409
 4731SOL    HW125655   4.109   0.922  14.142  1.3654 -0.1307 -3.2655
 4731SOL    HW225656   4.164   0.793  14.187 -0.5195 -1.0030  0.0635
 4732SOL     OW25657   3.669   3.988   4.510 -0.3444  0.1952 -0.1987
 4732SOL    HW125658   3.625   3.977   4.426  0.4356  1.4199 -0.7634
 4732SOL    HW225659   3.600   4.030   4.561  0.3113 -1.0071  1.6795
 4733SOL     OW25660   1.957   3.177   6.537  0.0147  0.0073 -0.2312
 4733SOL    HW125661   2.025   3.157   6.473 -0.3038 -2.1988  0.1453
 4733SOL    HW225662   2.012   3.207   6.610  0.1779  1.0068 -0.7537
 4734SOL     OW25663   1.713   3.125   4.907 -0.1339 -0.3421 -0.4897
 4734SOL    HW125664   1.687   3.045   4.952  1.1641 -0.5685 -0.1566
 4734SOL    HW225665   1.738   3.179   4.982 -0.0244 -1.0076 -0.0435
 4735SOL     OW25666   0.673   2.526   7.370 -0.1462 -0.7701  0.4702
 4735SOL    HW125667   0.752   2.573   7.396 -0.2524 -0.4778  0.2521
 4735SOL    HW225668   0.662   2.468   7.446 -0.2122  0.3516  1.3190
 4736SOL     OW25669   1.660   0.404   5.936  0.5811 -0.7171 -0.1615
 4736SOL    HW125670   1.687   0.384   6.026 -2.9846 -0.9874  0.8424
 4736SOL    HW225671   1.745   0.430   5.901  0.7617 -0.7708  0.2295
 4737SOL     OW25672   3.822   2.916  10.524 -0.6198 -0.1353 -0.1633
 4737SOL    HW125673   3.740   2.869  10.508 -1.6362  1.3190  0.7133
 4737SOL    HW225674   3.875   2.845  10.560 -0.1967 -0.4095 -1.3201
 4738SOL     OW25675   3.070   0.359  14.714 -0.0957  0.3611  0.2963
 4738SOL    HW125676   3.065   0.422  14.642  0.5882 -0.8613 -0.8182
 4738SOL    HW225677   3.071   0.416  14.791 -1.3028  0.5687  0.1518
 4739SOL     OW25678   2.920   3.333   4.234 -0.0260  0.3732  0.2384
 4739SOL    HW125679   2.878   3.314   4.317 -2.3703 -0.6499 -1.1627
 4739SOL    HW225680   2.972   3.254   4.214 -0.1062  0.4376 -0.2267
 4740SOL     OW25681   2.650   0.524   6.143 -0.0991 -0.3046  0.3845
 4740SOL    HW125682   2.612   0.598   6.096 -0.1197 -1.0962 -0.8323
 4740SOL    HW225683   2.742   0.547   6.138  0.1460 -1.3872  0.0751
 4741SOL     OW25684   2.736   3.694  13.932  0.0709  0.4433  0.4682
 4741SOL    HW125685   2.731   3.789  13.916  0.9139  0.3722 -0.2231
 4741SOL    HW225686   2.711   3.693  14.024 -2.2030 -0.3514 -0.1388
 4742SOL     OW25687   0.371   3.964   3.116 -0.0889 -0.5184 -0.2553
 4742SOL    HW125688   0.400   4.049   3.148  0.2025 -0.3399 -0.9927
 4742SOL    HW225689   0.314   3.990   3.044 -0.8694 -0.0290  0.5403
 4743SOL     OW25690   2.234   2.150  14.534  0.0837 -0.0336 -0.0503
 4743SOL    HW125691   2.327   2.141  14.517  0.2028  2.5877 -0.7692
 4743SOL    HW225692   2.237   2.110  14.621 -0.8268  0.8065  0.3742
 4744SOL     OW25693   3.168   2.239   6.032  0.0145  0.1252  0.1276
 4744SOL    HW125694   3.077   2.213   6.019 -0.6981  1.8941  1.5336
 4744SOL    HW225695   3.211   2.156   6.014 -0.8959 -0.1991 -0.5574
 4745SOL     OW25696   2.323   3.704   2.727  0.5494  0.0918 -0.0234
 4745SOL    HW125697   2.342   3.640   2.658  0.8476  2.0159 -1.7587
 4745SOL    HW225698   2.415   3.708   2.753 -0.2804  2.0644  2.5389
 4746SOL     OW25699   0.565   1.789   2.772 -0.7288 -0.0743  0.4541
 4746SOL    HW125700   0.525   1.814   2.689  3.0847  0.3744 -1.2370
 4746SOL    HW225701   0.625   1.718   2.747 -0.5656 -0.0827  0.8628
 4747SOL     OW25702   0.719   2.159   2.802 -0.3026 -0.4452  0.3588
 4747SOL    HW125703   0.742   2.076   2.760  0.9910 -0.1094  0.3892
 4747SOL    HW225704   0.679   2.199   2.725  0.8367  0.4240  0.2258
 4748SOL     OW25705   3.245   3.747  11.388  0.2218 -0.2900 -0.0588
 4748SOL    HW125706   3.325   3.730  11.339  0.4594  3.3839 -0.9183
 4748SOL    HW225707   3.187   3.671  11.385  0.0340 -0.0450 -2.8216
 4749SOL     OW25708   4.655   4.064   7.647 -0.0145 -0.2065  0.5756
 4749SOL    HW125709   4.695   4.146   7.676 -2.7638  1.0171  0.9482
 4749SOL    HW225710   0.002   4.015   7.602  0.4881 -0.4482  1.5925
 4750SOL     OW25711   1.528   3.139  13.524 -0.4849  0.5574  0.2782
 4750SOL    HW125712   1.585   3.063  13.528  0.0221  0.9862  1.1401
 4750SOL    HW225713   1.559   3.203  13.589 -0.6058 -2.0254  2.8696
 4751SOL     OW25714   1.466   0.512   3.987  0.2917 -0.4669 -0.3483
 4751SOL    HW125715   1.547   0.559   3.970  0.4522 -0.2204  1.0331
 4751SOL    HW225716   1.425   0.568   4.053  0.7341  0.1284 -0.5779
 4752SOL     OW25717   2.618   3.365   4.717 -0.1053 -0.3519  0.1770
 4752SOL    HW125718   2.646   3.290   4.769  2.4072 -0.9879 -2.0942
 4752SOL    HW225719   2.573   3.415   4.785 -0.6735 -0.9003  0.2040
 4753SOL     OW25720   3.912   0.872   6.935 -0.4387 -0.1255  0.5953
 4753SOL    HW125721   3.999   0.837   6.954  0.4863  1.2946 -1.0632
 4753SOL    HW225722   3.911   0.949   6.993 -1.2522 -0.5852  1.1816
 4754SOL     OW25723   4.054   3.319   2.320 -0.5119  0.0341  0.3372
 4754SOL    HW125724   3.973   3.267   2.319 -0.3912 -0.2082  2.1512
 4754SOL    HW225725   4.079   3.326   2.228 -1.8816  0.3340 -0.0232
 4755SOL     OW25726   1.965   3.313   2.817  0.4810 -0.1725  0.0476
 4755SOL    HW125727   1.983   3.380   2.882  0.3299  0.0566 -0.1474
 4755SOL    HW225728   1.961   3.365   2.736  3.3165 -0.6009 -0.3728
 4756SOL     OW25729   1.224   0.378   9.123 -0.1783 -0.1756 -0.4222
 4756SOL    HW125730   1.139   0.339   9.140 -0.6675  0.6391 -0.9840
 4756SOL    HW225731   1.261   0.321   9.056  0.1698  1.1616 -1.3553
 4757SOL     OW25732   1.142   3.684   5.457 -0.0787 -0.7468  0.0635
 4757SOL    HW125733   1.122   3.696   5.550  0.0425 -0.6879  0.0810
 4757SOL    HW225734   1.109   3.764   5.416 -0.1758 -1.4477 -1.2429
 4758SOL     OW25735   1.091   0.469   5.875  0.3484 -0.0719  0.3264
 4758SOL    HW125736   1.146   0.545   5.894 -0.2514  0.2465  0.8250
 4758SOL    HW225737   1.022   0.471   5.941  0.8736  0.2989  0.8641
 4759SOL     OW25738   1.273   0.526   8.279  0.2504  0.3395 -0.6392
 4759SOL    HW125739   1.253   0.449   8.226  0.9918  1.1046 -2.0512
 4759SOL    HW225740   1.234   0.593   8.222 -0.1786 -1.9056 -2.9879
 4760SOL     OW25741   2.276   0.543  14.135 -0.9123 -0.2711  0.2201
 4760SOL    HW125742   2.270   0.500  14.049  3.3502  1.6848 -1.0193
 4760SOL    HW225743   2.343   0.493  14.181  0.1557  1.9379  1.0012
 4761SOL     OW25744   3.173   1.094   8.367  0.6833  0.0925 -0.1587
 4761SOL    HW125745   3.105   1.125   8.308  0.2444 -2.5317 -1.0293
 4761SOL    HW225746   3.122   1.077   8.446 -0.2110 -1.1733 -1.0048
 4762SOL     OW25747   3.233   2.542   5.562  0.9321  0.3028  0.2358
 4762SOL    HW125748   3.313   2.540   5.511  0.3261  0.6333 -0.7209
 4762SOL    HW225749   3.168   2.542   5.492  0.8551 -3.3354  0.3275
 4763SOL     OW25750   4.704   1.824   6.119 -0.3005  0.4964  0.4667
 4763SOL    HW125751   0.074   1.829   6.089 -0.3227  3.8184  0.9977
 4763SOL    HW225752   4.697   1.888   6.189  1.4019  0.9546  0.2277
 4764SOL     OW25753   0.426   0.180   5.105  0.1243 -0.4054  0.1288
 4764SOL    HW125754   0.370   0.153   5.177 -0.2478 -2.5435 -0.9501
 4764SOL    HW225755   0.463   0.095   5.079  0.1188  0.0773 -1.4415
 4765SOL     OW25756   1.870   0.697   1.251  0.2524  0.1588  0.2065
 4765SOL    HW125757   1.916   0.730   1.175 -1.2576 -3.2827 -2.2250
 4765SOL    HW225758   1.787   0.677   1.208  0.8852  0.0716 -0.9815
 4766SOL     OW25759   2.344   3.399   3.169  0.4475  0.2233  0.4586
 4766SOL    HW125760   2.373   3.384   3.258 -2.6812  0.7195  1.5662
 4766SOL    HW225761   2.396   3.336   3.120 -0.1184 -0.1443  0.3325
 4767SOL     OW25762   0.464   1.390  17.550 -0.2702 -1.1242  0.1905
 4767SOL    HW125763   0.540   1.399  17.493 -1.0937 -0.8259 -0.8520
 4767SOL    HW225764   0.498   1.364  17.636  0.2643 -0.8420  0.0638
 4768SOL     OW25765   0.384   0.690   6.576 -0.1068 -0.7521  0.1447
 4768SOL    HW125766   0.329   0.704   6.653  2.9806  3.3857  1.6184
 4768SOL    HW225767   0.320   0.703   6.506  0.2434  2.2792  0.3881
 4769SOL     OW25768   0.427   0.647  12.837 -0.5546  0.0708 -0.2080
 4769SOL    HW125769   0.447   0.576  12.898  0.5141 -0.7903 -1.5440
 4769SOL    HW225770   0.334   0.632  12.823 -0.4542  0.8521 -1.6754
 4770SOL     OW25771   3.820   3.201   1.361  0.2647  0.1742 -0.0235
 4770SOL    HW125772   3.780   3.260   1.426 -0.2313  0.1384 -0.2942
 4770SOL    HW225773   3.831   3.268   1.294 -1.9857 -0.9551 -1.5221
 4771SOL     OW25774   2.940   3.024   3.980 -0.2675  0.2554  0.0040
 4771SOL    HW125775   3.025   3.042   3.942  0.2794 -0.7218  0.7361
 4771SOL    HW225776   2.880   3.087   3.941  0.5413 -0.4949 -2.3963
 4772SOL     OW25777   4.699   0.586   3.511  0.6972 -0.4745 -0.3437
 4772SOL    HW125778   4.645   0.653   3.469  1.3132  0.7273  0.7940
 4772SOL    HW225779   0.007   0.638   3.586 -1.6759 -1.4908  1.2660
 4773SOL     OW25780   1.321   3.966  14.429 -0.4367  0.1701 -0.2665
 4773SOL    HW125781   1.329   3.871  14.418  0.6363  0.2150  0.0743
 4773SOL    HW225782   1.415   3.985  14.425 -1.2134  4.2414  1.6750
 4774SOL     OW25783   3.281   0.223  12.208  0.7138 -0.5917  0.2526
 4774SOL    HW125784   3.364   0.253  12.246 -0.1047  0.6883  0.9875
 4774SOL    HW225785   3.253   0.181  12.289 -1.2799 -1.5466 -0.9308
 4775SOL     OW25786   2.090   3.103   8.145  0.1941 -0.0656  0.0020
 4775SOL    HW125787   2.168   3.145   8.183 -1.5339  0.7412  2.6465
 4775SOL    HW225788   2.039   3.184   8.139 -2.3436 -1.8474 -1.9230
 4776SOL     OW25789   4.101   1.757  12.725  0.5298 -0.1831 -0.0243
 4776SOL    HW125790   4.167   1.826  12.734  0.5696  0.0163 -1.7547
 4776SOL    HW225791   4.146   1.705  12.659 -2.0782 -0.5547 -1.4935
 4777SOL     OW25792   2.131   2.243   2.473  0.0766 -0.3760  0.0023
 4777SOL    HW125793   2.102   2.152   2.478 -1.2270 -0.0209 -1.1265
 4777SOL    HW225794   2.052   2.285   2.440  1.1173  1.8368  0.3500
 4778SOL     OW25795   1.510   3.468   5.783  0.2049 -0.1862 -0.4249
 4778SOL    HW125796   1.471   3.531   5.843  0.8838  0.3622 -0.5639
 4778SOL    HW225797   1.491   3.511   5.700 -1.3135 -2.6812 -1.3646
 4779SOL     OW25798   2.233   3.028  10.098  0.2743 -0.1899 -0.3526
 4779SOL    HW125799   2.259   2.984  10.180  2.0593  0.2688 -0.6635
 4779SOL    HW225800   2.297   2.989  10.038 -1.0624 -0.6578 -1.4514
 4780SOL     OW25801   3.860   2.546   1.661  0.4976  0.1573  0.1420
 4780SOL    HW125802   3.869   2.527   1.755  1.7851 -0.9999 -0.2098
 4780SOL    HW225803   3.779   2.497   1.650  1.1116 -0.3171 -2.3161
 4781SOL     OW25804   2.203   1.194   9.455  0.0965  0.5200  0.1855
 4781SOL    HW125805   2.298   1.186   9.448  0.0812 -1.4032  2.2129
 4781SOL    HW225806   2.195   1.163   9.545  1.7542 -0.0791  0.1302
 4782SOL     OW25807   2.377   0.491   5.167  0.5577  0.1212 -0.4904
 4782SOL    HW125808   2.459   0.456   5.133  1.0853  0.0338  0.8488
 4782SOL    HW225809   2.403   0.508   5.258  0.0533  2.6282 -0.8154
 4783SOL     OW25810   0.777   1.152   3.524 -0.4371 -0.6230 -0.7581
 4783SOL    HW125811   0.764   1.059   3.505 -0.2961 -0.8211  0.1232
 4783SOL    HW225812   0.735   1.177   3.441  1.0383  2.0679 -0.6838
 4784SOL     OW25813   1.231   1.815   7.456 -0.0618  0.2815  0.1401
 4784SOL    HW125814   1.213   1.907   7.438 -1.0357  0.2422  0.9864
 4784SOL    HW225815   1.315   1.798   7.412 -1.2733  0.7045 -2.3699
 4785SOL     OW25816   1.459   0.861   7.334  0.2941 -1.0829  0.3571
 4785SOL    HW125817   1.429   0.923   7.268  1.0883 -1.8437 -0.7123
 4785SOL    HW225818   1.381   0.809   7.354  0.1134 -0.9138  0.0953
 4786SOL     OW25819   4.063   2.062  14.645  0.0776 -0.1462 -0.3128
 4786SOL    HW125820   3.976   2.036  14.675  1.8059 -0.8845  4.0957
 4786SOL    HW225821   4.043   2.120  14.572 -1.0828 -0.3119 -0.1270
 4787SOL     OW25822   0.217   0.395  12.788 -0.7957  0.2589  0.1463
 4787SOL    HW125823   0.143   0.335  12.797 -2.1591  1.8442 -0.3693
 4787SOL    HW225824   0.286   0.330  12.804 -2.4494 -1.5114  0.0586
 4788SOL     OW25825   1.035   3.725   7.437  0.2354 -0.0762  0.0447
 4788SOL    HW125826   1.125   3.720   7.469 -0.1282  0.1117  1.0906
 4788SOL    HW225827   0.987   3.692   7.512 -0.8610  0.4703 -0.4155
 4789SOL     OW25828   3.437   2.239   9.108 -0.1445  0.4234 -0.2546
 4789SOL    HW125829   3.509   2.239   9.172 -0.0840  0.9573 -0.3220
 4789SOL    HW225830   3.362   2.273   9.157  0.2414  1.1431 -0.1602
 4790SOL     OW25831   2.975   3.839  12.661 -0.6897 -0.1303 -0.2682
 4790SOL    HW125832   2.969   3.761  12.717  1.7709 -0.3538 -0.3404
 4790SOL    HW225833   2.950   3.908  12.723  2.2484 -0.9910  1.8826
 4791SOL     OW25834   1.020   2.106   2.938 -0.3411  0.3874  0.2747
 4791SOL    HW125835   1.089   2.129   2.876  1.5673 -0.0796  2.2237
 4791SOL    HW225836   0.979   2.190   2.957 -1.0094  0.0497  0.3250
 4792SOL     OW25837   4.336   2.045  14.584  0.8181  0.6243 -0.1971
 4792SOL    HW125838   4.253   2.083  14.611  0.0622 -1.2886  0.1936
 4792SOL    HW225839   4.345   1.986  14.660 -1.2011  1.4532  0.6887
 4793SOL     OW25840   4.316   0.467   8.059  0.4937  0.0280  0.1819
 4793SOL    HW125841   4.239   0.522   8.045  0.3301 -0.0407  0.8075
 4793SOL    HW225842   4.294   0.416   8.137 -0.9642 -0.5022 -0.5554
 4794SOL     OW25843   4.157   2.491   6.350 -0.4553  0.5313  0.7051
 4794SOL    HW125844   4.093   2.562   6.355  0.2247  1.1887  0.1663
 4794SOL    HW225845   4.131   2.444   6.429  0.2443 -0.6262  0.2509
 4795SOL     OW25846   2.709   2.453   9.942  0.3627  0.0903  0.5110
 4795SOL    HW125847   2.800   2.427   9.949  0.2970 -0.1309  0.5301
 4795SOL    HW225848   2.669   2.401  10.011 -1.6003  0.7246 -0.1375
 4796SOL     OW25849   2.875   0.078   1.221  0.0112 -0.2838  0.6178
 4796SOL    HW125850   2.786   0.078   1.256 -0.1005  0.1066  0.3326
 4796SOL    HW225851   2.931   0.055   1.296 -2.0660  2.3515  2.9775
 4797SOL     OW25852   1.949   3.341  14.215 -0.5547  0.3471  0.3418
 4797SOL    HW125853   1.908   3.271  14.266 -1.0552  2.4579  2.8454
 4797SOL    HW225854   1.941   3.318  14.123 -0.8389  1.2797  0.1367
 4798SOL     OW25855   1.816   2.764   9.473 -0.0920 -0.0806 -0.2000
 4798SOL    HW125856   1.721   2.760   9.461 -0.1613 -1.8712  0.8713
 4798SOL    HW225857   1.817   2.725   9.561 -0.0978 -1.0084 -0.6064
 4799SOL     OW25858   3.831   1.592  13.268 -0.0173  0.4743  0.2519
 4799SOL    HW125859   3.766   1.621  13.204  0.3883 -1.0102 -0.8412
 4799SOL    HW225860   3.885   1.543  13.206 -0.7701 -1.2688  0.9835
 4800SOL     OW25861   3.462   3.319  14.685  0.0995  0.1776 -0.4036
 4800SOL    HW125862   3.451   3.310  14.591 -0.2862 -1.5319 -0.2011
 4800SOL    HW225863   3.518   3.396  14.682 -0.5136  0.7742  2.8270
 4801SOL     OW25864   2.910   1.514  10.266  0.1042  0.2403 -0.3144
 4801SOL    HW125865   2.969   1.588  10.280 -0.6370  0.9033 -0.7265
 4801SOL    HW225866   2.840   1.532  10.329 -0.9924 -1.6058 -1.0189
 4802SOL     OW25867   4.048   2.511   4.704  0.7072 -0.1108 -0.1977
 4802SOL    HW125868   4.124   2.458   4.679  0.3156 -0.9617  0.4171
 4802SOL    HW225869   4.031   2.468   4.788  1.3428  1.1306  0.5487
 4803SOL     OW25870   4.685   0.483   4.435 -0.2034 -0.0954  0.4659
 4803SOL    HW125871   4.659   0.445   4.351 -1.9957  1.4599  0.3032
 4803SOL    HW225872   4.618   0.551   4.444 -1.8918 -1.7880  0.4536
 4804SOL     OW25873   1.816   2.953   6.592 -0.4053 -0.1237  0.0139
 4804SOL    HW125874   1.729   2.985   6.614 -0.6823 -0.9131  0.0691
 4804SOL    HW225875   1.855   3.035   6.561  0.7506 -0.8650 -0.5041
 4805SOL     OW25876   0.109   4.282  13.490  0.3250 -0.2970  0.1678
 4805SOL    HW125877   0.128   4.283  13.583 -1.5952 -0.3709  0.5500
 4805SOL    HW225878   0.199   4.278  13.456 -0.7517  1.4723 -2.9421
 4806SOL     OW25879   4.417   3.623   8.740 -0.1034 -0.1815  0.1884
 4806SOL    HW125880   4.411   3.690   8.672  0.5031  0.4150  0.7301
 4806SOL    HW225881   4.510   3.625   8.763 -0.4568 -0.1114  1.6277
 4807SOL     OW25882   1.503   1.275   8.280 -0.1521  0.3037  0.0787
 4807SOL    HW125883   1.441   1.229   8.337  0.9552  1.1276  1.9226
 4807SOL    HW225884   1.444   1.310   8.213  0.1458  0.2719 -0.2003
 4808SOL     OW25885   1.859   3.888   8.384  0.4137  0.4554 -0.3568
 4808SOL    HW125886   1.859   3.831   8.307  0.5461 -1.0668  0.7618
 4808SOL    HW225887   1.854   3.825   8.456 -0.0469  0.3185 -0.5098
 4809SOL     OW25888   0.865   4.335   1.617  0.3925 -0.5127 -0.1661
 4809SOL    HW125889   0.937   4.369   1.671 -0.6582 -0.0477  0.9335
 4809SOL    HW225890   0.821   4.419   1.601  0.4957 -0.7002 -1.4009
 4810SOL     OW25891   1.099   4.492   7.103  0.5637 -0.0169  0.0965
 4810SOL    HW125892   1.090   4.456   7.015  2.0085 -0.1119 -0.0121
 4810SOL    HW225893   1.139   4.573   7.072 -0.5027  0.2588 -0.5532
 4811SOL     OW25894   4.161   3.531   1.413 -0.1687 -0.4434  0.4903
 4811SOL    HW125895   4.131   3.484   1.490  0.1730 -0.0709  0.8498
 4811SOL    HW225896   4.074   3.558   1.383 -0.5067 -1.3169  0.6846
 4812SOL     OW25897   2.516   2.629  10.105  0.1030 -0.1239 -0.3656
 4812SOL    HW125898   2.587   2.567  10.119  0.1559 -0.3897 -1.7451
 4812SOL    HW225899   2.489   2.611  10.015 -0.5296 -2.2971  0.2726
 4813SOL     OW25900   0.720   2.675   8.646 -0.3146  0.6581  0.0744
 4813SOL    HW125901   0.768   2.617   8.587  0.9426  2.3147 -0.5451
 4813SOL    HW225902   0.785   2.746   8.648 -0.3211  0.6350  1.5599
 4814SOL     OW25903   0.568   4.250   3.976 -0.4326  0.1913  0.0911
 4814SOL    HW125904   0.567   4.338   3.937 -0.0070 -0.1372 -0.6471
 4814SOL    HW225905   0.528   4.264   4.062  0.3591 -0.6964  0.5932
 4815SOL     OW25906   3.950   4.156   2.536 -0.4546 -1.0257  0.0271
 4815SOL    HW125907   3.863   4.137   2.501 -0.5844  2.8710 -1.7110
 4815SOL    HW225908   3.979   4.087   2.596  0.3017 -2.0009 -1.4552
 4816SOL     OW25909   1.751   3.643  12.695  0.1387 -0.6274  0.3133
 4816SOL    HW125910   1.758   3.738  12.688  0.1290 -0.6429  0.1065
 4816SOL    HW225911   1.656   3.636  12.695 -0.0758  2.2462 -3.4134
 4817SOL     OW25912   3.308   1.445   4.427  0.1301 -0.2511  0.1715
 4817SOL    HW125913   3.276   1.379   4.488  1.1995  1.2161  2.3292
 4817SOL    HW225914   3.224   1.490   4.415  0.5872  1.2939  2.7095
 4818SOL     OW25915   1.947   1.752  12.880  0.0135  0.1418  0.0655
 4818SOL    HW125916   1.930   1.846  12.884 -4.5762 -0.7424  0.8164
 4818SOL    HW225917   1.865   1.714  12.849 -0.1844 -1.1022  2.0920
 4819SOL     OW25918   1.901   3.760   8.700 -0.9171  0.1067  0.1836
 4819SOL    HW125919   1.856   3.774   8.783  1.4754 -0.5502  1.5953
 4819SOL    HW225920   1.986   3.797   8.723 -0.8028 -1.1966  1.8426
 4820SOL     OW25921   4.082   1.566  16.509 -0.1711  0.2404  0.1357
 4820SOL    HW125922   4.133   1.485  16.510  2.5308  1.8970 -1.8692
 4820SOL    HW225923   4.048   1.567  16.598 -1.5198  0.6455 -0.3773
 4821SOL     OW25924   0.450   3.157   5.085 -0.7738  0.4267  0.0825
 4821SOL    HW125925   0.461   3.086   5.022  0.3182 -0.6190  1.4379
 4821SOL    HW225926   0.414   3.225   5.028 -0.2232  0.9585  0.3657
 4822SOL     OW25927   2.076   3.780   1.831  0.1139  0.3883  0.3426
 4822SOL    HW125928   2.144   3.836   1.869 -0.6492  1.3649  0.2616
 4822SOL    HW225929   2.128   3.701   1.820 -1.1031 -0.3864  0.1760
 4823SOL     OW25930   0.496   2.044   3.478 -0.4368 -0.3015  0.1061
 4823SOL    HW125931   0.461   2.029   3.565 -0.3451 -0.5046  0.1076
 4823SOL    HW225932   0.451   1.976   3.427  2.8421 -0.2671 -2.8094
 4824SOL     OW25933   2.858   2.885   5.954  0.5284  0.3125 -0.4145
 4824SOL    HW125934   2.778   2.917   5.995  0.8671  1.5856 -0.7203
 4824SOL    HW225935   2.908   2.889   6.036 -0.7089 -1.3806  0.4036
 4825SOL     OW25936   0.587   4.348   7.328 -0.5833  0.2812 -0.0270
 4825SOL    HW125937   0.569   4.351   7.234  0.4053  0.1219 -0.2216
 4825SOL    HW225938   0.614   4.256   7.333 -2.1858 -0.0711  1.9250
 4826SOL     OW25939   3.977   2.488   2.967  0.0954  0.0152  0.7437
 4826SOL    HW125940   3.953   2.402   2.931  1.1969 -1.1330  2.7639
 4826SOL    HW225941   3.916   2.540   2.914 -0.0135 -0.2597  0.5994
 4827SOL     OW25942   1.488   1.892   6.174  0.0366  0.3901 -0.3346
 4827SOL    HW125943   1.501   1.868   6.082  0.1893 -1.7409  0.2394
 4827SOL    HW225944   1.580   1.899   6.199 -0.0731 -1.5652  0.6199
 4828SOL     OW25945   3.164   1.625   7.691  0.0249 -0.1077  0.1008
 4828SOL    HW125946   3.242   1.570   7.691  0.2702  0.2467  2.2313
 4828SOL    HW225947   3.110   1.571   7.633 -2.6582  0.9830  1.5885
 4829SOL     OW25948   1.082   0.952  17.584  0.2475 -0.4628 -0.1299
 4829SOL    HW125949   1.062   0.974  17.675  0.0702 -1.2385  0.0127
 4829SOL    HW225950   1.177   0.944  17.577  0.5210  1.8762  0.8458
 4830SOL     OW25951   3.792   4.083   8.161 -0.9262 -1.1244  0.5277
 4830SOL    HW125952   3.871   4.069   8.108  0.7983  0.0475  2.8199
 4830SOL    HW225953   3.795   4.177   8.178 -1.1632 -0.9150 -0.5409
 4831SOL     OW25954   0.460   0.992   3.282 -1.0396 -0.2754  0.6898
 4831SOL    HW125955   0.555   1.002   3.273 -0.4787 -4.0570  2.2237
 4831SOL    HW225956   0.454   0.919   3.344 -0.2647 -0.8667  0.0595
 4832SOL     OW25957   0.824   0.243   7.925 -0.2955 -0.2512  0.4023
 4832SOL    HW125958   0.757   0.199   7.873  2.5056 -1.7598 -2.0003
 4832SOL    HW225959   0.772   0.301   7.980  1.8215  1.7185  0.3153
 4833SOL     OW25960   4.338   3.575   3.369  0.1474 -0.4991 -0.3071
 4833SOL    HW125961   4.402   3.627   3.321  0.5022  0.5140  1.2696
 4833SOL    HW225962   4.257   3.600   3.325 -0.4812 -1.5938  0.2406
 4834SOL     OW25963   2.459   1.217   9.447  0.1083 -0.3302  0.4746
 4834SOL    HW125964   2.443   1.261   9.364 -0.6861 -0.8947  0.3274
 4834SOL    HW225965   2.520   1.275   9.493 -1.5335  1.4880  0.3604
 4835SOL     OW25966   0.355   0.731   5.581 -0.3479  0.3850 -0.0419
 4835SOL    HW125967   0.426   0.681   5.539 -0.4101 -0.3698  0.7417
 4835SOL    HW225968   0.281   0.670   5.582  0.3766 -0.5261 -2.1185
 4836SOL     OW25969   3.156   0.949   9.623 -0.2114 -0.6168 -0.2212
 4836SOL    HW125970   3.151   0.991   9.537  0.0008  0.9835  0.5399
 4836SOL    HW225971   3.234   0.893   9.616  0.8920  0.9414 -0.6037
 4837SOL     OW25972   2.589   4.711   3.077  0.3035  0.0248 -0.2409
 4837SOL    HW125973   2.554   0.067   3.032 -1.3851 -1.1079 -0.8790
 4837SOL    HW225974   2.559   4.633   3.030  0.7731 -1.4548  1.8870
 4838SOL     OW25975   3.799   2.965   1.519 -0.3371  0.4940 -0.3324
 4838SOL    HW125976   3.888   2.936   1.500 -0.2524 -1.0659  2.5331
 4838SOL    HW225977   3.803   3.050   1.474  0.3768  0.2189 -0.8050
 4839SOL     OW25978   1.758   1.936   6.231  0.5103  0.3013 -0.0669
 4839SOL    HW125979   1.799   1.973   6.153 -0.2765 -1.7498 -1.4464
 4839SOL    HW225980   1.827   1.958   6.294 -0.2438  0.6152  0.6445
 4840SOL     OW25981   3.625   1.336  12.087 -0.2416 -0.2555  0.3398
 4840SOL    HW125982   3.552   1.319  12.027  0.4847 -3.1039  0.2750
 4840SOL    HW225983   3.602   1.267  12.149 -1.3647  1.2411  1.5809
 4841SOL     OW25984   0.445   0.274   0.738  0.2660  0.0243  0.1716
 4841SOL    HW125985   0.377   0.305   0.679  1.6023  2.6321  0.0401
 4841SOL    HW225986   0.385   0.247   0.809  0.6159  1.2725  0.9348
 4842SOL     OW25987   1.454   1.098   5.464  0.2970  0.0348 -0.6936
 4842SOL    HW125988   1.363   1.070   5.478  0.3737  0.0992 -0.0364
 4842SOL    HW225989   1.501   1.017   5.480 -2.1012 -0.8516  1.8822
 4843SOL     OW25990   1.414   0.956  15.528  0.3293 -0.0134  0.4472
 4843SOL    HW125991   1.454   0.901  15.596  1.7258 -1.3216 -1.4301
 4843SOL    HW225992   1.503   0.969  15.494  0.0369  2.6751  0.7080
 4844SOL     OW25993   4.439   1.326  11.388 -0.1576 -0.0181  0.4761
 4844SOL    HW125994   4.402   1.347  11.302  1.0131  0.0093 -0.0173
 4844SOL    HW225995   4.428   1.408  11.436  2.4415  0.5526  0.1038
 4845SOL     OW25996   2.336   2.164   6.508 -0.0523 -0.4318 -0.3507
 4845SOL    HW125997   2.317   2.112   6.586 -1.8741  1.1856  0.2830
 4845SOL    HW225998   2.379   2.242   6.545 -2.2300  0.4216  0.3722
 4846SOL     OW25999   0.326   2.706   4.130 -0.6768  0.2003  0.6994
 4846SOL    HW126000   0.236   2.737   4.132 -0.5217  0.6371  1.1163
 4846SOL    HW226001   0.368   2.793   4.127 -1.5098  0.6003  0.6651
 4847SOL     OW26002   2.399   1.090   2.230  0.1789 -0.4289  0.1572
 4847SOL    HW126003   2.381   1.034   2.306 -0.0985  1.2067  1.3037
 4847SOL    HW226004   2.407   1.178   2.265  0.2943 -0.9316  1.4109
 4848SOL     OW26005   4.384   1.995   9.293 -0.2605  0.3298 -1.0730
 4848SOL    HW126006   4.369   1.988   9.388  0.6540  2.0967 -0.8098
 4848SOL    HW226007   4.439   1.918   9.278 -0.0719  0.3949 -0.7311
 4849SOL     OW26008   0.613   2.465   3.545  0.3073 -0.2486  0.2409
 4849SOL    HW126009   0.648   2.515   3.471 -1.3942  0.8069  0.1464
 4849SOL    HW226010   0.681   2.402   3.568  0.3438 -0.7315 -1.1558
 4850SOL     OW26011   1.166   2.130   4.865 -0.0020 -0.1589 -0.4982
 4850SOL    HW126012   1.175   2.040   4.834  1.5465 -0.7286  1.6288
 4850SOL    HW226013   1.248   2.156   4.907  0.6817 -2.7244 -0.2426
 4851SOL     OW26014   0.342   1.463  14.986 -0.8718  0.0077 -0.2018
 4851SOL    HW126015   0.327   1.467  15.081 -1.0249 -0.2630 -0.2141
 4851SOL    HW226016   0.414   1.525  14.978 -0.8455 -0.4753 -3.5028
 4852SOL     OW26017   0.441   0.980   4.184 -0.0599 -0.7361  0.3987
 4852SOL    HW126018   0.523   1.029   4.184  1.1359 -2.7672  2.9302
 4852SOL    HW226019   0.471   0.895   4.215 -3.4204 -1.7338  0.9796
 4853SOL     OW26020   1.829   0.126   2.081  0.9432  0.1720 -0.3583
 4853SOL    HW126021   1.892   0.054   2.077  0.0979 -0.6974  1.9794
 4853SOL    HW226022   1.791   0.123   1.994  1.9585  0.4541 -0.8148
 4854SOL     OW26023   3.701   1.095   8.905  0.2042 -0.1365 -0.0116
 4854SOL    HW126024   3.679   1.133   8.990 -1.0835  1.1653 -0.9138
 4854SOL    HW226025   3.793   1.076   8.923  0.1479 -0.3834  0.0028
 4855SOL     OW26026   0.026   0.320   3.603  0.2162  0.5642 -0.8803
 4855SOL    HW126027   4.659   0.282   3.609  1.4399 -1.7489  2.4446
 4855SOL    HW226028   0.006   0.407   3.569  1.9642  0.3602 -2.4476
 4856SOL     OW26029   2.997   0.775   3.754 -0.5629 -0.6125 -0.1297
 4856SOL    HW126030   2.960   0.703   3.702  0.3369 -1.5762  0.5555
 4856SOL    HW226031   2.984   0.741   3.843  3.0218 -3.0049 -0.4667
 4857SOL     OW26032   4.074   0.892   7.928 -0.6669 -0.2184 -0.1783
 4857SOL    HW126033   4.133   0.948   7.877  1.0663 -0.6166  1.3499
 4857SOL    HW226034   4.125   0.881   8.009 -0.7149 -1.9009 -0.3706
 4858SOL     OW26035   1.367   2.940  15.862  0.3249 -0.0839  0.3010
 4858SOL    HW126036   1.422   2.862  15.875 -0.6820 -0.4993  2.1551
 4858SOL    HW226037   1.388   2.950  15.769 -0.1183  0.7483  0.2864
 4859SOL     OW26038   3.054   1.163   6.838 -0.0500  0.6193 -0.1373
 4859SOL    HW126039   3.106   1.121   6.770 -1.5839 -1.4346 -0.0447
 4859SOL    HW226040   3.046   1.089   6.898  1.6524  0.4818 -0.0967
 4860SOL     OW26041   2.861   0.714   9.311  0.0986 -0.1815  0.8709
 4860SOL    HW126042   2.937   0.684   9.361  0.9984 -0.7704 -0.8401
 4860SOL    HW226043   2.852   0.645   9.245 -0.5752  0.3429  0.4048
 4861SOL     OW26044   3.007   1.814   4.862 -0.0594 -0.3265  0.2256
 4861SOL    HW126045   2.922   1.795   4.900 -0.1297 -0.9873 -0.2820
 4861SOL    HW226046   3.030   1.876   4.932  0.8720  1.8594 -2.0197
 4862SOL     OW26047   1.785   4.163   5.910  0.0759 -0.0869  0.2803
 4862SOL    HW126048   1.855   4.112   5.950 -0.3198 -0.8654 -0.0253
 4862SOL    HW226049   1.811   4.249   5.945  1.5152 -0.9456  1.3313
 4863SOL     OW26050   2.067   2.226   0.031 -0.4242 -0.4216  0.8217
 4863SOL    HW126051   2.082   2.304  17.664  0.2844 -0.7224  0.5833
 4863SOL    HW226052   2.000   2.259   0.091 -1.1943 -0.8472  0.2060
 4864SOL     OW26053   3.431   1.321  12.796 -0.0247 -0.2271  0.5337
 4864SOL    HW126054   3.418   1.372  12.716 -0.8998  1.8805  2.0243
 4864SOL    HW226055   3.474   1.385  12.853 -1.1487  2.4428 -1.5969
 4865SOL     OW26056   4.453   1.718  17.559 -0.0554  0.1091 -0.1799
 4865SOL    HW126057   4.423   1.734  17.648  2.7964 -0.4513  0.8681
 4865SOL    HW226058   4.372   1.679  17.523 -0.4840  1.6752 -0.9077
 4866SOL     OW26059   3.048   1.380   7.070 -0.2152  0.1919 -0.3637
 4866SOL    HW126060   3.023   1.344   6.985  2.5426 -1.5378 -0.4360
 4866SOL    HW226061   3.117   1.320   7.098  0.9614  0.2099 -3.2228
 4867SOL     OW26062   2.378   4.234   0.955  0.3323  0.6205 -0.4357
 4867SOL    HW126063   2.413   4.251   1.043 -0.3403  2.1174 -0.4554
 4867SOL    HW226064   2.360   4.140   0.953  0.8862  0.5174 -0.5013
 4868SOL     OW26065   2.270   3.210  15.208  0.0479 -0.5465 -1.0021
 4868SOL    HW126066   2.354   3.219  15.164 -0.1218  3.5182 -0.4861
 4868SOL    HW226067   2.233   3.299  15.207  0.2949 -0.4485 -1.3717
 4869SOL     OW26068   1.876   3.618   5.149  0.0818 -0.5697 -0.3505
 4869SOL    HW126069   1.813   3.551   5.175 -1.0093  0.7624  0.4500
 4869SOL    HW226070   1.931   3.570   5.088 -3.3880 -3.0127 -1.5348
 4870SOL     OW26071   1.335   1.253  16.561 -0.2927 -0.4964  0.0307
 4870SOL    HW126072   1.386   1.220  16.487  1.8905 -0.0602  1.3160
 4870SOL    HW226073   1.393   1.226  16.633  1.2365  0.1226 -0.9663
 4871SOL     OW26074   3.709   2.602   8.637  0.3720  0.6754 -0.1642
 4871SOL    HW126075   3.767   2.647   8.575 -1.0199 -1.3090 -2.8800
 4871SOL    HW226076   3.742   2.512   8.633 -1.8475 -0.1452 -0.1895
 4872SOL     OW26077   2.977   1.010  11.329 -0.3251 -0.7565 -0.5185
 4872SOL    HW126078   3.012   0.932  11.372  2.2420 -0.8506 -2.7399
 4872SOL    HW226079   3.035   1.026  11.255  1.1205  1.6853  1.1416
 4873SOL     OW26080   0.264   1.697  15.534  0.1287  0.3730 -0.5910
 4873SOL    HW126081   0.272   1.663  15.623  0.1833  1.8646 -0.0158
 4873SOL    HW226082   0.187   1.655  15.497 -0.0493 -0.1168  0.3385
 4874SOL     OW26083   2.297   3.568   7.624  0.2996  0.4064 -0.2583
 4874SOL    HW126084   2.369   3.616   7.666  0.1801 -0.5096  0.9635
 4874SOL    HW226085   2.330   3.534   7.541 -1.3207  1.6405 -1.3923
 4875SOL     OW26086   2.586   4.417   7.332  0.6185 -0.4051 -0.3835
 4875SOL    HW126087   2.587   4.348   7.266  0.6791  1.1354 -1.9870
 4875SOL    HW226088   2.671   4.458   7.316  1.7990 -2.8657 -0.4032
 4876SOL     OW26089   2.728   1.311   1.397  0.1470  0.2362  0.1776
 4876SOL    HW126090   2.686   1.227   1.412 -0.0504  0.6108  1.7191
 4876SOL    HW226091   2.745   1.341   1.487  0.8070 -2.1309  0.8339
 4877SOL     OW26092   4.449   2.896   4.010 -0.2974 -0.0018 -0.3036
 4877SOL    HW126093   4.485   2.976   4.048  0.9354 -1.4489  1.6508
 4877SOL    HW226094   4.357   2.894   4.036 -0.7418  0.6572 -1.8512
 4878SOL     OW26095   1.438   1.174  12.647 -0.2435  0.1084  0.5464
 4878SOL    HW126096   1.463   1.267  12.640  1.3568 -0.4941 -1.6861
 4878SOL    HW226097   1.362   1.189  12.704  0.7781  1.7190  1.5083
 4879SOL     OW26098   2.195   1.965  16.471 -0.5168 -0.1882 -0.3813
 4879SOL    HW126099   2.220   1.910  16.397 -0.5604  1.0644 -1.3171
 4879SOL    HW226100   2.182   2.045  16.420  3.4710  0.8422  0.1816
 4880SOL     OW26101   3.468   4.060   4.330  0.5110 -0.2764  0.5604
 4880SOL    HW126102   3.397   4.114   4.365  1.6547  0.8585  1.1339
 4880SOL    HW226103   3.425   4.004   4.265  2.1723 -1.3692  0.4249
 4881SOL     OW26104   1.174   3.303   4.204 -0.0794 -0.3300  0.7282
 4881SOL    HW126105   1.254   3.288   4.152  0.1597  1.9300  0.4431
 4881SOL    HW226106   1.127   3.223   4.180 -0.7584 -0.2338  1.7629
 4882SOL     OW26107   1.627   2.477   3.540  0.3311  0.2565 -0.4780
 4882SOL    HW126108   1.594   2.493   3.629  2.2885 -2.4474  0.7415
 4882SOL    HW226109   1.720   2.472   3.559  0.4127 -1.0071 -1.2467
 4883SOL     OW26110   1.629   4.097   4.200  0.5713 -0.0236 -0.1879
 4883SOL    HW126111   1.604   4.082   4.109  2.9148  0.2196 -0.8940
 4883SOL    HW226112   1.577   4.028   4.239 -1.9899  1.2387 -1.3965
 4884SOL     OW26113   4.448   3.154  14.423 -0.2380  0.2525 -0.1786
 4884SOL    HW126114   4.382   3.157  14.492 -0.6630 -0.1413 -0.5621
 4884SOL    HW226115   4.507   3.081  14.442  0.6501  0.8501 -0.6262
 4885SOL     OW26116   0.526   2.957   7.241  0.4350 -0.8119 -0.7139
 4885SOL    HW126117   0.591   3.020   7.207  0.7793 -1.2558 -0.8722
 4885SOL    HW226118   0.532   2.881   7.184  0.9254 -0.7749 -0.7108
 4886SOL     OW26119   1.069   4.192   0.944 -0.2229 -0.1361 -0.1434
 4886SOL    HW126120   1.118   4.117   0.913  0.4612 -0.3326  1.4096
 4886SOL    HW226121   0.992   4.152   0.985  0.7641 -1.6388  0.2128
 4887SOL     OW26122   3.607   1.133   3.980  0.3277  0.1523  0.2278
 4887SOL    HW126123   3.514   1.126   3.957 -0.5450  0.8997  3.4874
 4887SOL    HW226124   3.630   1.045   4.009 -1.9520 -1.3969 -2.7195
 4888SOL     OW26125   1.260   1.902   3.796  0.3708  0.0019  0.4794
 4888SOL    HW126126   1.353   1.884   3.782  0.0029 -1.1217 -0.4678
 4888SOL    HW226127   1.226   1.818   3.827 -1.3833 -0.1384 -1.7576
 4889SOL     OW26128   3.904   3.878   8.012 -0.0240 -0.3433  0.7251
 4889SOL    HW126129   3.887   3.789   8.042  1.0016 -0.5404  0.6924
 4889SOL    HW226130   3.822   3.904   7.968 -1.2835 -0.5366  2.9767
 4890SOL     OW26131   0.006   2.978   5.808 -0.2419  0.2813 -0.0332
 4890SOL    HW126132   4.691   2.986   5.719 -2.0145 -0.1145  0.6637
 4890SOL    HW226133   0.066   3.052   5.816 -1.1177  0.6754  2.7210
 4891SOL     OW26134   1.237   4.127   5.452 -0.0706 -0.2835  0.0424
 4891SOL    HW126135   1.299   4.130   5.524 -1.6330  0.3303  1.3811
 4891SOL    HW226136   1.274   4.203   5.407  0.7982 -0.1093  1.0520
 4892SOL     OW26137   3.845   3.657  11.972  0.4456  0.2091  0.0733
 4892SOL    HW126138   3.806   3.578  11.935 -1.1814  0.3962  1.3961
 4892SOL    HW226139   3.781   3.720  11.938  0.8307  0.7393  0.3207
 4893SOL     OW26140   0.544   4.101  16.469  0.5329  0.1892 -0.1493
 4893SOL    HW126141   0.631   4.062  16.458  1.0844  1.3030  0.2241
 4893SOL    HW226142   0.510   4.041  16.535  0.5177  1.7178  1.2145
 4894SOL     OW26143   1.402   3.687  14.426 -0.3929 -0.0406  0.0997
 4894SOL    HW126144   1.325   3.642  14.461  0.6413 -2.2412 -0.4141
 4894SOL    HW226145   1.416   3.632  14.348  1.7371 -0.7487  0.9889
 4895SOL     OW26146   3.172   2.351   5.757 -0.2798 -0.3970 -0.0327
 4895SOL    HW126147   3.084   2.322   5.737 -0.8269  0.4378  1.1419
 4895SOL    HW226148   3.173   2.432   5.706 -1.1857 -1.4009 -1.6130
 4896SOL     OW26149   1.204   3.204   8.805  0.3799 -0.6231 -0.1312
 4896SOL    HW126150   1.299   3.214   8.804  0.2375  1.0998  1.8685
 4896SOL    HW226151   1.181   3.267   8.874  1.5612 -1.2969  0.8878
 4897SOL     OW26152   1.569   1.773   5.949 -0.3492 -0.2113 -0.4893
 4897SOL    HW126153   1.584   1.784   5.855  0.9415  1.0075 -0.1376
 4897SOL    HW226154   1.654   1.736   5.972  0.4264  1.4256 -0.7165
 4898SOL     OW26155   3.444   2.844   2.829  0.0717 -0.1546 -0.4739
 4898SOL    HW126156   3.362   2.858   2.875 -0.2344 -1.0371 -0.7476
 4898SOL    HW226157   3.426   2.887   2.745  0.0678 -0.0430 -0.4155
 4899SOL     OW26158   0.025   2.947   4.599 -0.2326  0.2723 -0.1245
 4899SOL    HW126159   0.074   2.870   4.567 -0.9173  0.3683 -1.4006
 4899SOL    HW226160   4.664   2.935   4.550 -0.4200 -4.0024  1.2204
 4900SOL     OW26161   3.703   1.532   9.251 -0.1554  0.4462 -0.0667
 4900SOL    HW126162   3.640   1.605   9.250 -0.0150  0.5397 -1.9470
 4900SOL    HW226163   3.742   1.532   9.163 -0.4252 -0.2755 -0.1873
 4901SOL     OW26164   3.370   1.466  16.375 -0.9217  0.1988 -0.1590
 4901SOL    HW126165   3.287   1.496  16.410 -1.3645 -0.4585 -0.6459
 4901SOL    HW226166   3.412   1.548  16.350  1.4636 -0.8660  0.3426
 4902SOL     OW26167   4.020   2.164  10.898 -0.3945 -0.3753  0.1844
 4902SOL    HW126168   4.047   2.212  10.976  1.0508  1.0227 -1.1758
 4902SOL    HW226169   4.080   2.090  10.911  2.3143  1.3448 -2.4720
 4903SOL     OW26170   4.677   1.672  15.106  0.0666 -0.3280 -0.1871
 4903SOL    HW126171   4.620   1.686  15.181  0.7368 -0.0177  0.2698
 4903SOL    HW226172   4.620   1.615  15.054  0.5955 -1.4650  0.4745
 4904SOL     OW26173   1.061   2.638   8.589 -0.3412  0.0679 -0.3523
 4904SOL    HW126174   1.023   2.649   8.677 -1.7341  0.5920 -1.0228
 4904SOL    HW226175   1.057   2.732   8.569  1.1640  0.4052  0.9146
 4905SOL     OW26176   0.722   1.590  13.471  0.2452 -0.4593 -0.2776
 4905SOL    HW126177   0.656   1.527  13.442  1.0201 -0.3814 -2.2209
 4905SOL    HW226178   0.799   1.540  13.499  1.2314  1.3901  0.2710
 4906SOL     OW26179   4.266   1.372   5.150  0.2180  0.1515  0.5556
 4906SOL    HW126180   4.340   1.356   5.092 -1.2479 -0.0731 -1.2302
 4906SOL    HW226181   4.278   1.463   5.179 -0.1570  0.2891  0.2640
 4907SOL     OW26182   3.235   0.853   6.768 -0.4045  0.2459 -0.6840
 4907SOL    HW126183   3.230   0.847   6.864 -0.6259 -0.6008 -0.7510
 4907SOL    HW226184   3.252   0.947   6.756 -1.2217  0.5245  0.3257
 4908SOL     OW26185   4.053   3.316  15.958  1.1303 -0.2611  0.1490
 4908SOL    HW126186   4.029   3.232  15.919  0.0386  1.4881 -2.9683
 4908SOL    HW226187   4.091   3.362  15.883  0.4561 -0.0329 -0.0524
 4909SOL     OW26188   0.869   0.453   6.040 -0.2093  0.3416  0.1553
 4909SOL    HW126189   0.918   0.452   6.123 -0.7255 -2.1046  0.4149
 4909SOL    HW226190   0.783   0.487   6.067  0.4181  2.1670 -0.1030
 4910SOL     OW26191   1.452   3.752   2.874 -0.0160  0.7215  0.5992
 4910SOL    HW126192   1.434   3.671   2.827  1.9621  1.1893 -0.9545
 4910SOL    HW226193   1.546   3.761   2.888  0.4584 -0.8399 -1.5963
 4911SOL     OW26194   4.703   4.329   1.824 -0.3759 -0.3041  0.0397
 4911SOL    HW126195   4.660   4.413   1.806 -0.6991 -0.1983  1.2802
 4911SOL    HW226196   0.065   4.335   1.777 -0.3868 -0.1200  0.0452
 4912SOL     OW26197   0.429   3.134  12.095  0.0983  0.4553 -0.1337
 4912SOL    HW126198   0.516   3.172  12.080  0.3682 -0.6277 -1.2769
 4912SOL    HW226199   0.438   3.054  12.147  0.5148 -0.5213 -1.7163
 4913SOL     OW26200   2.231   1.819  12.853  0.1949 -0.3535  0.1597
 4913SOL    HW126201   2.216   1.893  12.794 -0.2669 -0.4590  0.1431
 4913SOL    HW226202   2.144   1.780  12.851 -0.3526  0.8783  0.2641
 4914SOL     OW26203   2.290   3.170   5.954  0.1377  0.0437  0.4306
 4914SOL    HW126204   2.203   3.136   5.976 -0.1626  0.7579  0.3454
 4914SOL    HW226205   2.263   3.248   5.905  2.6313  0.3398 -0.4746
 4915SOL     OW26206   0.615   1.765   7.371 -0.0216  0.0637 -0.2416
 4915SOL    HW126207   0.539   1.724   7.330 -0.1840 -0.9262  1.0581
 4915SOL    HW226208   0.670   1.688   7.351 -1.3805 -1.0841  0.4269
 4916SOL     OW26209   0.014   4.352   7.434  1.2894  0.4643 -0.3488
 4916SOL    HW126210   0.086   4.306   7.476  0.9818 -1.1858 -1.5983
 4916SOL    HW226211   4.698   4.280   7.382 -0.3501  0.1759  1.2095
 4917SOL     OW26212   0.451   0.938  12.243 -0.0428  0.4295  0.0518
 4917SOL    HW126213   0.541   0.922  12.269  0.1857 -0.5489 -1.4024
 4917SOL    HW226214   0.413   0.855  12.217  1.1150  0.7107 -2.4538
 4918SOL     OW26215   4.501   3.577   7.942 -0.5466  0.4048  0.8025
 4918SOL    HW126216   4.470   3.506   7.998 -0.0633  0.5136  1.2019
 4918SOL    HW226217   4.499   3.652   8.001  1.1319  1.0614  0.0343
 4919SOL     OW26218   0.435   0.401   1.503  0.4487 -0.5234 -0.5815
 4919SOL    HW126219   0.483   0.423   1.423  0.2200 -0.6117 -0.7421
 4919SOL    HW226220   0.364   0.464   1.491 -2.6310 -3.3054  3.2188
 4920SOL     OW26221   2.164   2.271   3.872  0.4541  0.6667 -0.0849
 4920SOL    HW126222   2.175   2.266   3.967  1.9968 -3.7386 -0.4926
 4920SOL    HW226223   2.230   2.208   3.845 -0.8916  0.2892 -2.5617
 4921SOL     OW26224   3.433   0.755   5.970  0.4377 -0.0732  0.2740
 4921SOL    HW126225   3.407   0.846   5.955  0.5474 -0.3270 -1.4218
 4921SOL    HW226226   3.520   0.782   6.000  0.1873  2.1214 -1.0004
 4922SOL     OW26227   2.159   1.581   2.371  0.1381 -0.2164 -0.3785
 4922SOL    HW126228   2.076   1.535   2.357  0.5793 -0.8923 -0.8065
 4922SOL    HW226229   2.124   1.670   2.375  1.1955  0.2792 -1.9994
 4923SOL     OW26230   0.593   3.607   5.330 -0.4580  0.0807  0.0530
 4923SOL    HW126231   0.683   3.617   5.299 -0.8923 -0.7985 -1.4571
 4923SOL    HW226232   0.543   3.570   5.258 -4.1071 -0.8991  3.0924
 4924SOL     OW26233   4.185   3.105   7.758 -0.7743 -0.1972 -0.0360
 4924SOL    HW126234   4.210   3.138   7.844  0.6934  0.3321 -0.6630
 4924SOL    HW226235   4.090   3.102   7.769 -0.7452  0.2401  0.3278
 4925SOL     OW26236   4.225   3.747   6.556  0.1652 -0.7116 -0.8579
 4925SOL    HW126237   4.146   3.756   6.609 -0.3356  1.5842 -1.9828
 4925SOL    HW226238   4.286   3.817   6.582 -0.5924 -0.0096 -0.9577
 4926SOL     OW26239   2.004   1.887   7.792  0.0509 -0.4542 -0.2955
 4926SOL    HW126240   2.009   1.819   7.858 -2.2515  0.4578  0.7801
 4926SOL    HW226241   1.991   1.843   7.708  1.4686  1.7435 -1.6884
 4927SOL     OW26242   1.599   0.043   1.867 -0.1007  0.4271 -0.0016
 4927SOL    HW126243   1.544   4.706   1.814 -1.4062  0.3068  1.4776
 4927SOL    HW226244   1.541   0.068   1.940 -1.9501  1.0985 -1.7074
 4928SOL     OW26245   1.511   2.082   7.523 -0.2137 -0.1264 -0.4746
 4928SOL    HW126246   1.428   2.109   7.483 -0.5624 -0.2145  0.2020
 4928SOL    HW226247   1.519   2.139   7.599  1.1438 -1.4913  0.3875
 4929SOL     OW26248   1.279   4.115   1.909 -0.8902  0.5062 -0.4905
 4929SOL    HW126249   1.331   4.084   1.983 -0.2554 -0.1774 -1.2442
 4929SOL    HW226250   1.194   4.141   1.946 -1.0814  2.9550 -2.6332
 4930SOL     OW26251   3.187   4.651   0.960 -0.4897  0.3694  0.3631
 4930SOL    HW126252   3.190   4.713   1.033  0.9478  0.0480  0.5943
 4930SOL    HW226253   3.269   4.605   0.977 -0.5992 -0.0774 -0.3275
 4931SOL     OW26254   4.216   1.331   8.051  0.7300  0.2246 -0.1555
 4931SOL    HW126255   4.168   1.410   8.076  0.3466 -0.5446  1.5840
 4931SOL    HW226256   4.178   1.271   8.116 -0.7430 -0.4947 -1.6859
 4932SOL     OW26257   0.691   1.174   4.095  0.2112  0.6068 -0.0789
 4932SOL    HW126258   0.624   1.238   4.073 -0.3108 -0.3258 -1.2036
 4932SOL    HW226259   0.708   1.143   4.006  0.5190 -0.2459  0.2686
 4933SOL     OW26260   1.194   2.037  16.221 -0.0373 -0.4295  0.4209
 4933SOL    HW126261   1.153   2.037  16.307 -1.0620 -0.6855 -0.0636
 4933SOL    HW226262   1.117   2.033  16.164 -0.2613  0.5205  0.6711
 4934SOL     OW26263   1.681   3.736   2.420  0.4273 -0.1604  0.4554
 4934SOL    HW126264   1.745   3.807   2.426 -0.3062  0.5003  0.4477
 4934SOL    HW226265   1.624   3.758   2.494  0.1625  0.8842 -0.0720
 4935SOL     OW26266   0.957   2.771   1.907 -0.4266  0.1049  0.1980
 4935SOL    HW126267   0.911   2.740   1.985 -0.6582 -1.3373 -0.5064
 4935SOL    HW226268   0.885   2.793   1.849 -0.4163  1.0620  0.5521
 4936SOL     OW26269   2.228   0.613   9.080  0.5701  1.0509 -0.6652
 4936SOL    HW126270   2.302   0.616   9.019  0.3889  0.7395 -0.9003
 4936SOL    HW226271   2.245   0.522   9.106 -2.4112  0.9813  1.0391
 4937SOL     OW26272   0.347   4.695   8.810  0.0286 -0.5730 -0.0959
 4937SOL    HW126273   0.424   4.649   8.844 -1.5236 -1.8407  1.7536
 4937SOL    HW226274   0.283   4.629   8.837 -0.3672 -0.8150 -1.6137
 4938SOL     OW26275   2.606   3.693   2.828 -0.0888  0.1387 -0.0991
 4938SOL    HW126276   2.651   3.688   2.744 -1.3519  1.0802 -0.8370
 4938SOL    HW226277   2.652   3.631   2.884  2.2195  0.1149 -2.0302
 4939SOL     OW26278   4.447   1.677  16.525 -0.2092  0.1893  0.9572
 4939SOL    HW126279   4.536   1.711  16.515 -0.8293  1.9129  1.3463
 4939SOL    HW226280   4.407   1.719  16.449  2.0843  1.5289  0.5209
 4940SOL     OW26281   4.112   0.083  14.013 -0.1308 -0.1162  0.2416
 4940SOL    HW126282   4.097   0.119  14.101 -0.2696  0.1370  0.1173
 4940SOL    HW226283   4.207   0.074  14.012 -0.2396 -1.2161  0.3403
 4941SOL     OW26284   2.341   2.077   3.877 -0.0978 -0.2826  0.2036
 4941SOL    HW126285   2.372   1.998   3.832  0.4282 -0.1701  0.3745
 4941SOL    HW226286   2.414   2.075   3.938 -0.2294  0.3788  0.3828
 4942SOL     OW26287   0.672   2.386  12.676  0.1810 -0.0004  0.2284
 4942SOL    HW126288   0.624   2.321  12.625  0.0061  0.9517 -0.8286
 4942SOL    HW226289   0.762   2.354  12.675  0.3589  0.5018 -0.9674
 4943SOL     OW26290   1.070   1.893   6.760  0.0352  0.2849 -0.0623
 4943SOL    HW126291   1.131   1.858   6.695  0.3828 -1.5325  1.2575
 4943SOL    HW226292   1.135   1.883   6.830 -0.3685 -1.1451  0.1078
 4944SOL     OW26293   3.527   2.319   5.177  0.3153 -0.1741  0.1734
 4944SOL    HW126294   3.590   2.250   5.195  0.7530 -0.2688 -1.7387
 4944SOL    HW226295   3.541   2.333   5.083  0.1309  0.9019  0.3052
 4945SOL     OW26296   2.459   1.919  16.537  0.2608  0.2645  0.3566
 4945SOL    HW126297   2.404   1.851  16.576 -1.5202  0.9084 -1.0513
 4945SOL    HW226298   2.426   2.002  16.570  0.7411  0.1277  1.1802
 4946SOL     OW26299   2.759   0.175   0.466 -0.0050  0.2846 -0.1230
 4946SOL    HW126300   2.801   0.153   0.550 -0.0884  0.3041 -0.0758
 4946SOL    HW226301   2.753   0.270   0.468  4.0056  0.4787  3.8405
 4947SOL     OW26302   1.610   2.701  11.709  0.0218  0.3229 -0.5653
 4947SOL    HW126303   1.676   2.637  11.735 -1.6727  0.5636  4.2426
 4947SOL    HW226304   1.547   2.647  11.661  0.2064  0.1482 -0.6118
 4948SOL     OW26305   3.679   1.408   7.639 -0.5765 -0.4206  0.1657
 4948SOL    HW126306   3.754   1.348   7.637 -1.1527 -1.0952 -0.9769
 4948SOL    HW226307   3.692   1.456   7.721  1.4599 -0.5937 -0.0435
 4949SOL     OW26308   3.509   3.808  11.194 -0.3474 -0.0803  0.4409
 4949SOL    HW126309   3.581   3.804  11.132  0.8762  1.3637  1.7509
 4949SOL    HW226310   3.558   3.808  11.276  0.8628  0.5786 -0.2893
 4950SOL     OW26311   4.718   2.429  12.302 -0.6242  0.3237 -0.8046
 4950SOL    HW126312   0.010   2.409  12.395  0.6321  2.1615 -0.5900
 4950SOL    HW226313   0.089   2.450  12.286 -0.4925 -0.7624 -1.4261
 4951SOL     OW26314   2.690   3.199   8.338  0.6830 -0.2119  0.2806
 4951SOL    HW126315   2.699   3.141   8.262  0.4727 -2.0422  1.6502
 4951SOL    HW226316   2.784   3.196   8.358  0.7218 -1.9527 -0.0817
 4952SOL     OW26317   2.249   4.319   2.921 -0.3037  0.4795  0.4370
 4952SOL    HW126318   2.234   4.224   2.921 -1.2863  0.6295 -1.2408
 4952SOL    HW226319   2.240   4.333   2.827  1.9258 -1.7105 -0.0950
 4953SOL     OW26320   3.780   3.649   3.716  0.2752 -0.0500  0.0271
 4953SOL    HW126321   3.768   3.716   3.649 -0.9976  0.4274  0.7340
 4953SOL    HW226322   3.845   3.589   3.680  0.6446  0.1530  0.3409
 4954SOL     OW26323   2.680   1.691   7.333  0.0321  0.1387  0.2580
 4954SOL    HW126324   2.641   1.774   7.358 -1.0161  0.1861 -1.5306
 4954SOL    HW226325   2.611   1.626   7.348  1.6085 -1.4590  0.6766
 4955SOL     OW26326   0.635   0.922   7.228  0.7644  0.1159  0.1017
 4955SOL    HW126327   0.672   0.837   7.202 -1.9113  0.1784 -4.0055
 4955SOL    HW226328   0.630   0.961   7.140  0.4433  1.8218  0.8877
 4956SOL     OW26329   3.596   3.576  17.326 -0.0131  0.3864  0.4894
 4956SOL    HW126330   3.526   3.615  17.379 -1.3264  0.6376 -1.4262
 4956SOL    HW226331   3.569   3.487  17.306  0.0545  0.9429 -2.0179
 4957SOL     OW26332   1.494   1.787   6.447 -0.8453 -0.1505 -0.2910
 4957SOL    HW126333   1.491   1.829   6.361  0.1274 -1.8357 -1.1498
 4957SOL    HW226334   1.513   1.695   6.426  1.8321  0.2591  0.3841
 4958SOL     OW26335   1.639   3.122  10.325 -0.0898  0.1596 -0.0896
 4958SOL    HW126336   1.717   3.076  10.292 -0.4041 -1.4760  1.4639
 4958SOL    HW226337   1.680   3.206  10.344 -1.5732  0.9340 -0.3739
 4959SOL     OW26338   3.732   0.553   2.996  0.6234  0.3242 -0.5564
 4959SOL    HW126339   3.803   0.498   3.028 -0.7173 -0.0516  1.8177
 4959SOL    HW226340   3.756   0.564   2.905 -2.3568 -2.8562 -1.7237
 4960SOL     OW26341   2.497   2.400   1.109  0.7618  0.5221  0.5433
 4960SOL    HW126342   2.491   2.320   1.057 -2.5427 -0.0541  1.8103
 4960SOL    HW226343   2.472   2.368   1.196 -0.6593  2.2176  0.7438
 4961SOL     OW26344   2.228   4.179   7.776  0.0174  0.1165 -0.2966
 4961SOL    HW126345   2.229   4.172   7.871 -0.5727  1.4132 -0.1921
 4961SOL    HW226346   2.321   4.195   7.759  0.0108  1.0723  0.6268
 4962SOL     OW26347   3.198   0.328   6.747  0.3109  0.5790 -0.0008
 4962SOL    HW126348   3.104   0.343   6.756 -0.0775 -2.1028  0.6601
 4962SOL    HW226349   3.205   0.335   6.651  2.4346  1.5074  0.2362
 4963SOL     OW26350   0.200   3.939  10.802  0.6070 -0.6320 -0.2133
 4963SOL    HW126351   0.192   3.948  10.707  1.0396 -1.3569 -0.3127
 4963SOL    HW226352   0.106   3.937  10.816  0.6883 -1.7100  0.1025
 4964SOL     OW26353   1.700   4.401   4.739 -0.3773 -0.0646  0.3355
 4964SOL    HW126354   1.763   4.439   4.800  0.4177 -0.1688 -0.4233
 4964SOL    HW226355   1.763   4.351   4.688 -1.2681  1.2097 -2.0063
 4965SOL     OW26356   3.760   2.154   4.182 -0.2189  0.4042  0.4374
 4965SOL    HW126357   3.690   2.100   4.146  0.2222  0.1023  0.0286
 4965SOL    HW226358   3.823   2.084   4.198  0.7625  1.6850  2.2191
 4966SOL     OW26359   0.714   1.592   4.129  0.1931 -0.7435 -0.4357
 4966SOL    HW126360   0.796   1.640   4.137 -0.5857  0.3489  0.8605
 4966SOL    HW226361   0.718   1.550   4.043 -1.4044 -2.0428  0.1351
 4967SOL     OW26362   2.766   0.456  10.423  0.5317  0.3885  0.1369
 4967SOL    HW126363   2.831   0.390  10.446  1.4818 -0.0079 -3.5992
 4967SOL    HW226364   2.734   0.487  10.508  0.0417 -2.0387  0.8393
 4968SOL     OW26365   0.255   2.729   3.571 -0.2903  0.0077 -0.0219
 4968SOL    HW126366   0.234   2.643   3.535 -0.4018 -0.1135  0.3273
 4968SOL    HW226367   0.202   2.783   3.512 -0.8058 -1.4936 -0.9301
 4969SOL     OW26368   0.715   3.132   7.142  0.2241 -0.3870 -0.2416
 4969SOL    HW126369   0.743   3.081   7.066  1.1272 -0.4523  0.1406
 4969SOL    HW226370   0.750   3.218   7.117 -3.6895  1.6371  1.2042
 4970SOL     OW26371   0.121   0.889   7.813  0.3417  0.3678  0.2702
 4970SOL    HW126372   0.076   0.925   7.737 -1.4424 -0.4697  0.9183
 4970SOL    HW226373   0.072   0.807   7.824  1.0514  0.2116  2.3934
 4971SOL     OW26374   4.498   4.406   7.178  0.0136 -0.2656  0.3999
 4971SOL    HW126375   4.546   4.488   7.183 -1.3407  0.4395  2.1509
 4971SOL    HW226376   4.563   4.337   7.165 -1.0636 -1.6272  2.0583
 4972SOL     OW26377   3.638   0.303   9.489  0.4094 -0.1663 -0.0152
 4972SOL    HW126378   3.560   0.316   9.436 -0.3483 -1.6440  0.7256
 4972SOL    HW226379   3.625   0.212   9.517 -0.0409 -1.1921 -3.5532
 4973SOL     OW26380   2.862   4.145   9.906  0.1279 -0.4502  0.4391
 4973SOL    HW126381   2.940   4.128   9.959  0.4805 -0.7801 -0.1892
 4973SOL    HW226382   2.797   4.095   9.954  1.1674 -2.8732 -0.7026
 4974SOL     OW26383   3.592   2.158   8.318  0.5314 -0.2103 -0.1371
 4974SOL    HW126384   3.685   2.162   8.339  0.4750 -0.4773  0.1681
 4974SOL    HW226385   3.590   2.084   8.258 -1.8351 -0.2366 -0.0275
 4975SOL     OW26386   0.155   2.693   3.047  0.0275 -0.4992  0.0638
 4975SOL    HW126387   0.130   2.642   2.969  1.6025 -1.9540  0.5109
 4975SOL    HW226388   0.215   2.639   3.097 -2.1142 -1.8691  1.1881
 4976SOL     OW26389   0.607   4.205   2.107  0.2168  0.2430 -0.1208
 4976SOL    HW126390   0.683   4.147   2.109  0.1068  0.1023 -0.0812
 4976SOL    HW226391   0.541   4.152   2.063  0.8074  1.7218 -2.8577
 4977SOL     OW26392   0.651   0.791  12.554 -0.2324 -0.3906 -0.2665
 4977SOL    HW126393   0.658   0.696  12.545 -2.3271 -0.6189  0.3847
 4977SOL    HW226394   0.675   0.809  12.463 -0.9308  0.7127 -0.2322
 4978SOL     OW26395   1.029   0.095  11.345  0.4708  0.2188  0.1859
 4978SOL    HW126396   1.023   0.065  11.436 -0.5917  1.0450  0.3857
 4978SOL    HW226397   1.000   0.185  11.353 -1.0778 -0.2708  0.0539
 4979SOL     OW26398   0.184   2.437   6.667 -0.6015 -0.8732 -0.0636
 4979SOL    HW126399   0.278   2.445   6.654 -0.9012  3.5169  0.5175
 4979SOL    HW226400   0.172   2.530   6.649 -2.1206 -1.5443 -2.6930
 4980SOL     OW26401   3.373   2.317  15.866 -0.3691  0.7337 -0.1099
 4980SOL    HW126402   3.376   2.250  15.934 -0.2341  0.4626 -0.3832
 4980SOL    HW226403   3.387   2.260  15.790 -0.1724  0.5864  0.0363
 4981SOL     OW26404   1.896   4.395   5.990 -0.0555 -0.5662  0.4382
 4981SOL    HW126405   1.819   4.383   6.047  1.0045 -0.5929  1.8645
 4981SOL    HW226406   1.932   4.480   6.014 -1.8388  0.4407 -0.4981
 4982SOL     OW26407   2.383   2.336   8.157  0.1513 -0.4307 -0.2619
 4982SOL    HW126408   2.319   2.400   8.187 -1.2795 -2.6743  1.4291
 4982SOL    HW226409   2.467   2.372   8.186  0.3198  0.1550 -1.4884
 4983SOL     OW26410   4.559   2.533  15.478 -0.1777 -0.0682  0.3847
 4983SOL    HW126411   4.547   2.534  15.383  0.2144 -0.0607  0.3381
 4983SOL    HW226412   4.499   2.604  15.501  2.0066  1.2737  1.9556
 4984SOL     OW26413   2.887   0.972   2.185  0.1720  0.4714  0.7211
 4984SOL    HW126414   2.880   0.994   2.278 -1.0876  1.6905  0.3525
 4984SOL    HW226415   2.981   0.972   2.170 -0.0441 -1.9955 -0.5955
 4985SOL     OW26416   1.646   2.821   5.656  0.3698  0.0061 -0.1604
 4985SOL    HW126417   1.625   2.727   5.653  2.1236 -0.3739 -0.4423
 4985SOL    HW226418   1.679   2.829   5.746  0.2653 -1.4314  0.0074
 4986SOL     OW26419   2.752   3.088   8.081  0.5804 -0.0937  0.6790
 4986SOL    HW126420   2.674   3.142   8.068  1.0127  0.5550  0.7785
 4986SOL    HW226421   2.813   3.114   8.012  0.1909 -0.5003  0.1834
 4987SOL     OW26422   4.271   3.758   5.719  0.0996  0.2358 -0.3190
 4987SOL    HW126423   4.240   3.846   5.703 -0.5376 -0.1717 -1.2648
 4987SOL    HW226424   4.249   3.722   5.633 -0.6003  0.7219 -0.3370
 4988SOL     OW26425   1.725   0.873   7.362  0.3721  0.0923 -0.4657
 4988SOL    HW126426   1.747   0.960   7.396 -1.4986  0.5588 -0.4795
 4988SOL    HW226427   1.630   0.874   7.350  0.5682 -0.0428 -1.9876
 4989SOL     OW26428   2.292   3.684   3.465 -0.0839  0.0881 -0.3416
 4989SOL    HW126429   2.310   3.708   3.374 -0.7554  0.1171 -0.4624
 4989SOL    HW226430   2.381   3.704   3.495 -0.8955  0.8097  1.5793
 4990SOL     OW26431   3.949   3.523  11.099 -0.1384  0.1682 -0.1416
 4990SOL    HW126432   3.855   3.508  11.097 -0.0356 -0.4617 -0.3923
 4990SOL    HW226433   3.937   3.612  11.129  3.2042 -0.7032  3.7169
 4991SOL     OW26434   2.682   2.153  13.480 -0.4598 -0.5318  0.3927
 4991SOL    HW126435   2.680   2.202  13.562 -2.7970  1.7561 -1.0685
 4991SOL    HW226436   2.700   2.222  13.416 -1.2283 -2.6360 -2.0927
 4992SOL     OW26437   0.461   4.225   6.692 -0.5444 -0.2923 -0.4551
 4992SOL    HW126438   0.459   4.134   6.722  1.4576 -0.5548 -1.0682
 4992SOL    HW226439   0.376   4.249   6.729  0.4363 -0.4586  1.9664
 4993SOL     OW26440   2.232   0.311   3.694 -0.7519  0.2330  0.0180
 4993SOL    HW126441   2.152   0.260   3.708  0.3374 -2.0198 -2.0405
 4993SOL    HW226442   2.282   0.253   3.751  1.2526  0.5896 -1.3874
 4994SOL     OW26443   2.330   3.523   6.736  0.0318 -0.3966  0.5266
 4994SOL    HW126444   2.393   3.455   6.758  2.0568  1.3062  0.0275
 4994SOL    HW226445   2.333   3.570   6.819  2.7467  1.0788 -0.4189
 4995SOL     OW26446   3.164   1.715  11.969 -0.2631  0.2831 -0.5216
 4995SOL    HW126447   3.135   1.806  11.963 -1.8964 -0.2847 -1.2082
 4995SOL    HW226448   3.100   1.683  12.032  2.5802 -3.0020  0.6624
 4996SOL     OW26449   1.435   4.152   0.857  0.2496 -0.8188 -0.7267
 4996SOL    HW126450   1.465   4.242   0.875 -2.0232 -0.0334 -0.9350
 4996SOL    HW226451   1.518   4.105   0.849  0.7756 -0.2164  1.0766
 4997SOL     OW26452   3.460   4.203   2.623 -0.5830 -0.0272  0.1772
 4997SOL    HW126453   3.364   4.201   2.618 -0.7675  0.9432  3.6783
 4997SOL    HW226454   3.478   4.291   2.591 -0.7979  0.8085  2.4099
 4998SOL     OW26455   1.150   1.924   8.155  0.6248  0.0333 -0.1870
 4998SOL    HW126456   1.127   1.849   8.210 -1.2041 -0.6213 -1.8380
 4998SOL    HW226457   1.131   1.997   8.212  0.0042  0.4618 -0.9430
 4999SOL     OW26458   0.843   0.612   3.012  0.7045 -0.0841  0.2100
 4999SOL    HW126459   0.883   0.659   2.939 -1.4112 -1.8929 -2.1385
 4999SOL    HW226460   0.881   0.525   3.002  3.1243  0.8426  1.4055
 5000SOL     OW26461   3.100   1.355  13.825  0.2025 -0.2561  1.0645
 5000SOL    HW126462   3.009   1.378  13.805  0.1789  0.4023  1.9227
 5000SOL    HW226463   3.129   1.445  13.840  2.4808 -0.5588 -1.5271
 5001SOL     OW26464   1.065   0.744   5.430 -0.1821  0.2082 -0.6149
 5001SOL    HW126465   1.139   0.757   5.490 -1.4087  1.4664  0.6346
 5001SOL    HW226466   1.044   0.652   5.441  0.3523  0.2454  0.7872
 5002SOL     OW26467   3.479   2.493   7.946  0.1270  0.5786 -0.7529
 5002SOL    HW126468   3.497   2.579   7.983 -1.2332  1.3201 -1.8280
 5002SOL    HW226469   3.460   2.440   8.023 -1.4419  3.6305  0.9337
 5003SOL     OW26470   3.273   2.106   7.688 -0.0627 -0.5690  0.0223
 5003SOL    HW126471   3.231   2.183   7.651 -2.8567 -0.5375  3.1840
 5003SOL    HW226472   3.226   2.043   7.633 -1.4718 -0.1716  0.7579
 5004SOL     OW26473   4.284   0.485   4.425  0.2743 -0.0951 -0.1818
 5004SOL    HW126474   4.365   0.534   4.436  0.3966  0.2911 -2.6684
 5004SOL    HW226475   4.263   0.472   4.517 -2.4391 -1.4213 -0.9860
 5005SOL     OW26476   0.861   3.642   5.554  0.4830  0.1371  0.4193
 5005SOL    HW126477   0.904   3.560   5.580 -1.2436 -0.3393  1.8371
 5005SOL    HW226478   0.878   3.639   5.460 -0.5971 -0.7605  0.2530
 5006SOL     OW26479   2.646   3.767   2.513  0.2020 -0.3185 -0.8227
 5006SOL    HW126480   2.643   3.852   2.468 -0.1022  2.7340  4.9570
 5006SOL    HW226481   2.719   3.732   2.461 -0.0595 -0.5389 -1.0353
 5007SOL     OW26482   3.729   2.220   5.744  0.0420  0.1084  0.5496
 5007SOL    HW126483   3.823   2.236   5.752 -0.0530  1.7158 -1.6942
 5007SOL    HW226484   3.680   2.302   5.742 -2.2715 -1.3169 -1.2120
 5008SOL     OW26485   3.583   3.306   3.884 -0.3852  0.2235 -0.1087
 5008SOL    HW126486   3.553   3.235   3.941 -1.0335 -0.7236 -1.6196
 5008SOL    HW226487   3.673   3.277   3.873 -0.2717  0.8752 -0.8633
 5009SOL     OW26488   0.321   3.596  16.176 -0.0960  0.2483 -0.1206
 5009SOL    HW126489   0.393   3.535  16.189  1.1800  1.3051 -2.1690
 5009SOL    HW226490   0.329   3.619  16.083 -0.9717  0.3817 -0.1614
 5010SOL     OW26491   0.656   4.074  16.071 -0.3908 -0.0794 -0.2561
 5010SOL    HW126492   0.652   4.136  16.144  1.7842  0.5747 -0.7058
 5010SOL    HW226493   0.567   4.088  16.037 -1.4345 -1.1568  2.0027
 5011SOL     OW26494   3.336   1.896   8.086 -0.2192 -0.8715 -0.2477
 5011SOL    HW126495   3.338   1.992   8.090  0.4144 -0.8664 -0.8065
 5011SOL    HW226496   3.265   1.887   8.023 -0.8249 -2.2301  0.6289
 5012SOL     OW26497   3.018   0.170  12.132 -0.4048 -0.0247  0.7278
 5012SOL    HW126498   3.105   0.183  12.170 -0.3836  0.4717  0.5047
 5012SOL    HW226499   3.031   0.077  12.113 -2.5872 -0.2867  0.4924
 5013SOL     OW26500   2.923   0.815   6.006 -0.0033 -0.2920 -0.2628
 5013SOL    HW126501   2.903   0.792   5.915  2.2694 -1.8762 -0.3713
 5013SOL    HW226502   2.907   0.909   6.009  2.1320  0.0159  1.4679
 5014SOL     OW26503   0.725   2.475   3.936 -0.3788  0.3783 -0.4630
 5014SOL    HW126504   0.641   2.475   3.890  0.5569 -1.8136 -2.1432
 5014SOL    HW226505   0.713   2.565   3.966  0.3752  0.4665 -0.4061
 5015SOL     OW26506   2.773   1.837  15.771  0.2933 -0.5380 -0.3032
 5015SOL    HW126507   2.767   1.931  15.757  0.4858 -0.3975  0.5290
 5015SOL    HW226508   2.678   1.825  15.774  0.5983 -3.2636 -1.3217
 5016SOL     OW26509   2.531   1.459   5.464 -0.1631 -0.0615  0.2978
 5016SOL    HW126510   2.531   1.553   5.479  0.6372 -0.3058  1.7879
 5016SOL    HW226511   2.454   1.456   5.407  0.2625 -2.4413 -0.1730
 5017SOL     OW26512   2.675   4.690   5.542 -0.2677 -0.5692  0.3120
 5017SOL    HW126513   2.672   4.616   5.481 -0.2516 -0.4510  0.1697
 5017SOL    HW226514   2.685   4.627   5.614  2.6370 -1.0739 -0.5555
 5018SOL     OW26515   1.988   0.780   0.971  0.3198  0.4711 -0.0561
 5018SOL    HW126516   2.016   0.871   0.959  1.2605  0.0597 -0.9483
 5018SOL    HW226517   2.045   0.722   0.922  0.3445 -0.3557  0.9421
 5019SOL     OW26518   1.430   0.383  14.215 -0.1021 -0.0245 -0.0873
 5019SOL    HW126519   1.397   0.297  14.190 -1.0382  0.1250  0.5962
 5019SOL    HW226520   1.495   0.384  14.145 -1.2273 -2.0183 -1.1319
 5020SOL     OW26521   4.419   3.562   6.531  0.4341 -0.0406 -0.5474
 5020SOL    HW126522   4.469   3.643   6.542  0.5569 -0.3940  1.6371
 5020SOL    HW226523   4.331   3.598   6.518  0.3052 -0.2687 -0.3078
 5021SOL     OW26524   4.085   2.880   1.616  0.6794 -0.2042  0.1539
 5021SOL    HW126525   4.049   2.808   1.565  0.5871  0.7329 -1.1286
 5021SOL    HW226526   4.179   2.869   1.599  0.3323 -1.1283 -1.1805
 5022SOL     OW26527   3.616   0.609   2.420 -0.0191  0.5660  0.6889
 5022SOL    HW126528   3.688   0.588   2.359  0.6667  0.1725  1.6393
 5022SOL    HW226529   3.622   0.542   2.488 -0.1730  0.0964  0.2473
 5023SOL     OW26530   0.270   2.866  17.237 -0.0046 -0.6353  0.4351
 5023SOL    HW126531   0.292   2.773  17.240 -1.7348 -1.0479  0.2067
 5023SOL    HW226532   0.175   2.863  17.222  0.1275  2.3193 -0.9777
 5024SOL     OW26533   1.028   2.778  16.200  0.2654  0.3280  0.1227
 5024SOL    HW126534   0.968   2.852  16.209 -0.0125  0.2989 -1.5017
 5024SOL    HW226535   1.059   2.779  16.109 -0.3085 -1.0986 -0.0966
 5025SOL     OW26536   1.951   3.211   2.136  0.3452  0.2795  0.2538
 5025SOL    HW126537   2.025   3.158   2.166  0.7507  0.6766 -0.0543
 5025SOL    HW226538   1.981   3.258   2.058 -1.4674  0.6021 -0.2633
 5026SOL     OW26539   4.367   3.971   3.363 -0.3216  0.2746 -0.3383
 5026SOL    HW126540   4.455   3.954   3.330 -0.5824  0.0494 -0.9148
 5026SOL    HW226541   4.312   3.932   3.296 -2.0792  2.2940 -0.0710
 5027SOL     OW26542   1.360   1.044   4.922  0.4110  0.6443 -0.3391
 5027SOL    HW126543   1.396   0.999   4.846  0.7719 -0.0134  0.2124
 5027SOL    HW226544   1.404   0.989   4.988 -1.4494  0.8078  1.0437
 5028SOL     OW26545   0.021   0.988   2.398 -0.4853  0.0849 -0.5353
 5028SOL    HW126546   0.045   0.910   2.348  0.9222  0.6873 -0.7909
 5028SOL    HW226547   4.707   0.941   2.474 -0.2764 -0.5935 -0.8650
 5029SOL     OW26548   2.087   1.269   7.685 -0.0361 -0.1831 -0.6217
 5029SOL    HW126549   2.023   1.339   7.696  2.7276  2.3062 -0.4754
 5029SOL    HW226550   2.169   1.317   7.689  0.3300 -0.8942  0.4168
 5030SOL     OW26551   4.571   0.496   8.164  0.1819  0.4845  0.3761
 5030SOL    HW126552   4.576   0.580   8.210 -3.1362  0.9950 -0.1760
 5030SOL    HW226553   4.483   0.496   8.127 -0.7962 -2.8312  2.7469
 5031SOL     OW26554   3.718   3.938  11.593  0.3560  0.4730 -0.1952
 5031SOL    HW126555   3.725   3.984  11.509 -0.6184 -0.1512 -0.6188
 5031SOL    HW226556   3.640   3.979  11.630  1.3031  1.9220  0.1980
 5032SOL     OW26557   2.326   0.170   9.692  0.1074 -0.0533  0.0383
 5032SOL    HW126558   2.268   0.246   9.687  1.4142  1.0044  0.6796
 5032SOL    HW226559   2.396   0.207   9.747  0.1875  0.2046 -0.2387
 5033SOL     OW26560   3.818   0.746   7.503  0.2198 -0.4790  0.4810
 5033SOL    HW126561   3.816   0.776   7.594 -2.7939  2.0373 -0.4320
 5033SOL    HW226562   3.726   0.737   7.481 -0.2292 -0.1964  2.2384
 5034SOL     OW26563   3.554   3.343   1.383 -0.1558 -0.4775 -0.8002
 5034SOL    HW126564   3.481   3.281   1.382 -0.5723 -0.0306  0.5636
 5034SOL    HW226565   3.549   3.358   1.289  1.6415 -2.0691 -1.1413
 5035SOL     OW26566   3.015   3.812  11.060  0.3558 -0.0627 -0.1218
 5035SOL    HW126567   2.938   3.758  11.042  0.2381 -0.3337  1.1827
 5035SOL    HW226568   3.020   3.801  11.155 -0.5749 -1.7050 -0.2632
 5036SOL     OW26569   3.040   0.369   6.227  0.2656  0.4209 -0.0518
 5036SOL    HW126570   3.023   0.462   6.209 -0.8902 -0.2326 -2.3079
 5036SOL    HW226571   3.065   0.343   6.138  0.4973 -3.2717  1.1071
 5037SOL     OW26572   1.736   1.723   9.191 -0.5839 -0.0354  0.2514
 5037SOL    HW126573   1.749   1.707   9.098  0.5918 -1.7882  0.7083
 5037SOL    HW226574   1.709   1.638   9.226 -0.7108 -0.9782 -2.1293
 5038SOL     OW26575   0.570   2.775   9.752 -0.2326 -0.3472  0.1360
 5038SOL    HW126576   0.611   2.819   9.678 -2.5275  0.3931 -0.6787
 5038SOL    HW226577   0.534   2.704   9.700  0.3205 -2.4589  2.6556
 5039SOL     OW26578   0.820   1.602   5.781  0.0498 -0.7155  0.1179
 5039SOL    HW126579   0.789   1.512   5.794  1.1521 -0.9945  0.7697
 5039SOL    HW226580   0.766   1.655   5.839 -0.0701 -1.3242  0.5572
 5040SOL     OW26581   1.267   1.917   6.957  0.6055  0.1569 -0.3607
 5040SOL    HW126582   1.309   1.877   7.034 -1.3079  0.6275  0.9179
 5040SOL    HW226583   1.255   2.009   6.979 -2.1615 -0.3000 -0.0414
 5041SOL     OW26584   1.016   1.035   8.906 -0.2328  0.2980 -0.6373
 5041SOL    HW126585   1.094   1.054   8.854 -1.8818 -1.5292 -3.7755
 5041SOL    HW226586   1.036   1.082   8.988  0.2260  4.0993 -2.9171
 5042SOL     OW26587   2.326   4.593   5.082  0.2755 -0.3606  0.2104
 5042SOL    HW126588   2.281   4.520   5.125  0.8825  0.6015  2.4788
 5042SOL    HW226589   2.256   4.632   5.030  1.2561 -0.0414 -0.8619
 5043SOL     OW26590   0.151   4.405   2.931  0.2956  0.0683  0.0627
 5043SOL    HW126591   0.175   4.405   2.839  0.3003 -3.3290  0.0930
 5043SOL    HW226592   0.055   4.395   2.928  0.5096 -1.4480 -1.2736
 5044SOL     OW26593   3.762   1.600  15.482  0.6230 -0.1912 -0.3337
 5044SOL    HW126594   3.679   1.559  15.505  1.1502 -1.6842 -1.0617
 5044SOL    HW226595   3.802   1.621  15.567  0.7196 -0.5321 -0.2939
 5045SOL     OW26596   2.079   2.580   6.725  0.6467 -0.5195 -0.5809
 5045SOL    HW126597   2.128   2.577   6.642  1.3750 -0.4820 -0.1543
 5045SOL    HW226598   2.039   2.493   6.729 -1.3513  0.3378 -2.1008
 5046SOL     OW26599   3.106   0.449   2.813  0.1615  0.5326  0.3406
 5046SOL    HW126600   3.120   0.518   2.749 -3.0884  2.0486  1.2773
 5046SOL    HW226601   3.163   0.470   2.887  0.4352  0.5277  0.1267
 5047SOL     OW26602   3.229   1.725  13.160 -0.3371  0.3375 -0.4208
 5047SOL    HW126603   3.270   1.642  13.136  0.4652  0.5263  0.3110
 5047SOL    HW226604   3.188   1.751  13.077 -1.2673  0.2925  0.0246
 5048SOL     OW26605   1.936   0.001   3.009 -0.0219 -0.3867 -0.2363
 5048SOL    HW126606   1.929   0.067   2.940  1.9614  0.5483  0.4828
 5048SOL    HW226607   2.020   4.684   2.980  0.7894 -0.1104  1.8016
 5049SOL     OW26608   2.753   0.105  12.024  0.1654 -0.3991  0.2323
 5049SOL    HW126609   2.838   0.133  12.060  1.7910 -1.5613 -2.6768
 5049SOL    HW226610   2.782   0.091  11.934 -0.4051 -1.7889  0.2641
 5050SOL     OW26611   0.917   1.158  10.749 -0.2340 -0.4024  0.1078
 5050SOL    HW126612   0.876   1.071  10.744  0.6333 -0.7932 -0.2638
 5050SOL    HW226613   0.873   1.203  10.678 -0.7200 -1.5069 -0.2918
 5051SOL     OW26614   0.416   1.587   7.887 -0.1468  0.6238  0.8592
 5051SOL    HW126615   0.325   1.558   7.878 -0.4099 -0.1327  5.7803
 5051SOL    HW226616   0.397   1.661   7.944 -1.6875  1.0565 -0.2224
 5052SOL     OW26617   3.084   1.442   6.772 -0.0635 -0.1096  0.0773
 5052SOL    HW126618   3.035   1.375   6.724  1.3527 -1.9607  1.2297
 5052SOL    HW226619   3.168   1.432   6.728 -0.1235 -0.7059  0.1058
 5053SOL     OW26620   3.877   2.343   6.635  0.1569 -0.2602  0.3244
 5053SOL    HW126621   3.792   2.383   6.618  0.4884 -0.7433 -2.4626
 5053SOL    HW226622   3.855   2.294   6.715  0.3391 -1.7239 -0.5076
 5054SOL     OW26623   0.370   2.487  13.581 -0.1492 -0.2886  0.4830
 5054SOL    HW126624   0.444   2.445  13.626 -0.9282 -0.8506  1.2441
 5054SOL    HW226625   0.364   2.425  13.508  0.0356 -0.1003  0.3087
 5055SOL     OW26626   4.043   0.615   5.288 -0.2790  0.1465 -0.1567
 5055SOL    HW126627   4.138   0.627   5.284 -0.1674  0.0818  2.3344
 5055SOL    HW226628   4.011   0.700   5.256 -0.0730  0.6409  0.9661
 5056SOL     OW26629   3.148   1.286   9.150  0.2331  0.4447  0.5269
 5056SOL    HW126630   3.213   1.355   9.139 -1.3564  2.0800  1.3877
 5056SOL    HW226631   3.104   1.283   9.065  1.6702 -1.3375 -0.1563
 5057SOL     OW26632   2.245   1.461   0.306  0.4888  0.0591  0.3113
 5057SOL    HW126633   2.273   1.531   0.365  1.3713 -0.3792  0.4154
 5057SOL    HW226634   2.150   1.470   0.313  0.5105  0.7826 -0.3250
 5058SOL     OW26635   1.362   0.978   6.830  0.1979 -0.0247 -0.3681
 5058SOL    HW126636   1.336   1.068   6.813  1.1430 -0.1580 -2.5605
 5058SOL    HW226637   1.314   0.931   6.762 -1.1765 -0.5791  0.9621
 5059SOL     OW26638   4.387   4.422  11.646 -0.0282  0.1898  0.1408
 5059SOL    HW126639   4.377   4.469  11.563 -0.9711 -1.5724 -0.7475
 5059SOL    HW226640   4.435   4.491  11.691 -2.5222  0.3429  2.5125
 5060SOL     OW26641   2.001   4.328   0.096  0.8216  0.3479 -0.5053
 5060SOL    HW126642   2.079   4.381   0.116  0.8904  0.0647 -0.0081
 5060SOL    HW226643   1.995   4.337   0.001  0.9141 -1.3976 -0.6830
 5061SOL     OW26644   2.510   2.809   6.311  0.3159 -0.1924 -0.2459
 5061SOL    HW126645   2.555   2.771   6.386  1.3464 -0.3140 -0.9320
 5061SOL    HW226646   2.422   2.812   6.348  0.7410 -0.1479  0.7472
 5062SOL     OW26647   4.023   1.131   2.285 -0.8183 -0.6244 -0.4099
 5062SOL    HW126648   4.095   1.193   2.271  0.4558 -2.1093 -0.4089
 5062SOL    HW226649   3.976   1.172   2.358 -0.9247 -0.8519 -0.3508
 5063SOL     OW26650   0.071   0.450  14.304 -0.5699  0.6128 -0.1178
 5063SOL    HW126651   0.034   0.526  14.259  0.0799 -0.0345 -1.7395
 5063SOL    HW226652   0.070   0.485  14.393  1.8378  0.8893 -0.2127
 5064SOL     OW26653   0.435   3.874   1.808  0.2682  0.2728 -0.6546
 5064SOL    HW126654   0.465   3.906   1.722  1.0041 -0.9655 -0.8575
 5064SOL    HW226655   0.360   3.821   1.782 -0.5227  1.7515 -1.3701
 5065SOL     OW26656   3.360   3.916   2.328  0.2424  0.1511  1.0398
 5065SOL    HW126657   3.429   3.864   2.287  1.4207  1.7828  0.9194
 5065SOL    HW226658   3.297   3.854   2.365  1.0625 -0.3955  1.5035
 5066SOL     OW26659   4.189   4.317   6.155  0.1792 -0.0308 -0.5620
 5066SOL    HW126660   4.285   4.312   6.162  0.3456  1.3020 -2.0871
 5066SOL    HW226661   4.172   4.409   6.173 -1.1786  0.0123 -2.1140
 5067SOL     OW26662   4.678   3.242   4.661  0.1833 -0.0109 -0.5739
 5067SOL    HW126663   4.592   3.200   4.664  0.3367 -0.3300 -0.6503
 5067SOL    HW226664   4.716   3.214   4.744 -0.5033 -0.6095 -0.4574
 5068SOL     OW26665   0.587   3.679  16.521  0.1331 -0.4911 -0.6035
 5068SOL    HW126666   0.493   3.696  16.516  0.0346 -1.1463 -0.9525
 5068SOL    HW226667   0.621   3.746  16.581 -2.1907  0.4186 -0.3120
 5069SOL     OW26668   0.759   4.664   9.753  0.1158  0.7483 -0.4900
 5069SOL    HW126669   0.727   4.592   9.698 -0.1694 -0.4012  1.1499
 5069SOL    HW226670   0.765   4.627   9.842 -3.5825 -1.0228 -0.9861
 5070SOL     OW26671   0.784   0.436   0.067  0.1821  0.0750 -0.1511
 5070SOL    HW126672   0.765   0.409  17.663 -1.2530  2.7687 -0.6610
 5070SOL    HW226673   0.845   0.509   0.059 -0.2758  0.6783  1.9523
 5071SOL     OW26674   2.941   1.212  14.588 -0.2578  0.2614 -0.2448
 5071SOL    HW126675   2.858   1.187  14.629 -0.3061 -0.0439 -0.5285
 5071SOL    HW226676   2.978   1.127  14.562  0.2402  0.5808 -0.5772
 5072SOL     OW26677   2.153   1.471   1.576 -0.4551 -0.1495  0.0083
 5072SOL    HW126678   2.214   1.468   1.649  0.5834 -1.1308 -0.9154
 5072SOL    HW226679   2.218   1.467   1.506 -1.4874 -1.9883 -0.8187
 5073SOL     OW26680   2.827   0.755   3.005  0.7743 -0.3491  0.4173
 5073SOL    HW126681   2.813   0.809   3.083 -2.0318  2.2966 -1.9302
 5073SOL    HW226682   2.791   0.812   2.937  1.7336  2.6521  2.4396
 5074SOL     OW26683   1.975   0.350  12.556  0.7957  0.0925  0.3041
 5074SOL    HW126684   2.000   0.272  12.606  0.7424 -0.9143 -1.2479
 5074SOL    HW226685   2.009   0.338  12.468  0.2034 -0.8764  0.2097
 5075SOL     OW26686   2.374   3.080   2.526  0.1562 -0.2870  0.8679
 5075SOL    HW126687   2.301   3.120   2.479  0.4145  0.8755  1.4591
 5075SOL    HW226688   2.353   3.079   2.619 -0.5165 -0.3163  0.7117
 5076SOL     OW26689   2.702   0.453   4.194 -0.5276  0.0906  0.5041
 5076SOL    HW126690   2.715   0.541   4.229  1.4038 -0.5201  1.3183
 5076SOL    HW226691   2.654   0.404   4.261  0.0351 -0.6721  0.3521
 5077SOL     OW26692   3.333   3.772   3.859  0.2082 -0.0948  0.0944
 5077SOL    HW126693   3.311   3.681   3.838 -0.9344  0.5158 -1.4115
 5077SOL    HW226694   3.257   3.815   3.819  1.1027  1.6017  0.2596
 5078SOL     OW26695   3.138   4.632   4.252 -0.2497 -0.3068  0.4717
 5078SOL    HW126696   3.175   4.647   4.339  2.0771  0.0602 -0.5871
 5078SOL    HW226697   3.215   4.606   4.202  0.0151  2.3433 -0.5032
 5079SOL     OW26698   2.178   4.234  13.161 -0.1671  0.1852 -0.4857
 5079SOL    HW126699   2.085   4.255  13.164 -0.3784 -0.8743  0.4672
 5079SOL    HW226700   2.197   4.327  13.174  0.9230 -0.1141  0.0740
 5080SOL     OW26701   4.026   2.370   7.344  0.3392  0.8133  0.3751
 5080SOL    HW126702   4.107   2.334   7.379 -0.7722 -1.9480  0.0936
 5080SOL    HW226703   3.966   2.389   7.416  2.3785  1.5764  1.8563
 5081SOL     OW26704   0.834   1.978   8.061 -0.4113  0.5652  0.4181
 5081SOL    HW126705   0.814   2.050   8.122  0.7359  0.5944  0.7622
 5081SOL    HW226706   0.924   1.992   8.033 -0.5404  0.7698  0.1154
 5082SOL     OW26707   0.526   3.520  14.018  0.2308  0.0564 -0.1810
 5082SOL    HW126708   0.441   3.484  13.991  0.3873 -3.2714  3.6794
 5082SOL    HW226709   0.513   3.614  14.019 -1.3877 -0.1825  1.0121
 5083SOL     OW26710   0.853   4.588   2.309 -0.5214  0.5518  0.5232
 5083SOL    HW126711   0.879   4.671   2.349  1.7166  0.1146 -0.0102
 5083SOL    HW226712   0.760   4.591   2.330 -0.9378 -2.0405 -1.0554
 5084SOL     OW26713   2.190   2.715  10.503  0.7819 -0.3710 -0.1752
 5084SOL    HW126714   2.174   2.777  10.573 -0.2596 -0.7692 -0.0523
 5084SOL    HW226715   2.155   2.638  10.549 -0.1143  0.4520  0.5030
 5085SOL     OW26716   0.315   3.747  10.264 -0.2356  0.0175  0.4776
 5085SOL    HW126717   0.354   3.831  10.239  0.3814  0.1386  1.8348
 5085SOL    HW226718   0.321   3.688  10.189 -0.2437 -0.8587  1.1682
 5086SOL     OW26719   3.465   2.565  11.718  0.3407  0.1083  0.1034
 5086SOL    HW126720   3.463   2.618  11.797 -1.8978  1.0661 -0.6009
 5086SOL    HW226721   3.558   2.565  11.695  0.5478  0.2939  0.9292
 5087SOL     OW26722   2.869   1.427  12.303 -0.2048  0.0005 -0.8644
 5087SOL    HW126723   2.852   1.353  12.245 -1.8338 -0.9099  0.7824
 5087SOL    HW226724   2.841   1.386  12.385 -0.1772  2.9146  0.5922
 5088SOL     OW26725   3.748   4.572   6.851 -0.0126 -0.2766  0.2336
 5088SOL    HW126726   3.766   4.658   6.889  2.1140 -0.8190  0.4800
 5088SOL    HW226727   3.835   4.558   6.814 -0.0259 -0.3764  0.2396
 5089SOL     OW26728   2.749   0.414   6.801  0.7435  0.2800  0.1412
 5089SOL    HW126729   2.814   0.346   6.784  0.5009  0.6242 -2.1074
 5089SOL    HW226730   2.806   0.485   6.832 -0.1692  0.6878  0.8906
 5090SOL     OW26731   3.379   2.018   9.986  0.2673 -0.9786  0.6287
 5090SOL    HW126732   3.295   1.976  10.004 -0.4178  0.0673 -0.1820
 5090SOL    HW226733   3.417   2.020  10.074  0.0442  0.9115  0.6734
 5091SOL     OW26734   3.092   2.212   0.363  0.1534  0.1819  0.5521
 5091SOL    HW126735   3.172   2.172   0.396 -0.9452 -1.7729  0.8300
 5091SOL    HW226736   3.085   2.174   0.276 -0.4532 -0.2987  0.8107
 5092SOL     OW26737   4.391   3.917   6.212  0.2648 -0.3526 -0.1075
 5092SOL    HW126738   4.387   3.821   6.219 -0.3620 -0.4399 -1.5802
 5092SOL    HW226739   4.389   3.929   6.117  3.3579 -0.8141 -0.2169
 5093SOL     OW26740   0.563   1.298   5.243 -0.6746  0.2485  0.1219
 5093SOL    HW126741   0.644   1.248   5.233  0.3677  1.4029  2.9142
 5093SOL    HW226742   0.550   1.305   5.338 -0.2924  2.6938 -0.0189
 5094SOL     OW26743   2.793   4.071   9.080  0.8341 -0.5929  0.4563
 5094SOL    HW126744   2.793   4.029   8.994 -1.3294 -1.4859  0.8871
 5094SOL    HW226745   2.774   4.164   9.067 -0.8136 -0.8632  0.9529
 5095SOL     OW26746   0.478   3.217   7.951 -0.0138 -0.7038  0.0978
 5095SOL    HW126747   0.501   3.253   8.036 -2.3556  1.3699 -0.1432
 5095SOL    HW226748   0.564   3.194   7.917  0.9789  0.0218  2.1026
 5096SOL     OW26749   1.001   2.760   5.517 -0.1359 -0.4680 -0.4386
 5096SOL    HW126750   1.016   2.686   5.457 -1.4860 -0.0780 -1.2582
 5096SOL    HW226751   0.997   2.724   5.605 -0.7089 -0.3191 -0.4049
 5097SOL     OW26752   2.638   2.996  12.939 -0.8428 -0.3744  0.2934
 5097SOL    HW126753   2.631   2.953  13.024 -1.1141 -0.0204  0.4544
 5097SOL    HW226754   2.581   3.070  12.962 -0.9685 -0.4871  0.3445
 5098SOL     OW26755   4.518   2.487   2.334  0.2117 -0.3212  0.2136
 5098SOL    HW126756   4.476   2.573   2.339 -0.5017 -0.6489 -0.1277
 5098SOL    HW226757   4.547   2.490   2.243 -0.1301 -0.9435  0.0887
 5099SOL     OW26758   0.806   3.062   7.978 -0.2718 -0.4273  0.1098
 5099SOL    HW126759   0.786   2.991   8.039  1.1641 -1.0297 -0.1319
 5099SOL    HW226760   0.877   3.032   7.921 -0.9186  0.4262 -1.1408
 5100SOL     OW26761   1.032   2.482   6.778 -0.2967  0.3892 -0.0217
 5100SOL    HW126762   0.992   2.424   6.843 -1.5749  2.6757  1.2333
 5100SOL    HW226763   1.006   2.442   6.695 -2.3855 -0.7190  1.1731
 5101SOL     OW26764   3.501   2.567   3.204 -0.3121 -0.6043  0.3417
 5101SOL    HW126765   3.545   2.635   3.154 -2.4560  1.1542  0.8498
 5101SOL    HW226766   3.435   2.538   3.141 -1.3188  0.3290  0.9555
 5102SOL     OW26767   1.426   3.069   4.236  0.5294 -0.1222  0.2505
 5102SOL    HW126768   1.521   3.070   4.233  0.5055 -2.8141 -1.6546
 5102SOL    HW226769   1.417   3.128   4.160  0.8597 -2.5465 -1.6741
 5103SOL     OW26770   2.599   0.825   1.669 -0.2005 -0.3902  0.4126
 5103SOL    HW126771   2.645   0.897   1.713  0.8687 -0.7088 -0.1738
 5103SOL    HW226772   2.674   0.771   1.646 -1.5852 -2.6947  1.3428
 5104SOL     OW26773   3.305   3.646   7.207 -0.6576 -0.5075 -0.2071
 5104SOL    HW126774   3.347   3.581   7.151  1.0813  2.7506 -2.6768
 5104SOL    HW226775   3.315   3.602   7.292  1.4322  1.2003  0.4171
 5105SOL     OW26776   1.427   1.992   8.090  0.1622 -0.2076 -0.0661
 5105SOL    HW126777   1.334   1.975   8.103 -0.2917  0.0485 -3.2082
 5105SOL    HW226778   1.444   1.952   8.005  0.0859  0.8224 -0.5645
 5106SOL     OW26779   4.310   0.393   3.024  0.4599  0.0665 -0.8292
 5106SOL    HW126780   4.270   0.479   3.007  0.5639  0.6628  1.9569
 5106SOL    HW226781   4.322   0.353   2.938 -1.2259  1.3096 -1.6516
 5107SOL     OW26782   0.918   3.192  12.623  0.6600  0.9049  0.2402
 5107SOL    HW126783   0.880   3.276  12.649 -1.0959 -0.2458  1.4341
 5107SOL    HW226784   0.943   3.201  12.531  1.6696  1.0122  0.5187
 5108SOL     OW26785   0.117   3.283  16.145  0.3897  0.0961 -0.4175
 5108SOL    HW126786   0.044   3.227  16.171  0.6319 -0.7261 -1.4793
 5108SOL    HW226787   0.177   3.287  16.219  0.5422 -0.2135 -0.5251
 5109SOL     OW26788   3.348   0.773   9.552 -0.7918  0.2987  0.2265
 5109SOL    HW126789   3.366   0.779   9.458 -2.4709 -0.9736 -0.1647
 5109SOL    HW226790   3.334   0.681   9.572  0.2093  0.0414 -0.3077
 5110SOL     OW26791   2.548   0.596   8.422  0.1136  0.0027  0.1023
 5110SOL    HW126792   2.553   0.548   8.505  0.2248 -1.6383 -0.8567
 5110SOL    HW226793   2.612   0.664   8.445  0.1139  0.2557 -0.6598
 5111SOL     OW26794   0.857   2.210   8.247  0.0408 -0.0273 -0.1251
 5111SOL    HW126795   0.877   2.303   8.259  0.3379  0.1782 -2.2157
 5111SOL    HW226796   0.949   2.187   8.237 -0.2781 -2.1018  1.7627
 5112SOL     OW26797   4.243   2.452  11.880  0.7422 -0.1722 -0.7844
 5112SOL    HW126798   4.236   2.461  11.785 -0.6037  2.5527 -0.4348
 5112SOL    HW226799   4.180   2.518  11.907 -0.1052 -1.3856  0.2168
 5113SOL     OW26800   2.247   4.381   2.648  0.0511 -0.0735 -0.4164
 5113SOL    HW126801   2.195   4.362   2.570 -1.3453  0.0221  0.4945
 5113SOL    HW226802   2.259   4.475   2.636 -0.9066  0.0638 -0.3060
 5114SOL     OW26803   0.706   0.110   3.074  0.0245 -0.3084  0.1537
 5114SOL    HW126804   0.652   0.184   3.047  2.5014  1.6599  0.5299
 5114SOL    HW226805   0.685   0.046   3.006  2.9883  0.9617 -1.9887
 5115SOL     OW26806   3.210   1.985   2.092  0.4115  0.6359 -0.1233
 5115SOL    HW126807   3.280   1.993   2.158 -0.1254 -2.7737  0.8126
 5115SOL    HW226808   3.204   1.892   2.072 -0.7799  0.5251  0.7561
 5116SOL     OW26809   1.480   0.173   7.567  0.0350 -0.2865 -0.4680
 5116SOL    HW126810   1.560   0.147   7.523 -0.6664 -1.9834 -0.7265
 5116SOL    HW226811   1.416   0.152   7.499  0.7938 -0.9276 -0.9714
 5117SOL     OW26812   2.337   2.515   8.748  0.3692  0.0204  0.3755
 5117SOL    HW126813   2.367   2.546   8.662 -1.1383 -2.6115 -1.0969
 5117SOL    HW226814   2.246   2.542   8.746 -0.3375 -2.0429  4.0461
 5118SOL     OW26815   0.395   0.438   7.518  0.7787 -0.2449  0.4866
 5118SOL    HW126816   0.341   0.510   7.551 -0.5304 -0.1594 -1.7799
 5118SOL    HW226817   0.438   0.484   7.446 -1.6312  2.3709  0.6838
 5119SOL     OW26818   4.071   4.296  14.960  0.1901 -0.1602  0.0255
 5119SOL    HW126819   4.097   4.388  14.966  1.1429 -0.3869 -0.5040
 5119SOL    HW226820   4.023   4.293  15.043 -2.4914 -0.8306 -1.5737
 5120SOL     OW26821   2.402   2.593   3.117  0.3375 -0.1357  0.0191
 5120SOL    HW126822   2.400   2.502   3.086  0.4746 -0.0796 -0.1523
 5120SOL    HW226823   2.322   2.631   3.081  0.9422  0.3583 -0.7872
 5121SOL     OW26824   3.743   1.585  14.028 -0.1381  0.7958 -0.7087
 5121SOL    HW126825   3.769   1.671  13.996 -1.2697  0.8628 -1.4629
 5121SOL    HW226826   3.649   1.596  14.040 -0.1215  1.3488 -1.1002
 5122SOL     OW26827   1.415   2.807   6.831 -0.1866  0.5986 -0.3245
 5122SOL    HW126828   1.488   2.768   6.783 -1.2001 -1.0633 -0.5270
 5122SOL    HW226829   1.356   2.735   6.853 -0.0434  0.6412  0.2087
 5123SOL     OW26830   1.188   2.014  14.077 -0.5243 -0.7943  0.1359
 5123SOL    HW126831   1.133   2.008  14.155  1.6222  1.1496  1.7844
 5123SOL    HW226832   1.135   1.986  14.002 -0.8910 -0.7675  0.3830
 5124SOL     OW26833   0.856   1.734  15.718 -0.2022 -0.0426 -0.5594
 5124SOL    HW126834   0.916   1.767  15.652 -1.8929  3.7414 -0.2054
 5124SOL    HW226835   0.771   1.735  15.673 -1.3614  2.0215  1.6670
 5125SOL     OW26836   0.202   1.857   0.357  0.2207 -0.0904 -0.2222
 5125SOL    HW126837   0.156   1.804   0.293  0.1437 -1.7846  1.2297
 5125SOL    HW226838   0.201   1.941   0.311  0.8512  0.7802  1.3294
 5126SOL     OW26839   0.664   0.050   8.651  0.1963  0.0653 -0.1394
 5126SOL    HW126840   0.670   0.068   8.745 -0.1521 -2.8303  0.4581
 5126SOL    HW226841   0.638   4.679   8.643 -1.0220  0.4137 -0.2801
 5127SOL     OW26842   0.800   3.208   7.383  0.0860  0.3357  0.3047
 5127SOL    HW126843   0.723   3.257   7.411 -0.9251  0.2692 -2.3609
 5127SOL    HW226844   0.780   3.197   7.290 -0.9310  1.3396  0.4020
 5128SOL     OW26845   4.059   0.408  15.302 -0.1871 -0.3031 -0.0623
 5128SOL    HW126846   4.152   0.397  15.279 -0.2376 -0.4707 -0.1840
 5128SOL    HW226847   4.013   0.381  15.223  0.6700 -2.1955  0.0879
 5129SOL     OW26848   0.141   1.464  11.544  0.2844  0.2646 -0.2143
 5129SOL    HW126849   0.109   1.384  11.585  1.9705  0.4595  1.5243
 5129SOL    HW226850   0.181   1.506  11.621  3.2654  0.0183 -1.6014
 5130SOL     OW26851   0.916   2.480   7.849  0.6161 -0.1241  0.1579
 5130SOL    HW126852   0.981   2.533   7.805  0.0876  1.4926  1.3056
 5130SOL    HW226853   0.942   2.502   7.939 -1.1235  3.3515 -0.1998
 5131SOL     OW26854   3.357   2.003   3.993  0.4263 -0.0344  0.1558
 5131SOL    HW126855   3.297   1.964   3.929  2.1317  0.1591 -1.5705
 5131SOL    HW226856   3.433   2.024   3.939 -0.3148 -0.4784 -1.0556
 5132SOL     OW26857   2.140   4.145   2.135 -0.2850  0.0448 -0.4866
 5132SOL    HW126858   2.214   4.111   2.085  1.2299  1.7640  0.5922
 5132SOL    HW226859   2.114   4.207   2.067 -1.2075  0.4487  0.2351
 5133SOL     OW26860   0.504   1.716   4.261  0.2740  0.3886 -0.5176
 5133SOL    HW126861   0.574   1.695   4.198  1.2553  2.4800 -0.1253
 5133SOL    HW226862   0.445   1.765   4.204 -1.0966  0.0863  0.6391
 5134SOL     OW26863   0.701   4.257   5.988  0.3436  0.4661  0.0849
 5134SOL    HW126864   0.653   4.316   6.046 -1.0180  1.3391 -1.9282
 5134SOL    HW226865   0.742   4.313   5.923 -1.0464  0.8147 -0.4914
 5135SOL     OW26866   2.657   1.830  11.802 -0.2288  0.2453 -0.1462
 5135SOL    HW126867   2.626   1.909  11.846 -0.4069 -1.2219  2.3347
 5135SOL    HW226868   2.586   1.769  11.817 -0.9223  0.8122 -1.1610
 5136SOL     OW26869   3.776   2.181  11.739 -0.4893  0.0382 -0.0585
 5136SOL    HW126870   3.862   2.220  11.759  0.3311 -2.2070  0.7837
 5136SOL    HW226871   3.771   2.186  11.644 -0.3966 -1.4762 -0.1340
 5137SOL     OW26872   4.001   1.046   8.668  0.4510  0.1233  0.0114
 5137SOL    HW126873   4.076   1.065   8.611  0.5547 -0.0706  0.0854
 5137SOL    HW226874   3.945   1.122   8.652  2.0599  0.9108 -1.9500
 5138SOL     OW26875   2.792   0.121  13.191  0.0138  0.1901  0.1623
 5138SOL    HW126876   2.812   0.108  13.099 -2.7089  0.5166 -0.4802
 5138SOL    HW226877   2.798   0.036  13.234  0.5927  1.3646  2.4079
 5139SOL     OW26878   4.068   3.402  17.403 -0.2931 -0.3785  0.6494
 5139SOL    HW126879   4.089   3.426  17.493  0.9151  3.7056 -0.7378
 5139SOL    HW226880   4.010   3.476  17.384 -0.0418 -0.4798 -0.5391
 5140SOL     OW26881   2.013   4.210   4.046 -0.2538 -0.4843 -0.1875
 5140SOL    HW126882   2.085   4.272   4.030  0.1846 -0.5429  1.6543
 5140SOL    HW226883   1.940   4.270   4.032  0.6717  0.4976 -0.8750
 5141SOL     OW26884   0.620   2.317   1.683  0.2595  0.2974 -0.4738
 5141SOL    HW126885   0.595   2.393   1.631  1.9581  0.3816 -1.1831
 5141SOL    HW226886   0.671   2.349   1.757  1.0129 -1.7660 -0.1009
 5142SOL     OW26887   0.503   2.557   7.965  0.2173  0.9235 -0.4015
 5142SOL    HW126888   0.442   2.622   7.929 -3.1009 -2.7552 -1.3472
 5142SOL    HW226889   0.463   2.546   8.050  0.6999  2.2695  0.0089
 5143SOL     OW26890   4.603   2.067  16.514  0.1314 -0.2871  0.0783
 5143SOL    HW126891   4.654   2.078  16.595  0.1180 -0.5707  0.1252
 5143SOL    HW226892   4.605   2.152  16.470  0.6802 -0.7353 -0.7473
 5144SOL     OW26893   0.245   0.644   7.644  0.2617  0.4203  0.8667
 5144SOL    HW126894   0.177   0.691   7.692 -1.1244 -1.4778  0.7659
 5144SOL    HW226895   0.184   0.607   7.579  0.1000 -0.4140  1.4960
 5145SOL     OW26896   4.313   4.161   7.765 -0.1358  1.1417 -1.0263
 5145SOL    HW126897   4.345   4.235   7.714  0.3599  1.2628 -0.5372
 5145SOL    HW226898   4.230   4.199   7.793 -0.1044  0.5615 -0.1560
 5146SOL     OW26899   0.066   0.865   8.810  0.2615 -0.4631 -0.3265
 5146SOL    HW126900   0.155   0.887   8.839  0.2207 -0.7103 -0.0109
 5146SOL    HW226901   0.069   0.792   8.872 -1.1280 -0.1585  0.1023
 5147SOL     OW26902   1.915   4.318  16.812 -0.4484 -0.1634 -0.3000
 5147SOL    HW126903   1.938   4.411  16.817  1.1734 -0.5450 -0.8645
 5147SOL    HW226904   1.940   4.291  16.724  0.7457  0.5466 -0.1711
 5148SOL     OW26905   1.562   0.307   4.327  0.1623  0.0974 -0.2109
 5148SOL    HW126906   1.554   0.250   4.251 -0.5665 -1.1147  0.7688
 5148SOL    HW226907   1.576   0.239   4.393  2.2378  0.9162  0.1877
 5149SOL     OW26908   4.624   0.743   5.105 -0.2093 -0.6508  0.0372
 5149SOL    HW126909   4.570   0.679   5.058  0.5843  0.3241 -2.1914
 5149SOL    HW226910   4.697   0.734   5.043  0.1636 -1.5972  0.6058
 5150SOL     OW26911   2.481   2.123  10.767  0.7672  0.0084 -0.6262
 5150SOL    HW126912   2.485   2.028  10.777  1.8164  0.0229 -0.8394
 5150SOL    HW226913   2.571   2.141  10.795  0.3136  2.1062 -0.5162
 5151SOL     OW26914   3.043   0.045   5.218  0.3694  0.2185  0.1320
 5151SOL    HW126915   3.085   4.703   5.159 -0.0041  0.1102 -0.0149
 5151SOL    HW226916   2.959   0.000   5.228  0.1711  0.7542  0.8763
 5152SOL     OW26917   1.171   3.228   4.873 -0.2649  0.5962  0.4680
 5152SOL    HW126918   1.125   3.145   4.885  0.8786 -0.0105  0.6385
 5152SOL    HW226919   1.099   3.291   4.873 -0.5919  0.2133  1.5780
 5153SOL     OW26920   4.583   3.928  15.551  0.0548  0.1541  0.0419
 5153SOL    HW126921   4.496   3.936  15.514 -0.4128 -1.3345  0.8079
 5153SOL    HW226922   4.614   4.015  15.525 -1.1320  0.4473 -0.3631
 5154SOL     OW26923   0.872   2.641   1.055 -0.2801  0.2780 -0.5875
 5154SOL    HW126924   0.783   2.646   1.019 -0.3778  1.4950 -0.1870
 5154SOL    HW226925   0.916   2.711   1.006  0.3222  1.2552  1.3678
 5155SOL     OW26926   3.354   4.066   7.762 -0.4763  0.6528  0.4172
 5155SOL    HW126927   3.364   3.990   7.819  0.1471  0.2338 -0.2590
 5155SOL    HW226928   3.347   4.028   7.675 -1.4509  1.5629  0.0977
 5156SOL     OW26929   3.960   0.695   4.931  0.4523  0.5609 -0.3579
 5156SOL    HW126930   3.872   0.720   4.956  0.4770  1.5694 -1.3184
 5156SOL    HW226931   4.007   0.770   4.968 -1.5672  1.3201  0.6573
 5157SOL     OW26932   0.238   1.198   8.486  0.1279  0.0229 -0.5269
 5157SOL    HW126933   0.241   1.106   8.512 -1.9745  0.6415  1.9224
 5157SOL    HW226934   0.146   1.193   8.459 -0.1215 -0.5524  0.3943
 5158SOL     OW26935   2.178   0.397   9.683 -0.7828  0.1207  0.7259
 5158SOL    HW126936   2.099   0.364   9.724 -0.4421 -1.7233 -0.1035
 5158SOL    HW226937   2.144   0.455   9.614  1.9967 -1.0158 -1.6147
 5159SOL     OW26938   0.709   3.181   4.714  0.1114  0.1620 -0.5623
 5159SOL    HW126939   0.741   3.266   4.683  2.1010 -1.0781 -1.8446
 5159SOL    HW226940   0.654   3.210   4.787  1.1392  0.7635 -0.0285
 5160SOL     OW26941   0.085   0.669   8.363  0.4985  0.1400  0.1514
 5160SOL    HW126942   0.175   0.648   8.388  0.4264 -1.2648 -0.7606
 5160SOL    HW226943   0.030   0.625   8.428 -0.9549  0.3027 -0.9610
 5161SOL     OW26944   4.113   4.591   5.883 -0.0597 -0.3844 -0.2402
 5161SOL    HW126945   4.138   4.499   5.873 -2.1655 -1.0919  0.8820
 5161SOL    HW226946   4.142   4.602   5.974 -0.2621 -1.3147 -0.0548
 5162SOL     OW26947   0.598   3.408   8.171 -0.5897 -0.4069 -0.4816
 5162SOL    HW126948   0.667   3.392   8.107 -2.2710 -2.1028 -1.8607
 5162SOL    HW226949   0.656   3.408   8.248  2.3992  0.2709 -2.7559
 5163SOL     OW26950   2.719   3.749   7.459  0.3878  0.3569 -0.0071
 5163SOL    HW126951   2.676   3.821   7.506  1.1839  0.1372  1.0545
 5163SOL    HW226952   2.738   3.800   7.380 -0.0732 -0.9289 -0.9567
 5164SOL     OW26953   3.993   1.653   4.821  0.2030 -0.4878  0.0226
 5164SOL    HW126954   3.915   1.637   4.767  0.9423  1.6988 -1.7328
 5164SOL    HW226955   3.988   1.586   4.888  0.6081  0.3880  0.9276
 5165SOL     OW26956   1.272   0.298   2.235  0.0538 -0.0563  0.4285
 5165SOL    HW126957   1.248   0.388   2.210 -0.4430 -0.7935 -1.7859
 5165SOL    HW226958   1.357   0.318   2.275  0.9871  0.2645 -1.6843
 5166SOL     OW26959   2.335   1.656   4.367 -0.5170  0.0219  0.5097
 5166SOL    HW126960   2.368   1.677   4.280  1.3323  0.4782  1.3126
 5166SOL    HW226961   2.274   1.584   4.351  0.6514 -0.8750  0.1330
 5167SOL     OW26962   3.096   3.786  16.161  0.4814 -0.1343 -0.3501
 5167SOL    HW126963   3.038   3.715  16.133  1.3992 -0.9990 -0.0441
 5167SOL    HW226964   3.068   3.797  16.252 -0.7585 -0.0066 -0.7436
 5168SOL     OW26965   1.085   3.105   0.820  0.2809  0.8316 -0.2317
 5168SOL    HW126966   1.144   3.174   0.851  1.5348  0.3148 -1.5036
 5168SOL    HW226967   1.035   3.086   0.900  1.6693 -0.6677  0.2842
 5169SOL     OW26968   2.684   2.704   8.889  0.2115  0.1005 -0.5006
 5169SOL    HW126969   2.597   2.745   8.888  1.4257  2.7040 -0.3732
 5169SOL    HW226970   2.695   2.673   8.979 -2.7630 -1.6083 -0.7112
 5170SOL     OW26971   2.423   0.641  13.826 -0.7771 -0.8143 -0.2286
 5170SOL    HW126972   2.342   0.692  13.814 -0.7961 -0.3987  1.7788
 5170SOL    HW226973   2.464   0.705  13.884  1.1197 -1.4957 -0.8258
 5171SOL     OW26974   0.283   0.331   2.614 -0.3866  0.7705  0.4125
 5171SOL    HW126975   0.286   0.426   2.599 -0.0694  0.7048  0.0715
 5171SOL    HW226976   0.191   0.316   2.593  0.0057 -0.4727 -0.3990
 5172SOL     OW26977   2.682   4.083   4.922 -0.5441 -0.3031  0.2097
 5172SOL    HW126978   2.604   4.138   4.935 -2.6395 -3.2981  0.2648
 5172SOL    HW226979   2.750   4.130   4.971 -0.2545  0.5325 -0.9927
 5173SOL     OW26980   4.428   2.184  10.336 -0.0574  0.4715 -0.2453
 5173SOL    HW126981   4.407   2.266  10.292 -0.3975  0.1588 -0.6718
 5173SOL    HW226982   4.457   2.208  10.423 -2.5332  1.8301  0.2143
 5174SOL     OW26983   2.229   1.449  14.293 -1.1487 -0.2953  0.2901
 5174SOL    HW126984   2.220   1.520  14.356 -0.8957 -2.0591  2.3037
 5174SOL    HW226985   2.279   1.382  14.339 -0.2289  1.2809  1.6027
 5175SOL     OW26986   0.782   4.589   0.257  0.4737  0.0671 -0.5169
 5175SOL    HW126987   0.720   4.646   0.210 -1.4706 -0.9918  0.7792
 5175SOL    HW226988   0.787   4.518   0.194  0.3700 -0.4235  0.0314
 5176SOL     OW26989   0.200   3.227   6.062 -0.5869 -0.1867 -0.0559
 5176SOL    HW126990   0.193   3.131   6.062  2.5320 -0.4101  0.0473
 5176SOL    HW226991   0.251   3.244   6.141  0.4360  0.9949 -0.9619
 5177SOL     OW26992   4.241   3.455   8.595  0.3853  0.2001 -0.0216
 5177SOL    HW126993   4.319   3.486   8.641 -0.3838  1.5113  0.4146
 5177SOL    HW226994   4.272   3.436   8.507 -1.3206 -0.7733 -0.4042
 5178SOL     OW26995   1.356   0.204   8.936 -0.1235  0.5014 -0.0439
 5178SOL    HW126996   1.344   0.161   8.852  0.4858 -2.0714  1.1586
 5178SOL    HW226997   1.421   0.142   8.972 -2.7695 -2.0555  0.3411
 5179SOL     OW26998   4.328   4.382   9.085 -0.4851  0.2880  0.4434
 5179SOL    HW126999   4.333   4.468   9.125  1.5057 -0.2000  1.2500
 5179SOL    HW227000   4.423   4.367   9.091 -0.2464  1.8270  0.4891
 5180SOL     OW27001   3.722   1.217   5.210  0.9072  0.0479  0.4087
 5180SOL    HW127002   3.803   1.237   5.256  1.0422 -1.3962  0.8047
 5180SOL    HW227003   3.687   1.306   5.208 -0.9214 -0.6890 -0.0620
 5181SOL     OW27004   2.596   4.653   0.268  0.0580 -0.2524 -0.0121
 5181SOL    HW127005   2.627   4.581   0.212 -1.4698  1.0881 -2.5898
 5181SOL    HW227006   2.669   4.675   0.327  0.9789  0.4106 -1.3908
 5182SOL     OW27007   1.545   3.453  16.521  0.0242 -0.8109 -0.5103
 5182SOL    HW127008   1.616   3.394  16.546  0.7395  0.4606  0.4446
 5182SOL    HW227009   1.498   3.406  16.452  1.3870 -0.4162 -1.7071
 5183SOL     OW27010   2.233   4.579  16.393 -0.3066 -0.5564  0.1418
 5183SOL    HW127011   2.266   4.609  16.309 -0.2549  0.7768  0.6251
 5183SOL    HW227012   2.281   4.497  16.399  1.6053  0.6136  0.7059
 5184SOL     OW27013   4.006   1.454  11.230  0.2054  0.0550 -0.6328
 5184SOL    HW127014   4.070   1.387  11.208  1.8964  1.1784  0.9211
 5184SOL    HW227015   3.927   1.411  11.196 -0.0265 -0.9262  1.1556
 5185SOL     OW27016   0.305   1.451  15.249 -0.0472  0.2990  0.2273
 5185SOL    HW127017   0.335   1.397  15.323  1.6904 -0.4282 -1.0180
 5185SOL    HW227018   0.242   1.511  15.287 -0.9593 -0.7425  0.3623
 5186SOL     OW27019   3.317   0.096   1.538  0.1329 -0.1635  0.5955
 5186SOL    HW127020   3.304   0.151   1.460 -1.4409 -1.0119  0.2457
 5186SOL    HW227021   3.412   0.106   1.547  0.2326 -0.9856  0.4439
 5187SOL     OW27022   2.166   1.160  10.429  0.2968  0.7122 -0.1760
 5187SOL    HW127023   2.221   1.105  10.374  0.8396  0.8212  0.2565
 5187SOL    HW227024   2.225   1.169  10.505  1.6307  0.5529 -1.1904
 5188SOL     OW27025   1.395   1.118  16.315  0.3553 -0.2200 -0.1232
 5188SOL    HW127026   1.325   1.181  16.295  1.1640  0.5716 -0.4702
 5188SOL    HW227027   1.362   1.042  16.267 -0.7554 -1.7941  3.1498
 5189SOL     OW27028   4.496   2.224   6.446  0.1459 -0.3001 -0.6024
 5189SOL    HW127029   4.464   2.162   6.512 -1.4213  0.7628 -0.3645
 5189SOL    HW227030   4.556   2.269   6.505  2.1886 -2.0228 -1.3727
 5190SOL     OW27031   1.965   4.169   7.502  0.1479  0.2480  0.1365
 5190SOL    HW127032   1.886   4.196   7.455 -0.2208 -3.3610 -1.2777
 5190SOL    HW227033   2.029   4.237   7.482  0.8599 -1.0282 -1.9144
 5191SOL     OW27034   1.669   2.163  16.803 -0.3073 -0.1134  0.1348
 5191SOL    HW127035   1.626   2.110  16.736  2.7944 -0.0761 -1.8849
 5191SOL    HW227036   1.627   2.134  16.885  2.7248 -1.5111  1.2184
 5192SOL     OW27037   3.359   1.538  16.695 -0.3475  0.8652  0.9080
 5192SOL    HW127038   3.291   1.483  16.657  1.4685 -0.0740 -0.9763
 5192SOL    HW227039   3.353   1.612  16.634 -1.9029 -1.2948 -1.5010
 5193SOL     OW27040   0.694   3.808   4.161 -0.9002 -0.1874 -0.2390
 5193SOL    HW127041   0.642   3.819   4.081 -2.6580  2.4248  1.2575
 5193SOL    HW227042   0.703   3.901   4.180  0.7301  0.3864 -3.9944
 5194SOL     OW27043   2.004   1.192   1.731 -0.5865 -0.0972  0.2710
 5194SOL    HW127044   2.099   1.195   1.719 -0.3932 -0.2673  1.7200
 5194SOL    HW227045   1.983   1.258   1.665  0.3383  0.0614  0.1267
 5195SOL     OW27046   2.870   2.813   5.206 -0.4620 -0.1663  0.2485
 5195SOL    HW127047   2.853   2.724   5.239 -2.3364  0.2340  0.3490
 5195SOL    HW227048   2.933   2.846   5.270 -0.7892  1.1286 -0.1144
 5196SOL     OW27049   4.054   2.367   8.377  0.3083  0.3380  0.0480
 5196SOL    HW127050   4.010   2.392   8.296 -0.3840  0.5445  0.4911
 5196SOL    HW227051   4.129   2.425   8.390  0.3841 -0.0838  1.4804
 5197SOL     OW27052   0.055   0.042   0.231 -0.7560 -0.7480 -0.2059
 5197SOL    HW127053   4.696   0.016   0.277 -0.6381 -0.6505  0.0549
 5197SOL    HW227054   0.049   4.705   0.155 -2.8883  0.9147 -1.2968
 5198SOL     OW27055   1.610   3.079  17.190 -0.4560 -0.0258 -0.2312
 5198SOL    HW127056   1.515   3.076  17.184 -0.2797 -1.2361 -2.3131
 5198SOL    HW227057   1.617   3.169  17.223 -1.3444  0.7640 -2.2321
 5199SOL     OW27058   4.489   2.482  10.366  0.5817 -0.9400 -0.0705
 5199SOL    HW127059   4.457   2.433  10.441  1.3626 -3.1142 -1.1591
 5199SOL    HW227060   4.571   2.434  10.356  2.2154  1.6685  1.0214
 5200SOL     OW27061   2.480   0.114   6.680 -0.1276 -0.4266 -0.3786
 5200SOL    HW127062   2.549   0.081   6.738  0.4936  0.4045 -0.6406
 5200SOL    HW227063   2.463   0.041   6.621 -3.3649  1.9614 -2.3592
 5201SOL     OW27064   1.536   0.031   9.018  0.0296  0.4161  0.6078
 5201SOL    HW127065   1.570   4.687   9.080 -0.4682 -0.8412 -0.4325
 5201SOL    HW227066   1.565   0.109   9.066  0.8470  1.4634 -1.5979
 5202SOL     OW27067   2.241   2.395   4.668  0.0271 -0.0214 -0.1399
 5202SOL    HW127068   2.230   2.407   4.762  2.9391 -0.1154  0.2067
 5202SOL    HW227069   2.270   2.305   4.656  2.3436  0.7206 -0.1538
 5203SOL     OW27070   1.097   1.734   0.542  0.5370  0.2265 -0.2071
 5203SOL    HW127071   1.036   1.701   0.477 -0.2371  0.4928  0.3926
 5203SOL    HW227072   1.057   1.818   0.567  1.0815  0.2610  0.5732
 5204SOL     OW27073   4.446   1.363   3.956 -0.4845  0.0841  0.0749
 5204SOL    HW127074   4.469   1.315   4.035 -1.4753  1.4322  1.1944
 5204SOL    HW227075   4.524   1.417   3.943 -0.2101 -0.3453 -0.0390
 5205SOL     OW27076   2.317   3.588   5.901  0.0798 -0.2185  0.3506
 5205SOL    HW127077   2.317   3.557   5.992  1.6830 -3.0181 -0.5953
 5205SOL    HW227078   2.309   3.503   5.858  1.6714  0.0781 -0.5237
 5206SOL     OW27079   1.764   1.622   0.060  0.0731  0.2741 -0.7365
 5206SOL    HW127080   1.695   1.639   0.125  0.7738  2.4364 -0.5387
 5206SOL    HW227081   1.826   1.695   0.069  1.4159 -0.9311 -0.3154
 5207SOL     OW27082   2.390   4.354  17.089 -0.5486  1.0500 -0.5415
 5207SOL    HW127083   2.456   4.423  17.081 -0.3425  0.8491 -0.5947
 5207SOL    HW227084   2.384   4.344  16.994 -3.1701  0.6124 -0.3304
 5208SOL     OW27085   0.441   1.337   3.434 -0.6480 -0.3455 -0.6037
 5208SOL    HW127086   0.413   1.389   3.359 -0.3781 -1.0354 -1.1785
 5208SOL    HW227087   0.513   1.289   3.393 -0.1384 -1.1300  1.1741
 5209SOL     OW27088   4.303   1.545   8.342 -0.2415 -0.2334  0.5436
 5209SOL    HW127089   4.304   1.639   8.327 -1.1127 -0.3821 -0.4307
 5209SOL    HW227090   4.395   1.519   8.338 -0.2843 -0.5524  1.8807
 5210SOL     OW27091   4.377   0.646  15.062  0.1203  0.4410 -0.1639
 5210SOL    HW127092   4.372   0.556  15.030 -0.9342  1.0380 -1.6424
 5210SOL    HW227093   4.284   0.669  15.057 -0.5492 -2.2558 -0.0925
 5211SOL     OW27094   4.574   3.311   7.822 -0.1262 -0.2601  0.1339
 5211SOL    HW127095   4.667   3.299   7.839  0.0849 -0.2756 -1.0391
 5211SOL    HW227096   4.569   3.394   7.776  0.4278 -0.9233 -1.1032
 5212SOL     OW27097   3.092   2.447  13.984 -0.4731  0.5105  0.0599
 5212SOL    HW127098   3.067   2.539  13.986  1.2012  0.9573  1.2319
 5212SOL    HW227099   3.036   2.397  14.043 -0.7779  0.7430 -0.0349
 5213SOL     OW27100   2.086   4.342   6.692 -0.3668 -0.2084 -0.0357
 5213SOL    HW127101   2.059   4.251   6.690  0.2466 -0.3720 -1.0560
 5213SOL    HW227102   2.002   4.383   6.669 -1.4442 -2.6668 -0.5016
 5214SOL     OW27103   0.902   2.628   9.893  0.4335 -0.4393  0.5490
 5214SOL    HW127104   0.917   2.700   9.831  0.0678 -1.2780 -0.5118
 5214SOL    HW227105   0.850   2.666   9.964  0.8607  1.1338  0.0316
 5215SOL     OW27106   1.467   0.531   8.477 -0.1308 -0.4867  0.5330
 5215SOL    HW127107   1.540   0.476   8.449  1.9084  2.1152  0.7199
 5215SOL    HW227108   1.395   0.509   8.418  1.2741 -0.1175 -1.3319
 5216SOL     OW27109   0.172   1.835   5.843 -0.6944  0.4899  0.9483
 5216SOL    HW127110   0.211   1.749   5.828 -0.7339  1.0058 -2.1408
 5216SOL    HW227111   0.160   1.862   5.752  1.9660  1.2113  0.8326
 5217SOL     OW27112   3.262   1.862  16.582 -0.5029  0.3728 -0.0479
 5217SOL    HW127113   3.244   1.954  16.561 -1.6691  0.1099 -0.2014
 5217SOL    HW227114   3.303   1.869  16.668 -0.5111 -1.9266  0.1450
 5218SOL     OW27115   2.493   2.515   5.725  0.3160 -0.1456 -0.5399
 5218SOL    HW127116   2.517   2.442   5.782  0.6232  1.6920  1.6696
 5218SOL    HW227117   2.561   2.582   5.723  2.0257 -1.8950 -0.2206
 5219SOL     OW27118   2.982   2.898   5.474  0.0222 -0.8244  0.0036
 5219SOL    HW127119   3.046   2.847   5.525 -1.3020 -1.1724  1.3133
 5219SOL    HW227120   2.916   2.904   5.543  1.2319 -0.6885  1.1743
 5220SOL     OW27121   2.491   0.699   4.533 -0.9072 -0.2302 -0.3777
 5220SOL    HW127122   2.457   0.672   4.618  0.0198  1.8456  0.6657
 5220SOL    HW227123   2.578   0.661   4.521  0.2274  2.3936 -0.4052
 5221SOL     OW27124   4.680   0.709  15.905 -0.1913 -0.4296  0.9415
 5221SOL    HW127125   4.611   0.675  15.848 -1.0483  0.6249  1.3476
 5221SOL    HW227126   4.632   0.773  15.956 -0.7370 -0.9169  1.0465
 5222SOL     OW27127   0.541   0.951  11.201 -0.1985  0.7145  0.1181
 5222SOL    HW127128   0.477   1.009  11.241 -1.3689 -0.7048  0.3452
 5222SOL    HW227129   0.504   0.867  11.228  0.9262  0.3334  0.4747
 5223SOL     OW27130   4.714   1.315  11.169  0.2182 -0.6248 -0.0034
 5223SOL    HW127131   4.668   1.323  11.085 -0.3280 -1.5329  0.2060
 5223SOL    HW227132   0.009   1.407  11.187  0.8140 -0.7077 -0.1069
 5224SOL     OW27133   0.734   3.478  13.832  0.4421  0.4882  0.5428
 5224SOL    HW127134   0.656   3.502  13.882 -0.9397  2.0296 -2.3565
 5224SOL    HW227135   0.795   3.536  13.879 -1.0006  2.2465  0.2563
 5225SOL     OW27136   0.488   1.459   0.910  0.3006  0.0045 -0.3498
 5225SOL    HW127137   0.515   1.476   1.000 -2.5568 -0.1639  0.5185
 5225SOL    HW227138   0.394   1.472   0.919  0.3618 -0.1891  0.5465
 5226SOL     OW27139   1.787   3.547   7.726  0.5600 -0.0434  0.3776
 5226SOL    HW127140   1.754   3.515   7.809 -2.6417  0.7228 -0.5811
 5226SOL    HW227141   1.870   3.582   7.759 -0.4284  1.2229  1.5322
 5227SOL     OW27142   3.102   1.235   9.430 -0.1726  0.1399  0.0483
 5227SOL    HW127143   3.191   1.221   9.461 -0.8335  1.4937  2.5689
 5227SOL    HW227144   3.122   1.267   9.342  0.6017  2.2243  0.9804
 5228SOL     OW27145   3.298   2.782   8.967 -0.1237 -0.2662 -0.2085
 5228SOL    HW127146   3.376   2.732   8.945 -1.2605 -2.4869  0.7413
 5228SOL    HW227147   3.304   2.852   8.903 -3.1049 -0.4802 -0.7211
 5229SOL     OW27148   0.904   0.336   0.877  0.4418  0.1671 -0.0324
 5229SOL    HW127149   0.853   0.327   0.797  0.6314 -0.7150 -0.0504
 5229SOL    HW227150   0.830   0.329   0.938  0.5114  0.1677  0.0530
 5230SOL     OW27151   2.599   2.064   4.645 -0.0488 -0.2376  0.3864
 5230SOL    HW127152   2.601   2.077   4.740 -0.4552 -0.8572  0.4812
 5230SOL    HW227153   2.690   2.087   4.627 -0.6133  1.7375  0.0381
 5231SOL     OW27154   0.590   3.284   2.414 -0.3959 -0.2552 -0.0884
 5231SOL    HW127155   0.550   3.198   2.400 -4.4808  1.5617  0.5283
 5231SOL    HW227156   0.677   3.257   2.445 -0.7878 -1.5491 -0.0897
 5232SOL     OW27157   2.971   2.270   7.163  0.1862 -0.2730  0.3427
 5232SOL    HW127158   2.899   2.288   7.103 -0.3081  0.0929  1.0419
 5232SOL    HW227159   2.994   2.360   7.189 -1.3391 -0.1760  1.3169
 5233SOL     OW27160   2.041   3.549   6.054  0.0548 -0.6117 -0.1303
 5233SOL    HW127161   2.002   3.601   6.124 -1.8051  0.4813 -1.9700
 5233SOL    HW227162   2.118   3.514   6.098  0.2078 -0.6069 -0.3934
 5234SOL     OW27163   1.441   1.102  14.470 -0.1524  0.0092  0.3113
 5234SOL    HW127164   1.416   1.013  14.497  0.1651 -0.1365  0.1329
 5234SOL    HW227165   1.520   1.084  14.419 -1.6048 -2.6095 -1.0625
 5235SOL     OW27166   4.362   4.399   8.678 -0.2624 -0.1557  0.7711
 5235SOL    HW127167   4.408   4.483   8.675 -2.5940  1.0420 -0.9894
 5235SOL    HW227168   4.329   4.384   8.590 -0.3137 -0.9019  0.9121
 5236SOL     OW27169   1.438   2.671   7.176 -0.1546  0.3168 -0.0629
 5236SOL    HW127170   1.401   2.647   7.092 -2.2077 -0.8362  1.1684
 5236SOL    HW227171   1.426   2.766   7.173  1.8036  0.5335 -0.9582
 5237SOL     OW27172   0.379   4.326  16.469  0.0735 -0.2335  0.2479
 5237SOL    HW127173   0.418   4.359  16.550 -0.5922 -1.9070  1.2408
 5237SOL    HW227174   0.431   4.249  16.449  0.8800  0.0389  1.3135
 5238SOL     OW27175   3.086   1.062  17.670 -0.5489  0.2952 -0.0386
 5238SOL    HW127176   3.106   1.150  17.638  0.7835 -0.1233 -0.3878
 5238SOL    HW227177   3.017   1.091   0.043  0.0368  2.8099 -0.6137
 5239SOL     OW27178   1.773   0.022  12.342 -0.3549 -0.2385 -0.1932
 5239SOL    HW127179   1.679   0.017  12.330 -0.6420  0.8542  1.5252
 5239SOL    HW227180   1.780   0.045  12.435  0.1751  0.9797 -0.5335
 5240SOL     OW27181   1.496   0.549  17.459  0.4054 -0.5908  0.1544
 5240SOL    HW127182   1.425   0.608  17.432  0.7299  0.1972  0.9876
 5240SOL    HW227183   1.525   0.518  17.373 -2.5790 -0.8464 -0.7648
 5241SOL     OW27184   3.520   0.977   7.362 -0.7495  0.4965  0.2063
 5241SOL    HW127185   3.534   1.005   7.453 -1.2018  0.8411  0.1718
 5241SOL    HW227186   3.446   0.916   7.364 -0.0162 -0.5299 -4.5219
 5242SOL     OW27187   0.279   3.227   7.495 -0.1683 -0.1916  0.8864
 5242SOL    HW127188   0.326   3.281   7.559  0.9043  1.2884 -1.1568
 5242SOL    HW227189   0.196   3.221   7.543 -1.2393 -2.9454 -1.3283
 5243SOL     OW27190   3.382   1.430   2.150  0.1005 -0.1592 -0.0606
 5243SOL    HW127191   3.290   1.435   2.177  0.5810  3.3775  0.9314
 5243SOL    HW227192   3.403   1.512   2.106  0.9624 -0.1001  0.4594
 5244SOL     OW27193   4.217   0.629   2.754  0.0219  0.3229 -0.6844
 5244SOL    HW127194   4.218   0.720   2.724 -0.7281  0.7650  0.6575
 5244SOL    HW227195   4.173   0.644   2.838  0.7339  0.6448 -0.3623
 5245SOL     OW27196   4.710   3.390   5.289 -0.2613 -0.0101  0.0813
 5245SOL    HW127197   4.711   3.387   5.193  4.3169 -1.7185  0.1320
 5245SOL    HW227198   0.074   3.430   5.310 -0.4998 -0.0954  1.1986
 5246SOL     OW27199   2.409   0.351   3.469 -0.2795  0.6210  0.1828
 5246SOL    HW127200   2.345   0.359   3.540 -1.0544  1.5339 -0.6292
 5246SOL    HW227201   2.462   0.274   3.490 -2.0682 -0.9175 -0.9696
 5247SOL     OW27202   2.988   3.223   4.676 -0.4167 -0.1327  0.0972
 5247SOL    HW127203   2.963   3.238   4.767  1.3797 -1.0347  0.7487
 5247SOL    HW227204   3.079   3.253   4.670 -0.1799 -0.2673  2.9292
 5248SOL     OW27205   1.490   2.193   5.593  0.1221 -0.0955 -0.0412
 5248SOL    HW127206   1.525   2.217   5.507 -1.9725 -0.4335 -0.9818
 5248SOL    HW227207   1.527   2.105   5.601  0.8789  0.2763  0.6124
 5249SOL     OW27208   0.420   0.718  11.212 -0.4467  0.7941  0.1353
 5249SOL    HW127209   0.435   0.712  11.118  1.3996 -1.2520  0.5638
 5249SOL    HW227210   0.366   0.640  11.224 -1.2134  1.3144  0.0724
 5250SOL     OW27211   1.586   4.697   6.012  0.1881  0.0453 -0.1543
 5250SOL    HW127212   1.578   4.664   6.102  0.8801  1.3014  0.3540
 5250SOL    HW227213   1.674   0.013   6.017 -0.6145  1.9216 -0.1234
 5251SOL     OW27214   1.182   1.593   1.673  0.0295 -0.4669  0.8791
 5251SOL    HW127215   1.221   1.677   1.699 -1.2063  0.2124  0.5049
 5251SOL    HW227216   1.258   1.540   1.648 -0.0696 -1.0306  1.7805
 5252SOL     OW27217   0.076   1.819   8.854  0.1254 -0.4817  0.4288
 5252SOL    HW127218   0.084   1.913   8.835 -0.0259 -0.8964 -1.7142
 5252SOL    HW227219   0.057   1.788   8.765 -0.4183 -1.7469  0.9917
 5253SOL     OW27220   2.375   0.198  10.280  0.4306  0.0947 -0.1053
 5253SOL    HW127221   2.409   0.165  10.197  0.6776  1.5710 -0.5831
 5253SOL    HW227222   2.429   0.276  10.293 -0.2284  0.5383 -0.0491
 5254SOL     OW27223   3.082   0.143   8.331 -0.5387  0.7189  0.0106
 5254SOL    HW127224   3.156   0.127   8.390  0.7732  0.9627 -1.5903
 5254SOL    HW227225   3.079   0.079   8.260 -0.1924  0.3594  0.3269
 5255SOL     OW27226   0.198   0.556  17.577  0.6888  0.3034  0.0268
 5255SOL    HW127227   0.251   0.634  17.594  0.3639  0.3016  1.0758
 5255SOL    HW227228   0.194   0.551  17.481 -2.7460  1.0569  0.1267
 5256SOL     OW27229   2.246   1.226  14.060 -0.3157  0.5346  0.6280
 5256SOL    HW127230   2.257   1.319  14.039 -1.6430  0.5806  0.1424
 5256SOL    HW227231   2.156   1.232  14.092 -0.1617  1.3200  0.9080
 5257SOL     OW27232   0.333   3.533   1.910  0.1140 -0.2784  0.0403
 5257SOL    HW127233   0.317   3.495   1.996 -1.8739 -0.6128 -0.4935
 5257SOL    HW227234   0.256   3.508   1.859  1.1384  0.1021 -1.7018
 5258SOL     OW27235   0.923   4.133   6.811 -0.3242 -0.2554  0.2869
 5258SOL    HW127236   1.014   4.163   6.816 -0.4882  0.3811 -0.4871
 5258SOL    HW227237   0.929   4.043   6.780 -0.4881  0.0900 -0.7452
 5259SOL     OW27238   3.883   2.814  16.013  0.3649 -0.2482 -0.3063
 5259SOL    HW127239   3.831   2.738  15.990  0.0406  0.5035 -2.0316
 5259SOL    HW227240   3.860   2.876  15.943 -0.9230  0.2184  0.5365
 5260SOL     OW27241   0.719   2.770   7.917 -0.4178  0.7708  0.3476
 5260SOL    HW127242   0.741   2.806   8.003 -0.9585 -0.5531  1.0478
 5260SOL    HW227243   0.642   2.719   7.944  1.1928 -2.8065 -1.9078
 5261SOL     OW27244   1.740   0.799  15.031  0.9834 -0.1118  0.3648
 5261SOL    HW127245   1.822   0.752  15.045 -0.4212 -2.5553  0.4846
 5261SOL    HW227246   1.735   0.800  14.935 -1.1866  0.4491  0.4787
 5262SOL     OW27247   4.649   2.730   3.286 -0.4402 -0.0662 -0.1311
 5262SOL    HW127248   4.637   2.759   3.195  0.7892  0.2365 -0.2061
 5262SOL    HW227249   4.700   2.808   3.311  0.3358 -1.0587  1.3562
 5263SOL     OW27250   4.226   1.333   1.149  0.0547 -0.4542 -0.2734
 5263SOL    HW127251   4.308   1.380   1.132  1.8677 -2.6855  2.4047
 5263SOL    HW227252   4.255   1.245   1.127  1.6225 -0.1194  0.4579
 5264SOL     OW27253   0.344   2.227   2.760 -0.5902 -0.7080 -0.4997
 5264SOL    HW127254   0.296   2.150   2.730  0.2392 -2.0895  1.6647
 5264SOL    HW227255   0.410   2.239   2.692 -1.1537  2.7714 -0.4197
 5265SOL     OW27256   0.918   4.380   6.468  0.1070  0.4541 -0.2055
 5265SOL    HW127257   0.864   4.366   6.545  1.5743  0.3632  0.8163
 5265SOL    HW227258   0.856   4.422   6.409 -1.7302 -2.2489 -0.1846
 5266SOL     OW27259   2.591   1.914   6.551  0.3088 -0.1583  0.1262
 5266SOL    HW127260   2.581   1.898   6.645  1.6739  1.1677  0.5082
 5266SOL    HW227261   2.603   2.009   6.545  2.2147 -0.4079 -0.1590
 5267SOL     OW27262   0.595   2.636   5.303 -0.4756 -0.0463  0.2238
 5267SOL    HW127263   0.680   2.673   5.279 -0.6637  1.1624  1.4329
 5267SOL    HW227264   0.549   2.628   5.220 -0.8447  1.5416  0.2869
 5268SOL     OW27265   4.210   3.281   3.151 -0.0349  0.2724 -0.0703
 5268SOL    HW127266   4.240   3.354   3.098 -1.6961  0.9816 -0.0064
 5268SOL    HW227267   4.152   3.322   3.215 -1.6428 -1.2103 -0.5595
 5269SOL     OW27268   1.066   1.052   5.024  0.3304 -0.4059 -0.4201
 5269SOL    HW127269   1.152   1.069   4.986 -0.0453  2.0062 -0.1957
 5269SOL    HW227270   1.082   0.995   5.099  4.5369  0.8496 -0.4028
 5270SOL     OW27271   0.967   0.028   4.938 -0.0194 -0.7598  0.5560
 5270SOL    HW127272   0.925   4.683   4.882  2.1825 -1.9090  0.2194
 5270SOL    HW227273   0.900   0.080   4.981 -0.6940  0.3920 -1.8830
 5271SOL     OW27274   1.725   4.558   2.988  0.0624  0.2328 -0.4501
 5271SOL    HW127275   1.648   4.606   3.018 -1.9353 -2.3352 -1.4785
 5271SOL    HW227276   1.792   4.627   2.982 -1.6432  1.9495  0.3490
 5272SOL     OW27277   0.851   0.876   5.321 -0.0641  0.2658  0.5803
 5272SOL    HW127278   0.912   0.806   5.346  0.0527  0.1346 -0.0947
 5272SOL    HW227279   0.789   0.863   5.393 -0.2703  1.1843  0.5674
 5273SOL     OW27280   4.619   2.800   6.820  0.4864  0.2954 -0.3042
 5273SOL    HW127281   4.575   2.821   6.902  0.1213  0.2098 -0.4799
 5273SOL    HW227282   4.654   2.888   6.804  0.0307  0.6487  0.6392
 5274SOL     OW27283   4.154   3.699   5.465 -0.2863 -0.3460 -0.3583
 5274SOL    HW127284   4.123   3.765   5.402  1.0487 -0.6409 -1.3213
 5274SOL    HW227285   4.075   3.693   5.518 -2.2637  1.3318 -3.1278
 5275SOL     OW27286   4.363   1.980   5.695  0.4449  0.1582 -0.0879
 5275SOL    HW127287   4.453   1.976   5.727  0.5746 -0.1065 -0.4845
 5275SOL    HW227288   4.312   1.912   5.739  0.6130 -0.2914 -0.5894
 5276SOL     OW27289   1.790   3.864   5.825  0.4807  0.0381 -1.0771
 5276SOL    HW127290   1.760   3.945   5.867 -0.5518 -1.0620  0.3325
 5276SOL    HW227291   1.877   3.890   5.795  0.9139 -0.5125 -0.3053
 5277SOL     OW27292   1.188   4.187   6.872 -0.2133 -0.1894 -0.3242
 5277SOL    HW127293   1.249   4.159   6.804  0.5997  0.2802  0.2123
 5277SOL    HW227294   1.176   4.280   6.856 -1.5978 -0.1505  0.9309
 5278SOL     OW27295   4.211   2.649   7.851 -0.0162  0.5322  0.5598
 5278SOL    HW127296   4.186   2.570   7.803 -1.1300  2.0554 -1.3784
 5278SOL    HW227297   4.258   2.604   7.921 -0.0891 -0.3028  0.0756
 5279SOL     OW27298   4.512   2.914   7.514 -0.4883 -0.3719 -0.0517
 5279SOL    HW127299   4.451   2.927   7.587 -1.3872  0.0698 -0.8992
 5279SOL    HW227300   4.445   2.890   7.451  0.4286  0.3922 -1.3067
 5280SOL     OW27301   1.314   4.003   0.574  0.0056  0.1620 -0.2086
 5280SOL    HW127302   1.320   4.070   0.643 -0.0529  0.0462 -0.0903
 5280SOL    HW227303   1.343   3.925   0.620 -1.6100  0.0970  0.7136
 5281SOL     OW27304   3.273   0.556  12.148  0.2360  0.1037 -0.3883
 5281SOL    HW127305   3.304   0.492  12.084  0.9533 -1.1321  1.2074
 5281SOL    HW227306   3.342   0.535  12.211  1.1309  0.1919 -1.3326
 5282SOL     OW27307   1.784   3.313   4.260  0.0751  0.0750  0.0114
 5282SOL    HW127308   1.735   3.395   4.252  1.4684  1.0328  1.3201
 5282SOL    HW227309   1.843   3.333   4.333  1.9350 -0.4911 -1.3322
 5283SOL     OW27310   4.686   2.026   1.936  0.3066 -0.3063 -0.1623
 5283SOL    HW127311   0.054   1.997   1.957 -0.1101 -0.5196  1.3114
 5283SOL    HW227312   4.679   2.107   1.986 -3.2745 -0.6826 -0.0219
 5284SOL     OW27313   1.815   2.363   5.548 -0.0482 -0.1886  0.3100
 5284SOL    HW127314   1.740   2.335   5.496  0.0046  1.2997 -0.5666
 5284SOL    HW227315   1.772   2.387   5.631  2.1004 -1.1555  1.7057
 5285SOL     OW27316   1.296   0.311   5.866  0.4863  0.2071  0.6589
 5285SOL    HW127317   1.214   0.359   5.853 -0.4528 -2.0191 -1.6203
 5285SOL    HW227318   1.350   0.389   5.858  0.0938  0.7164  2.8971
 5286SOL     OW27319   2.087   2.843  12.293  0.2816  0.1831  0.0495
 5286SOL    HW127320   2.106   2.754  12.323  0.9802 -0.3457 -1.9560
 5286SOL    HW227321   2.090   2.896  12.372 -1.8658  0.2312  0.1096
 5287SOL     OW27322   1.890   2.258   7.698  0.0821 -0.8670 -0.2187
 5287SOL    HW127323   1.974   2.230   7.734 -0.3315 -1.1963  0.4857
 5287SOL    HW227324   1.887   2.346   7.736  2.2900 -0.0772 -1.8694
 5288SOL     OW27325   1.347   4.643   8.265  0.9471 -0.1191  0.7354
 5288SOL    HW127326   1.311   4.556   8.246 -1.1553  0.8403  0.2662
 5288SOL    HW227327   1.271   4.684   8.307  2.3108  2.1050  1.0528
 5289SOL     OW27328   4.240   0.232  15.544  0.0661  0.8522  0.6602
 5289SOL    HW127329   4.179   0.163  15.517  2.1860  0.1212 -2.2914
 5289SOL    HW227330   4.231   0.234  15.639  2.3364  1.1597  0.8692
 5290SOL     OW27331   4.074   0.720   4.073  0.2285  0.1395 -0.0602
 5290SOL    HW127332   4.007   0.774   4.031 -0.5482  0.1654  1.1991
 5290SOL    HW227333   4.045   0.731   4.164 -2.7028  0.4395 -1.0266
 5291SOL     OW27334   0.245   0.595   0.314 -0.3567 -0.1533  0.6214
 5291SOL    HW127335   0.340   0.593   0.297 -0.2952  1.7472  0.7980
 5291SOL    HW227336   0.209   0.507   0.303  4.8709 -2.6432  2.9322
 5292SOL     OW27337   3.388   3.374   7.969 -0.2453 -0.5586 -0.8188
 5292SOL    HW127338   3.381   3.421   8.052 -0.9601 -1.5081 -0.3389
 5292SOL    HW227339   3.435   3.297   8.001  1.2452  0.9216  0.5063
 5293SOL     OW27340   2.274   1.970   8.461 -0.0710  0.2145  0.2551
 5293SOL    HW127341   2.297   2.006   8.375  0.1880  1.4177  0.8412
 5293SOL    HW227342   2.353   1.975   8.514 -1.0082 -0.3575  1.6912
 5294SOL     OW27343   2.327   3.492   6.141  0.0174 -0.2859  0.0168
 5294SOL    HW127344   2.405   3.532   6.178 -0.7177  0.5383  0.6709
 5294SOL    HW227345   2.340   3.402   6.172 -2.5757 -0.4124  0.7379
 5295SOL     OW27346   1.676   2.151   3.182 -0.0012 -0.0376  0.4480
 5295SOL    HW127347   1.760   2.111   3.159 -0.8775 -0.4984 -2.0015
 5295SOL    HW227348   1.623   2.072   3.193 -0.6446  0.2324 -0.6650
 5296SOL     OW27349   1.771   4.205   6.914 -0.4168  0.1192 -0.1631
 5296SOL    HW127350   1.695   4.172   6.962 -0.3646  2.5360  1.5286
 5296SOL    HW227351   1.742   4.291   6.883 -0.6699 -0.0321 -0.3562
 5297SOL     OW27352   0.896   4.426   3.544  0.1295 -0.1700 -0.0640
 5297SOL    HW127353   0.981   4.397   3.576 -0.0535 -0.6596 -0.0268
 5297SOL    HW227354   0.863   4.475   3.619 -0.5211 -0.2938 -0.2730
 5298SOL     OW27355   3.417   1.915  10.987 -0.1216  0.2040  0.2555
 5298SOL    HW127356   3.412   1.833  10.937  0.5268  0.9499 -1.0458
 5298SOL    HW227357   3.353   1.967  10.938  2.3158  1.5213 -1.5982
 5299SOL     OW27358   3.477   0.991   3.563 -0.8179  0.4149  0.3615
 5299SOL    HW127359   3.516   0.970   3.479 -0.5797 -0.6228  0.7320
 5299SOL    HW227360   3.385   1.015   3.554 -0.1923  2.3769 -0.8524
 5300SOL     OW27361   1.742   4.461  17.154  0.4879 -0.1511  0.0071
 5300SOL    HW127362   1.671   4.478  17.216  0.1667 -1.6295  0.0375
 5300SOL    HW227363   1.695   4.390  17.112 -1.9354  1.8468 -0.6944
 5301SOL     OW27364   3.848   3.133   2.342 -0.4273 -0.9231 -0.0309
 5301SOL    HW127365   3.754   3.124   2.355 -0.1187 -1.9997  1.5463
 5301SOL    HW227366   3.870   3.080   2.265  0.5475  0.0466 -0.4195
 5302SOL     OW27367   2.999   3.000   7.020  0.5692  0.0889  0.0869
 5302SOL    HW127368   2.935   3.062   6.985  0.0164  0.3331  1.5354
 5302SOL    HW227369   2.955   2.968   7.099  2.1990 -1.9104  0.1662
 5303SOL     OW27370   4.501   2.837   6.336  0.4690  0.6331 -0.5603
 5303SOL    HW127371   4.543   2.921   6.315  0.6084  0.4892 -0.8685
 5303SOL    HW227372   4.482   2.814   6.245  1.5700 -0.6175 -0.4827
 5304SOL     OW27373   2.133   2.840   6.508 -0.2132 -0.1076  0.0405
 5304SOL    HW127374   2.116   2.915   6.450  1.7933  0.1177 -0.2701
 5304SOL    HW227375   2.086   2.863   6.588  1.2453 -1.2846  1.2331
 5305SOL     OW27376   2.600   1.450   7.741  0.2847  0.4556  0.1695
 5305SOL    HW127377   2.627   1.542   7.742 -0.6616  0.7471 -1.1086
 5305SOL    HW227378   2.668   1.418   7.682 -0.4112  2.0264 -1.4735
 5306SOL     OW27379   3.365   3.921  16.765 -0.0421 -0.2617  0.3212
 5306SOL    HW127380   3.365   3.843  16.709 -0.2035 -0.3818  0.4900
 5306SOL    HW227381   3.437   3.965  16.720 -0.2152 -0.0506  0.2500
 5307SOL     OW27382   2.690   0.170   3.260  0.0672 -0.0159  0.8031
 5307SOL    HW127383   2.670   0.105   3.193  0.5160  1.0051 -0.3209
 5307SOL    HW227384   2.721   0.234   3.196  0.6110  0.5979  1.6779
 5308SOL     OW27385   1.991   3.563   9.129  0.0535 -0.2659 -0.5523
 5308SOL    HW127386   1.976   3.656   9.146  0.1924 -0.7437  2.1553
 5308SOL    HW227387   2.086   3.572   9.120  0.1447 -2.1266 -1.5389
 5309SOL     OW27388   4.270   3.354   1.873  0.3903 -0.6757  0.6743
 5309SOL    HW127389   4.296   3.436   1.832 -0.9838 -0.4297  0.3170
 5309SOL    HW227390   4.317   3.289   1.820  0.4793  0.9105 -1.1907
 5310SOL     OW27391   0.088   3.078  16.580 -0.0009  0.6690 -0.1227
 5310SOL    HW127392   0.022   3.075  16.511  1.4307 -0.1352 -1.4585
 5310SOL    HW227393   0.049   3.135  16.647 -1.9628  0.9349 -1.4983
 5311SOL     OW27394   1.626   3.241   7.901  0.0705 -0.0211  0.5502
 5311SOL    HW127395   1.676   3.181   7.956  0.7495  0.5510  0.5484
 5311SOL    HW227396   1.543   3.195   7.887 -0.8131  1.7536 -0.0232
 5312SOL     OW27397   2.588   2.647   1.011  0.0893  0.1099  0.0119
 5312SOL    HW127398   2.566   2.562   1.050  0.1663  0.2971  0.4731
 5312SOL    HW227399   2.645   2.686   1.077  0.1589  0.1421 -0.0681
 5313SOL     OW27400   1.902   0.851   6.875 -0.8542 -0.6619 -0.0660
 5313SOL    HW127401   1.820   0.900   6.885 -1.2358 -1.2215 -0.4469
 5313SOL    HW227402   1.931   0.850   6.966 -1.8619 -3.0751  0.2149
 5314SOL     OW27403   3.912   2.621   2.281 -0.3990  0.7308  0.0841
 5314SOL    HW127404   3.863   2.593   2.359  1.0629  1.2475  1.1684
 5314SOL    HW227405   3.840   2.630   2.218  0.2535  0.3429 -0.7210
 5315SOL     OW27406   3.799   3.627   8.097 -0.0174 -0.0535  0.0256
 5315SOL    HW127407   3.759   3.610   8.182 -0.6331 -0.3431 -0.3196
 5315SOL    HW227408   3.720   3.613   8.044 -0.3517 -0.3507  0.6059
 5316SOL     OW27409   1.057   2.205   8.960 -0.3897 -0.1245 -0.1525
 5316SOL    HW127410   1.127   2.146   8.988 -1.5675 -2.0243 -1.2000
 5316SOL    HW227411   1.016   2.220   9.045  0.8155  0.3697  0.3393
 5317SOL     OW27412   3.023   3.445   7.264 -0.4394  0.1794 -0.0929
 5317SOL    HW127413   3.051   3.414   7.178 -0.9860  0.4609 -0.3753
 5317SOL    HW227414   2.974   3.371   7.302 -0.2551  1.0794  1.8944
 5318SOL     OW27415   3.488   2.334   1.834  0.4289  0.8638 -0.4783
 5318SOL    HW127416   3.432   2.311   1.908 -0.7420 -1.5725 -2.1237
 5318SOL    HW227417   3.428   2.359   1.763  2.1826  1.4222 -1.7857
 5319SOL     OW27418   2.271   1.298   2.442  0.5094 -0.1059  0.2764
 5319SOL    HW127419   2.306   1.373   2.490 -1.5673  2.7935 -2.7638
 5319SOL    HW227420   2.192   1.332   2.402  1.9535 -0.0297 -2.4895
 5320SOL     OW27421   2.014   1.905   3.340  0.3220 -0.1509  0.5159
 5320SOL    HW127422   1.925   1.872   3.333 -0.4824  2.4681 -1.5270
 5320SOL    HW227423   2.011   1.990   3.295  1.5092 -0.6205 -0.4455
 5321SOL     OW27424   0.490   3.683   8.333 -0.1317 -0.0803 -0.0601
 5321SOL    HW127425   0.445   3.642   8.259  1.0527 -0.0960 -0.7714
 5321SOL    HW227426   0.582   3.685   8.307  0.6317 -0.0167  2.6419
 5322SOL     OW27427   1.063   1.749   3.284 -0.0485 -0.0341 -0.5991
 5322SOL    HW127428   1.019   1.694   3.349  0.4151  0.6141  0.2740
 5322SOL    HW227429   1.116   1.679   3.246 -0.2718 -0.7456  0.3941
 5323SOL     OW27430   4.403   0.010   0.789 -0.0785  0.5163 -0.5068
 5323SOL    HW127431   4.417   4.642   0.756 -2.7289 -0.3380  0.6722
 5323SOL    HW227432   4.474   0.027   0.850 -1.0340 -0.9438  1.0053
 5324SOL     OW27433   2.923   2.282   5.679 -0.2118 -0.2600  0.4727
 5324SOL    HW127434   2.845   2.263   5.732 -0.7692 -0.0969 -0.2773
 5324SOL    HW227435   2.932   2.205   5.622 -2.6343  0.7144 -1.2189
 5325SOL     OW27436   2.735   3.733   2.248 -0.3315  0.4017  0.3183
 5325SOL    HW127437   2.678   3.808   2.234  1.9344  2.1208  0.2705
 5325SOL    HW227438   2.737   3.697   2.159 -1.8703 -0.6853  0.7245
 5326SOL     OW27439   0.555   1.278  11.685  0.8644 -1.0216  0.0650
 5326SOL    HW127440   0.469   1.235  11.684  0.7267 -0.7360 -1.2373
 5326SOL    HW227441   0.574   1.250  11.774 -0.2469  0.8255  0.8747
 5327SOL     OW27442   0.231   3.589   5.686 -0.2287 -0.2742  0.0257
 5327SOL    HW127443   0.276   3.537   5.752 -0.6483 -0.1982  0.3743
 5327SOL    HW227444   0.136   3.576   5.695 -0.5597  0.2443 -2.5490
 5328SOL     OW27445   0.351   4.146  16.770 -0.4298 -0.2122  0.4460
 5328SOL    HW127446   0.336   4.072  16.711 -1.8425  2.9115 -3.1509
 5328SOL    HW227447   0.406   4.105  16.837 -0.1070  0.7885  0.7923
 5329SOL     OW27448   0.573   2.118  11.250  0.4825  0.0556  0.2087
 5329SOL    HW127449   0.555   2.058  11.323 -0.1935 -1.6393 -1.3559
 5329SOL    HW227450   0.481   2.137  11.231 -0.0817 -0.2647  2.6348
 5330SOL     OW27451   3.395   3.164   8.431  0.0334 -0.4132  0.6392
 5330SOL    HW127452   3.470   3.154   8.490  0.3469 -0.8884  0.1642
 5330SOL    HW227453   3.331   3.199   8.492 -1.6665 -3.0270  0.3555
 5331SOL     OW27454   0.915   0.077  11.605 -0.6682 -0.1178  0.5324
 5331SOL    HW127455   0.930   0.128  11.685 -2.7910  1.7088 -0.2250
 5331SOL    HW227456   0.956   4.717  11.634 -1.0043 -0.0802  1.1214
 5332SOL     OW27457   3.406   4.320   9.817  0.4952  0.9571  0.1850
 5332SOL    HW127458   3.322   4.366   9.811 -1.0137 -1.7897  0.4748
 5332SOL    HW227459   3.381   4.230   9.837 -2.0385  0.7457 -3.8683
 5333SOL     OW27460   1.402   1.035   9.401 -0.4261 -0.3659  0.2449
 5333SOL    HW127461   1.317   1.030   9.357  0.9525  1.1015 -2.5665
 5333SOL    HW227462   1.463   1.033   9.327 -1.1701 -2.1559 -0.3237
 5334SOL     OW27463   1.539   0.925  15.188  0.1996 -0.3433  0.3906
 5334SOL    HW127464   1.548   0.955  15.278  1.7866  3.3803 -1.0340
 5334SOL    HW227465   1.630   0.916  15.159  0.6176 -0.1322  1.6302
 5335SOL     OW27466   4.665   4.301   7.819 -0.4387  0.0075 -0.5916
 5335SOL    HW127467   4.625   4.271   7.900  2.1204 -0.4487  0.5207
 5335SOL    HW227468   0.033   4.320   7.850 -0.7728  1.1247 -0.3328
 5336SOL     OW27469   1.259   0.905  15.036 -0.2392 -0.2503 -0.3293
 5336SOL    HW127470   1.350   0.885  15.059 -0.6624 -1.8883 -0.1004
 5336SOL    HW227471   1.272   0.923  14.943  2.4603 -1.6360 -0.2285
 5337SOL     OW27472   1.628   1.383   2.394 -0.3941 -0.2070 -0.5350
 5337SOL    HW127473   1.673   1.423   2.320 -0.2346 -0.4226 -0.5569
 5337SOL    HW227474   1.591   1.460   2.437 -1.1572  0.2066 -1.9644
 5338SOL     OW27475   4.532   2.484  13.529  0.0098  0.9621  0.3415
 5338SOL    HW127476   4.517   2.463  13.437  1.0617  2.3910 -0.1553
 5338SOL    HW227477   4.625   2.507  13.528  0.2372  0.0066 -0.2708
 5339SOL     OW27478   4.251   3.156  13.923 -0.0803  0.4345  0.6247
 5339SOL    HW127479   4.272   3.100  13.848 -0.8492 -0.0424  0.7725
 5339SOL    HW227480   4.210   3.227  13.874 -1.6759 -0.9222 -0.0263
 5340SOL     OW27481   0.189   0.804   5.281  0.4612 -0.4647  0.5424
 5340SOL    HW127482   0.160   0.842   5.199 -1.5975 -0.9209  1.0434
 5340SOL    HW227483   0.116   0.744   5.300  0.8158 -0.4581  1.9267
 5341SOL     OW27484   2.343   3.333   2.808 -0.0408  0.4090 -0.0368
 5341SOL    HW127485   2.291   3.365   2.735  0.2178 -1.3421 -0.9842
 5341SOL    HW227486   2.431   3.353   2.774  0.0997 -0.9329 -0.4485
 5342SOL     OW27487   0.484   4.240   9.725 -0.3815 -0.3920  0.1195
 5342SOL    HW127488   0.454   4.173   9.788 -1.5183 -0.1968 -0.2216
 5342SOL    HW227489   0.566   4.203   9.691 -1.5179 -2.7554 -0.0463
 5343SOL     OW27490   0.798   2.823   3.238 -0.1687  0.0251 -0.2536
 5343SOL    HW127491   0.848   2.900   3.209  1.5284 -1.1220 -0.3879
 5343SOL    HW227492   0.755   2.853   3.318 -1.5421 -0.7692 -0.6936
 5344SOL     OW27493   1.222   2.113   3.963  0.2357 -0.2183 -0.3145
 5344SOL    HW127494   1.227   2.183   3.898 -0.2117  0.1990  0.0906
 5344SOL    HW227495   1.262   2.038   3.920  1.2096  0.7850 -1.1586
 5345SOL     OW27496   1.145   0.449  13.355  0.1086 -0.4408 -0.3762
 5345SOL    HW127497   1.121   0.414  13.269 -1.5657 -1.6890  0.6068
 5345SOL    HW227498   1.138   0.541  13.333  2.2030  0.1233  1.2617
 5346SOL     OW27499   1.389   3.112  11.510 -0.1539  0.2898  0.4591
 5346SOL    HW127500   1.452   3.137  11.578  1.5748  0.6571 -1.3003
 5346SOL    HW227501   1.460   3.107  11.446 -0.2478  0.0358  0.3756
 5347SOL     OW27502   1.314   0.650   7.639 -0.1840  0.2878 -0.2864
 5347SOL    HW127503   1.229   0.678   7.605 -1.3335  0.7273  2.9623
 5347SOL    HW227504   1.310   0.556   7.620  1.2014 -0.1660  1.6308
 5348SOL     OW27505   3.697   3.638   7.181 -0.0684 -0.6588  0.1050
 5348SOL    HW127506   3.656   3.646   7.267  0.3546 -1.9542  0.4295
 5348SOL    HW227507   3.783   3.603   7.207 -0.1427 -1.4745 -0.7452
 5349SOL     OW27508   3.335   0.115   6.830  0.1676  0.3103  0.3121
 5349SOL    HW127509   3.282   0.195   6.822  0.6705  0.6265  0.1581
 5349SOL    HW227510   3.284   0.054   6.883 -0.3192  0.3567 -0.1057
 5350SOL     OW27511   0.716   4.565   1.868  0.1290 -0.5809  0.4436
 5350SOL    HW127512   0.801   4.558   1.912 -0.0899 -0.8453  0.8216
 5350SOL    HW227513   0.647   4.534   1.927 -2.1721 -0.2823 -2.0895
 5351SOL     OW27514   1.968   4.622  16.504  0.2054  0.2091 -0.0521
 5351SOL    HW127515   1.910   4.619  16.428  0.2996  0.6647 -0.1394
 5351SOL    HW227516   2.050   4.625  16.454 -0.1053 -3.3060 -0.7633
 5352SOL     OW27517   4.588   4.675   6.909 -0.2384  0.3132 -0.3685
 5352SOL    HW127518   4.630   4.620   6.975  0.1857  2.5185  1.1941
 5352SOL    HW227519   4.637   0.034   6.924  0.9130 -0.3487 -0.5603
 5353SOL     OW27520   3.716   1.597   7.232  0.0223  0.4188  0.2282
 5353SOL    HW127521   3.688   1.685   7.204 -0.5576  0.6479  1.5119
 5353SOL    HW227522   3.640   1.545   7.206  0.6545 -0.1597 -0.4747
 5354SOL     OW27523   1.014   4.379   0.751  0.3205  0.3914  0.1402
 5354SOL    HW127524   1.078   4.354   0.684 -1.6227  1.5461 -2.1724
 5354SOL    HW227525   1.026   4.316   0.822  0.7785 -0.6590 -0.8601
 5355SOL     OW27526   3.106   4.680  11.998  1.1794  0.2109  0.1659
 5355SOL    HW127527   3.172   4.712  11.937  1.2898  0.9860  0.6984
 5355SOL    HW227528   3.056   4.612  11.952  1.2507  0.0400  0.3430
 5356SOL     OW27529   3.545   3.620   6.507  0.3192 -0.2955 -0.4883
 5356SOL    HW127530   3.451   3.614   6.523  0.2694  0.0636 -0.6511
 5356SOL    HW227531   3.566   3.713   6.519 -2.0372 -0.2996  3.6151
 5357SOL     OW27532   4.578   3.588   3.977  0.5410  0.2562 -0.5271
 5357SOL    HW127533   4.636   3.519   4.009 -0.5417  0.4120  1.7489
 5357SOL    HW227534   4.620   3.607   3.893 -1.9696  0.1014 -1.8114
 5358SOL     OW27535   2.149   3.928   8.711 -0.0763  0.3824  0.4471
 5358SOL    HW127536   2.128   3.987   8.784 -2.8561  1.6844 -1.4035
 5358SOL    HW227537   2.111   3.978   8.638 -0.2129  0.0204  0.2727
 5359SOL     OW27538   3.481   0.573   7.135  0.1848 -0.2442 -0.4239
 5359SOL    HW127539   3.576   0.567   7.123  0.2929 -0.2906  0.4589
 5359SOL    HW227540   3.458   0.532   7.052 -0.5840 -0.8332  0.0863
 5360SOL     OW27541   2.194   0.442   6.363  0.2376  0.4071  0.3238
 5360SOL    HW127542   2.223   0.523   6.404 -2.1153  0.2754  2.2193
 5360SOL    HW227543   2.280   0.404   6.344  0.2678  1.1033 -0.9861
 5361SOL     OW27544   1.301   0.135  14.101  0.0511  0.0852  0.5661
 5361SOL    HW127545   1.263   0.059  14.147 -2.1679  0.7036 -0.2069
 5361SOL    HW227546   1.246   0.197  14.148 -1.1817 -1.6730  1.4453
 5362SOL     OW27547   3.372   1.764  16.043 -0.0806  0.3335  0.3146
 5362SOL    HW127548   3.371   1.820  16.120 -1.0669  1.1949 -0.3284
 5362SOL    HW227549   3.285   1.777  16.007  1.0517  0.0352 -2.5226
 5363SOL     OW27550   3.577   3.874   1.216  0.1511  0.3727  0.5231
 5363SOL    HW127551   3.628   3.925   1.278 -0.3766  1.0044  0.4349
 5363SOL    HW227552   3.585   3.789   1.260  2.2873  0.7243  0.8111
 5364SOL     OW27553   1.636   3.280   9.135 -0.2406  0.0075  0.0445
 5364SOL    HW127554   1.567   3.343   9.115 -0.6813 -0.6031 -0.3405
 5364SOL    HW227555   1.708   3.315   9.083 -0.7167  1.4052  0.3117
 5365SOL     OW27556   1.013   2.561   5.002 -0.5519 -0.1376 -0.0380
 5365SOL    HW127557   1.047   2.597   4.920 -0.8839  1.6790  0.6238
 5365SOL    HW227558   1.074   2.606   5.061 -1.8591 -1.4671  2.3088
 5366SOL     OW27559   3.612   2.471   7.704  0.0844  0.3743 -0.2459
 5366SOL    HW127560   3.652   2.384   7.709  0.4347  0.6070  0.9500
 5366SOL    HW227561   3.575   2.467   7.793  1.1034 -1.2057  0.1155
 5367SOL     OW27562   1.693   1.977   7.327  0.2717  0.1070  0.2752
 5367SOL    HW127563   1.761   2.008   7.386  0.6910  2.7040 -1.5869
 5367SOL    HW227564   1.627   2.025   7.378 -0.8530 -1.4172  0.2492
 5368SOL     OW27565   1.871   2.703   7.942  0.3741  0.0593  0.3798
 5368SOL    HW127566   1.958   2.665   7.927  0.0975  0.0488 -1.2319
 5368SOL    HW227567   1.856   2.726   7.850 -2.5281  0.5916  0.9934
 5369SOL     OW27568   1.042   1.711   3.768  0.4841  0.0092 -0.6341
 5369SOL    HW127569   0.991   1.781   3.808 -4.0863 -2.2864 -2.3916
 5369SOL    HW227570   1.009   1.636   3.818  3.0194  0.1343  1.1911
 5370SOL     OW27571   3.692   3.039   4.428  0.4641  0.0795  0.7404
 5370SOL    HW127572   3.757   2.977   4.460  0.1993 -0.2915  0.5636
 5370SOL    HW227573   3.648   2.987   4.361  0.6489  0.8267  0.0402
 5371SOL     OW27574   2.281   1.032   2.488  0.0655 -0.5093  0.5245
 5371SOL    HW127575   2.274   1.002   2.579  0.9168  3.0793  1.7827
 5371SOL    HW227576   2.260   1.126   2.491  0.6841 -0.3018 -1.8162
 5372SOL     OW27577   3.217   0.472   3.771 -0.6207 -0.5331  0.6776
 5372SOL    HW127578   3.294   0.500   3.821 -0.0748 -0.7330 -0.0596
 5372SOL    HW227579   3.175   0.437   3.850 -0.0908 -0.1583  1.1260
 5373SOL     OW27580   3.908   3.409  13.107 -0.4164  0.4214 -0.3744
 5373SOL    HW127581   3.899   3.465  13.184  1.2378  0.8636 -0.5030
 5373SOL    HW227582   3.994   3.440  13.079 -0.8801  1.4666 -0.6117
 5374SOL     OW27583   0.988   1.220  15.257  0.0825 -0.1629 -0.1266
 5374SOL    HW127584   0.951   1.247  15.173  3.1992  1.0982 -1.0934
 5374SOL    HW227585   1.014   1.131  15.233  0.5744 -0.0741  0.0722
 5375SOL     OW27586   3.209   2.557   3.838  0.0928 -0.1952 -0.3445
 5375SOL    HW127587   3.240   2.488   3.896 -1.3572 -0.0915  0.5451
 5375SOL    HW227588   3.262   2.631   3.868 -2.5152  1.3864  0.3123
 5376SOL     OW27589   2.123   0.464   8.174  0.3087  0.9131  0.0753
 5376SOL    HW127590   2.185   0.503   8.234  1.1884  0.8113 -0.7629
 5376SOL    HW227591   2.037   0.465   8.215 -0.1116  0.2713 -0.7748
 5377SOL     OW27592   3.446   1.627   9.217  0.3065 -0.4886  0.4456
 5377SOL    HW127593   3.433   1.540   9.179  0.0537  0.6602 -2.0692
 5377SOL    HW227594   3.375   1.674   9.175  0.5270 -1.5439 -1.1128
 5378SOL     OW27595   2.540   0.280   5.772  0.6863 -0.7602 -0.7850
 5378SOL    HW127596   2.478   0.207   5.775 -1.8702  1.4503  1.9602
 5378SOL    HW227597   2.582   0.265   5.857  1.0280 -0.1331 -0.8474
 5379SOL     OW27598   1.805   3.303   9.371  0.1725  0.5556 -0.6603
 5379SOL    HW127599   1.805   3.212   9.402 -1.1573  1.2773  1.4706
 5379SOL    HW227600   1.748   3.301   9.294 -2.4036  0.3360  1.2513
 5380SOL     OW27601   1.487   3.887   5.672  0.1197  0.0997 -0.9295
 5380SOL    HW127602   1.417   3.949   5.691 -1.0477 -1.2599 -0.7606
 5380SOL    HW227603   1.510   3.854   5.759  1.0641  1.2983 -0.7224
 5381SOL     OW27604   1.846   2.343   0.130  0.2154 -0.5114 -0.2379
 5381SOL    HW127605   1.786   2.393   0.075  1.6306  0.1359 -1.1779
 5381SOL    HW227606   1.813   2.254   0.120 -2.9847  0.5425  0.9772
 5382SOL     OW27607   0.188   2.651  15.388 -0.0538  0.3975  0.1847
 5382SOL    HW127608   0.143   2.733  15.370 -1.8796 -1.0282 -1.7122
 5382SOL    HW227609   0.164   2.636  15.480  3.5738  2.0542  1.3977
 5383SOL     OW27610   3.426   2.119  15.683 -0.4235 -0.2863 -1.2152
 5383SOL    HW127611   3.408   2.166  15.602  1.3197 -1.5296 -2.3338
 5383SOL    HW227612   3.506   2.072  15.660 -0.1246  0.6281 -2.0574
 5384SOL     OW27613   0.320   1.195   0.214  0.2012 -0.0836 -0.0871
 5384SOL    HW127614   0.362   1.233   0.291  0.3294 -2.1167  0.8386
 5384SOL    HW227615   0.227   1.211   0.228  0.5228  2.0454 -0.3653
 5385SOL     OW27616   1.969   0.286   4.704 -0.1002  0.2507 -0.4345
 5385SOL    HW127617   2.044   0.345   4.697 -0.1942  0.5271  1.0107
 5385SOL    HW227618   1.900   0.339   4.665 -2.1037 -0.9546  1.4843
 5386SOL     OW27619   2.890   0.904   9.595  0.2681  0.2701 -0.1977
 5386SOL    HW127620   2.967   0.958   9.578 -0.4012  0.9299 -1.0924
 5386SOL    HW227621   2.898   0.894   9.690 -0.0869  0.4375 -0.1506
 5387SOL     OW27622   1.318   1.898   2.199  0.3827 -0.6572 -0.7144
 5387SOL    HW127623   1.239   1.941   2.233  0.4475 -2.3940  1.6692
 5387SOL    HW227624   1.299   1.813   2.239  2.1790 -0.3351  0.8087
 5388SOL     OW27625   1.590   3.045   8.924 -0.9820  0.2154 -0.9857
 5388SOL    HW127626   1.566   3.134   8.897 -2.2619  0.3997  0.7040
 5388SOL    HW227627   1.672   3.064   8.970 -0.1225 -1.2186 -1.9611
 5389SOL     OW27628   1.031   1.504   6.317 -0.3143  0.1041  0.0505
 5389SOL    HW127629   0.957   1.510   6.256 -0.5567 -2.1613  0.1270
 5389SOL    HW227630   1.084   1.577   6.286 -0.9662  0.9623  0.9560
 5390SOL     OW27631   4.304   4.219   3.278  0.2290 -0.1289 -0.6280
 5390SOL    HW127632   4.210   4.232   3.266  0.1426  2.3040  2.7948
 5390SOL    HW227633   4.322   4.144   3.335 -0.6806  0.7758  0.8349
 5391SOL     OW27634   3.981   0.903   0.509  0.3832 -0.1253 -0.3727
 5391SOL    HW127635   4.065   0.863   0.485 -0.0154 -2.3331  1.8813
 5391SOL    HW227636   3.922   0.860   0.447 -1.2052 -0.6129  1.4549
 5392SOL     OW27637   2.060   0.543   3.978  0.6165  0.4026 -0.4836
 5392SOL    HW127638   2.150   0.517   3.999 -0.1217 -2.6252 -1.0869
 5392SOL    HW227639   2.017   0.459   3.960  3.3511 -1.0777 -0.1160
 5393SOL     OW27640   2.830   0.091  15.835  0.0104 -0.8455 -0.2001
 5393SOL    HW127641   2.854   0.062  15.923 -1.1636 -1.6504 -0.1423
 5393SOL    HW227642   2.912   0.135  15.813  0.8699 -1.3840  2.0044
 5394SOL     OW27643   1.036   4.019   2.273 -0.1503  0.8153  0.2611
 5394SOL    HW127644   1.084   4.000   2.354  0.1764 -2.5133 -0.7059
 5394SOL    HW227645   1.077   4.103   2.255  1.0259  0.1978  0.0274
 5395SOL     OW27646   0.155   1.039  12.016  0.0873  0.2049 -0.1418
 5395SOL    HW127647   0.239   1.012  11.980  0.3674  3.7189 -2.0534
 5395SOL    HW227648   0.136   0.976  12.086 -2.1814  2.7037  1.4841
 5396SOL     OW27649   0.286   2.030   7.129 -0.3886 -0.0910 -0.0742
 5396SOL    HW127650   0.266   1.995   7.042  0.9647 -0.3759 -0.2714
 5396SOL    HW227651   0.247   1.963   7.183 -0.3792 -1.0170 -1.2218
 5397SOL     OW27652   3.261   1.463   4.136  0.8996 -0.1650 -0.2873
 5397SOL    HW127653   3.254   1.470   4.231 -1.9051 -0.2395 -0.4746
 5397SOL    HW227654   3.262   1.368   4.132 -0.7325 -0.1832 -0.5812
 5398SOL     OW27655   1.538   4.548  17.324  0.7102 -0.1548 -0.4075
 5398SOL    HW127656   1.552   4.577  17.414  1.6352 -0.2347 -0.5211
 5398SOL    HW227657   1.443   4.540  17.316  0.6485 -0.4373  0.6844
 5399SOL     OW27658   4.116   4.392   6.562  0.9556  0.0038 -0.1438
 5399SOL    HW127659   4.199   4.373   6.606  0.8564  0.4250  0.2213
 5399SOL    HW227660   4.153   4.425   6.480  1.5653  1.2556  0.6435
 5400SOL     OW27661   2.185   2.407   6.115  0.2981 -0.1490  0.0333
 5400SOL    HW127662   2.185   2.367   6.202  1.8030 -1.1311 -0.4189
 5400SOL    HW227663   2.092   2.396   6.094  0.1428  1.4013 -0.0335
 5401SOL     OW27664   3.549   0.288  14.211  0.5458  0.3838 -0.0197
 5401SOL    HW127665   3.551   0.327  14.298  2.6888 -0.1110  0.1361
 5401SOL    HW227666   3.483   0.349  14.177  0.5640 -0.8468 -2.2871
 5402SOL     OW27667   2.671   1.801   5.986  0.2735  0.3208  0.1259
 5402SOL    HW127668   2.652   1.713   6.019  0.3723 -0.0994 -0.9481
 5402SOL    HW227669   2.697   1.786   5.895  0.4585  0.3106  0.1796
 5403SOL     OW27670   2.110   1.821   9.968 -0.1826 -0.3185 -0.3468
 5403SOL    HW127671   2.074   1.785   9.887  0.7391  0.5504 -1.1388
 5403SOL    HW227672   2.128   1.747  10.025 -0.0379 -0.1391 -0.1595
 5404SOL     OW27673   1.290   3.238  15.669 -0.3474  0.4413  0.1923
 5404SOL    HW127674   1.379   3.233  15.705 -1.5254  1.0981  3.2057
 5404SOL    HW227675   1.294   3.189  15.587 -1.0971 -1.4546  1.2877
 5405SOL     OW27676   0.042   0.183  12.924 -0.0962  0.2553 -0.4672
 5405SOL    HW127677   0.083   0.105  12.887 -0.6688 -0.4445  0.3617
 5405SOL    HW227678   0.060   0.155  13.014  0.3480 -0.1157 -0.6730
 5406SOL     OW27679   2.932   1.345   8.617  0.7228 -0.0777  0.8319
 5406SOL    HW127680   3.027   1.341   8.614  0.7601  2.0324 -0.5147
 5406SOL    HW227681   2.899   1.298   8.540 -0.1171  2.1766 -0.1980
 5407SOL     OW27682   1.000   1.008   1.673 -0.0981  0.2525  0.2526
 5407SOL    HW127683   1.092   0.991   1.651  0.2589 -0.3722  2.2702
 5407SOL    HW227684   1.010   1.039   1.763 -1.5892  0.4478  0.3494
 5408SOL     OW27685   3.230   0.523   9.621  0.0426 -0.4644  0.3254
 5408SOL    HW127686   3.282   0.472   9.683 -0.2002 -1.6978 -0.4830
 5408SOL    HW227687   3.216   0.453   9.557 -0.3155  0.1018 -0.2184
 5409SOL     OW27688   3.439   3.481  14.942 -0.3610  0.0723  0.9162
 5409SOL    HW127689   3.495   3.447  15.012  2.8287 -1.3646 -2.3139
 5409SOL    HW227690   3.503   3.502  14.875 -0.5153 -1.2418  0.3619
 5410SOL     OW27691   2.687   2.716   9.833  0.1874 -0.4792  0.0511
 5410SOL    HW127692   2.753   2.756   9.890  0.3558  0.9046 -1.1021
 5410SOL    HW227693   2.698   2.622   9.845  1.9688 -0.3969 -0.8635
 5411SOL     OW27694   1.896   2.533   8.940  0.1749  0.5586  0.1936
 5411SOL    HW127695   1.919   2.505   9.029  0.3661  3.1704  0.9541
 5411SOL    HW227696   1.805   2.506   8.944 -0.0012  1.1140 -0.1202
 5412SOL     OW27697   1.322   0.121   0.299  0.2957 -0.2087  0.3412
 5412SOL    HW127698   1.295   0.202   0.256 -1.5932 -0.2883  1.4096
 5412SOL    HW227699   1.275   0.131   0.381  0.2115 -2.7433  0.6020
 5413SOL     OW27700   3.679   1.508   2.839  0.0857 -0.1185 -1.4834
 5413SOL    HW127701   3.590   1.526   2.869  0.4446 -1.0315  0.1423
 5413SOL    HW227702   3.725   1.555   2.908  0.9566  0.3360 -2.3730
 5414SOL     OW27703   0.243   0.391   0.573  0.2213 -0.0228 -0.2724
 5414SOL    HW127704   0.227   0.421   0.483  0.4265 -1.5088 -0.8020
 5414SOL    HW227705   0.159   0.410   0.616  1.9232 -0.2705  3.1141
 5415SOL     OW27706   1.362   1.023   5.876  0.3649  0.1376 -0.5300
 5415SOL    HW127707   1.337   1.105   5.834 -1.6842 -0.1629  0.0888
 5415SOL    HW227708   1.288   0.966   5.855  0.4895  0.5296 -2.0425
 5416SOL     OW27709   4.188   2.370   1.108 -0.2359  0.3451 -0.2477
 5416SOL    HW127710   4.214   2.461   1.124  3.8623 -0.6081 -1.2555
 5416SOL    HW227711   4.200   2.369   1.013 -0.1161 -2.9504 -0.2011
 5417SOL     OW27712   1.262   3.895   4.076  0.1208 -0.7586 -0.5743
 5417SOL    HW127713   1.257   3.864   4.166 -0.1369 -1.7310 -0.9240
 5417SOL    HW227714   1.223   3.822   4.026 -1.1049 -0.5592  0.0812
 5418SOL     OW27715   3.740   4.398  15.587 -0.1657  0.3445  0.3544
 5418SOL    HW127716   3.828   4.375  15.615  0.0799 -0.8343 -1.3772
 5418SOL    HW227717   3.718   4.457  15.659  0.3340 -1.9858  2.4201
 5419SOL     OW27718   0.198   3.734   1.735 -0.2994  0.0083 -0.0448
 5419SOL    HW127719   0.167   3.733   1.645 -2.8175 -0.4085  0.8146
 5419SOL    HW227720   0.127   3.778   1.782  0.7575  2.0206 -0.3233
 5420SOL     OW27721   2.166   1.515   3.040  0.3232 -0.2348 -0.5050
 5420SOL    HW127722   2.168   1.577   2.967 -1.6824  0.7417  0.2743
 5420SOL    HW227723   2.189   1.438   2.987  1.5234 -0.6259  0.6062
 5421SOL     OW27724   0.597   1.838   3.899 -0.2287 -0.2859  0.7841
 5421SOL    HW127725   0.550   1.848   3.816  0.9098  0.7035  0.2669
 5421SOL    HW227726   0.550   1.896   3.960  1.9060  2.2947 -0.0306
 5422SOL     OW27727   2.291   2.163   6.008  0.0891  0.5346 -0.9257
 5422SOL    HW127728   2.299   2.259   6.015  1.1744  0.5036 -1.7283
 5422SOL    HW227729   2.332   2.138   6.091  2.1062  4.6162 -0.6582
 5423SOL     OW27730   1.905   1.619  11.972  0.0351  0.1151  0.0590
 5423SOL    HW127731   1.831   1.615  11.912 -0.3049 -1.5010  0.5938
 5423SOL    HW227732   1.958   1.695  11.945  1.5598 -0.3610  1.6613
 5424SOL     OW27733   3.236   2.469   2.626 -0.8938 -0.0314  0.2416
 5424SOL    HW127734   3.288   2.492   2.549  1.8357 -1.3304  1.6995
 5424SOL    HW227735   3.253   2.374   2.623  1.0980  0.3153  0.6042
 5425SOL     OW27736   1.643   0.743  17.615 -0.8055  0.4272  0.2777
 5425SOL    HW127737   1.589   0.687  17.558 -0.9814  3.0111 -2.0665
 5425SOL    HW227738   1.573   0.796  17.653 -1.0499  1.2648 -1.3199
 5426SOL     OW27739   0.691   2.349   7.574 -0.0734 -0.2818 -0.0645
 5426SOL    HW127740   0.728   2.371   7.659 -2.1580 -0.8346  1.0015
 5426SOL    HW227741   0.640   2.271   7.598 -0.2809 -0.1985 -0.2324
 5427SOL     OW27742   1.517   0.107   4.112  0.1489 -0.3772  0.0850
 5427SOL    HW127743   1.492   0.169   4.043  1.9606  0.7826  0.4972
 5427SOL    HW227744   1.481   0.027   4.073 -1.0666  0.0151  0.3935
 5428SOL     OW27745   3.993   0.483  10.133 -0.1878 -0.1083 -0.3402
 5428SOL    HW127746   4.050   0.408  10.115  0.6483  0.7379 -1.1307
 5428SOL    HW227747   3.969   0.502  10.043 -0.7431 -2.4678 -0.7056
 5429SOL     OW27748   0.377   2.835  16.072 -0.4457 -0.1597 -0.6875
 5429SOL    HW127749   0.356   2.829  15.979 -2.9581 -1.5990 -0.0274
 5429SOL    HW227750   0.365   2.929  16.084  3.5801  0.3515 -0.4589
 5430SOL     OW27751   1.215   2.809   9.606  0.7606  0.5230  0.2613
 5430SOL    HW127752   1.260   2.883   9.645  1.6552  0.3907 -0.5198
 5430SOL    HW227753   1.241   2.824   9.515 -0.4596  0.4585 -0.0984
 5431SOL     OW27754   3.903   4.346  10.127  0.1341  0.4503  0.3036
 5431SOL    HW127755   3.949   4.263  10.119 -2.0363 -0.6164 -1.0832
 5431SOL    HW227756   3.891   4.346  10.222  3.0462 -2.2260  0.6615
 5432SOL     OW27757   1.246   1.009   0.359  0.2835  0.4281  0.4585
 5432SOL    HW127758   1.255   1.104   0.365  0.0220  0.5294 -0.6406
 5432SOL    HW227759   1.310   0.972   0.419 -0.9358  0.5682  1.8421
 5433SOL     OW27760   2.003   1.743   9.743 -0.3404 -0.0469 -0.4580
 5433SOL    HW127761   2.012   1.738   9.647 -0.6737  0.4185 -0.5158
 5433SOL    HW227762   1.919   1.697   9.747  1.0600 -2.3464  2.4442
 5434SOL     OW27763   3.230   3.151   6.972 -0.0114  0.2352  0.3721
 5434SOL    HW127764   3.151   3.109   7.006  0.6148 -2.0956 -1.0731
 5434SOL    HW227765   3.203   3.237   6.941  0.9771  0.5442  0.3505
 5435SOL     OW27766   4.072   3.639  13.251  0.6737 -0.4267  0.0416
 5435SOL    HW127767   4.022   3.721  13.248  0.1004 -0.7840 -0.1029
 5435SOL    HW227768   4.124   3.655  13.172 -1.0897 -1.7098 -1.3686
 5436SOL     OW27769   0.212   1.316   7.399  0.0512  0.1528  0.7912
 5436SOL    HW127770   0.272   1.358   7.461  1.7285 -3.0649  1.3447
 5436SOL    HW227771   0.268   1.312   7.322 -0.8567 -0.9540  0.1925
 5437SOL     OW27772   4.539   3.813  17.679  0.8456  0.7916 -0.0121
 5437SOL    HW127773   4.465   3.778   0.044  0.9940  0.4951 -0.0007
 5437SOL    HW227774   4.507   3.897  17.646  0.8459  1.1581  0.9183
 5438SOL     OW27775   2.201   2.598  14.958 -0.4600  0.3335  0.1995
 5438SOL    HW127776   2.252   2.573  14.882  1.7884 -1.1740  2.2005
 5438SOL    HW227777   2.112   2.598  14.924  0.4698 -0.2051 -2.1980
 5439SOL     OW27778   4.545   3.371   2.928  0.0014 -0.4994 -0.3480
 5439SOL    HW127779   4.526   3.311   3.000 -0.5271  1.0654  0.8470
 5439SOL    HW227780   4.600   3.318   2.871  2.4180  1.1026  0.4941
 5440SOL     OW27781   1.848   1.034   7.563  0.3298  0.2541  0.5716
 5440SOL    HW127782   1.826   1.078   7.645 -0.7102  1.7992 -0.5524
 5440SOL    HW227783   1.913   0.967   7.586 -0.7182 -1.3600 -1.1692
 5441SOL     OW27784   4.462   1.139   2.172  0.5590  0.1951  0.1360
 5441SOL    HW127785   4.375   1.176   2.158 -0.3616 -2.3912 -0.9419
 5441SOL    HW227786   4.506   1.222   2.191  1.1302 -0.4753  1.7306
 5442SOL     OW27787   0.822   3.071   5.495  0.2852  0.1304 -0.0930
 5442SOL    HW127788   0.777   3.019   5.561 -0.5816  1.2506  0.1945
 5442SOL    HW227789   0.912   3.056   5.524 -0.3828  0.4816  2.1573
 5443SOL     OW27790   1.792   3.218   8.319  0.1425  0.4210 -0.0737
 5443SOL    HW127791   1.876   3.220   8.367 -0.0554 -5.1198  0.4987
 5443SOL    HW227792   1.815   3.254   8.234 -0.1911 -1.1701 -0.8378
 5444SOL     OW27793   0.016   4.456   3.711  0.1316  0.4689 -0.8096
 5444SOL    HW127794   0.111   4.441   3.714  0.0859  0.7219  1.8921
 5444SOL    HW227795   4.706   4.366   3.711  0.5066  0.3339  1.0267
 5445SOL     OW27796   2.427   3.141   8.194  0.1255 -0.5223  0.4687
 5445SOL    HW127797   2.458   3.193   8.120  1.0408 -0.0611  1.1756
 5445SOL    HW227798   2.400   3.060   8.151  1.4313 -1.4762  1.4393
 5446SOL     OW27799   0.039   2.619   3.780  0.3657 -0.7545  0.1524
 5446SOL    HW127800   4.694   2.688   3.791 -0.3250 -1.4503  0.3474
 5446SOL    HW227801   0.012   2.593   3.692  1.3391  0.3550 -0.4798
 5447SOL     OW27802   3.492   2.217  12.754 -0.0246  0.2168  0.4505
 5447SOL    HW127803   3.423   2.166  12.711 -1.4970  1.8391  0.8832
 5447SOL    HW227804   3.523   2.286  12.695 -1.4260  0.8051  0.3816
 5448SOL     OW27805   0.659   1.926  12.145 -0.4838  0.7543 -0.3502
 5448SOL    HW127806   0.683   1.834  12.158  1.5452  1.6052  1.9672
 5448SOL    HW227807   0.669   1.943  12.052  1.8341 -2.4816 -0.7088
 5449SOL     OW27808   4.068   1.977  10.567  0.4580 -0.2756  0.2928
 5449SOL    HW127809   4.145   1.969  10.510 -0.0833  0.7172 -0.5799
 5449SOL    HW227810   4.096   2.052  10.619  1.5964 -1.8032  1.8593
 5450SOL     OW27811   0.084   2.842   4.191 -0.0113 -0.0636 -0.3371
 5450SOL    HW127812   0.044   2.929   4.189  0.2414  0.0482 -0.5310
 5450SOL    HW227813   4.721   2.796   4.186 -0.0819 -0.2082  2.4186
 5451SOL     OW27814   1.669   1.516   6.306 -0.2616  0.1009  0.3390
 5451SOL    HW127815   1.682   1.423   6.290  0.7602  0.5872 -1.7341
 5451SOL    HW227816   1.696   1.522   6.398  0.8231 -2.0162  0.1581
 5452SOL     OW27817   3.848   4.339   6.558  0.1301  0.0064  0.6965
 5452SOL    HW127818   3.940   4.317   6.572  0.0105  0.1097  1.6231
 5452SOL    HW227819   3.868   4.430   6.535 -2.5398  0.1910 -0.8778
 5453SOL     OW27820   1.498   1.182  16.753  0.1279 -0.2872  0.4086
 5453SOL    HW127821   1.506   1.090  16.726  0.8331 -0.6441  1.8559
 5453SOL    HW227822   1.583   1.205  16.789 -0.1327 -0.5665  1.2013
 5454SOL     OW27823   3.262   3.963   6.711  0.3392  0.1364 -0.0824
 5454SOL    HW127824   3.274   3.908   6.788 -1.8759 -1.3974 -0.8225
 5454SOL    HW227825   3.355   3.972   6.687  0.6842 -0.0374  1.2021
 5455SOL     OW27826   4.070   2.247   6.137 -0.7036 -0.7007  0.4232
 5455SOL    HW127827   4.090   2.292   6.219  0.5188 -1.4332  0.5228
 5455SOL    HW227828   4.155   2.202   6.137  1.0319  2.5484 -0.8153
 5456SOL     OW27829   3.043   0.421   5.430  0.0549  0.2491  0.5175
 5456SOL    HW127830   3.054   0.326   5.438 -2.2620 -0.2202 -1.8506
 5456SOL    HW227831   3.095   0.456   5.502  1.0710 -0.4236  0.1015
 5457SOL     OW27832   0.667   4.325  16.924 -0.3669 -0.3018 -0.0168
 5457SOL    HW127833   0.709   4.358  17.004  1.1536 -0.7378 -0.6306
 5457SOL    HW227834   0.704   4.386  16.861  1.3407 -0.6848  0.6145
 5458SOL     OW27835   1.311   3.380   8.081  0.1650  0.7878 -0.0745
 5458SOL    HW127836   1.335   3.308   8.023 -1.7205  0.9050 -1.0140
 5458SOL    HW227837   1.379   3.384   8.147 -1.4043 -0.6069  1.6221
 5459SOL     OW27838   0.689   1.142   8.618  0.2674  0.5018 -0.4735
 5459SOL    HW127839   0.696   1.066   8.676 -1.1197  1.9992  1.6675
 5459SOL    HW227840   0.610   1.173   8.661 -0.7879 -1.5788 -0.8988
 5460SOL     OW27841   3.673   0.780   4.920  0.3539 -0.1354 -1.1153
 5460SOL    HW127842   3.667   0.802   5.013 -2.1281  0.0633 -1.3237
 5460SOL    HW227843   3.618   0.701   4.913 -0.9862  0.5559  1.5965
 5461SOL     OW27844   0.018   2.036   7.525  0.0574 -0.1302  0.0453
 5461SOL    HW127845   0.028   2.095   7.450  0.9602  1.5370  1.4576
 5461SOL    HW227846   4.656   2.068   7.559 -0.0387  0.8242 -1.0734
 5462SOL     OW27847   2.345   2.621   9.171 -0.1940 -0.1717 -0.0909
 5462SOL    HW127848   2.365   2.649   9.261  1.3672 -0.5637 -0.3246
 5462SOL    HW227849   2.249   2.618   9.168 -0.1774 -0.4756 -0.2845
 5463SOL     OW27850   1.505   1.634   2.171 -0.1753  0.3505 -0.2687
 5463SOL    HW127851   1.592   1.596   2.181  0.3753  0.7155 -3.5238
 5463SOL    HW227852   1.531   1.705   2.113 -0.0477 -1.6351 -2.6711
 5464SOL     OW27853   2.646   0.749   5.170 -0.7235  0.5862 -0.2678
 5464SOL    HW127854   2.664   0.704   5.253  0.8301  1.3783 -0.1832
 5464SOL    HW227855   2.737   0.770   5.152 -0.1011 -1.3502  0.5341
 5465SOL     OW27856   0.537   0.852   7.605  0.2229 -0.1045  0.2697
 5465SOL    HW127857   0.466   0.878   7.664  0.1067  2.2330 -0.8747
 5465SOL    HW227858   0.584   0.792   7.663 -1.0597 -0.2332  1.1677
 5466SOL     OW27859   0.552   3.337   6.953  1.0297 -0.4431 -0.4069
 5466SOL    HW127860   0.544   3.367   7.044  0.0700  0.7073 -0.8766
 5466SOL    HW227861   0.543   3.413   6.895 -2.8344 -1.2300 -0.8206
 5467SOL     OW27862   2.758   3.522   4.178  0.3315  0.1092  0.1342
 5467SOL    HW127863   2.686   3.467   4.147  2.0604 -0.1134 -3.5219
 5467SOL    HW227864   2.814   3.451   4.208 -1.1628 -0.1433  2.3090
 5468SOL     OW27865   3.061   2.354   6.525  0.2535  0.0195 -0.2557
 5468SOL    HW127866   3.051   2.334   6.432 -1.9653  1.5068 -0.3471
 5468SOL    HW227867   3.026   2.443   6.527 -1.5779 -0.6363 -3.0334
 5469SOL     OW27868   1.567   3.002   5.119  0.1152 -0.0158  0.3328
 5469SOL    HW127869   1.640   3.033   5.173  1.7928 -0.5040 -1.6372
 5469SOL    HW227870   1.518   3.082   5.099  2.2180  1.0799 -0.4042
 5470SOL     OW27871   4.219   2.596   1.775  0.3889 -0.1755 -0.2260
 5470SOL    HW127872   4.198   2.531   1.707 -0.3820  0.9964 -1.1004
 5470SOL    HW227873   4.286   2.546   1.823  1.0149  1.0897  0.2241
 5471SOL     OW27874   1.892   4.264   4.620  0.8039 -0.2156 -0.1508
 5471SOL    HW127875   1.897   4.189   4.680  0.0521  0.7580  1.1176
 5471SOL    HW227876   1.867   4.224   4.537 -1.2435 -0.4861  0.6028
 5472SOL     OW27877   3.750   1.496   1.948 -0.0010  0.0583  0.2036
 5472SOL    HW127878   3.837   1.469   1.919 -0.6176  2.5505 -3.9526
 5472SOL    HW227879   3.702   1.493   1.866 -1.2860  2.4394  0.8610
 5473SOL     OW27880   1.896   1.501   9.440  0.6133 -0.0148 -0.0568
 5473SOL    HW127881   1.897   1.458   9.355  1.6033  2.5211 -1.3118
 5473SOL    HW227882   1.987   1.497   9.469  0.2564  0.5107  1.1279
 5474SOL     OW27883   4.565   0.836   1.697 -0.2360 -0.4863  0.3264
 5474SOL    HW127884   4.637   0.825   1.759 -0.7478  2.0060  1.3401
 5474SOL    HW227885   4.604   0.867   1.615  1.4519 -0.9063  0.9881
 5475SOL     OW27886   0.095   1.324  12.375  0.2602 -0.1685 -0.2966
 5475SOL    HW127887   0.069   1.297  12.463  0.7755  1.1642  0.2772
 5475SOL    HW227888   0.159   1.258  12.348  1.7045  1.5785 -1.1683
 5476SOL     OW27889   2.836   4.085   8.103 -0.4428 -0.1624  0.1599
 5476SOL    HW127890   2.812   4.097   8.012  0.7648 -0.1237 -0.1488
 5476SOL    HW227891   2.931   4.081   8.096 -0.4849  1.9115 -1.6686
 5477SOL     OW27892   3.948   4.171  16.179 -0.0109  0.5450  0.2156
 5477SOL    HW127893   3.913   4.185  16.091 -0.2212 -0.6164  0.1236
 5477SOL    HW227894   4.031   4.216  16.168  0.1433 -0.3640 -2.3745
 5478SOL     OW27895   0.681   4.229   7.733  0.2280 -0.3619  0.0178
 5478SOL    HW127896   0.695   4.206   7.641 -1.2230 -0.0836 -0.2652
 5478SOL    HW227897   0.634   4.308   7.708  0.9184 -0.0444 -0.2677
 5479SOL     OW27898   4.039   2.300   2.421  0.5632  0.1729 -0.7098
 5479SOL    HW127899   4.000   2.273   2.337  0.0627 -1.5154  0.0752
 5479SOL    HW227900   4.124   2.323   2.384  1.5967 -0.5066  1.2607
 5480SOL     OW27901   1.349   0.351  14.660  0.1621  0.5717 -0.4296
 5480SOL    HW127902   1.311   0.270  14.626  1.2777  0.1338 -0.6371
 5480SOL    HW227903   1.424   0.365  14.602  0.4023 -0.7919 -0.4495
 5481SOL     OW27904   3.917   1.365   3.209 -0.1370  0.2053  0.3012
 5481SOL    HW127905   3.828   1.336   3.230  0.5007 -1.2473  0.9401
 5481SOL    HW227906   3.908   1.461   3.209 -0.4691  0.1779 -1.1836
 5482SOL     OW27907   4.555   2.977   6.561 -0.2559  0.0133  0.5327
 5482SOL    HW127908   4.528   2.920   6.489 -1.5440  0.0724  0.9607
 5482SOL    HW227909   4.651   2.983   6.562 -0.3142  0.9519  0.6996
 5483SOL     OW27910   0.900   3.990   3.505  0.5125  0.2927  0.0065
 5483SOL    HW127911   0.904   4.023   3.595 -0.3650 -0.6664  0.4033
 5483SOL    HW227912   0.975   4.033   3.464 -0.7219  3.3012  0.8834
 5484SOL     OW27913   2.796   0.954  17.178  0.2285 -0.0657 -0.0171
 5484SOL    HW127914   2.883   0.921  17.201  0.3943 -0.4292 -1.1391
 5484SOL    HW227915   2.751   0.869  17.174 -2.1996  1.2274 -0.2185
 5485SOL     OW27916   1.321   3.468   1.973 -0.2798  0.0562  0.6937
 5485SOL    HW127917   1.261   3.422   2.032  0.7079 -0.2339  1.4608
 5485SOL    HW227918   1.397   3.411   1.982  1.5747  2.4422  0.1757
 5486SOL     OW27919   2.108   0.794   7.537 -0.3616 -0.2485 -0.7846
 5486SOL    HW127920   2.161   0.743   7.598 -0.4784  1.6692  0.9077
 5486SOL    HW227921   2.028   0.777   7.587 -0.5689 -1.0771 -1.3889
 5487SOL     OW27922   3.571   1.855   1.476  0.5412 -0.1520  0.0671
 5487SOL    HW127923   3.490   1.880   1.521  1.3818  0.9416  0.9596
 5487SOL    HW227924   3.534   1.797   1.409  1.1355  0.7871 -1.0688
 5488SOL     OW27925   2.164   0.944   8.451 -0.0080 -0.1527  0.1806
 5488SOL    HW127926   2.256   0.940   8.476 -0.5317 -2.4778  1.8235
 5488SOL    HW227927   2.176   0.967   8.359  0.3529  1.9346  0.7683
 5489SOL     OW27928   3.379   0.377  11.967 -0.1631 -0.2707 -0.3603
 5489SOL    HW127929   3.459   0.394  11.918 -0.9680  1.0034 -1.2256
 5489SOL    HW227930   3.391   0.290  12.005  2.0175  0.3474  0.3253
 5490SOL     OW27931   0.356   4.633   5.023  0.1030 -0.3189  0.4293
 5490SOL    HW127932   0.291   4.570   4.990 -0.3288  1.2719 -1.7512
 5490SOL    HW227933   0.345   4.612   5.116 -0.4774 -1.5900  0.0753
 5491SOL     OW27934   3.755   0.328   1.047  0.3740 -0.4158 -0.2205
 5491SOL    HW127935   3.804   0.261   0.999 -0.2405 -0.0363 -1.3769
 5491SOL    HW227936   3.698   0.365   0.980 -1.7852 -0.2205  1.7224
 5492SOL     OW27937   1.267   3.148   5.144  0.1063  0.3254 -0.1092
 5492SOL    HW127938   1.253   3.156   5.050 -1.1737 -0.5419  0.0029
 5492SOL    HW227939   1.255   3.241   5.166 -0.6267 -0.0437  1.0870
 5493SOL     OW27940   1.896   2.213   3.923  0.1750 -0.2938  0.6788
 5493SOL    HW127941   1.897   2.289   3.981 -0.4298  1.3587 -1.4474
 5493SOL    HW227942   1.978   2.228   3.875 -0.4752  2.1605  0.3439
 5494SOL     OW27943   2.357   0.623   6.612  0.1645 -0.2857  0.3956
 5494SOL    HW127944   2.355   0.677   6.691  0.7519  1.3437 -0.7024
 5494SOL    HW227945   2.413   0.554   6.647  0.5473  0.1468  0.6352
 5495SOL     OW27946   2.512   2.981   4.018 -0.5563  0.1903  0.0566
 5495SOL    HW127947   2.467   2.952   4.097  1.6926 -2.0021  0.5435
 5495SOL    HW227948   2.604   2.963   4.037 -1.0617 -1.0547  1.3210
 5496SOL     OW27949   3.037   0.902   7.584  0.2402 -0.5235 -0.1858
 5496SOL    HW127950   3.008   0.993   7.580 -0.5368 -0.7158  0.8985
 5496SOL    HW227951   2.992   0.889   7.668 -0.0205 -2.9514 -0.6999
 5497SOL     OW27952   1.992   1.572   5.770  0.3953  0.2208 -0.6213
 5497SOL    HW127953   2.042   1.506   5.817  0.6201  1.5062  0.9621
 5497SOL    HW227954   2.020   1.559   5.679  0.6425 -2.2437 -0.1804
 5498SOL     OW27955   1.222   4.044  13.638  0.0290  0.0491  0.1630
 5498SOL    HW127956   1.168   3.966  13.645  0.0580  0.0739  0.6645
 5498SOL    HW227957   1.254   4.030  13.548  0.5853  0.2504  0.3263
 5499SOL     OW27958   3.688   0.685   5.421  0.5294 -0.1469  0.3747
 5499SOL    HW127959   3.717   0.771   5.389 -0.3126  0.2898  0.7692
 5499SOL    HW227960   3.646   0.655   5.340 -1.8063 -2.6187  2.4893
 5500SOL     OW27961   3.725   0.574   8.288 -0.1009 -0.0813 -0.6121
 5500SOL    HW127962   3.802   0.564   8.232 -0.7926  1.2292 -1.7808
 5500SOL    HW227963   3.744   0.512   8.359  2.1754  0.3932 -0.7859
 5501SOL     OW27964   1.596   0.792   6.032  0.9875 -0.2356 -0.6577
 5501SOL    HW127965   1.576   0.756   6.119  0.1008  0.8051 -0.4299
 5501SOL    HW227966   1.626   0.715   5.985  0.6795 -1.2077  0.7260
 5502SOL     OW27967   4.350   3.992   7.509  0.0293 -0.3673  0.4543
 5502SOL    HW127968   4.269   4.011   7.461  1.4719  3.2764 -0.5858
 5502SOL    HW227969   4.345   4.062   7.575  2.1940 -0.4846  0.7387
 5503SOL     OW27970   3.248   1.789   5.159  0.0610  0.2051  0.3707
 5503SOL    HW127971   3.300   1.867   5.139 -1.1921  0.9805  0.1220
 5503SOL    HW227972   3.190   1.830   5.223 -0.6199  2.3708 -1.6214
 5504SOL     OW27973   0.263   2.315   7.141 -0.5363 -0.2469  0.2262
 5504SOL    HW127974   0.200   2.324   7.069 -0.8866  0.1808  0.5873
 5504SOL    HW227975   0.275   2.221   7.128  2.8918  0.5168 -2.2823
 5505SOL     OW27976   2.129   2.808  15.144 -0.1131 -0.3952  0.1351
 5505SOL    HW127977   2.188   2.740  15.113 -2.9204 -2.4494 -0.6702
 5505SOL    HW227978   2.043   2.768  15.132  0.3033 -0.7440 -1.6983
 5506SOL     OW27979   0.027   1.102   8.234  0.5317  0.2128  0.0231
 5506SOL    HW127980   0.014   1.045   8.310  0.4062  0.0069 -0.1530
 5506SOL    HW227981   0.116   1.083   8.205  1.5449  2.4710  1.6004
 5507SOL     OW27982   3.631   3.898   5.368  0.6028  0.1784 -0.3853
 5507SOL    HW127983   3.587   3.852   5.440  1.2488 -1.0755 -0.7855
 5507SOL    HW227984   3.693   3.955   5.415  2.0314 -0.2135 -1.7826
 5508SOL     OW27985   1.183   4.074   7.513  0.3631  0.6669 -0.0232
 5508SOL    HW127986   1.165   4.021   7.590  0.9738 -1.7576 -1.5409
 5508SOL    HW227987   1.268   4.104   7.543 -0.4392  1.2839  1.6513
 5509SOL     OW27988   4.412   2.868   8.097  0.2834 -0.3353  0.4729
 5509SOL    HW127989   4.424   2.937   8.031  3.4578 -0.0005  1.4166
 5509SOL    HW227990   4.480   2.887   8.162 -0.6171 -0.4253  1.4347
 5510SOL     OW27991   0.254   1.417   2.003  0.5141 -0.3892 -0.2919
 5510SOL    HW127992   0.281   1.416   2.095  3.3029  2.2387 -1.0912
 5510SOL    HW227993   0.257   1.329   1.965 -2.0907 -1.0243  1.0142
 5511SOL     OW27994   1.755   1.426   0.524 -0.1804  0.0556 -0.1623
 5511SOL    HW127995   1.827   1.475   0.486 -0.0208 -0.1865 -0.1764
 5511SOL    HW227996   1.788   1.342   0.558  0.2006  1.3035  2.5960
 5512SOL     OW27997   3.290   2.896  11.050  0.2369 -0.2735  0.5513
 5512SOL    HW127998   3.374   2.872  11.012 -0.3155  0.5184 -1.1807
 5512SOL    HW227999   3.251   2.961  10.992  0.0463 -1.8539 -1.0585
 5513SOL     OW28000   3.922   3.494   3.544 -0.5317  0.2437 -0.1547
 5513SOL    HW128001   4.013   3.505   3.572  0.0445 -0.9327 -1.6055
 5513SOL    HW228002   3.920   3.400   3.528 -1.0338  0.2836 -0.3165
 5514SOL     OW28003   1.991   1.174   8.254  1.0630  0.9262  0.5463
 5514SOL    HW128004   1.976   1.165   8.160 -2.0454 -1.3134  1.2394
 5514SOL    HW228005   2.079   1.138   8.263  1.5420  0.9947 -3.7158
 5515SOL     OW28006   4.337   2.430   7.462 -0.1596 -0.6289  0.0346
 5515SOL    HW128007   4.315   2.514   7.421  0.7152 -1.0084 -1.2099
 5515SOL    HW228008   4.408   2.454   7.521 -2.3760  0.8763  2.1075
 5516SOL     OW28009   1.674   3.724   1.885  0.3628 -0.3220  0.9621
 5516SOL    HW128010   1.626   3.743   1.965 -0.4042  1.7595 -0.0167
 5516SOL    HW228011   1.626   3.657   1.837  1.9121  0.2672 -1.4187
 5517SOL     OW28012   1.717   4.445   5.078  0.1342  0.1602  0.1419
 5517SOL    HW128013   1.671   4.494   5.146  1.4663 -0.1401  1.2666
 5517SOL    HW228014   1.647   4.417   5.019 -0.4323 -0.0581  0.9109
 5518SOL     OW28015   4.708   1.058   4.958 -0.0539  0.2412  0.4216
 5518SOL    HW128016   4.640   1.002   4.921 -1.4215  1.8456  0.4871
 5518SOL    HW228017   0.043   0.994   5.001 -0.7591 -2.9480 -3.3393
 5519SOL     OW28018   4.255   1.258   6.740  0.0260 -0.1153 -0.0229
 5519SOL    HW128019   4.239   1.187   6.802 -1.1931 -1.2635 -1.6404
 5519SOL    HW228020   4.327   1.235   6.681  2.1544  2.3370  1.6232
 5520SOL     OW28021   0.143   0.078   3.624  0.0946  0.3584  0.0897
 5520SOL    HW128022   0.234   0.089   3.649  0.4289  1.9752 -1.8085
 5520SOL    HW228023   0.095   0.160   3.637 -0.2119 -0.0051  1.2660
 5521SOL     OW28024   3.730   3.043   9.358 -0.4588 -0.1615 -0.4354
 5521SOL    HW128025   3.768   3.067   9.274 -0.6785 -0.8836 -0.7477
 5521SOL    HW228026   3.805   3.069   9.411 -0.5362 -2.4735  0.8105
 5522SOL     OW28027   0.270   0.616   4.062 -0.4746 -0.3435  0.4455
 5522SOL    HW128028   0.233   0.601   4.149 -1.3633 -0.0501  0.1188
 5522SOL    HW228029   0.190   0.605   4.010 -0.5185  0.0046  0.4386
 5523SOL     OW28030   3.867   2.511   0.461  0.4109  0.0958 -0.1110
 5523SOL    HW128031   3.891   2.419   0.452  0.5431  0.1220 -0.0130
 5523SOL    HW228032   3.786   2.506   0.410 -0.2269  0.8797  0.8168
 5524SOL     OW28033   2.344   0.599   9.766 -0.3516 -0.1110 -0.3131
 5524SOL    HW128034   2.301   0.515   9.753  2.5388 -1.5342 -0.7727
 5524SOL    HW228035   2.310   0.650   9.692 -0.9083  1.1355  0.8141
 5525SOL     OW28036   3.125   0.457   4.095  0.6295 -0.2316 -0.0285
 5525SOL    HW128037   3.182   0.506   4.154 -1.2612  1.9094  0.0334
 5525SOL    HW228038   3.162   0.370   4.109  0.2665 -0.2283  0.9217
 5526SOL     OW28039   2.398   2.905   7.066  0.2901  0.4399  0.2410
 5526SOL    HW128040   2.481   2.858   7.072  0.5404  1.0191  1.2445
 5526SOL    HW228041   2.355   2.853   6.997 -1.2382  2.7315 -0.5183
 5527SOL     OW28042   2.651   0.588   7.909  0.3098 -0.3339  0.5278
 5527SOL    HW128043   2.592   0.629   7.971 -0.5436 -0.8713  0.0669
 5527SOL    HW228044   2.661   0.500   7.946  0.0803 -1.7847 -2.7718
 5528SOL     OW28045   2.357   4.018  13.236 -0.5211  0.0161  0.0778
 5528SOL    HW128046   2.318   3.954  13.177  0.7953 -0.4965 -0.2221
 5528SOL    HW228047   2.310   4.095  13.202  0.8910  0.1494 -1.5810
 5529SOL     OW28048   4.485   0.268   7.609  0.1370 -0.1908  0.0316
 5529SOL    HW128049   4.550   0.206   7.642 -0.1477 -0.2075  0.5666
 5529SOL    HW228050   4.481   0.339   7.673 -2.5629  1.0044 -1.4284
 5530SOL     OW28051   1.766   2.819   8.157  0.1791  0.3035 -0.0881
 5530SOL    HW128052   1.822   2.772   8.095  1.1117  1.6117 -0.2667
 5530SOL    HW228053   1.699   2.838   8.091  0.6273 -1.0961 -0.9378
 5531SOL     OW28054   2.113   1.511   5.543  0.6904  0.2899 -0.3899
 5531SOL    HW128055   2.164   1.441   5.584  0.0597  0.6272  0.9662
 5531SOL    HW228056   2.121   1.487   5.450 -0.3168  0.0356 -0.4208
 5532SOL     OW28057   0.086   4.555   5.853  0.2121 -0.4649  0.5977
 5532SOL    HW128058   0.071   4.600   5.770  1.9190 -1.1643 -0.0860
 5532SOL    HW228059   0.181   4.563   5.850  0.3041 -1.0017  2.3261
 5533SOL     OW28060   3.549   2.794   1.279  0.1966 -0.0101 -0.2151
 5533SOL    HW128061   3.453   2.787   1.279 -0.0273  2.6236 -2.1055
 5533SOL    HW228062   3.572   2.759   1.193  2.9338  0.9518  0.1183
 5534SOL     OW28063   1.911   0.253   0.400  0.2195 -0.5556  0.3153
 5534SOL    HW128064   1.908   0.261   0.305 -2.1234 -0.4561  0.3786
 5534SOL    HW228065   2.004   0.267   0.416  0.2443 -1.9010  1.3228
 5535SOL     OW28066   3.004   0.361   1.315  0.1195 -0.1898 -0.5364
 5535SOL    HW128067   2.962   0.292   1.365 -0.2923  0.3884 -0.0924
 5535SOL    HW228068   2.934   0.385   1.254 -0.4988  0.5073  0.4573
 5536SOL     OW28069   2.983   2.494   1.584 -0.0566  0.0959  0.1773
 5536SOL    HW128070   2.916   2.446   1.632 -0.1977 -0.3391 -0.4622
 5536SOL    HW228071   2.930   2.558   1.535 -1.9653 -1.2391  0.5435
 5537SOL     OW28072   1.564   3.446  11.571  0.1519 -0.2428  0.1979
 5537SOL    HW128073   1.632   3.382  11.592  2.4111  2.0174 -0.1155
 5537SOL    HW228074   1.612   3.507  11.514  1.4384  0.4135  1.9826
 5538SOL     OW28075   3.347   2.950  13.064 -0.1831  0.1446 -0.0550
 5538SOL    HW128076   3.427   2.905  13.040 -0.1432  0.5553 -0.6986
 5538SOL    HW228077   3.371   3.016  13.130 -0.7715 -1.9579  2.2555
 5539SOL     OW28078   1.952   0.739   5.834 -0.3849 -0.3359 -0.4297
 5539SOL    HW128079   1.919   0.716   5.920 -1.3523  1.1616 -0.4029
 5539SOL    HW228080   2.045   0.727   5.855 -0.9741 -1.7796  1.3483
 5540SOL     OW28081   2.241   3.560  14.443  0.1565  0.0443 -0.0241
 5540SOL    HW128082   2.165   3.549  14.386  0.9734 -1.5376 -0.8108
 5540SOL    HW228083   2.236   3.655  14.439  0.8480  0.1260  1.0603
 5541SOL     OW28084   4.446   0.581   6.036  0.1361  0.5461  0.3924
 5541SOL    HW128085   4.470   0.505   5.983  0.1333 -0.5076  1.9020
 5541SOL    HW228086   4.511   0.642   6.002 -1.0919  1.0160 -1.1169
 5542SOL     OW28087   1.497   0.374  15.889 -0.3620  0.5516 -0.8719
 5542SOL    HW128088   1.442   0.444  15.924 -1.1617 -0.4407 -0.1284
 5542SOL    HW228089   1.456   0.368  15.802 -0.3154  0.5252 -0.8920
 5543SOL     OW28090   2.925   3.690   7.677 -0.4523  0.0166  0.3674
 5543SOL    HW128091   2.844   3.699   7.627  1.6152  1.4136 -2.7001
 5543SOL    HW228092   2.981   3.686   7.600 -2.5614 -2.5134 -1.0711
 5544SOL     OW28093   4.204   3.937   0.163  0.0925 -0.3778  0.2508
 5544SOL    HW128094   4.168   3.988   0.235 -1.4089 -2.6026  1.1003
 5544SOL    HW228095   4.261   4.013   0.154  0.7154 -0.5274  2.9882
 5545SOL     OW28096   4.533   3.258   1.989  0.6667 -0.4878 -0.2811
 5545SOL    HW128097   4.498   3.180   1.946 -1.3127 -1.8562  3.8799
 5545SOL    HW228098   4.486   3.333   1.952  1.4931  0.2214  0.0828
 5546SOL     OW28099   0.709   3.367  11.266  0.1276 -0.0338  0.0126
 5546SOL    HW128100   0.697   3.318  11.185 -0.8040 -0.6779  0.5504
 5546SOL    HW228101   0.805   3.375  11.266  0.2684 -1.7916 -2.1025
 5547SOL     OW28102   1.072   2.307  11.810 -0.2046 -0.3536 -0.3755
 5547SOL    HW128103   1.019   2.254  11.871 -0.2100  2.1962  1.8083
 5547SOL    HW228104   1.015   2.302  11.733 -0.3552 -1.1986 -0.2190
 5548SOL     OW28105   1.207   1.710   7.707  0.3020 -0.6171 -0.2675
 5548SOL    HW128106   1.117   1.681   7.723  0.8517 -1.4472  1.4256
 5548SOL    HW228107   1.196   1.743   7.618 -0.2121  0.6632  0.2705
 5549SOL     OW28108   2.159   1.997   7.368  0.0055  0.1801  0.3134
 5549SOL    HW128109   2.121   2.078   7.334  0.1010  0.6319  1.2874
 5549SOL    HW228110   2.151   1.936   7.295  0.4411  1.1521 -0.5527
 5550SOL     OW28111   3.802   3.133   6.317  0.5994 -0.1003  0.2896
 5550SOL    HW128112   3.796   3.130   6.222 -0.1685  0.8826  0.3076
 5550SOL    HW228113   3.780   3.043   6.339  1.3598  0.1169  1.9384
 5551SOL     OW28114   1.238   2.921   2.252 -0.1721  0.1085  0.1630
 5551SOL    HW128115   1.309   2.957   2.197 -0.8818 -1.6650 -1.9319
 5551SOL    HW228116   1.163   2.971   2.219 -0.4694 -0.2296  0.3307
 5552SOL     OW28117   4.374   4.440   9.700  0.3373  0.8244 -0.0841
 5552SOL    HW128118   4.380   4.514   9.761 -0.2471  0.5017  0.3702
 5552SOL    HW228119   4.335   4.487   9.627  2.1212  2.8757  0.3031
 5553SOL     OW28120   3.779   2.636   6.839  0.3883  0.2576 -0.5195
 5553SOL    HW128121   3.758   2.584   6.761 -4.1173  1.4119 -0.0808
 5553SOL    HW228122   3.727   2.601   6.910  0.4647  2.0220  0.3955
 5554SOL     OW28123   2.064   0.027   5.034  0.1721 -0.1001  0.3301
 5554SOL    HW128124   1.985   0.069   5.067 -1.7967 -1.8250 -2.2100
 5554SOL    HW228125   2.113   0.107   5.012 -0.0022  0.6325  2.5876
 5555SOL     OW28126   4.050   4.523   6.315  0.7007 -0.4436  0.5979
 5555SOL    HW128127   3.980   4.569   6.361 -1.3555 -2.0739 -0.9007
 5555SOL    HW228128   4.008   4.439   6.298  0.4522 -0.1371 -0.3158
 5556SOL     OW28129   0.680   4.562   5.173 -0.2118 -0.6590 -0.0534
 5556SOL    HW128130   0.687   4.483   5.118  0.6701 -0.2526 -0.5157
 5556SOL    HW228131   0.651   4.526   5.257  0.3464 -2.6352 -0.6989
 5557SOL     OW28132   0.043   3.753   9.350 -0.0047  0.1292  0.1342
 5557SOL    HW128133   4.714   3.779   9.427  0.1569  0.9879 -0.0594
 5557SOL    HW228134   0.126   3.797   9.367  0.2448  0.3759 -1.7511
 5558SOL     OW28135   4.548   1.827   6.872 -0.9337 -0.5034  0.6881
 5558SOL    HW128136   4.541   1.918   6.844 -0.3739 -0.2341  1.4412
 5558SOL    HW228137   4.460   1.794   6.855 -1.1847 -0.7433  2.4948
 5559SOL     OW28138   2.710   4.591   6.393  0.2042 -0.6274  0.2618
 5559SOL    HW128139   2.798   4.612   6.363 -0.3904  0.5398 -0.6342
 5559SOL    HW228140   2.693   4.503   6.359  2.4139 -0.4212 -1.3954
 5560SOL     OW28141   1.109   3.383   1.583  0.0587  0.7761  0.4027
 5560SOL    HW128142   1.085   3.322   1.653  0.4213 -1.0746 -1.0844
 5560SOL    HW228143   1.201   3.406   1.599  0.3000 -0.5534  0.9772
 5561SOL     OW28144   3.733   4.620  10.372  0.0155 -0.3394  0.2850
 5561SOL    HW128145   3.664   4.569  10.329 -1.2610  2.3858 -0.9172
 5561SOL    HW228146   3.771   4.672  10.301  0.9259  1.2271  1.9188
 5562SOL     OW28147   1.920   2.385   7.965  0.4115 -0.1486 -0.5802
 5562SOL    HW128148   1.887   2.394   8.054  1.6933  0.1590 -0.1278
 5562SOL    HW228149   1.917   2.290   7.949  1.5658 -0.1746 -0.6725
 5563SOL     OW28150   0.518   2.409  10.872 -0.4660  0.2112 -0.2628
 5563SOL    HW128151   0.443   2.382  10.818  0.4598 -0.2190 -1.3210
 5563SOL    HW228152   0.554   2.324  10.898 -1.6458 -0.8834 -2.1571
 5564SOL     OW28153   0.891   0.346  15.060  0.0570 -0.2878  0.1829
 5564SOL    HW128154   0.942   0.390  14.992  1.2224 -0.4976  0.9205
 5564SOL    HW228155   0.958   0.335  15.127  0.8783  0.0294 -0.6035
 5565SOL     OW28156   2.424   3.282   0.637 -0.4294  0.0398 -0.7771
 5565SOL    HW128157   2.350   3.244   0.685 -0.8426  0.6572 -0.9252
 5565SOL    HW228158   2.447   3.205   0.586  1.5707  1.0563 -1.3787
 5566SOL     OW28159   1.028   4.077   0.691 -0.7843  0.1944 -0.0546
 5566SOL    HW128160   1.097   4.030   0.645 -0.9348  0.4626 -0.5572
 5566SOL    HW228161   0.972   4.088   0.615 -2.6213  0.5023  1.3366
 5567SOL     OW28162   0.079   1.185  15.260  0.1376 -0.5315 -0.5139
 5567SOL    HW128163   0.005   1.242  15.238  0.3870  0.3294  0.8495
 5567SOL    HW228164   0.125   1.235  15.327 -0.4620  0.7648 -1.0625
 5568SOL     OW28165   2.017   1.195   8.575 -0.1376  0.1156 -0.1521
 5568SOL    HW128166   1.950   1.179   8.641  0.7183  2.2468  1.2472
 5568SOL    HW228167   2.076   1.126   8.605  0.2882  0.5049 -0.0992
 5569SOL     OW28168   3.472   1.650   5.045  0.3189  0.1339  0.0699
 5569SOL    HW128169   3.438   1.732   5.082 -1.3742 -1.1666  1.4026
 5569SOL    HW228170   3.444   1.659   4.953 -1.3263  0.3106  0.5766
 5570SOL     OW28171   3.314   3.661   1.399 -0.3992 -0.0767  0.0526
 5570SOL    HW128172   3.282   3.751   1.393  0.5271  0.1698 -1.1795
 5570SOL    HW228173   3.290   3.629   1.486  2.1430 -1.9916  0.0338
 5571SOL     OW28174   4.303   4.536   2.083  0.7647 -0.4968  0.4838
 5571SOL    HW128175   4.397   4.526   2.068  0.4779  0.3039 -1.8487
 5571SOL    HW228176   4.275   4.627   2.075 -1.6881 -1.2467  0.5719
 5572SOL     OW28177   1.796   0.067   3.234  0.2245  0.0315 -0.6051
 5572SOL    HW128178   1.859   0.112   3.290 -0.4716  0.2737 -0.0161
 5572SOL    HW228179   1.845   0.045   3.155  0.0510  0.3940 -0.8155
 5573SOL     OW28180   3.457   2.637   8.341  0.1796 -0.2824 -0.4708
 5573SOL    HW128181   3.548   2.614   8.360 -0.2929 -0.1030  1.9284
 5573SOL    HW228182   3.425   2.556   8.380  0.0792 -0.8111 -1.6476
 5574SOL     OW28183   2.918   1.900   0.174  0.4894 -0.3469  0.5649
 5574SOL    HW128184   2.957   1.978   0.134 -1.1206  0.5639  0.7914
 5574SOL    HW228185   2.951   1.914   0.263  1.1906  2.3734 -0.1182
 5575SOL     OW28186   1.547   4.366  14.949 -0.3325 -0.1605  0.4382
 5575SOL    HW128187   1.552   4.412  15.033  2.2543  0.3802 -0.0023
 5575SOL    HW228188   1.458   4.332  14.958  0.9306 -2.9411  2.2837
 5576SOL     OW28189   1.935   2.019  12.871  0.3364  0.1592 -0.1727
 5576SOL    HW128190   1.946   2.089  12.807  0.9946  1.3772  1.2799
 5576SOL    HW228191   1.989   2.047  12.946  0.3555 -0.8310  0.1861
 5577SOL     OW28192   4.460   1.119   4.192 -0.0857 -0.0298 -0.1368
 5577SOL    HW128193   4.537   1.174   4.184 -0.1436 -0.1946 -1.8980
 5577SOL    HW228194   4.423   1.166   4.267  0.5983 -2.0391  1.4561
 5578SOL     OW28195   3.288   3.012   4.964  0.6076 -0.1910  0.6587
 5578SOL    HW128196   3.242   3.066   5.028 -0.1362  0.1112 -0.1292
 5578SOL    HW228197   3.243   2.928   4.968  1.6011 -0.7775 -0.5729
 5579SOL     OW28198   4.216   3.522   8.908 -0.2481 -0.0158  0.1790
 5579SOL    HW128199   4.168   3.464   8.849 -0.3216  0.0029  0.2203
 5579SOL    HW228200   4.281   3.559   8.849 -1.1871 -0.5877 -1.2289
 5580SOL     OW28201   2.322   0.272   3.163 -0.1502  0.1270 -0.3572
 5580SOL    HW128202   2.380   0.297   3.235  2.8616 -1.2733 -2.2852
 5580SOL    HW228203   2.359   0.316   3.087 -0.5447  1.0211 -0.0285
 5581SOL     OW28204   0.032   4.630   1.669  0.2560  0.2578  0.7047
 5581SOL    HW128205   4.669   4.586   1.658  1.0745 -1.2880  0.5799
 5581SOL    HW228206   0.097   4.559   1.663 -0.1489  0.0308 -1.1779
 5582SOL     OW28207   2.938   0.689   8.444  0.2296  0.1329  0.3395
 5582SOL    HW128208   3.009   0.661   8.503  1.4534  2.5997  0.0342
 5582SOL    HW228209   2.923   0.609   8.393 -2.8004  0.5019  0.6529
 5583SOL     OW28210   2.385   2.449   2.306 -0.3087 -1.0687  0.0578
 5583SOL    HW128211   2.468   2.412   2.338 -0.6225  0.0894  2.2501
 5583SOL    HW228212   2.316   2.402   2.353 -1.4927  0.1935 -0.4226
 5584SOL     OW28213   1.774   4.607   1.109  0.7132  0.3448 -0.0079
 5584SOL    HW128214   1.727   4.607   1.193 -1.0665 -0.4567 -1.0061
 5584SOL    HW228215   1.718   4.541   1.071  1.0835 -0.1534  0.3123
 5585SOL     OW28216   3.210   1.546   3.289 -0.7764 -0.2536 -0.2533
 5585SOL    HW128217   3.202   1.627   3.238 -0.0931  0.3092  0.5345
 5585SOL    HW228218   3.226   1.577   3.378 -2.4650 -2.6827  0.8850
 5586SOL     OW28219   3.895   4.007   5.579  0.2793 -0.1407 -0.4361
 5586SOL    HW128220   3.961   4.028   5.644  1.2073 -0.4254 -1.2898
 5586SOL    HW228221   3.820   4.009   5.639  0.6994  1.4679  0.0183
 5587SOL     OW28222   0.741   3.341  15.661 -0.0248 -0.1454 -0.0635
 5587SOL    HW128223   0.835   3.325  15.672  0.3185  0.5690 -2.0468
 5587SOL    HW228224   0.700   3.314  15.743  2.2940 -0.5279  0.9922
 5588SOL     OW28225   4.210   2.061   2.883 -0.1710  0.4967 -0.0717
 5588SOL    HW128226   4.174   2.069   2.795  1.0501  0.1221 -0.5978
 5588SOL    HW228227   4.295   2.021   2.865 -0.3506 -0.7565  1.8634
 5589SOL     OW28228   2.545   0.715   6.013 -0.4358 -0.4532  0.5662
 5589SOL    HW128229   2.482   0.680   5.950 -0.1040 -0.7584  0.4100
 5589SOL    HW228230   2.613   0.744   5.952 -0.8782  0.5420  0.5478
 5590SOL     OW28231   3.767   1.934   0.054  0.3506 -0.2563 -0.4727
 5590SOL    HW128232   3.826   2.007   0.039  2.0039 -1.5302 -0.1951
 5590SOL    HW228233   3.809   1.893   0.129 -1.8151 -2.9023 -0.7181
 5591SOL     OW28234   2.370   3.255   1.309 -0.0705 -0.0798 -0.5112
 5591SOL    HW128235   2.297   3.296   1.262  0.4202  0.2422 -0.9876
 5591SOL    HW228236   2.348   3.163   1.299 -2.8316  0.3468  1.7137
 5592SOL     OW28237   1.417   2.489   5.017  0.6768  0.1993  0.7788
 5592SOL    HW128238   1.403   2.553   4.948  0.9159 -1.0254 -0.4149
 5592SOL    HW228239   1.367   2.523   5.091  2.0903 -0.9028  2.2342
 5593SOL     OW28240   2.850   0.429  12.104 -0.0027  0.2012  0.5416
 5593SOL    HW128241   2.880   0.340  12.122 -0.2242  0.1848  0.8318
 5593SOL    HW228242   2.916   0.457  12.041 -0.3551 -0.4463 -0.1135
 5594SOL     OW28243   1.067   0.168  12.249  0.0549 -0.1893 -0.3027
 5594SOL    HW128244   1.031   0.209  12.171 -0.1794 -1.5190 -0.8805
 5594SOL    HW228245   1.019   0.219  12.315  0.3283  1.7911 -1.6207
 5595SOL     OW28246   0.806   1.239   9.029 -0.1478 -0.5090  0.4506
 5595SOL    HW128247   0.860   1.198   8.961 -0.8101  0.4484 -0.6354
 5595SOL    HW228248   0.770   1.314   8.982  2.9841 -0.3742 -1.7041
 5596SOL     OW28249   1.078   4.414   1.745  0.0290 -0.5266  0.1424
 5596SOL    HW128250   1.085   4.507   1.768 -0.7497 -0.7426  1.2128
 5596SOL    HW228251   1.100   4.367   1.826 -0.1682 -1.4159 -0.3198
 5597SOL     OW28252   2.673   3.570   3.296  0.1683  0.3900  0.4506
 5597SOL    HW128253   2.617   3.590   3.370 -2.0712  1.0249 -1.4025
 5597SOL    HW228254   2.743   3.527   3.345  0.0664  0.8533  0.9906
 5598SOL     OW28255   3.915   2.448  16.024  0.3665  0.0482  0.4518
 5598SOL    HW128256   3.856   2.490  15.962  3.1483 -1.2457 -3.0458
 5598SOL    HW228257   3.928   2.364  15.981 -0.6385 -0.8544  1.8994
 5599SOL     OW28258   1.223   4.143   2.535  0.0802  0.7122  1.1662
 5599SOL    HW128259   1.227   4.089   2.614 -1.1945 -0.0959  0.6686
 5599SOL    HW228260   1.191   4.226   2.570  0.9404  1.5358 -0.0199
 5600SOL     OW28261   2.999   1.907   7.058 -0.1916 -0.0398 -0.3411
 5600SOL    HW128262   2.972   1.903   7.150  0.2991  1.1112 -0.1415
 5600SOL    HW228263   3.052   1.828   7.045  0.8163  0.8580 -1.6989
 5601SOL     OW28264   0.273   2.385  10.431  0.0515 -0.0631 -0.1680
 5601SOL    HW128265   0.200   2.368  10.372 -0.9526  2.0975  0.4743
 5601SOL    HW228266   0.228   2.362  10.513  1.0937  1.1815  0.7454
 5602SOL     OW28267   3.621   2.581   7.465 -0.2868 -0.1211  0.1463
 5602SOL    HW128268   3.599   2.536   7.547  1.1745 -2.1028 -0.5546
 5602SOL    HW228269   3.715   2.596   7.479 -0.7672  3.0213  0.0367
 5603SOL     OW28270   3.893   3.423   9.066  0.2466 -0.0419 -0.1338
 5603SOL    HW128271   3.804   3.398   9.089  0.2901 -0.0766 -0.0057
 5603SOL    HW228272   3.884   3.496   9.005 -0.6756 -1.5950 -1.8448
 5604SOL     OW28273   0.526   0.962   8.465  0.9248  0.3733 -0.2602
 5604SOL    HW128274   0.533   0.939   8.558  2.7622 -0.2054 -0.5512
 5604SOL    HW228275   0.607   1.009   8.445  0.3256  0.6999 -1.8965
 5605SOL     OW28276   2.915   0.213   6.701 -1.1603  0.0842  0.0835
 5605SOL    HW128277   2.980   0.153   6.664 -0.5377  1.7677 -1.5513
 5605SOL    HW228278   2.841   0.195   6.644 -0.3243 -0.8391 -0.7066
 5606SOL     OW28279   3.890   0.743  15.403 -0.3196  0.0078 -1.1301
 5606SOL    HW128280   3.878   0.658  15.445  0.6117  0.2465 -0.3788
 5606SOL    HW228281   3.813   0.755  15.347 -0.8357  1.5131 -0.0943
 5607SOL     OW28282   3.963   3.480   2.531 -0.0098  0.1266  0.1700
 5607SOL    HW128283   3.956   3.421   2.456  1.2996  0.0898  0.0659
 5607SOL    HW228284   3.888   3.463   2.587  0.0426 -1.0823 -0.1286
 5608SOL     OW28285   1.491   3.835   8.969  0.1161  0.5513  0.4126
 5608SOL    HW128286   1.536   3.877   8.896 -0.1743 -0.4353 -0.3408
 5608SOL    HW228287   1.568   3.790   9.003 -0.0431 -0.6706 -0.8232
 5609SOL     OW28288   0.283   3.331   7.781  0.0663  0.1088 -0.0218
 5609SOL    HW128289   0.358   3.284   7.819  0.9614  0.7013 -1.0460
 5609SOL    HW228290   0.216   3.323   7.849  0.1930 -2.8429 -0.2281
 5610SOL     OW28291   4.095   0.745   3.320  0.6031 -0.2149  0.4737
 5610SOL    HW128292   4.001   0.756   3.339  0.6092 -1.0651  1.0205
 5610SOL    HW228293   4.100   0.650   3.309  0.7651 -0.3307  1.6091
 5611SOL     OW28294   4.160   0.281   8.800 -0.0582 -0.5012 -0.4229
 5611SOL    HW128295   4.078   0.329   8.814  1.5218  2.4852 -1.4082
 5611SOL    HW228296   4.209   0.325   8.869  1.2164 -0.9960 -1.0133
 5612SOL     OW28297   0.409   4.259  11.235 -0.1106  0.1995  0.4543
 5612SOL    HW128298   0.340   4.243  11.299  0.0331 -2.4755 -0.0399
 5612SOL    HW228299   0.493   4.249  11.281 -0.2825 -0.6317  0.5924
 5613SOL     OW28300   4.451   0.580   6.772  0.0974  0.1762  0.1931
 5613SOL    HW128301   4.518   0.638   6.736  0.4812 -0.0543  0.5377
 5613SOL    HW228302   4.492   0.573   6.858 -0.4849 -3.0785  0.2163
 5614SOL     OW28303   3.411   3.103   4.006  0.6823 -0.1916  0.0224
 5614SOL    HW128304   3.402   3.076   4.098 -2.7024 -1.0362 -0.5739
 5614SOL    HW228305   3.327   3.147   3.995  1.0032  0.1160 -1.1918
 5615SOL     OW28306   3.764   3.760  16.607 -0.2241 -0.0386 -0.1565
 5615SOL    HW128307   3.755   3.800  16.520 -1.2867  0.2024  0.0664
 5615SOL    HW228308   3.674   3.765  16.637  0.3271 -1.8209  1.7613
 5616SOL     OW28309   1.666   2.502   2.434  0.7896  0.0984  0.2133
 5616SOL    HW128310   1.637   2.568   2.371 -0.1365  1.2628  1.8891
 5616SOL    HW228311   1.617   2.429   2.396  1.3691 -0.1793  0.0016
 5617SOL     OW28312   0.656   1.241   2.435  0.2735  0.3116  0.3355
 5617SOL    HW128313   0.646   1.225   2.342  0.6123 -2.5691  0.7670
 5617SOL    HW228314   0.630   1.332   2.431 -1.5306 -0.3629 -3.1077
 5618SOL     OW28315   3.431   3.526  12.588 -0.2196  0.0431 -0.2190
 5618SOL    HW128316   3.349   3.568  12.612 -0.8681 -2.4510  1.9888
 5618SOL    HW228317   3.488   3.596  12.556 -4.6248  3.9064  0.4476
 5619SOL     OW28318   3.595   0.728  10.346 -0.0875  0.1258 -0.2455
 5619SOL    HW128319   3.539   0.805  10.361 -2.5108 -1.4698 -0.9849
 5619SOL    HW228320   3.548   0.667  10.403 -1.9891  0.1845 -1.7500
 5620SOL     OW28321   0.328   0.300  12.005 -0.5037  0.0055 -0.3194
 5620SOL    HW128322   0.336   0.387  11.964 -1.5025 -0.1995 -0.9340
 5620SOL    HW228323   0.420   0.293  12.031 -0.5844  3.4386  0.9494
 5621SOL     OW28324   0.773   1.712  11.837  0.5212 -0.3030 -0.3456
 5621SOL    HW128325   0.859   1.673  11.855  0.6958  1.1369  1.8587
 5621SOL    HW228326   0.720   1.633  11.846  0.6058 -0.3257 -0.0427
 5622SOL     OW28327   4.413   2.277  17.022  0.1943  0.4711  0.1546
 5622SOL    HW128328   4.467   2.199  17.015 -2.0549 -1.1406  0.7256
 5622SOL    HW228329   4.477   2.344  16.999  2.4831 -1.9388 -0.4742
 5623SOL     OW28330   3.322   2.480   7.017 -0.0587 -0.0069  0.4072
 5623SOL    HW128331   3.320   2.404   7.075 -1.7807  1.7410  2.6226
 5623SOL    HW228332   3.400   2.530   7.040  0.3276 -0.5824  0.3535
 5624SOL     OW28333   0.428   3.566   3.356  0.1586 -0.0404 -0.5482
 5624SOL    HW128334   0.514   3.536   3.324  0.0276 -0.6498 -0.3320
 5624SOL    HW228335   0.429   3.654   3.318  0.3067  0.4047  0.4990
 5625SOL     OW28336   0.577   1.494   5.550  0.3194  0.1808  0.2152
 5625SOL    HW128337   0.565   1.525   5.640 -1.5033 -2.2167  0.8055
 5625SOL    HW228338   0.532   1.562   5.500 -1.0286 -0.4504  0.5531
 5626SOL     OW28339   1.739   1.993  17.204  0.1299 -0.3123 -0.6796
 5626SOL    HW128340   1.817   2.037  17.238  1.5929 -2.1605 -1.6591
 5626SOL    HW228341   1.680   2.068  17.194  0.5793  0.2034  0.5775
 5627SOL     OW28342   1.383   4.369   1.774  0.0981  0.0824 -0.2999
 5627SOL    HW128343   1.361   4.296   1.832  1.4430 -0.2305 -0.1961
 5627SOL    HW228344   1.423   4.328   1.697 -0.5820  0.0906 -0.6634
 5628SOL     OW28345   0.581   3.786   2.527  0.0686  0.2807 -0.0856
 5628SOL    HW128346   0.556   3.877   2.512 -1.3348  0.1247  1.3041
 5628SOL    HW228347   0.656   3.790   2.587 -0.0331  2.1666 -0.0894
 5629SOL     OW28348   0.453   1.724   5.103 -0.5602  0.2729 -0.5488
 5629SOL    HW128349   0.486   1.640   5.072  2.4152  1.1906  0.1841
 5629SOL    HW228350   0.531   1.777   5.086 -0.1997 -0.2901 -0.6457
 5630SOL     OW28351   0.442   3.771   9.167  0.3195 -0.1975  0.4376
 5630SOL    HW128352   0.365   3.822   9.192 -1.5401 -2.6617 -0.1993
 5630SOL    HW228353   0.514   3.821   9.204  2.2905 -2.9147  0.2651
 5631SOL     OW28354   0.560   0.833   8.712 -0.7411  1.0506 -0.3857
 5631SOL    HW128355   0.622   0.893   8.753  0.1966 -1.2164  1.4807
 5631SOL    HW228356   0.617   0.757   8.700 -0.9604  0.8935 -0.4330
 5632SOL     OW28357   4.434   0.924  10.703  0.2876 -0.1316  0.4371
 5632SOL    HW128358   4.428   0.990  10.771 -1.9031 -0.5983  0.7262
 5632SOL    HW228359   4.367   0.858  10.725 -0.3495  0.5999  0.6692
 5633SOL     OW28360   2.776   1.350   6.705  0.0731 -1.1208 -0.4209
 5633SOL    HW128361   2.835   1.299   6.649 -1.9140 -1.4852 -2.1999
 5633SOL    HW228362   2.749   1.277   6.760  1.1538 -1.3849 -0.2337
 5634SOL     OW28363   0.271   0.911   8.552  0.4763 -0.0230 -0.8101
 5634SOL    HW128364   0.271   0.816   8.543  0.6709 -0.3694  2.9642
 5634SOL    HW228365   0.341   0.932   8.491  0.8344  2.1706  0.3709
 5635SOL     OW28366   2.096   2.131   8.221 -0.8385 -0.3944 -0.2022
 5635SOL    HW128367   2.033   2.131   8.149 -0.1400 -2.4888 -0.8017
 5635SOL    HW228368   2.184   2.139   8.184 -0.0400 -2.4077  1.3207
 5636SOL     OW28369   4.168   2.889  10.579  0.0139  0.0442 -0.1962
 5636SOL    HW128370   4.168   2.963  10.640  1.7634 -0.0599 -0.0950
 5636SOL    HW228371   4.261   2.887  10.559 -0.2351 -0.2075 -1.3248
 5637SOL     OW28372   2.557   3.330  15.811  0.4387 -0.7297 -0.8676
 5637SOL    HW128373   2.514   3.359  15.891  1.8480  1.6537 -0.9697
 5637SOL    HW228374   2.482   3.314  15.753 -0.6383 -1.0398  0.6087
 5638SOL     OW28375   1.815   1.278  15.761 -0.4914  0.2074 -0.0645
 5638SOL    HW128376   1.860   1.333  15.826  0.2590  0.4510 -0.7889
 5638SOL    HW228377   1.770   1.343  15.708 -1.7063  0.0611  0.7875
 5639SOL     OW28378   0.601   0.530   8.474  1.1005 -0.5109 -0.5819
 5639SOL    HW128379   0.606   0.442   8.511  3.3830 -0.8595 -1.6998
 5639SOL    HW228380   0.630   0.583   8.548 -0.4975 -0.3999 -0.0388
 5640SOL     OW28381   3.850   2.551  14.144  0.2835  0.1183  0.1247
 5640SOL    HW128382   3.873   2.489  14.076 -2.7967  0.0702 -0.8801
 5640SOL    HW228383   3.759   2.572  14.124 -0.3496 -0.6524  2.1523
 5641SOL     OW28384   3.044   2.246   4.734  0.0876 -0.3135 -0.3109
 5641SOL    HW128385   3.116   2.265   4.675  1.3000 -1.5720  0.7524
 5641SOL    HW228386   3.082   2.285   4.813  0.9866 -2.8088  0.5050
 5642SOL     OW28387   3.316   1.941   5.508 -0.1334  0.3174  0.5869
 5642SOL    HW128388   3.334   2.035   5.513 -1.9143  0.8677 -3.8989
 5642SOL    HW228389   3.247   1.930   5.574 -1.4487 -0.3069 -0.9159
 5643SOL     OW28390   1.995   1.016   2.784  0.2909 -0.0386  0.3827
 5643SOL    HW128391   2.049   0.949   2.825  1.5650 -0.3353 -1.7247
 5643SOL    HW228392   1.930   1.025   2.853 -0.4513 -0.1695 -0.3077
 5644SOL     OW28393   0.647   0.484   6.209  0.0046  0.2440 -0.1420
 5644SOL    HW128394   0.619   0.570   6.180 -0.3691 -0.5535 -2.1748
 5644SOL    HW228395   0.602   0.476   6.293  0.5727  0.7638  0.2136
 5645SOL     OW28396   2.300   2.306   2.653 -0.1425  0.0307 -0.3695
 5645SOL    HW128397   2.231   2.349   2.703 -0.1824  0.9128 -1.1715
 5645SOL    HW228398   2.265   2.310   2.564 -2.9571 -1.4530  0.6864
 5646SOL     OW28399   2.424   4.262   8.669 -0.0890 -0.5799 -0.1262
 5646SOL    HW128400   2.451   4.255   8.578 -0.6766 -2.6683 -0.1293
 5646SOL    HW228401   2.397   4.354   8.679  0.4024 -0.6557  2.0838
 5647SOL     OW28402   4.313   0.417  12.721 -0.3907 -0.2026  0.0114
 5647SOL    HW128403   4.324   0.431  12.627  4.5001 -1.9484  0.3334
 5647SOL    HW228404   4.339   0.325  12.731 -1.4836 -0.4776  0.3565
 5648SOL     OW28405   4.504   2.451   4.830 -0.1121  0.1972  0.0926
 5648SOL    HW128406   4.539   2.432   4.917  0.4803 -1.4678 -0.5213
 5648SOL    HW228407   4.583   2.491   4.793  0.3204  1.1029  2.0127
 5649SOL     OW28408   0.949   1.077   6.277 -0.5475  0.6883  0.3685
 5649SOL    HW128409   1.009   1.119   6.215 -2.0728  1.5948 -0.4785
 5649SOL    HW228410   0.929   1.005   6.217 -1.1580  1.5936 -0.5257
 5650SOL     OW28411   0.829   4.021   8.847  0.4110  0.3535  0.0577
 5650SOL    HW128412   0.771   3.950   8.873  1.0084 -0.0393  0.3256
 5650SOL    HW228413   0.886   3.976   8.785  0.8925 -1.6554  1.9806
 5651SOL     OW28414   0.692   3.330   8.719 -0.2676 -0.1826  0.3969
 5651SOL    HW128415   0.666   3.396   8.654 -0.0937 -0.4209  0.0866
 5651SOL    HW228416   0.692   3.387   8.796  0.8671  0.8371 -0.3465
 5652SOL     OW28417   0.765   4.639   3.706  0.0334  0.1050 -0.0370
 5652SOL    HW128418   0.733   4.661   3.619  0.5308 -2.0556 -0.7573
 5652SOL    HW228419   0.772   0.011   3.729  2.8912  0.4313 -2.2277
 5653SOL     OW28420   0.710   0.229   6.470  0.0468 -0.0186 -0.0133
 5653SOL    HW128421   0.656   0.240   6.392  0.0637 -0.1200 -0.0395
 5653SOL    HW228422   0.742   0.319   6.480  0.9557 -0.2181 -1.1419
 5654SOL     OW28423   1.959   0.725  11.844 -0.0189 -0.5429 -0.5746
 5654SOL    HW128424   1.914   0.758  11.922  4.1056 -0.0764  1.5855
 5654SOL    HW228425   1.904   0.657  11.806 -0.4586 -1.3803  1.5844
 5655SOL     OW28426   2.137   0.449   0.129  1.0330 -0.2191 -0.2809
 5655SOL    HW128427   2.181   0.406   0.201  2.5262 -1.7864 -2.1319
 5655SOL    HW228428   2.060   0.393   0.121 -0.0875  1.5385 -1.9784
 5656SOL     OW28429   1.931   0.697   3.742 -0.4734  0.3414  0.8206
 5656SOL    HW128430   1.996   0.655   3.799 -0.0491 -0.6905 -0.4447
 5656SOL    HW228431   1.852   0.672   3.789 -1.6013  2.3547  0.0135
 5657SOL     OW28432   0.253   4.116   2.665  0.3034 -0.1410 -0.2682
 5657SOL    HW128433   0.259   4.023   2.686  0.6528 -0.2813 -0.9774
 5657SOL    HW228434   0.165   4.132   2.632 -0.9145 -0.6516  2.8095
 5658SOL     OW28435   1.184   0.408   4.858  0.4933  0.6687 -0.1685
 5658SOL    HW128436   1.240   0.364   4.794 -0.9434  0.3164 -1.1768
 5658SOL    HW228437   1.239   0.482   4.882 -1.0857  1.4507  1.0379
 5659SOL     OW28438   0.918   4.695   6.356 -0.0980 -0.4861  0.3092
 5659SOL    HW128439   0.988   4.669   6.296 -0.9860 -0.4439 -0.7329
 5659SOL    HW228440   0.877   4.612   6.382 -1.0364  0.5533  2.1695
 5660SOL     OW28441   2.706   0.993   4.975 -0.3511  0.3240  0.2401
 5660SOL    HW128442   2.630   0.960   4.928  0.3327  0.7357 -1.1533
 5660SOL    HW228443   2.677   0.994   5.066 -2.9238 -1.0723 -0.5575
 5661SOL     OW28444   1.958   0.288   3.857 -0.2604 -0.0881 -0.4401
 5661SOL    HW128445   1.970   0.201   3.820 -1.3357 -1.1181  1.6335
 5661SOL    HW228446   1.889   0.317   3.797 -0.3822  0.4509 -0.0378
 5662SOL     OW28447   1.183   4.605   5.242  0.2608  0.2441 -0.3716
 5662SOL    HW128448   1.237   4.536   5.280  2.2047  1.4836 -0.9389
 5662SOL    HW228449   1.232   4.651   5.175  0.5662  0.8560  0.2692
 5663SOL     OW28450   0.996   2.217  15.278 -0.2874  0.3356 -0.4714
 5663SOL    HW128451   1.001   2.247  15.368 -1.1734 -0.7946 -0.0425
 5663SOL    HW228452   0.972   2.125  15.290 -0.9126  0.1983 -2.7527
 5664SOL     OW28453   3.638   2.165  15.948 -0.3200  0.8905 -0.5892
 5664SOL    HW128454   3.705   2.232  15.931 -0.1972  0.9389  0.1031
 5664SOL    HW228455   3.640   2.120  15.863  1.9974  0.4343 -0.2993
 5665SOL     OW28456   1.373   2.314   6.035  0.1420 -0.0186  0.6605
 5665SOL    HW128457   1.448   2.300   6.092  0.0886 -0.0720  0.7173
 5665SOL    HW228458   1.391   2.270   5.951  0.5322  1.1708  0.1224
 5666SOL     OW28459   0.308   0.702  12.146  0.1513 -0.3848 -0.3417
 5666SOL    HW128460   0.328   0.650  12.067 -2.0333 -0.2468 -0.9842
 5666SOL    HW228461   0.214   0.683  12.151  0.3100 -1.1658 -0.3346
 5667SOL     OW28462   4.537   3.916   4.400  0.0121 -0.0943 -0.1535
 5667SOL    HW128463   4.481   3.850   4.359 -1.5475  0.8320  0.4706
 5667SOL    HW228464   4.554   3.962   4.317  0.3091  2.2147  1.1896
 5668SOL     OW28465   4.360   0.850  12.974  0.1284  0.4476 -0.3430
 5668SOL    HW128466   4.363   0.834  12.880 -3.1005 -1.8167 -0.0953
 5668SOL    HW228467   4.271   0.874  13.000 -0.9027 -3.7559  0.0101
 5669SOL     OW28468   2.202   1.287   5.672 -0.2828 -0.5836  0.3108
 5669SOL    HW128469   2.140   1.238   5.725  1.4108 -1.1795  1.7073
 5669SOL    HW228470   2.273   1.233   5.639 -0.3663  0.0239 -0.8892
 5670SOL     OW28471   4.644   4.672   3.151 -0.1681  0.2383  0.1017
 5670SOL    HW128472   4.648   4.720   3.068 -0.6643 -0.3703 -0.2856
 5670SOL    HW228473   0.012   4.656   3.181 -0.9014  2.0573  3.1742
 5671SOL     OW28474   1.811   2.308   6.339 -0.0792 -0.3940 -0.4048
 5671SOL    HW128475   1.818   2.363   6.417 -0.8564 -0.0344 -0.5869
 5671SOL    HW228476   1.843   2.220   6.358  1.0076  0.4664  1.7709
 5672SOL     OW28477   2.909   0.571   3.592 -0.4142  0.6333  0.0068
 5672SOL    HW128478   2.983   0.533   3.544 -1.0643  1.2407 -1.4712
 5672SOL    HW228479   2.863   0.491   3.617 -0.7520  0.3850 -1.3710
 5673SOL     OW28480   1.151   3.553   7.962  0.1214  0.1082 -0.2376
 5673SOL    HW128481   1.200   3.481   8.000  1.2302  0.8891 -0.2076
 5673SOL    HW228482   1.141   3.526   7.871 -0.4011  0.4974 -0.2993
 5674SOL     OW28483   0.753   3.329   4.962  0.7027  0.1038 -0.6229
 5674SOL    HW128484   0.702   3.401   4.925  0.1765  0.1980  0.2856
 5674SOL    HW228485   0.745   3.356   5.053 -1.3187 -1.3310 -0.3800
 5675SOL     OW28486   1.886   2.541   3.336 -0.2486  0.2426  0.7285
 5675SOL    HW128487   1.880   2.471   3.400 -2.0109 -0.4636 -0.2182
 5675SOL    HW228488   1.841   2.495   3.265  1.1382 -1.8330  1.2157
 5676SOL     OW28489   4.568   4.158   4.576  0.5105 -0.2935 -0.1824
 5676SOL    HW128490   4.574   4.122   4.664 -0.8262 -0.6735 -0.2569
 5676SOL    HW228491   4.520   4.093   4.526 -1.0594  0.9328 -0.2681
 5677SOL     OW28492   0.211   0.032  16.336  0.0557  0.2397  0.4150
 5677SOL    HW128493   0.239   4.662  16.344 -0.8436 -0.2151 -1.7114
 5677SOL    HW228494   0.170   0.033  16.249  0.5446  2.6025  0.2078
 5678SOL     OW28495   2.587   2.249   7.803 -0.1812 -0.0616 -0.4531
 5678SOL    HW128496   2.559   2.164   7.838  1.2002 -0.0810  0.6206
 5678SOL    HW228497   2.620   2.292   7.882 -0.7878 -0.1257 -0.1628
 5679SOL     OW28498   3.581   3.995   3.140  0.0508  0.5018  0.9717
 5679SOL    HW128499   3.636   3.918   3.125 -2.2580 -1.0494  0.4140
 5679SOL    HW228500   3.545   4.006   3.052  0.9930  0.7859  0.6278
 5680SOL     OW28501   2.054   4.260   9.257 -0.8092 -0.7862  0.2947
 5680SOL    HW128502   2.055   4.175   9.300  1.8000 -1.5434 -1.2512
 5680SOL    HW228503   1.980   4.262   9.197 -1.0610  1.2181  0.6470
 5681SOL     OW28504   4.222   0.157   6.336  0.3522  0.3219 -0.2197
 5681SOL    HW128505   4.254   0.220   6.271 -0.4391  0.3849 -0.5470
 5681SOL    HW228506   4.205   0.220   6.406  3.4689  1.1621 -0.2245
 5682SOL     OW28507   1.273   3.191   6.228 -0.0349 -0.0914 -0.6571
 5682SOL    HW128508   1.334   3.230   6.166 -1.2218  1.4678 -0.8645
 5682SOL    HW228509   1.214   3.265   6.242  0.4035 -0.2344  1.9132
 5683SOL     OW28510   1.953   2.237  12.697 -0.1755  0.2987 -0.0115
 5683SOL    HW128511   1.966   2.314  12.641 -0.0371  0.9327  0.8938
 5683SOL    HW228512   1.865   2.260  12.728 -0.0329  0.8457 -0.0150
 5684SOL     OW28513   3.487   4.161  16.335 -0.0187 -0.0754  0.2422
 5684SOL    HW128514   3.425   4.219  16.379  1.1896  0.5041  1.1909
 5684SOL    HW228515   3.487   4.193  16.245 -2.5400 -2.2537 -0.5380
 5685SOL     OW28516   3.411   1.683  10.838  0.1725 -0.3219  0.0623
 5685SOL    HW128517   3.471   1.616  10.871  1.5259  0.6145 -0.5044
 5685SOL    HW228518   3.368   1.643  10.763 -1.7600 -0.7763  1.4005
 5686SOL     OW28519   3.112   4.475   4.584 -0.3256  0.1349  0.7365
 5686SOL    HW128520   3.059   4.510   4.655 -0.4917  3.6477 -1.1625
 5686SOL    HW228521   3.074   4.387   4.577  0.6423 -0.5567  3.9164
 5687SOL     OW28522   3.873   1.721   8.887  0.5408  0.4470  0.3336
 5687SOL    HW128523   3.837   1.674   8.962 -1.1841 -0.3623 -1.0119
 5687SOL    HW228524   3.926   1.657   8.839  1.6509  0.3896  1.6334
 5688SOL     OW28525   2.294   4.556   5.393 -0.4044 -0.1489  0.0379
 5688SOL    HW128526   2.290   4.638   5.344 -2.2334 -0.1748  0.1488
 5688SOL    HW228527   2.204   4.522   5.388  0.0196 -1.2210 -0.3557
 5689SOL     OW28528   1.729   0.782   3.295  0.4557 -0.0516  0.4750
 5689SOL    HW128529   1.674   0.802   3.218  0.4733  0.8558  0.6984
 5689SOL    HW228530   1.737   0.866   3.340  1.3311  0.6141 -0.9320
 5690SOL     OW28531   0.870   0.949   7.845  0.1224 -0.1623  0.0185
 5690SOL    HW128532   0.923   0.948   7.925 -1.6412  0.7386  1.2059
 5690SOL    HW228533   0.782   0.940   7.881  0.1920 -0.9795 -0.0110
 5691SOL     OW28534   3.746   1.371   4.022  0.5738  0.4884 -0.5601
 5691SOL    HW128535   3.680   1.304   4.003  1.6186  0.2360 -3.2982
 5691SOL    HW228536   3.681   1.430   4.059  0.5859 -1.0915  2.0087
 5692SOL     OW28537   2.320   2.214   7.530 -0.2756 -0.5622  0.2113
 5692SOL    HW128538   2.294   2.163   7.453 -1.8994 -0.8352  0.9302
 5692SOL    HW228539   2.256   2.185   7.595  0.5920  0.4344  1.5055
 5693SOL     OW28540   2.816   1.274   1.886 -0.3802  0.1005  0.1009
 5693SOL    HW128541   2.887   1.318   1.931 -2.5064  0.1152  3.4433
 5693SOL    HW228542   2.746   1.280   1.951 -2.0135 -3.0829 -1.3711
 5694SOL     OW28543   0.288   3.928   3.875  0.3783 -0.7340 -0.0622
 5694SOL    HW128544   0.204   3.886   3.895 -0.4430  0.6383 -0.6687
 5694SOL    HW228545   0.338   3.846   3.877 -0.1691 -1.0631  0.2820
 5695SOL     OW28546   4.632   3.025   1.712 -0.3660  0.2823  0.5343
 5695SOL    HW128547   4.706   2.985   1.666  1.9547  1.7362  2.9545
 5695SOL    HW228548   4.679   3.038   1.795  1.3966 -0.7115 -0.3021
 5696SOL     OW28549   4.540   4.124   1.807 -0.0342 -0.1707 -0.6018
 5696SOL    HW128550   4.601   4.058   1.838  1.3492  0.4628 -2.0000
 5696SOL    HW228551   4.598   4.197   1.787  1.8583 -1.4248  0.3435
 5697SOL     OW28552   0.865   0.798   1.272 -0.0103 -0.1731  0.3207
 5697SOL    HW128553   0.777   0.760   1.278 -1.2887  2.5800 -1.5545
 5697SOL    HW228554   0.851   0.890   1.252 -0.3040 -0.4001 -0.5015
 5698SOL     OW28555   2.461   3.335   4.488 -0.4618  0.1696 -0.4922
 5698SOL    HW128556   2.513   3.350   4.566 -0.9670 -0.0497 -0.1142
 5698SOL    HW228557   2.519   3.276   4.439 -1.1069  0.7000 -1.9139
 5699SOL     OW28558   0.544   2.993   6.370 -0.8815 -0.0301 -0.2835
 5699SOL    HW128559   0.537   3.055   6.297 -0.3175 -1.5684 -1.6204
 5699SOL    HW228560   0.450   2.988   6.390 -0.5898  0.7513  1.3115
 5700SOL     OW28561   3.907   1.118   3.955  0.1934 -0.0700 -0.2353
 5700SOL    HW128562   3.845   1.045   3.963 -1.0550  1.0061 -0.0871
 5700SOL    HW228563   3.848   1.193   3.959  0.4095  0.1461 -1.1997
 5701SOL     OW28564   1.476   4.377  12.315 -0.2669 -0.2080 -0.0465
 5701SOL    HW128565   1.468   4.378  12.410 -0.0234 -1.6819 -0.0077
 5701SOL    HW228566   1.566   4.350  12.295 -0.1780 -0.4878  0.7307
 5702SOL     OW28567   3.660   0.783  10.622 -0.3988 -0.6224  0.2756
 5702SOL    HW128568   3.750   0.812  10.635 -1.9498  2.6502  3.7909
 5702SOL    HW228569   3.659   0.716  10.690 -1.7700  0.5591  1.4243
 5703SOL     OW28570   0.434   2.259   5.436 -0.2854  0.3235 -0.2684
 5703SOL    HW128571   0.427   2.354   5.426  3.1921  0.5841 -0.2820
 5703SOL    HW228572   0.447   2.254   5.530  0.6344 -2.3429 -0.5398
 5704SOL     OW28573   0.380   3.439   2.519 -0.7549 -0.1501 -0.4479
 5704SOL    HW128574   0.379   3.409   2.610 -1.2020  0.0298 -0.3889
 5704SOL    HW228575   0.440   3.377   2.478 -1.3596 -1.1080  0.1050
 5705SOL     OW28576   4.565   1.265   1.934 -0.3676 -0.4044  0.4411
 5705SOL    HW128577   4.586   1.172   1.929  0.8490 -0.0249 -1.2636
 5705SOL    HW228578   4.599   1.285   2.021  2.8695  2.0549 -1.3832
 5706SOL     OW28579   4.150   1.538   8.813  0.6550  0.4717 -0.1628
 5706SOL    HW128580   4.161   1.532   8.908 -1.1438  0.7658  0.0595
 5706SOL    HW228581   4.245   1.542   8.805  0.8079 -0.6935  1.0909
 5707SOL     OW28582   0.044   4.431   8.134  0.2178 -0.2863 -0.3089
 5707SOL    HW128583   4.687   4.417   8.188 -0.1187 -0.0829 -0.7473
 5707SOL    HW228584   0.105   4.443   8.207 -0.5505  0.6896  0.1655
 5708SOL     OW28585   4.322   0.365   6.196 -0.5781  0.0891 -0.3574
 5708SOL    HW128586   4.317   0.372   6.291  0.0056 -2.0500 -0.1802
 5708SOL    HW228587   4.352   0.453   6.173  2.7337 -1.6859 -2.8658
 5709SOL     OW28588   0.322   2.009   4.776 -0.1740 -0.4947  0.6002
 5709SOL    HW128589   0.305   1.980   4.686  0.6042 -1.6864  0.8321
 5709SOL    HW228590   0.390   1.945   4.796 -0.2370 -0.7403  0.0434
 5710SOL     OW28591   3.371   0.228   5.494 -0.4630  0.3805  0.3286
 5710SOL    HW128592   3.289   0.197   5.458 -0.5360 -1.9768  2.5330
 5710SOL    HW228593   3.376   0.172   5.572 -0.8094 -0.6042 -0.3633
 5711SOL     OW28594   3.538   3.368  13.200  0.7065  0.2095 -0.1253
 5711SOL    HW128595   3.605   3.377  13.268  0.9472  1.7075 -0.5853
 5711SOL    HW228596   3.587   3.414  13.133 -0.6806  1.2480 -0.4263
 5712SOL     OW28597   1.804   4.097  15.183 -0.3360  0.1172  0.4811
 5712SOL    HW128598   1.766   4.097  15.271 -1.6802  0.4133 -0.1017
 5712SOL    HW228599   1.866   4.027  15.205 -0.1805 -0.4140 -1.6048
 5713SOL     OW28600   3.139   3.611   3.413 -0.3336  0.0248 -0.7384
 5713SOL    HW128601   3.060   3.647   3.374  0.0571  1.3513 -0.2965
 5713SOL    HW228602   3.203   3.669   3.372  0.5902  0.6674  1.6178
 5714SOL     OW28603   1.895   2.958   7.026 -0.3980  0.2676 -0.4798
 5714SOL    HW128604   1.890   2.999   7.112  1.5079  0.8488 -0.6618
 5714SOL    HW228605   1.929   2.870   7.046 -0.9168  0.1065 -0.2948
 5715SOL     OW28606   3.733   3.418  13.406 -0.3965  0.3200 -0.0295
 5715SOL    HW128607   3.787   3.493  13.430  0.7246 -0.1551 -1.0140
 5715SOL    HW228608   3.705   3.388  13.493  0.2472  0.4446  0.2238
 5716SOL     OW28609   3.517   1.996   7.611 -0.4900  0.1688  1.0832
 5716SOL    HW128610   3.443   2.057   7.623  1.2558  2.4246  0.4599
 5716SOL    HW228611   3.511   1.949   7.694  1.0365 -0.5581  0.7788
 5717SOL     OW28612   0.996   0.602   3.474 -0.4661  0.3616  0.2109
 5717SOL    HW128613   0.913   0.600   3.520  0.0845 -0.7103  1.1684
 5717SOL    HW228614   1.051   0.638   3.544 -1.7311  0.1434  1.3139
 5718SOL     OW28615   1.424   0.697  13.987 -0.6126 -0.7305  0.0249
 5718SOL    HW128616   1.443   0.648  13.908 -1.0392 -1.2320  0.2340
 5718SOL    HW228617   1.353   0.645  14.024  1.4451 -4.4104 -1.2866
 5719SOL     OW28618   1.444   3.988   6.130 -0.2067 -0.2930  0.5203
 5719SOL    HW128619   1.527   3.941   6.138  0.6780  1.2327  0.3396
 5719SOL    HW228620   1.473   4.072   6.092 -1.1188 -0.3704 -0.3488
 5720SOL     OW28621   3.572   3.993   8.688  0.9310  0.8247  0.7966
 5720SOL    HW128622   3.530   3.986   8.602 -3.2401  0.0638  2.8545
 5720SOL    HW228623   3.544   4.082   8.709 -2.5031  0.5433 -2.4733
 5721SOL     OW28624   1.275   2.158   7.363 -0.2128 -0.0720 -0.0290
 5721SOL    HW128625   1.181   2.173   7.376 -0.6372 -1.8776 -1.0828
 5721SOL    HW228626   1.315   2.244   7.372  3.2776 -1.5233 -1.7794
 5722SOL     OW28627   0.198   2.512   2.817  0.5527 -0.2264  0.3493
 5722SOL    HW128628   0.192   2.445   2.749  0.8118 -0.4652  0.5597
 5722SOL    HW228629   0.289   2.510   2.847  0.9766  2.5520 -0.7754
 5723SOL     OW28630   4.054   3.335   2.058  0.1988  0.0119 -0.2487
 5723SOL    HW128631   3.982   3.310   2.000 -1.7223  0.1676  2.0358
 5723SOL    HW228632   4.128   3.302   2.008  0.2658  0.2102 -0.2780
 5724SOL     OW28633   0.986   1.391   2.090  0.1966 -0.4402 -0.1710
 5724SOL    HW128634   1.053   1.383   2.022  1.1346  0.0171  0.7112
 5724SOL    HW228635   1.010   1.322   2.151 -2.0638 -2.8582 -2.0174
 5725SOL     OW28636   1.262   0.660   4.142 -0.4941 -0.3637 -0.5167
 5725SOL    HW128637   1.212   0.579   4.156 -2.9987  1.4964  1.1616
 5725SOL    HW228638   1.320   0.646   4.218 -0.8959 -2.7124 -0.6328
 5726SOL     OW28639   0.884   1.813   2.987 -0.1979 -0.4451  0.2054
 5726SOL    HW128640   0.883   1.868   2.908 -1.4878  1.2441  1.4054
 5726SOL    HW228641   0.791   1.792   2.995 -0.5105  0.6331 -0.6109
 5727SOL     OW28642   2.934   1.117  12.839 -0.0326  0.5845  0.6686
 5727SOL    HW128643   2.842   1.093  12.823 -0.1761  1.7522 -0.2438
 5727SOL    HW228644   2.979   1.038  12.809 -2.0684 -0.8026  1.2454
 5728SOL     OW28645   2.088   0.195   7.529 -0.2164 -0.0585  0.6054
 5728SOL    HW128646   2.051   0.186   7.441  1.5330 -1.7934  0.0558
 5728SOL    HW228647   2.111   0.288   7.527 -1.3720  0.2185  0.0315
 5729SOL     OW28648   2.325   2.384  15.892 -0.1586  0.1042  0.2925
 5729SOL    HW128649   2.420   2.388  15.883 -0.1284 -2.1814 -0.4663
 5729SOL    HW228650   2.312   2.290  15.905  1.3524  0.0211  1.0933
 5730SOL     OW28651   2.950   4.486  10.060 -0.2081  0.1722  0.0594
 5730SOL    HW128652   2.988   4.398  10.053 -2.2611 -0.5905 -1.8601
 5730SOL    HW228653   2.979   4.511  10.147 -0.7387  0.7848  0.0572
 5731SOL     OW28654   1.403   1.266  13.868 -0.7850 -0.0745  0.0638
 5731SOL    HW128655   1.408   1.275  13.773 -2.3397 -2.2324 -0.2283
 5731SOL    HW228656   1.309   1.268  13.887 -0.6846  1.2592  0.4581
 5732SOL     OW28657   0.207   4.525   4.007  0.2472 -0.5339 -0.5171
 5732SOL    HW128658   0.247   4.522   3.920 -0.8749 -0.4982 -1.0358
 5732SOL    HW228659   0.167   4.438   4.010  2.4076 -1.5415 -0.8323
 5733SOL     OW28660   3.300   2.074  15.935 -0.1448  0.2778  0.3165
 5733SOL    HW128661   3.294   2.097  15.843 -3.0792 -0.8157  0.2248
 5733SOL    HW228662   3.364   2.004  15.933  0.2687  0.7051 -1.6449
 5734SOL     OW28663   2.933   0.239   7.798 -0.1099 -0.4018  0.3725
 5734SOL    HW128664   2.841   0.230   7.823 -0.1308  0.2270  0.5314
 5734SOL    HW228665   2.925   0.311   7.735 -0.9418  0.8694  1.9160
 5735SOL     OW28666   0.443   1.221   1.663  0.1813 -0.0711 -0.1680
 5735SOL    HW128667   0.410   1.150   1.718  0.2756  1.2170  1.5597
 5735SOL    HW228668   0.424   1.302   1.711  1.4204  0.0337  0.1674
 5736SOL     OW28669   0.529   0.536   5.432 -0.0284  0.3296 -0.1186
 5736SOL    HW128670   0.624   0.526   5.438  0.1762  2.2121 -0.1603
 5736SOL    HW228671   0.501   0.444   5.429  1.2334  0.0036 -2.0166
 5737SOL     OW28672   0.554   3.805   2.900 -0.1403  0.2593  0.2833
 5737SOL    HW128673   0.596   3.883   2.936  0.0885  1.6428 -3.0028
 5737SOL    HW228674   0.463   3.822   2.921  0.0152 -0.6092  1.6805
 5738SOL     OW28675   4.564   0.833  10.219 -0.1921 -0.3356 -0.4044
 5738SOL    HW128676   4.473   0.806  10.233 -0.3663  0.7746  0.6129
 5738SOL    HW228677   4.572   0.806  10.127  2.5287  0.0674 -0.2901
 5739SOL     OW28678   1.096   3.219   2.429 -0.2274  0.2420  0.1433
 5739SOL    HW128679   1.051   3.283   2.483 -0.0791  0.7418 -0.3235
 5739SOL    HW228680   1.186   3.240   2.453 -0.1453 -0.7716  0.7492
 5740SOL     OW28681   0.039   0.520  13.926 -0.1035 -0.0095  0.2238
 5740SOL    HW128682   4.675   0.474  13.926 -0.5418  0.7903  1.2580
 5740SOL    HW228683   0.011   0.587  13.864  1.6120  0.1609 -0.3479
 5741SOL     OW28684   1.680   1.884   3.986 -0.2602  0.1296 -0.0899
 5741SOL    HW128685   1.732   1.828   3.928 -2.1499 -3.1256  1.3754
 5741SOL    HW228686   1.748   1.913   4.047  0.5273  0.5604 -1.1770
 5742SOL     OW28687   3.668   3.225   4.883  0.0617  0.1197  0.2028
 5742SOL    HW128688   3.602   3.180   4.830 -1.8057  1.7155  1.1488
 5742SOL    HW228689   3.701   3.158   4.942 -1.9430 -1.6416 -0.6929
 5743SOL     OW28690   3.421   3.740  16.050 -0.3248  0.3832  0.1864
 5743SOL    HW128691   3.349   3.685  16.083 -0.3889 -0.3626 -1.1793
 5743SOL    HW228692   3.375   3.823  16.036 -0.3023  0.5871  1.3480
 5744SOL     OW28693   1.279   3.932   3.037 -0.5930 -0.2747 -0.8094
 5744SOL    HW128694   1.327   3.855   3.007 -0.7364 -2.7190  5.2360
 5744SOL    HW228695   1.341   4.000   3.009  0.0467  0.0231  1.3072
 5745SOL     OW28696   4.195   1.077   8.499  0.2677 -0.3465  0.0501
 5745SOL    HW128697   4.221   1.166   8.519 -0.5442  0.4998 -2.5521
 5745SOL    HW228698   4.152   1.088   8.414 -0.6890  0.7439  0.6796
 5746SOL     OW28699   3.247   3.596   2.725  0.5547 -0.5070  0.5512
 5746SOL    HW128700   3.268   3.673   2.779  1.5161 -1.3615  1.3829
 5746SOL    HW228701   3.169   3.632   2.682 -1.0281 -2.5210  1.7264
 5747SOL     OW28702   1.900   2.740   6.171 -0.1982 -0.0460  0.6980
 5747SOL    HW128703   1.839   2.715   6.240  1.2538 -2.8097  0.9681
 5747SOL    HW228704   1.864   2.820   6.134 -0.1720  0.3996  1.6190
 5748SOL     OW28705   4.580   2.176   9.252  0.4755 -0.3073 -0.3801
 5748SOL    HW128706   4.508   2.125   9.287 -1.6305  3.0025  0.0430
 5748SOL    HW228707   4.541   2.262   9.261  0.8256 -0.0581 -1.2005
 5749SOL     OW28708   2.694   2.254   7.089 -0.1132  0.2867  0.2385
 5749SOL    HW128709   2.691   2.163   7.117  0.3246 -0.1037 -0.9572
 5749SOL    HW228710   2.692   2.304   7.170 -2.9168 -0.8090  0.8417
 5750SOL     OW28711   2.331   2.164   0.404 -0.2060  0.0903 -0.5273
 5750SOL    HW128712   2.385   2.106   0.457  0.1591  1.1814  0.2942
 5750SOL    HW228713   2.249   2.131   0.441 -0.9176  0.3589 -1.8399
 5751SOL     OW28714   0.531   0.541   5.809  0.0744 -0.4675  0.1558
 5751SOL    HW128715   0.450   0.579   5.775 -0.7610 -0.4183  2.2077
 5751SOL    HW228716   0.501   0.458   5.845  3.4338 -1.6314  0.2411
 5752SOL     OW28717   3.871   0.328   2.750 -0.3796  0.8942  0.1384
 5752SOL    HW128718   3.947   0.303   2.803  0.0553 -0.1289 -0.9510
 5752SOL    HW228719   3.911   0.378   2.679 -0.9160  0.3056 -0.5818
 5753SOL     OW28720   3.120   3.687   4.258 -0.1959 -0.3222  0.6040
 5753SOL    HW128721   3.211   3.695   4.286  0.1076 -0.1926 -0.3915
 5753SOL    HW228722   3.098   3.623   4.326 -0.6779  0.1090  0.8527
 5754SOL     OW28723   4.191   3.679   6.278  0.4189 -0.2732 -0.2907
 5754SOL    HW128724   4.219   3.708   6.365 -1.0718  1.2745 -0.3228
 5754SOL    HW228725   4.278   3.653   6.247  1.3003  0.3921  1.5887
 5755SOL     OW28726   3.943   4.700  14.966 -0.3377  0.5404 -0.7405
 5755SOL    HW128727   4.004   0.045  14.932  1.3926  0.1970  1.5977
 5755SOL    HW228728   3.899   4.682  14.883  0.7247  4.0990 -2.0583
 5756SOL     OW28729   4.000   3.453   0.979  0.7701 -0.4396 -0.5575
 5756SOL    HW128730   3.935   3.432   1.046 -0.9366  3.5441 -0.9095
 5756SOL    HW228731   3.984   3.391   0.908  1.1228 -2.2552  0.9551
 5757SOL     OW28732   0.138   1.500   4.409  0.6209 -0.0360  0.8100
 5757SOL    HW128733   0.090   1.582   4.398 -0.0030 -0.5747 -0.4003
 5757SOL    HW228734   0.114   1.461   4.493 -1.2442  0.8993  0.6995
 5758SOL     OW28735   4.479   0.751   3.462  0.0788 -0.3829 -0.2247
 5758SOL    HW128736   4.487   0.783   3.552  1.9617 -2.2451  0.2642
 5758SOL    HW228737   4.417   0.813   3.424  0.9901  1.2412  0.9437
 5759SOL     OW28738   0.753   3.485  15.027 -0.6109  0.0550 -0.3350
 5759SOL    HW128739   0.757   3.569  15.073 -0.1804 -2.1449  3.6584
 5759SOL    HW228740   0.773   3.505  14.936  0.6227  2.4305  0.4635
 5760SOL     OW28741   3.598   3.061  14.112  0.4339 -0.2531  0.1927
 5760SOL    HW128742   3.534   3.101  14.171  1.1919  0.0483  0.8161
 5760SOL    HW228743   3.668   3.125  14.127  1.2420 -0.7966 -1.3455
 5761SOL     OW28744   2.890   2.634   2.640  0.7553  0.3163  0.1129
 5761SOL    HW128745   2.853   2.718   2.613 -0.0081 -0.5983 -1.6077
 5761SOL    HW228746   2.899   2.582   2.561  0.8763  1.0666 -0.3705
 5762SOL     OW28747   4.288   3.696   0.082 -0.3600  0.3975  0.4269
 5762SOL    HW128748   4.249   3.783   0.079  0.9572  0.9732 -0.2163
 5762SOL    HW228749   4.255   3.672   0.169 -0.8016 -0.4510  0.0265
 5763SOL     OW28750   3.983   1.853   3.660 -0.1795 -0.1589  0.3348
 5763SOL    HW128751   3.956   1.941   3.687 -0.2734 -0.5849  1.6238
 5763SOL    HW228752   4.055   1.839   3.723  0.9592 -0.8538 -1.1218
 5764SOL     OW28753   1.010   2.001  14.283  0.1695  0.2676  0.5797
 5764SOL    HW128754   1.030   2.088  14.317  1.0372 -0.0202  0.8284
 5764SOL    HW228755   0.934   1.987  14.340  0.1986 -0.4517  0.4452
 5765SOL     OW28756   4.134   2.441   6.663  0.1937 -0.3600 -0.4871
 5765SOL    HW128757   4.039   2.429   6.668  0.2629 -0.0864  1.4062
 5765SOL    HW228758   4.162   2.349   6.667 -0.4347 -0.5261  0.0222
 5766SOL     OW28759   2.544   0.043   5.026 -0.0071 -0.1059 -0.1113
 5766SOL    HW128760   2.455   0.012   5.039  0.7372 -2.9859 -1.9343
 5766SOL    HW228761   2.556   0.092   5.107 -1.1342 -1.4336  0.8630
 5767SOL     OW28762   0.616   4.538  15.013 -0.4554 -0.0833  0.1741
 5767SOL    HW128763   0.688   4.600  15.019 -1.0365  0.3344  2.8496
 5767SOL    HW228764   0.580   4.562  14.927 -1.2853  3.4362  1.5153
 5768SOL     OW28765   3.197   0.040   5.782  0.5013 -0.3753  0.2967
 5768SOL    HW128766   3.117   4.719   5.748  1.1961 -0.1301 -1.6545
 5768SOL    HW228767   3.177   0.126   5.818 -0.1862 -0.2564 -0.3495
 5769SOL     OW28768   3.670   2.305   6.030  0.7288  0.4000 -0.3694
 5769SOL    HW128769   3.579   2.329   6.011  0.1507  0.0071  1.9855
 5769SOL    HW228770   3.701   2.389   5.997 -0.4241  1.1240  0.3923
 5770SOL     OW28771   0.771   4.532   3.325  0.0503 -0.1139 -0.0566
 5770SOL    HW128772   0.812   4.484   3.397 -0.5393  1.7066  1.4977
 5770SOL    HW228773   0.729   4.603   3.373 -0.0980  0.5307 -1.1501
 5771SOL     OW28774   3.504   1.209   0.321 -0.0595 -0.3702 -0.2259
 5771SOL    HW128775   3.445   1.265   0.371  1.9650  0.8090  0.8323
 5771SOL    HW228776   3.493   1.135   0.380 -0.0296 -0.6361 -0.5516
 5772SOL     OW28777   1.494   4.296  10.347 -0.4648 -0.7652  0.1326
 5772SOL    HW128778   1.554   4.225  10.324  1.2569  1.2707 -1.5254
 5772SOL    HW228779   1.425   4.234  10.374 -0.8215  0.2301  1.5222
 5773SOL     OW28780   0.859   1.454  16.178 -0.0198 -0.8287 -0.4343
 5773SOL    HW128781   0.779   1.460  16.232  2.1098 -1.2008  2.7596
 5773SOL    HW228782   0.842   1.518  16.108 -0.0547 -1.9431 -1.4382
 5774SOL     OW28783   0.219   4.522   4.443  0.9787  0.3918 -0.0778
 5774SOL    HW128784   0.169   4.469   4.380 -1.0275  1.3136  0.7540
 5774SOL    HW228785   0.230   4.470   4.523 -0.5961 -2.0375 -1.4178
 5775SOL     OW28786   2.927   0.718   6.360 -0.0616  0.3296 -0.1014
 5775SOL    HW128787   2.854   0.656   6.365 -0.9097  1.4075  1.1557
 5775SOL    HW228788   2.999   0.663   6.389  0.1410 -0.1953 -1.6174
 5776SOL     OW28789   1.413   2.561   2.917  0.3174 -0.6810 -0.7231
 5776SOL    HW128790   1.406   2.511   2.835  2.3884 -0.6054 -0.9404
 5776SOL    HW228791   1.466   2.496   2.965  1.7244  0.5583 -0.6095
 5777SOL     OW28792   2.819   3.024   7.613 -0.2570 -0.3171  0.3310
 5777SOL    HW128793   2.841   3.075   7.535  0.2068  0.6399  1.0852
 5777SOL    HW228794   2.887   3.045   7.677 -2.1207 -0.0365  2.1978
 5778SOL     OW28795   1.628   1.629   8.104  0.4107 -0.1261 -0.4410
 5778SOL    HW128796   1.540   1.602   8.129  1.7229 -2.8338  1.2548
 5778SOL    HW228797   1.691   1.570   8.145 -0.1265  0.1475  0.7655
 5779SOL     OW28798   1.856   4.319   9.076  0.0673  0.0697  0.1828
 5779SOL    HW128799   1.798   4.328   9.151  0.6687 -1.1197  0.7945
 5779SOL    HW228800   1.894   4.405   9.059  0.8896 -0.2542  0.3900
 5780SOL     OW28801   0.722   1.976  15.452  0.6791  0.0187  0.2689
 5780SOL    HW128802   0.695   2.066  15.432  0.9896  0.3628  1.4019
 5780SOL    HW228803   0.640   1.927  15.460  0.1468  1.0790  1.3466
 5781SOL     OW28804   3.312   4.668  17.080  0.2579  0.4127 -0.6591
 5781SOL    HW128805   3.240   4.654  17.141 -1.3003  2.8077 -1.9347
 5781SOL    HW228806   3.303   4.600  17.013 -0.1771 -0.5597  0.4013
 5782SOL     OW28807   0.781   1.330   5.798  0.2587  0.1179  0.6655
 5782SOL    HW128808   0.801   1.330   5.705  0.6691 -2.2626  0.7455
 5782SOL    HW228809   0.729   1.249   5.801  0.9844 -0.3416  0.6138
 5783SOL     OW28810   2.300   0.637   7.727  0.4110 -0.0374 -0.0484
 5783SOL    HW128811   2.395   0.647   7.733  0.7326 -2.5175 -1.0759
 5783SOL    HW228812   2.283   0.544   7.713  2.9161 -0.4171 -0.7060
 5784SOL     OW28813   2.285   1.582   3.357  0.2492 -0.1728 -0.4842
 5784SOL    HW128814   2.277   1.488   3.340  2.8444 -0.1574 -1.8131
 5784SOL    HW228815   2.193   1.606   3.371  0.6034  0.5618  0.5842
 5785SOL     OW28816   3.127   2.571   9.139  0.5532  0.5189  0.4474
 5785SOL    HW128817   3.178   2.631   9.084  0.4187  1.2013  1.0584
 5785SOL    HW228818   3.099   2.634   9.206 -1.3662  0.3792 -0.2483
 5786SOL     OW28819   1.705   1.581   7.003 -0.3641  0.0182  0.5424
 5786SOL    HW128820   1.750   1.497   6.994 -3.6528 -1.7702  0.7117
 5786SOL    HW228821   1.770   1.642   6.967 -0.4542 -0.4462 -0.4075
 5787SOL     OW28822   1.348   2.163   8.858 -0.3173 -0.6810  0.4065
 5787SOL    HW128823   1.338   2.258   8.857  0.8236 -0.6619 -4.7506
 5787SOL    HW228824   1.297   2.139   8.936  0.3193 -4.4782 -0.3682
 5788SOL     OW28825   0.235   0.651   9.211  0.3144 -0.5576 -0.2971
 5788SOL    HW128826   0.281   0.593   9.150  1.0227 -2.1486  1.7623
 5788SOL    HW228827   0.305   0.711   9.238 -0.2836  0.6238 -1.3468
 5789SOL     OW28828   0.089   2.194   4.773 -0.3234  0.0306  0.4863
 5789SOL    HW128829   0.113   2.214   4.864 -2.0460  1.6301  0.5728
 5789SOL    HW228830   0.161   2.141   4.739 -0.5767  0.2565 -0.3928
 5790SOL     OW28831   3.048   4.677  17.403  0.6440 -0.1073  0.1243
 5790SOL    HW128832   2.999   0.005  17.337  1.4109  0.3127 -0.1331
 5790SOL    HW228833   3.115   0.012  17.441  1.4696  0.8455 -2.7140
 5791SOL     OW28834   1.596   1.483   7.272 -0.0679 -0.0026  0.4748
 5791SOL    HW128835   1.591   1.535   7.191  1.8826 -0.0567  0.2973
 5791SOL    HW228836   1.514   1.435   7.277 -0.7372  1.3246  2.1001
 5792SOL     OW28837   3.507   3.684  16.739 -0.4113  0.0352  0.1186
 5792SOL    HW128838   3.455   3.613  16.776  2.6635 -1.4528  1.5004
 5792SOL    HW228839   3.531   3.738  16.814 -0.2299  1.9845 -1.3224
 5793SOL     OW28840   4.385   3.216   6.907 -0.0011  0.0696 -0.0475
 5793SOL    HW128841   4.325   3.255   6.970 -0.9723  0.3276 -1.1327
 5793SOL    HW228842   4.402   3.299   6.863 -1.0694  0.2671 -0.0941
 5794SOL     OW28843   0.113   0.999  16.279 -0.1323 -0.7490  0.5761
 5794SOL    HW128844   0.181   0.932  16.269  2.0288  1.2516  1.7824
 5794SOL    HW228845   0.171   1.071  16.253  2.3531 -2.8439  0.2845
 5795SOL     OW28846   2.193   4.384   3.365 -0.2429 -0.4319  0.5008
 5795SOL    HW128847   2.126   4.451   3.350 -0.5955 -0.7910  0.4489
 5795SOL    HW228848   2.205   4.384   3.460 -1.2566 -0.3914  0.6252
 5796SOL     OW28849   3.992   1.067   9.217 -0.2796 -0.0003 -0.3591
 5796SOL    HW128850   3.928   0.997   9.233  0.6492 -1.0013 -1.0533
 5796SOL    HW228851   3.986   1.071   9.121 -0.9623 -0.3743 -0.3358
 5797SOL     OW28852   1.420   3.413   2.975  0.2458  0.5668  0.0849
 5797SOL    HW128853   1.432   3.345   3.041  0.7832  1.9080  1.3855
 5797SOL    HW228854   1.440   3.499   3.014  3.8776  0.2184 -0.9504
 5798SOL     OW28855   0.974   2.946   5.165 -0.4699 -0.8761  0.4282
 5798SOL    HW128856   1.001   2.982   5.080  0.5718 -3.8189 -0.4950
 5798SOL    HW228857   0.885   2.981   5.173 -1.4858 -3.4002 -0.0558
 5799SOL     OW28858   0.169   0.880   5.033  0.0173 -0.2215 -0.0590
 5799SOL    HW128859   0.210   0.800   5.000 -1.5185 -1.2423  0.5183
 5799SOL    HW228860   0.214   0.941   4.974 -0.5008 -0.5494 -0.7872
 5800SOL     OW28861   4.015   2.167   6.434  0.1598  0.1100 -0.5103
 5800SOL    HW128862   3.974   2.203   6.513 -3.4368 -0.8713 -1.9558
 5800SOL    HW228863   3.949   2.177   6.365 -2.2626 -1.5091  1.5811
 5801SOL     OW28864   2.552   3.178   6.416  0.0713 -0.5106  0.4789
 5801SOL    HW128865   2.528   3.189   6.324 -0.4906 -1.0357  0.5629
 5801SOL    HW228866   2.497   3.103   6.439  2.5128 -1.7834  2.0469
 5802SOL     OW28867   2.359   3.811   6.431 -0.1445  0.6805 -0.1100
 5802SOL    HW128868   2.338   3.895   6.391 -0.2935  0.8565  0.3359
 5802SOL    HW228869   2.420   3.779   6.365  0.6400  1.8700  0.0310
 5803SOL     OW28870   3.286   0.118   2.158  0.1986 -0.7201  0.2715
 5803SOL    HW128871   3.262   0.190   2.217 -1.5957 -2.0815  1.1852
 5803SOL    HW228872   3.350   0.073   2.214  0.5609 -0.6587 -0.0928
 5804SOL     OW28873   4.436   3.035  12.758 -0.1536  0.0878 -0.0266
 5804SOL    HW128874   4.437   3.007  12.667 -0.4208 -2.7014  0.8270
 5804SOL    HW228875   4.426   3.130  12.752 -1.1008  0.0475  0.7442
 5805SOL     OW28876   0.691   0.177   2.741 -0.2957 -0.0058 -0.1326
 5805SOL    HW128877   0.735   0.092   2.749  0.2204  0.2114 -0.6393
 5805SOL    HW228878   0.597   0.160   2.747  0.2943 -2.4230  2.1252
 5806SOL     OW28879   2.208   0.072  10.665  0.3342 -0.0982  0.1316
 5806SOL    HW128880   2.253   0.013  10.605 -2.1019 -1.8593  0.0666
 5806SOL    HW228881   2.124   0.049  10.626 -0.0120  0.0686  0.7806
 5807SOL     OW28882   2.254   1.759  16.747  0.1858  0.4403  0.2152
 5807SOL    HW128883   2.167   1.758  16.706  0.7342 -0.9435 -0.9062
 5807SOL    HW228884   2.240   1.698  16.820 -0.9447 -0.5408 -0.8166
 5808SOL     OW28885   0.227   0.202   1.669 -0.1323 -0.3122  0.0825
 5808SOL    HW128886   0.222   0.199   1.765  1.0620  2.1592  0.2053
 5808SOL    HW228887   0.322   0.207   1.659 -0.0223 -0.7277  0.9233
 5809SOL     OW28888   3.155   4.615   8.882  0.3404 -0.0556  0.0728
 5809SOL    HW128889   3.081   4.587   8.936 -1.3122  1.7543 -1.2415
 5809SOL    HW228890   3.167   4.703   8.918 -1.1724 -0.2977  1.1729
 5810SOL     OW28891   4.173   4.488   3.427  0.0948  0.4197 -0.5713
 5810SOL    HW128892   4.215   4.407   3.456 -0.5750  1.3573  3.0431
 5810SOL    HW228893   4.120   4.518   3.501  0.3746 -0.8445  0.1337
 5811SOL     OW28894   0.637   2.335   7.850  0.5006 -0.7907 -0.1797
 5811SOL    HW128895   0.609   2.424   7.871 -2.4113 -1.5181 -1.0089
 5811SOL    HW228896   0.728   2.350   7.876  0.3091 -0.7331  0.4621
 5812SOL     OW28897   4.060   1.170   0.542 -0.1380 -0.6824  0.1452
 5812SOL    HW128898   4.025   1.094   0.495  3.2605 -2.1541 -0.0261
 5812SOL    HW228899   4.146   1.127   0.542 -0.5162 -1.4341  0.3664
 5813SOL     OW28900   4.628   4.007   4.120  0.3558  0.1734  0.3746
 5813SOL    HW128901   4.653   3.958   4.041  2.4314  2.7826 -0.6095
 5813SOL    HW228902   4.711   4.051   4.136  0.4846 -0.0246  0.2620
 5814SOL     OW28903   1.017   1.234   2.818  0.6043  0.6492  0.1646
 5814SOL    HW128904   1.059   1.312   2.782  0.2783  0.8975  0.3192
 5814SOL    HW228905   1.052   1.250   2.906 -0.7574  1.1321  0.6204
 5815SOL     OW28906   3.099   2.867  10.474  0.1961 -0.3600  0.1506
 5815SOL    HW128907   3.074   2.910  10.392 -0.8890  1.9460  1.6769
 5815SOL    HW228908   3.028   2.804  10.481 -0.5680  0.4404 -0.3779
 5816SOL     OW28909   3.940   3.043  14.324  0.4469  0.0453 -0.1623
 5816SOL    HW128910   3.885   3.117  14.299 -1.1361 -0.8260  0.7982
 5816SOL    HW228911   3.912   2.972  14.267 -2.3522  0.2035  1.0636
 5817SOL     OW28912   1.038   0.257   5.261  0.3949 -0.3028 -0.2765
 5817SOL    HW128913   0.944   0.238   5.259  0.3257  0.0428 -0.2943
 5817SOL    HW228914   1.043   0.336   5.314 -0.3928 -1.1266  1.0260
 5818SOL     OW28915   0.501   3.555   6.800 -0.2969  1.1148 -0.0489
 5818SOL    HW128916   0.579   3.576   6.748 -0.6956 -0.4499 -1.2965
 5818SOL    HW228917   0.460   3.641   6.805 -3.0892 -0.2140 -0.3640
 5819SOL     OW28918   0.952   2.776  13.464  0.0870  0.3911  0.1055
 5819SOL    HW128919   0.956   2.869  13.483  0.2817  0.5148 -0.5491
 5819SOL    HW228920   1.027   2.745  13.515 -1.2627 -0.1227  1.7850
 5820SOL     OW28921   1.455   3.095   3.779 -0.0028 -0.2120  0.2398
 5820SOL    HW128922   1.410   3.039   3.716  0.8894  1.1718 -1.6682
 5820SOL    HW228923   1.540   3.100   3.734  0.4899 -0.9833  1.0758
 5821SOL     OW28924   2.422   1.681   4.047  0.3145 -0.2940 -0.6391
 5821SOL    HW128925   2.446   1.744   3.979 -2.2649  0.3491 -0.9556
 5821SOL    HW228926   2.336   1.648   4.020  0.8724 -1.3076 -1.1817
 5822SOL     OW28927   3.392   4.481   8.573  0.0554 -0.2588 -0.2381
 5822SOL    HW128928   3.373   4.388   8.567 -0.5691 -0.3551  3.2510
 5822SOL    HW228929   3.463   4.495   8.511 -0.2090 -1.3075 -0.7719
 5823SOL     OW28930   3.933   4.293   8.245  0.6499  0.0837  0.0856
 5823SOL    HW128931   3.960   4.280   8.336  2.0374  0.1258 -0.3150
 5823SOL    HW228932   3.997   4.356   8.210  0.3728 -0.3138 -1.1472
 5824SOL     OW28933   2.085   4.162   3.107  0.0728  0.0686  0.1774
 5824SOL    HW128934   2.136   4.239   3.085  0.4785  0.1760  1.4705
 5824SOL    HW228935   2.149   4.091   3.098 -2.0665 -2.1357  1.9757
 5825SOL     OW28936   0.483   0.676   4.253  0.0043  0.0195 -0.2648
 5825SOL    HW128937   0.413   0.646   4.311 -1.2702 -0.4954 -2.0694
 5825SOL    HW228938   0.458   0.639   4.169 -2.2243  1.8099 -0.3817
 5826SOL     OW28939   4.178   4.213   3.614 -0.4174  0.5998  0.3551
 5826SOL    HW128940   4.145   4.297   3.647  1.0028  1.2382  0.1255
 5826SOL    HW228941   4.093   4.180   3.584  0.6163  0.0563 -1.9904
 5827SOL     OW28942   2.115   2.969   5.653 -0.0078  0.0806  0.1980
 5827SOL    HW128943   2.071   2.952   5.570 -1.8852  0.1875  1.1725
 5827SOL    HW228944   2.098   2.884   5.694  2.1196  0.4901  1.9256
 5828SOL     OW28945   4.342   2.847   1.576  0.0419  0.0742  0.1492
 5828SOL    HW128946   4.436   2.832   1.565 -0.7056 -1.7096 -3.9371
 5828SOL    HW228947   4.335   2.920   1.514 -1.6853 -1.0065 -0.9445
 5829SOL     OW28948   2.289   2.982   1.248 -0.0906 -0.3273  0.3864
 5829SOL    HW128949   2.250   2.898   1.272  1.6115 -1.5376 -1.2249
 5829SOL    HW228950   2.376   2.946   1.232 -0.0867 -1.1712  2.2799
 5830SOL     OW28951   3.696   1.743   6.196 -0.1765 -0.2406  0.0259
 5830SOL    HW128952   3.733   1.759   6.282  1.2415 -1.1990 -0.3866
 5830SOL    HW228953   3.615   1.702   6.227 -1.2309  0.0060 -2.3466
 5831SOL     OW28954   3.937   3.136   8.060 -0.3604  0.7954 -0.0320
 5831SOL    HW128955   3.936   3.062   7.999 -0.8964 -0.4113  1.4638
 5831SOL    HW228956   3.998   3.115   8.130 -0.7593  0.0199  0.0810
 5832SOL     OW28957   1.743   4.506   8.791 -0.0857  0.3086  0.5075
 5832SOL    HW128958   1.721   4.429   8.738 -0.3663  0.6749  0.0958
 5832SOL    HW228959   1.720   4.464   8.873 -2.6124 -1.5030 -1.1152
 5833SOL     OW28960   4.401   3.134  11.167  0.5464 -0.5029  0.0942
 5833SOL    HW128961   4.444   3.131  11.081 -1.4268 -1.8431 -0.8544
 5833SOL    HW228962   4.399   3.229  11.159 -0.2628 -0.7822 -3.0669
 5834SOL     OW28963   3.897   3.877   1.312 -0.2656 -0.6139 -0.2948
 5834SOL    HW128964   3.827   3.934   1.342  0.1681 -0.6788  0.8284
 5834SOL    HW228965   3.959   3.943   1.280 -1.3742 -1.4629 -4.2491
 5835SOL     OW28966   1.420   0.124   5.268  0.0763  0.2671 -0.1083
 5835SOL    HW128967   1.355   0.173   5.217 -0.4471 -1.4971 -1.1261
 5835SOL    HW228968   1.494   0.167   5.225 -0.5556  0.2347 -1.2179
 5836SOL     OW28969   0.783   4.333  15.253  0.0414 -0.2295  0.1921
 5836SOL    HW128970   0.703   4.372  15.289  0.9418  1.4017  0.4427
 5836SOL    HW228971   0.837   4.409  15.229 -0.6454  0.1420 -0.1653
 5837SOL     OW28972   1.447   1.697   2.900 -0.1077  0.4064 -0.2904
 5837SOL    HW128973   1.431   1.679   2.807 -1.5139  0.4522 -0.0534
 5837SOL    HW228974   1.540   1.715   2.891  0.6417 -3.4546 -0.5513
 5838SOL     OW28975   2.358   3.784   7.384 -0.8441  0.0731  0.0379
 5838SOL    HW128976   2.430   3.721   7.383 -2.1571 -1.3970 -2.6109
 5838SOL    HW228977   2.383   3.843   7.455 -0.2458  0.0324 -0.1417
 5839SOL     OW28978   3.041   3.377   5.762 -0.2113 -0.2256 -0.3004
 5839SOL    HW128979   3.136   3.376   5.770 -0.1625 -0.5653 -0.9496
 5839SOL    HW228980   3.043   3.300   5.706 -3.1764 -2.5498  2.8215
 5840SOL     OW28981   1.940   0.437   5.293 -0.3254  0.7885  0.7651
 5840SOL    HW128982   1.963   0.376   5.363  1.2689  0.6304  0.1060
 5840SOL    HW228983   1.946   0.381   5.215  3.0351  0.1355  1.5208
 5841SOL     OW28984   4.298   1.418   2.658 -0.4436 -0.0053 -0.0085
 5841SOL    HW128985   4.294   1.500   2.707  0.3206  0.2477 -0.3742
 5841SOL    HW228986   4.312   1.453   2.571 -0.5310  2.2598  0.8797
 5842SOL     OW28987   1.878   0.134  16.966  0.3420  0.4178  0.1155
 5842SOL    HW128988   1.832   0.089  17.037  0.0182  1.2384  0.4279
 5842SOL    HW228989   1.820   0.208  16.951  0.8541  1.0652  1.3247
 5843SOL     OW28990   2.955   3.234   5.424  0.1354 -0.1349  0.1134
 5843SOL    HW128991   2.997   3.200   5.503  0.8914  0.6927  0.0673
 5843SOL    HW228992   2.886   3.174   5.394 -0.8473  0.2157  1.7096
 5844SOL     OW28993   2.743   4.508   5.761  0.8130  0.0410 -0.1876
 5844SOL    HW128994   2.750   4.434   5.701 -0.9727 -0.4949  0.2601
 5844SOL    HW228995   2.770   4.470   5.845 -0.1707 -1.0175 -0.3514
 5845SOL     OW28996   4.282   1.980  11.922  0.5375 -0.3275  0.3332
 5845SOL    HW128997   4.373   1.993  11.949  0.4266  0.0765  0.5059
 5845SOL    HW228998   4.280   2.041  11.849  1.3325 -1.8168 -0.9535
 5846SOL     OW28999   1.511   1.985  13.266 -0.1684  0.1613 -0.0289
 5846SOL    HW129000   1.479   2.056  13.210 -3.3556 -0.0981  1.4878
 5846SOL    HW229001   1.601   1.986  13.234 -0.7393 -1.3493 -1.6411
 5847SOL     OW29002   1.038   1.487   6.902 -0.2098 -0.0384  0.5524
 5847SOL    HW129003   0.945   1.479   6.921 -0.2105  1.3476  1.1720
 5847SOL    HW229004   1.074   1.446   6.981 -0.9360  0.1545  0.9759
 5848SOL     OW29005   3.879   1.683   2.701  0.2955  0.4759 -0.0289
 5848SOL    HW129006   3.812   1.621   2.730 -1.3037  1.1377 -2.3063
 5848SOL    HW229007   3.956   1.644   2.741  0.1006 -0.8834 -0.9740
 5849SOL     OW29008   1.896   4.157   4.900  0.6354  0.6624  0.0348
 5849SOL    HW129009   1.887   4.107   4.981 -0.7447 -1.5102 -1.4510
 5849SOL    HW229010   1.883   4.248   4.925  0.6846  0.5460  0.4879
 5850SOL     OW29011   4.012   2.363   3.919 -0.2876 -0.1418  0.2663
 5850SOL    HW129012   4.099   2.396   3.898 -0.4248  0.2290  0.2909
 5850SOL    HW229013   4.048   2.274   3.926  0.8967  0.4160  1.1070
 5851SOL     OW29014   1.008   2.416   9.747  0.3131  0.1351 -0.0938
 5851SOL    HW129015   0.967   2.484   9.801  0.0790 -0.0043 -0.0963
 5851SOL    HW229016   1.026   2.351   9.815  2.1033  1.2092  0.4550
 5852SOL     OW29017   3.318   3.035  11.273 -0.4775 -0.0419  0.3657
 5852SOL    HW129018   3.312   2.983  11.192  0.4150 -0.4066  0.5270
 5852SOL    HW229019   3.297   2.965  11.335  0.1289  2.2881  3.1836
 5853SOL     OW29020   0.329   1.533   3.254 -0.1256  0.1218 -0.3990
 5853SOL    HW129021   0.286   1.618   3.259  0.8319  0.5142  1.1598
 5853SOL    HW229022   0.278   1.508   3.177  0.0772 -0.2664 -0.4111
 5854SOL     OW29023   1.363   0.137   3.835  0.0370  0.2196  1.0479
 5854SOL    HW129024   1.269   0.137   3.818  0.1748 -2.0677  0.2438
 5854SOL    HW229025   1.400   0.077   3.771  1.1751  0.8519  1.1220
 5855SOL     OW29026   3.355   3.495  16.857  0.3203 -0.2657 -0.2048
 5855SOL    HW129027   3.312   3.523  16.938  1.3372 -1.3757  0.7197
 5855SOL    HW229028   3.321   3.406  16.845  0.3609 -0.1514 -1.1790
 5856SOL     OW29029   2.224   2.347  10.282  0.0238 -0.0058  0.1582
 5856SOL    HW129030   2.307   2.307  10.308  1.3551  1.8719 -1.2063
 5856SOL    HW229031   2.191   2.277  10.225  0.1120  1.0091 -1.1325
 5857SOL     OW29032   2.594   3.284   3.666  0.0430 -0.3905 -0.0196
 5857SOL    HW129033   2.507   3.276   3.705  0.9796  0.2577  2.2296
 5857SOL    HW229034   2.600   3.209   3.607 -0.4693 -0.9531  0.6436
 5858SOL     OW29035   3.142   3.099   7.412  0.3259 -0.0816  0.0877
 5858SOL    HW129036   3.224   3.111   7.459 -0.7005  1.3620  1.5081
 5858SOL    HW229037   3.148   3.007   7.386  0.2907 -0.2612  0.7131
 5859SOL     OW29038   3.285   2.346   3.992  0.5303  0.6714  0.3581
 5859SOL    HW129039   3.381   2.340   3.992  0.5311  0.4614 -1.2250
 5859SOL    HW229040   3.257   2.278   4.053 -2.4350  0.5912 -1.0893
 5860SOL     OW29041   3.150   4.350  17.460 -0.6823 -0.4564  0.0880
 5860SOL    HW129042   3.201   4.319  17.385 -0.9246  2.0895 -1.1391
 5860SOL    HW229043   3.110   4.266  17.485 -1.2539 -0.3138 -0.3542
 5861SOL     OW29044   0.434   2.229   3.035 -0.0823 -0.8288  0.2657
 5861SOL    HW129045   0.391   2.231   2.950 -1.3158  1.1952  0.9212
 5861SOL    HW229046   0.478   2.144   3.026 -1.3676 -1.2425 -2.0537
 5862SOL     OW29047   3.859   0.364   3.622  0.0839 -0.0152  0.4358
 5862SOL    HW129048   3.885   0.272   3.613  0.5455  0.2505 -0.8953
 5862SOL    HW229049   3.765   0.355   3.641 -0.6529 -2.2175 -4.0963
 5863SOL     OW29050   0.996   1.005   6.966  0.7962  0.1088 -0.0036
 5863SOL    HW129051   1.011   0.927   7.020  3.2646 -1.4130 -2.8866
 5863SOL    HW229052   1.066   1.066   6.988  2.1249 -1.8444  1.1321
 5864SOL     OW29053   3.213   0.558   5.702 -0.3793  0.1023 -0.2224
 5864SOL    HW129054   3.271   0.603   5.641 -1.5772  0.9057 -0.7490
 5864SOL    HW229055   3.271   0.491   5.738  1.8076  0.7299 -2.5894
 5865SOL     OW29056   4.204   3.060   5.636 -0.1580 -0.1220  0.2303
 5865SOL    HW129057   4.273   3.126   5.642  0.7332 -1.5795  5.9594
 5865SOL    HW229058   4.241   3.011   5.563 -4.7964 -1.0530 -1.4958
 5866SOL     OW29059   1.683   0.407   5.223  0.4255 -0.1965 -0.3258
 5866SOL    HW129060   1.754   0.434   5.280 -1.8208  0.4532  2.1581
 5866SOL    HW229061   1.703   0.316   5.201 -0.1615 -1.2755  3.6617
 5867SOL     OW29062   2.394   1.968  15.138 -0.5955 -0.3837 -0.2277
 5867SOL    HW129063   2.481   1.942  15.107  0.7058  1.4431  1.8401
 5867SOL    HW229064   2.331   1.919  15.086 -3.2128  1.0626  1.6046
 5868SOL     OW29065   3.128   1.716   7.357  0.3728  0.4479  0.4856
 5868SOL    HW129066   3.193   1.651   7.331 -0.6643 -0.7462  0.8902
 5868SOL    HW229067   3.059   1.679   7.303 -0.3031  0.2921  1.4564
 5869SOL     OW29068   2.513   0.272  16.157 -0.3039  1.0509 -0.0708
 5869SOL    HW129069   2.552   0.263  16.244 -0.4967  0.4239 -0.0473
 5869SOL    HW229070   2.532   0.185  16.121 -0.9178  0.7201  0.3890
 5870SOL     OW29071   1.089   1.568   1.034 -0.4792  0.0502  0.4417
 5870SOL    HW129072   1.125   1.610   0.956 -1.1343  1.9996  1.1846
 5870SOL    HW229073   1.020   1.628   1.061 -2.5817 -1.7391 -0.8923
 5871SOL     OW29074   0.634   3.192  16.101 -0.3617  0.1818 -0.0611
 5871SOL    HW129075   0.559   3.134  16.114  0.5841 -1.4487 -1.8119
 5871SOL    HW229076   0.670   3.177  16.188 -4.2066 -0.7282  1.3793
 5872SOL     OW29077   4.582   0.189   5.677  0.1502 -0.0609 -0.2685
 5872SOL    HW129078   4.527   0.250   5.725  1.0711  0.8515 -0.3691
 5872SOL    HW229079   4.571   0.219   5.586 -1.9901 -0.1367 -0.0313
 5873SOL     OW29080   0.654   4.404  12.561 -0.7558  0.3380 -0.0006
 5873SOL    HW129081   0.624   4.329  12.510  0.4770 -0.6860  0.7875
 5873SOL    HW229082   0.706   4.358  12.626 -1.5486  1.1210  1.1789
 5874SOL     OW29083   4.409   1.306  10.292 -0.4278 -0.2348  0.2716
 5874SOL    HW129084   4.437   1.258  10.214 -0.3660  0.1696  0.0448
 5874SOL    HW229085   4.488   1.299  10.345 -0.1149 -0.4319 -0.2209
 5875SOL     OW29086   3.085   2.791  11.244 -0.6108 -0.3419  0.0374
 5875SOL    HW129087   3.145   2.800  11.170 -0.8775  0.4214 -0.0902
 5875SOL    HW229088   3.140   2.795  11.322 -1.6164  0.4324  0.7112
 5876SOL     OW29089   4.096   4.298   8.940  0.3683 -0.6160  0.3184
 5876SOL    HW129090   4.104   4.211   8.978  0.1178  0.0655  1.9644
 5876SOL    HW229091   4.186   4.324   8.961 -0.4823  1.8966  0.8441
 5877SOL     OW29092   0.328   1.038   3.922 -0.2644  0.8498 -0.6587
 5877SOL    HW129093   0.362   1.128   3.917 -0.5045  0.9124 -1.2251
 5877SOL    HW229094   0.383   1.005   3.994  1.0803  1.7497 -1.2621
 5878SOL     OW29095   2.209   4.705   7.141  0.2860  0.0383 -0.0889
 5878SOL    HW129096   2.302   4.688   7.160  0.1394  0.4183  0.9185
 5878SOL    HW229097   2.203   0.079   7.129  2.2228  0.3189  1.0789
 5879SOL     OW29098   1.691   0.010  17.119 -0.0132  0.5788 -0.0930
 5879SOL    HW129099   1.639   0.039  17.194 -1.6872 -0.1920 -0.9640
 5879SOL    HW229100   1.721   4.644  17.147  0.9124  0.3788 -1.6673
 5880SOL     OW29101   4.553   1.752   9.264  0.5181 -0.5418  0.6149
 5880SOL    HW129102   4.636   1.727   9.304  0.8175  2.7345  2.1111
 5880SOL    HW229103   4.576   1.791   9.179  0.6735 -0.5824  0.6375
 5881SOL     OW29104   1.209   1.413   4.489  0.4625 -0.1282  0.0760
 5881SOL    HW129105   1.261   1.468   4.548 -0.0109 -0.3524  0.6980
 5881SOL    HW229106   1.271   1.344   4.468  0.9131 -0.2327  1.7073
 5882SOL     OW29107   4.415   3.261  12.089  0.4837  0.2272 -0.4288
 5882SOL    HW129108   4.502   3.296  12.070  0.2543  1.0045 -0.0026
 5882SOL    HW229109   4.385   3.255  11.998  0.4879  0.3335 -0.4362
 5883SOL     OW29110   3.987   1.444  12.355 -0.0826  0.5336  0.3367
 5883SOL    HW129111   3.933   1.372  12.386 -0.6665 -0.0336 -2.0333
 5883SOL    HW229112   3.978   1.441  12.260  0.3657  1.1445  0.2752
 5884SOL     OW29113   3.176   1.591   9.061 -0.1159 -0.3450  0.0244
 5884SOL    HW129114   3.220   1.524   9.010  2.8828  0.2314  1.8737
 5884SOL    HW229115   3.196   1.674   9.018 -2.6810  0.4798  0.4130
 5885SOL     OW29116   4.433   4.704   6.304 -0.7195 -0.7126  0.2570
 5885SOL    HW129117   4.376   0.051   6.341  1.8381  0.5593  1.8154
 5885SOL    HW229118   4.512   0.035   6.289 -0.5570 -0.7399  1.0393
 5886SOL     OW29119   3.372   4.329   3.289  0.0371 -0.4915  0.3597
 5886SOL    HW129120   3.357   4.370   3.375 -1.3509  0.3610 -0.2893
 5886SOL    HW229121   3.446   4.269   3.300  0.4694 -0.1907 -0.9746
 5887SOL     OW29122   0.617   1.926   2.486  0.5232  0.4924  0.1390
 5887SOL    HW129123   0.648   1.955   2.400 -3.5012  2.0624 -0.7891
 5887SOL    HW229124   0.544   1.866   2.468  0.1361  0.7460  0.8427
 5888SOL     OW29125   3.324   3.079   1.959 -0.5112  0.4440 -0.8317
 5888SOL    HW129126   3.289   3.056   1.873 -1.5949 -2.0532  0.2719
 5888SOL    HW229127   3.263   3.053   2.029  0.6020  0.1500  0.0378
 5889SOL     OW29128   2.444   3.602   4.449 -0.0741 -0.1327  0.0727
 5889SOL    HW129129   2.463   3.508   4.455  0.3208 -0.1170 -0.9204
 5889SOL    HW229130   2.495   3.649   4.514 -1.1784 -0.4157  1.1385
 5890SOL     OW29131   4.544   3.375  14.320  0.3320  0.0089  0.3422
 5890SOL    HW129132   4.559   3.345  14.231 -2.1269  2.1054 -0.7886
 5890SOL    HW229133   4.492   3.307  14.362 -0.7483 -0.5761 -1.9256
 5891SOL     OW29134   1.600   1.923   5.026  0.3930  0.0858 -0.0080
 5891SOL    HW129135   1.670   1.861   5.007  2.9129  3.1930 -0.7973
 5891SOL    HW229136   1.615   1.982   4.952 -1.0646 -1.3061 -1.4089
 5892SOL     OW29137   0.213   2.963   6.650 -0.3232 -0.3688 -0.0187
 5892SOL    HW129138   0.259   2.902   6.707  0.2584  0.3159  0.2440
 5892SOL    HW229139   0.140   2.984   6.709 -0.8759  1.6840 -1.3980
 5893SOL     OW29140   1.299   3.239  16.884  0.0215 -0.0467  0.1600
 5893SOL    HW129141   1.231   3.212  16.823  0.0138  0.1136  0.0966
 5893SOL    HW229142   1.374   3.188  16.852  0.1269 -0.4344  1.0472
 5894SOL     OW29143   2.379   4.329  12.614  0.0698  0.3107 -0.1839
 5894SOL    HW129144   2.408   4.419  12.602 -1.2622  1.0518  2.1188
 5894SOL    HW229145   2.318   4.317  12.542  2.5534  2.1154 -2.5899
 5895SOL     OW29146   1.705   1.896   9.441 -0.5291 -0.2324  0.5897
 5895SOL    HW129147   1.699   1.916   9.534  2.9352  2.1119  0.3330
 5895SOL    HW229148   1.687   1.803   9.452 -1.3690  0.1423  2.3328
 5896SOL     OW29149   0.279   4.091   5.635  0.3302  0.0294 -0.1532
 5896SOL    HW129150   0.294   4.001   5.662 -0.3515 -0.3408 -1.0274
 5896SOL    HW229151   0.247   4.130   5.716 -1.4136 -0.5155 -0.5863
 5897SOL     OW29152   0.918   0.203   3.384  0.2101  0.4559  0.3631
 5897SOL    HW129153   0.958   0.213   3.470 -0.1021 -1.0740  0.6806
 5897SOL    HW229154   0.953   0.283   3.345 -0.6464  0.6456 -0.0371
 5898SOL     OW29155   0.529   3.288   4.486 -0.4222  0.2873  0.6046
 5898SOL    HW129156   0.614   3.281   4.528 -0.2027 -2.0094 -0.2258
 5898SOL    HW229157   0.544   3.361   4.426 -1.3780  2.3662  2.8971
 5899SOL     OW29158   1.589   1.205   0.754 -0.5695  0.1175 -0.2640
 5899SOL    HW129159   1.669   1.169   0.716 -0.8077  1.4419 -2.0350
 5899SOL    HW229160   1.604   1.231   0.844 -0.0865  1.6111 -0.7671
 5900SOL     OW29161   1.562   3.151  11.776 -0.1863  0.0574 -0.3802
 5900SOL    HW129162   1.625   3.189  11.714  0.1040  1.6325  0.8784
 5900SOL    HW229163   1.608   3.111  11.850 -1.5129  2.1888  1.6043
 5901SOL     OW29164   4.313   3.817   2.073  0.2024 -0.2214 -0.0558
 5901SOL    HW129165   4.284   3.890   2.127 -2.1987  0.3296 -2.0783
 5901SOL    HW229166   4.264   3.742   2.106 -0.9935 -0.2577 -1.9096
 5902SOL     OW29167   4.498   3.929   2.914  0.4290 -0.0919  0.2879
 5902SOL    HW129168   4.439   3.869   2.869  0.6411 -0.2665  0.2396
 5902SOL    HW229169   4.446   4.010   2.915 -0.7686 -0.9006  1.8414
 5903SOL     OW29170   3.848   1.169   6.353  0.6161 -0.0791  0.0914
 5903SOL    HW129171   3.886   1.084   6.329  0.9977 -0.3270  1.5956
 5903SOL    HW229172   3.770   1.158   6.298  0.2885 -1.2600  0.7901
 5904SOL     OW29173   0.513   0.108   6.970  0.2176 -0.0497  0.6009
 5904SOL    HW129174   0.529   0.183   7.027  0.0265  0.0323  0.5478
 5904SOL    HW229175   0.575   0.046   7.009 -0.8230 -1.6641 -0.3063
 5905SOL     OW29176   4.623   2.710   9.954 -0.4970 -0.1567  0.7800
 5905SOL    HW129177   4.586   2.691  10.040 -0.9434 -2.6193  0.0470
 5905SOL    HW229178   4.580   2.794   9.939 -1.8303 -1.2892 -1.7381
 5906SOL     OW29179   0.467   2.976  10.401  0.1564  0.0370  0.2431
 5906SOL    HW129180   0.382   2.952  10.437  1.3420 -0.9446  2.4179
 5906SOL    HW229181   0.513   3.001  10.481 -1.5450 -0.4344  1.3699
 5907SOL     OW29182   0.140   0.162  13.982 -0.0573 -0.0287  0.3821
 5907SOL    HW129183   0.086   0.135  13.907  0.2521  1.1501 -0.2713
 5907SOL    HW229184   0.225   0.122  13.964  0.8778  2.2234 -0.1485
 5908SOL     OW29185   2.351   0.571   4.329 -0.2715 -0.1082  0.1009
 5908SOL    HW129186   2.422   0.570   4.393 -0.1785  2.3053  0.0550
 5908SOL    HW229187   2.308   0.655   4.343  1.1432  0.1276  3.0105
 5909SOL     OW29188   4.715   3.388   5.999 -0.4058  0.4518 -0.2660
 5909SOL    HW129189   0.050   3.455   6.038  0.6037 -1.6261  1.8790
 5909SOL    HW229190   0.060   3.318   5.996 -0.7098  0.2231 -1.8376
 5910SOL     OW29191   0.293   1.086   6.092  0.5414  0.2867  0.2757
 5910SOL    HW129192   0.322   1.013   6.038  0.1257  0.7358 -0.5520
 5910SOL    HW229193   0.353   1.077   6.166  2.5103  0.5096 -1.2903
 5911SOL     OW29194   0.403   1.968   8.235 -0.1132  0.0849  0.1654
 5911SOL    HW129195   0.369   2.007   8.316 -1.8123 -0.6467 -0.1853
 5911SOL    HW229196   0.429   2.052   8.198 -0.6156 -0.2323 -0.9099
 5912SOL     OW29197   4.492   4.492   5.697  0.1698 -0.1699 -0.1544
 5912SOL    HW129198   4.475   4.579   5.733  0.0736  0.2614 -1.2454
 5912SOL    HW229199   4.419   4.443   5.736  0.3172 -2.0580 -2.2929
 5913SOL     OW29200   2.146   2.677   2.982 -0.7242  0.3304  0.0476
 5913SOL    HW129201   2.156   2.652   3.074 -0.3416  0.7930  0.1322
 5913SOL    HW229202   2.061   2.721   2.987 -0.0042  1.6207  1.0393
 5914SOL     OW29203   0.455   0.568  15.559 -0.0563 -0.1397  0.5709
 5914SOL    HW129204   0.424   0.639  15.615  0.7659 -0.7233  1.7705
 5914SOL    HW229205   0.525   0.615  15.512  0.1182  0.0704  1.0351
 5915SOL     OW29206   1.271   1.094   2.678  0.6840 -0.6266  0.2740
 5915SOL    HW129207   1.214   1.078   2.603 -0.2743 -1.5538  1.2096
 5915SOL    HW229208   1.202   1.135   2.729  0.6196  0.7526 -0.9135
 5916SOL     OW29209   3.456   3.844   7.508  0.2631  0.4181 -0.0155
 5916SOL    HW129210   3.455   3.897   7.428 -2.8975  0.3537 -0.0095
 5916SOL    HW229211   3.534   3.792   7.488  0.7587  0.4723  1.7746
 5917SOL     OW29212   0.640   2.105   8.405 -0.5084 -0.5341 -0.1120
 5917SOL    HW129213   0.605   2.140   8.323  0.6619 -0.3539 -0.5316
 5917SOL    HW229214   0.732   2.133   8.401 -0.4417 -1.0768 -1.9819
 5918SOL     OW29215   0.155   4.580  16.655 -0.4204 -0.0780 -0.0721
 5918SOL    HW129216   0.190   4.507  16.705 -0.0580  1.7225  2.3165
 5918SOL    HW229217   0.155   4.652  16.719 -0.2910  1.4190 -1.7549
 5919SOL     OW29218   2.153   3.598   6.514 -0.0843 -0.2778  0.2339
 5919SOL    HW129219   2.217   3.656   6.473 -2.6487  1.1933 -1.6738
 5919SOL    HW229220   2.206   3.579   6.591  2.4208 -2.2651 -2.0131
 5920SOL     OW29221   3.452   3.310   7.363 -0.1092  1.0043 -0.1865
 5920SOL    HW129222   3.534   3.354   7.342  1.2883 -2.2159 -1.3812
 5920SOL    HW229223   3.463   3.231   7.311 -0.0197  1.3998 -0.7646
 5921SOL     OW29224   2.822   4.192   2.535  0.2590 -0.5447  0.8058
 5921SOL    HW129225   2.735   4.225   2.515  1.1387 -0.9774 -3.8222
 5921SOL    HW229226   2.872   4.271   2.517 -0.6777 -0.7100 -2.4785
 5922SOL     OW29227   1.578   1.899   6.677 -0.0713 -0.0086  0.0651
 5922SOL    HW129228   1.548   1.864   6.593 -1.1500 -1.6795  1.1271
 5922SOL    HW229229   1.605   1.980   6.635 -0.9595  0.5640  0.5912
 5923SOL     OW29230   3.770   4.557   3.677 -0.2995  0.2101  0.7143
 5923SOL    HW129231   3.767   4.587   3.586 -0.9727  0.0472  0.6797
 5923SOL    HW229232   3.727   4.633   3.716  0.6227  0.5218  1.1218
 5924SOL     OW29233   0.594   0.781  10.463  0.6937 -0.2777  0.2052
 5924SOL    HW129234   0.503   0.805  10.480 -0.1046 -1.4647 -2.3020
 5924SOL    HW229235   0.617   0.873  10.449 -0.5601  0.0775  0.5188
 5925SOL     OW29236   1.348   0.921   9.030 -0.0717  0.0241  0.3954
 5925SOL    HW129237   1.277   0.915   9.094 -0.0229  1.2658  0.5577
 5925SOL    HW229238   1.420   0.962   9.078 -0.3697 -0.7316  1.4878
 5926SOL     OW29239   2.404   3.378   7.125 -0.0619  0.1556 -0.2107
 5926SOL    HW129240   2.416   3.320   7.201 -0.2052 -1.8552 -1.7167
 5926SOL    HW229241   2.473   3.347   7.066 -0.9691 -2.6503  0.1814
 5927SOL     OW29242   0.838   4.140   9.104  0.1748 -0.4158  0.3119
 5927SOL    HW129243   0.846   4.121   9.010 -2.4751 -0.3643  0.0972
 5927SOL    HW229244   0.783   4.218   9.102 -0.9929 -1.2470 -0.5810
 5928SOL     OW29245   1.519   4.530  10.217  0.1962 -0.1271 -0.0808
 5928SOL    HW129246   1.424   4.536  10.207  0.2794 -0.2088 -0.8638
 5928SOL    HW229247   1.529   4.461  10.283  0.8089 -0.8744 -0.9637
 5929SOL     OW29248   2.870   1.422   6.405 -0.5498  0.6619 -0.3499
 5929SOL    HW129249   2.786   1.378   6.414  0.3207 -0.7299  1.0636
 5929SOL    HW229250   2.846   1.492   6.466 -2.4602 -0.2004 -0.1236
 5930SOL     OW29251   0.243   3.609   1.031  0.2374 -0.5796 -0.0426
 5930SOL    HW129252   0.338   3.616   1.037  0.0598  0.2938  1.7959
 5930SOL    HW229253   0.230   3.527   0.983  0.1778  0.8585 -2.4649
 5931SOL     OW29254   1.095   3.702   3.141  0.1287 -0.0990  0.1806
 5931SOL    HW129255   1.015   3.755   3.141  0.1369 -0.0850  0.4310
 5931SOL    HW229256   1.158   3.763   3.102 -0.2306 -1.0961 -1.9254
 5932SOL     OW29257   1.576   1.810  12.045 -0.0998  0.0178  0.0802
 5932SOL    HW129258   1.520   1.774  11.976 -0.5345  1.1990 -0.1828
 5932SOL    HW229259   1.663   1.804  12.007 -1.1610 -1.1362 -2.2061
 5933SOL     OW29260   2.787   0.654  12.946  0.0047  0.2705  0.3075
 5933SOL    HW129261   2.708   0.611  12.978  1.1351  0.3773  3.2288
 5933SOL    HW229262   2.763   0.740  12.978  2.3222  0.8306  0.5721
 5934SOL     OW29263   1.042   2.609   8.063 -0.9553 -0.4928 -0.0642
 5934SOL    HW129264   0.971   2.634   8.122  0.2370  1.4348  0.5524
 5934SOL    HW229265   1.112   2.638   8.122 -0.4850  0.0473 -0.8749
 5935SOL     OW29266   3.948   1.007  11.177  0.1074  0.1755  0.5238
 5935SOL    HW129267   3.925   0.940  11.241 -1.3463 -0.6888 -0.9244
 5935SOL    HW229268   3.928   0.954  11.101  0.8243 -0.5797  0.8652
 5936SOL     OW29269   4.298   1.469   4.634 -0.2993 -0.5065 -0.3720
 5936SOL    HW129270   4.366   1.473   4.567  0.0820 -1.2343 -0.0142
 5936SOL    HW229271   4.338   1.504   4.714 -0.8478 -2.8925  0.9387
 5937SOL     OW29272   2.094   3.775   3.181 -0.0564 -0.2728 -0.2503
 5937SOL    HW129273   2.100   3.802   3.273 -0.7413 -2.9270  0.5841
 5937SOL    HW229274   2.182   3.742   3.162 -0.4373 -0.9884 -0.7937
 5938SOL     OW29275   0.550   3.415  16.428  0.0084  0.0307  0.3437
 5938SOL    HW129276   0.592   3.496  16.456  1.7256  0.5235 -3.6022
 5938SOL    HW229277   0.498   3.390  16.504 -1.5198 -1.0953 -1.0631
 5939SOL     OW29278   1.626   2.793   2.299  0.0997  0.2701  0.2301
 5939SOL    HW129279   1.702   2.744   2.267  0.6520  0.9024  0.5628
 5939SOL    HW229280   1.570   2.787   2.221  1.5884  1.6766 -0.9583
 5940SOL     OW29281   1.747   3.786   6.520  0.3683 -0.0097 -0.4031
 5940SOL    HW129282   1.788   3.774   6.605  3.5825  1.9190 -1.6954
 5940SOL    HW229283   1.823   3.811   6.467  0.6708  0.7360  0.4001
 5941SOL     OW29284   0.888   1.936   4.389 -0.3559  0.4548 -0.1594
 5941SOL    HW129285   0.927   1.999   4.449 -0.4258  2.8081 -2.5939
 5941SOL    HW229286   0.919   1.860   4.438 -0.0339  0.6862 -0.0053
 5942SOL     OW29287   0.985   3.380   8.854  0.2166  0.5367 -0.3260
 5942SOL    HW129288   0.919   3.409   8.791  0.2339  0.1661 -0.5092
 5942SOL    HW229289   0.947   3.404   8.939  2.0939  0.2401  0.6060
 5943SOL     OW29290   2.761   3.371   9.041 -0.1125 -0.2502  0.2573
 5943SOL    HW129291   2.722   3.457   9.057 -1.9207 -0.7462 -1.3747
 5943SOL    HW229292   2.685   3.322   9.009  0.7468  0.3744 -2.7199
 5944SOL     OW29293   3.673   2.375   8.982  0.1442 -0.0160  0.1806
 5944SOL    HW129294   3.649   2.326   9.061 -1.7695  1.4136  0.4942
 5944SOL    HW229295   3.658   2.311   8.913  1.2632  1.6657 -1.6206
 5945SOL     OW29296   1.092   2.397   2.936  0.0134 -0.2833 -0.5752
 5945SOL    HW129297   1.152   2.447   2.880  1.1922 -2.1168 -0.9404
 5945SOL    HW229298   1.035   2.472   2.952  0.1623 -0.5646  1.2562
 5946SOL     OW29299   3.736   4.491  16.940  0.3465  0.8136  0.4213
 5946SOL    HW129300   3.656   4.543  16.925  0.0830 -0.4980 -2.8100
 5946SOL    HW229301   3.771   4.457  16.858 -1.5521  2.3613 -1.0612
 5947SOL     OW29302   3.237   4.600  12.252  0.0924 -0.4628  0.8996
 5947SOL    HW129303   3.246   4.692  12.277 -1.2963 -0.3246  0.8967
 5947SOL    HW229304   3.188   4.600  12.169 -0.5732 -2.2634  1.2931
 5948SOL     OW29305   2.936   0.528   4.656 -0.4752 -0.0399 -0.2969
 5948SOL    HW129306   3.029   0.548   4.668 -0.3941 -0.5784 -0.0385
 5948SOL    HW229307   2.943   0.433   4.652 -0.0347  0.0267 -1.1540
 5949SOL     OW29308   0.002   3.630   8.370 -0.3938 -0.4822 -0.1558
 5949SOL    HW129309   0.020   3.536   8.375  0.3294 -0.3432 -0.1603
 5949SOL    HW229310   4.638   3.643   8.412 -1.7238 -1.2072 -2.5812
 5950SOL     OW29311   4.322   2.608   3.697  0.6065  0.1472 -0.1271
 5950SOL    HW129312   4.345   2.700   3.683  0.4424  0.2938  0.5445
 5950SOL    HW229313   4.274   2.577   3.621 -0.0109 -0.3661  0.4742
 5951SOL     OW29314   0.032   1.307   4.889 -0.1132  0.0023 -0.2587
 5951SOL    HW129315   0.125   1.328   4.898 -0.0737 -0.9639  1.5422
 5951SOL    HW229316   0.024   1.216   4.918  0.9955 -0.2379 -0.7357
 5952SOL     OW29317   4.546   1.386  14.459  0.0371  0.1421 -0.1824
 5952SOL    HW129318   4.573   1.326  14.527  1.2020  0.2901 -0.5125
 5952SOL    HW229319   4.498   1.457  14.502  0.1545  0.5445 -0.7078
 5953SOL     OW29320   0.706   2.724   4.283 -0.1860  0.0618 -0.0614
 5953SOL    HW129321   0.710   2.629   4.294 -0.9907  0.4499  3.3962
 5953SOL    HW229322   0.642   2.738   4.352  1.1367 -3.5970  1.9058
 5954SOL     OW29323   3.295   3.501  10.007 -0.2115 -0.1001 -0.3638
 5954SOL    HW129324   3.257   3.477   9.922 -1.6859  0.1386  0.2171
 5954SOL    HW229325   3.376   3.538   9.973  0.7479 -0.5798  1.4481
 5955SOL     OW29326   2.701   2.756   5.502  0.1908 -0.0387  0.5443
 5955SOL    HW129327   2.686   2.815   5.576 -1.6591  0.2616 -0.0694
 5955SOL    HW229328   2.762   2.692   5.539 -0.0610 -0.0219  0.9820
 5956SOL     OW29329   3.211   0.647   4.565  0.0401  0.3608  0.2229
 5956SOL    HW129330   3.269   0.585   4.522 -0.5838  0.1383 -0.3075
 5956SOL    HW229331   3.252   0.651   4.651  0.2553 -0.6617  0.1643
 5957SOL     OW29332   1.768   3.288  16.549 -0.0659  0.7202  0.5632
 5957SOL    HW129333   1.789   3.199  16.579  3.7805  1.1222 -0.9334
 5957SOL    HW229334   1.852   3.306  16.507  0.1333 -0.8012  0.3112
 5958SOL     OW29335   3.766   2.238  16.299  0.4377 -0.0838 -0.6324
 5958SOL    HW129336   3.825   2.307  16.269  0.5127 -0.5806 -1.6370
 5958SOL    HW229337   3.779   2.238  16.394  0.3078 -1.3372 -0.6131
 5959SOL     OW29338   2.138   1.485   8.572  0.1116 -0.1850 -0.6406
 5959SOL    HW129339   2.224   1.449   8.550  0.1163 -0.0383 -0.8611
 5959SOL    HW229340   2.114   1.512   8.484 -1.5950  1.0197  0.1922
 5960SOL     OW29341   3.100   4.685   0.629  0.0574  0.3572 -0.1147
 5960SOL    HW129342   3.178   4.699   0.683  0.0174 -0.6597  0.2078
 5960SOL    HW229343   3.106   4.590   0.617 -0.3554  0.3796 -0.5039
 5961SOL     OW29344   4.034   0.840   2.224  0.2119  0.0829 -0.2032
 5961SOL    HW129345   4.001   0.824   2.136 -2.5222 -1.7036  1.1382
 5961SOL    HW229346   4.067   0.930   2.219  0.4441  0.0902  1.6048
 5962SOL     OW29347   0.444   4.256   2.341 -0.0997  0.5202  0.3581
 5962SOL    HW129348   0.472   4.211   2.262 -0.7638  1.2957 -0.3182
 5962SOL    HW229349   0.462   4.348   2.320  1.0881  0.6136  1.8057
 5963SOL     OW29350   2.373   0.063   5.804  0.1007  0.1437 -0.3131
 5963SOL    HW129351   2.279   0.078   5.801  0.3210  1.8349  1.3236
 5963SOL    HW229352   2.389   0.004   5.878  1.4342  1.4256  0.4353
 5964SOL     OW29353   1.432   3.583   7.759 -0.0357 -0.0207  0.6884
 5964SOL    HW129354   1.479   3.649   7.708  1.7621 -3.5818 -2.2878
 5964SOL    HW229355   1.349   3.564   7.714  0.2852  1.8795 -0.7009
 5965SOL     OW29356   0.705   2.114  12.346 -0.0863  0.1944 -0.0668
 5965SOL    HW129357   0.791   2.146  12.317 -0.1744 -0.3230 -0.8889
 5965SOL    HW229358   0.666   2.065  12.274  1.1168 -2.0725  0.8210
 5966SOL     OW29359   1.374   2.896  16.977  0.2461 -0.2226 -0.5246
 5966SOL    HW129360   1.344   2.959  17.043  0.5981 -0.4828 -0.1219
 5966SOL    HW229361   1.294   2.895  16.924 -0.6839  1.7324  0.8306
 5967SOL     OW29362   0.470   1.848  15.427  0.2078  0.0606 -0.2499
 5967SOL    HW129363   0.405   1.797  15.475  1.8849 -2.1848 -0.3482
 5967SOL    HW229364   0.441   1.866  15.338 -1.6567 -1.3131  0.0952
 5968SOL     OW29365   1.229   1.405   7.499 -0.4925 -0.1673 -0.1380
 5968SOL    HW129366   1.169   1.452   7.556 -1.6757 -1.7927 -0.0329
 5968SOL    HW229367   1.222   1.317   7.536 -0.3015 -0.6345 -1.2127
 5969SOL     OW29368   2.624   1.542   6.999  0.1636 -0.4282  0.7027
 5969SOL    HW129369   2.536   1.572   7.024 -0.4580 -1.3116 -0.4062
 5969SOL    HW229370   2.671   1.625   7.002 -1.3544  0.4497  0.0906
 5970SOL     OW29371   2.980   3.980   2.443 -0.1845  0.1512 -0.2568
 5970SOL    HW129372   2.924   4.038   2.494  0.7122 -0.0006  0.8966
 5970SOL    HW229373   3.001   4.035   2.368  0.8489  0.5877  0.3556
 5971SOL     OW29374   1.935   0.871  11.506 -0.0448 -0.4938  0.1492
 5971SOL    HW129375   2.004   0.888  11.570  0.0044 -1.8330  0.4578
 5971SOL    HW229376   1.860   0.869  11.567  1.0016  1.8805  1.5320
 5972SOL     OW29377   2.524   4.717  16.852  0.3204  0.2028  0.1989
 5972SOL    HW129378   2.553   4.667  16.776 -1.0453 -0.7075  0.2779
 5972SOL    HW229379   2.535   4.652  16.921  0.9033 -0.2567 -0.3293
 5973SOL     OW29380   3.890   0.820   1.982  0.4147 -0.1373 -0.3461
 5973SOL    HW129381   3.956   0.844   1.917  0.7565 -0.4153 -0.1090
 5973SOL    HW229382   3.810   0.822   1.930  0.4109 -4.3892 -0.5598
 5974SOL     OW29383   2.580   3.388  17.556  0.2698 -0.1667 -0.4573
 5974SOL    HW129384   2.603   3.303  17.593  0.1290 -0.9955 -2.2767
 5974SOL    HW229385   2.485   3.378  17.552  0.4544 -1.6723 -1.1392
 5975SOL     OW29386   4.087   4.502   8.178  0.3725 -0.1338  0.3703
 5975SOL    HW129387   4.003   4.547   8.188  0.6099  0.4311 -0.2242
 5975SOL    HW229388   4.138   4.565   8.129 -1.5012 -0.5347 -2.0916
 5976SOL     OW29389   0.212   2.141   8.023  0.9315 -0.6298  0.2278
 5976SOL    HW129390   0.175   2.052   8.024 -0.8857  0.0917 -4.5749
 5976SOL    HW229391   0.289   2.128   7.968 -0.2466  1.7357 -1.9400
 5977SOL     OW29392   0.091   3.574   8.116  0.3125 -0.2238 -0.3890
 5977SOL    HW129393   0.051   3.489   8.129 -2.6499  1.1580 -0.5281
 5977SOL    HW229394   0.076   3.614   8.201  2.5892 -0.4530  0.1219
 5978SOL     OW29395   2.228   0.316   8.887 -0.3893  0.2832 -0.2121
 5978SOL    HW129396   2.182   0.234   8.869  1.0714 -1.1946  2.7173
 5978SOL    HW229397   2.255   0.349   8.802  0.5515 -0.2925 -0.1399
 5979SOL     OW29398   1.281   3.331  14.275  0.2210 -0.2081  0.6149
 5979SOL    HW129399   1.332   3.409  14.254 -1.0410 -0.5799 -3.7430
 5979SOL    HW229400   1.276   3.294  14.187 -1.8480 -1.4437  1.2353
 5980SOL     OW29401   4.098   1.117  14.346 -0.2173 -0.5106  0.2216
 5980SOL    HW129402   4.153   1.187  14.382 -2.1969  1.6353 -0.8972
 5980SOL    HW229403   4.089   1.153  14.257  2.4540  1.5439  0.7823
 5981SOL     OW29404   0.805   0.864  11.434  0.3182 -0.3259  0.1066
 5981SOL    HW129405   0.780   0.929  11.368 -0.2324 -0.2093  0.4337
 5981SOL    HW229406   0.898   0.883  11.446  0.4586 -2.0814  1.7739
 5982SOL     OW29407   0.380   4.517  16.308  0.0106  0.0940 -0.3786
 5982SOL    HW129408   0.371   4.442  16.366 -2.2595  1.2853  0.7897
 5982SOL    HW229409   0.293   4.519  16.269  0.2311  0.8596 -0.8543
 5983SOL     OW29410   3.502   0.504  12.796  0.9246  0.0545  0.4165
 5983SOL    HW129411   3.480   0.473  12.708  0.6316  0.1966  0.4392
 5983SOL    HW229412   3.596   0.520  12.789  0.7747  1.6153  2.0427
 5984SOL     OW29413   4.692   3.513   0.852 -0.0106 -0.1467 -0.3279
 5984SOL    HW129414   0.022   3.490   0.774  0.9130  0.2877  0.1482
 5984SOL    HW229415   4.706   3.440   0.912  0.3089  1.3094  1.3599
 5985SOL     OW29416   0.951   0.635  10.535 -0.0317 -0.0417 -0.2471
 5985SOL    HW129417   1.009   0.563  10.509  0.2606  0.3297 -0.6309
 5985SOL    HW229418   0.968   0.654  10.628 -2.1454 -0.5432  0.2480
 5986SOL     OW29419   0.681   3.798  15.896 -0.0690  0.4228 -0.0028
 5986SOL    HW129420   0.737   3.824  15.823 -1.2294 -0.5609 -1.2459
 5986SOL    HW229421   0.637   3.882  15.904 -0.1581  0.1855  2.0246
 5987SOL     OW29422   3.129   0.081   3.579  0.2267  0.0966 -0.2204
 5987SOL    HW129423   3.047   0.128   3.565 -0.3307 -1.6115 -2.6298
 5987SOL    HW229424   3.097   0.002   3.622  1.5575 -1.7268 -2.5781
 5988SOL     OW29425   2.694   3.742   8.934  0.4002 -0.5273 -0.2147
 5988SOL    HW129426   2.637   3.791   8.993  3.3626  2.1658  0.4059
 5988SOL    HW229427   2.652   3.748   8.847  2.2000  0.9613 -0.9784
 5989SOL     OW29428   0.473   3.814  17.274  0.5541  0.0897 -0.3286
 5989SOL    HW129429   0.404   3.810  17.341 -0.2000  0.3598 -1.0943
 5989SOL    HW229430   0.450   3.747  17.209  0.7313 -0.3431  0.0569
 5990SOL     OW29431   1.992   1.901  16.662 -0.5277 -0.2154 -0.4771
 5990SOL    HW129432   2.054   1.919  16.592  0.3695 -0.0659  0.3610
 5990SOL    HW229433   1.913   1.939  16.624 -0.1887 -1.5154 -2.5284
 5991SOL     OW29434   1.823   0.032  13.440  0.0260 -0.0894  0.5221
 5991SOL    HW129435   1.733   0.013  13.414  0.5270  1.5018 -2.3789
 5991SOL    HW229436   1.806   0.121  13.473 -1.9276 -0.6612  1.0693
 5992SOL     OW29437   3.873   1.686   4.293 -0.1969  0.0791 -0.5422
 5992SOL    HW129438   3.951   1.674   4.347 -1.5309  0.6437  1.5014
 5992SOL    HW229439   3.876   1.781   4.284 -0.9774  0.2435  1.0327
 5993SOL     OW29440   1.936   0.038   6.935 -0.2673  0.2798  0.3337
 5993SOL    HW129441   1.929   4.720   6.848 -0.8843  2.7794 -0.7242
 5993SOL    HW229442   1.846   0.047   6.968 -0.2234 -1.0049  0.8210
 5994SOL     OW29443   3.205   2.498  14.416  0.3998  0.5644  0.1851
 5994SOL    HW129444   3.277   2.471  14.359  0.9630 -0.2735  1.2890
 5994SOL    HW229445   3.129   2.498  14.358  1.2992  0.0672 -1.0008
 5995SOL     OW29446   3.493   0.512   4.899 -0.1932  0.2863  0.3136
 5995SOL    HW129447   3.418   0.561   4.866  0.3875  1.9278  1.4246
 5995SOL    HW229448   3.469   0.429   4.858 -0.4209  0.0543  0.9120
 5996SOL     OW29449   3.118   4.259  11.679  0.5050  0.3120 -0.5310
 5996SOL    HW129450   3.030   4.222  11.686 -0.3923  2.3195 -1.2816
 5996SOL    HW229451   3.123   4.311  11.599 -0.6391 -0.6239 -1.2048
 5997SOL     OW29452   1.147   2.614   2.763 -0.8885 -0.1826 -0.4012
 5997SOL    HW129453   1.096   2.640   2.839  0.7673 -0.3890  0.7912
 5997SOL    HW229454   1.171   2.698   2.724  0.4583 -1.0185 -1.3886
 5998SOL     OW29455   0.062   3.608   4.792  0.5021  0.5279  0.0135
 5998SOL    HW129456   0.022   3.665   4.858  2.1438 -0.2438  1.6661
 5998SOL    HW229457   0.147   3.649   4.786 -0.1531  1.7778 -0.6503
 5999SOL     OW29458   0.552   3.292   6.579 -0.2733  0.1809  0.2405
 5999SOL    HW129459   0.647   3.287   6.591 -0.1909 -0.2386 -0.5879
 5999SOL    HW229460   0.523   3.246   6.658 -1.9217 -0.5753 -0.8109
 6000SOL     OW29461   4.311   3.238  16.749  0.4064 -0.0426 -0.3477
 6000SOL    HW129462   4.355   3.321  16.765  1.0035 -0.3899 -0.1658
 6000SOL    HW229463   4.292   3.218  16.841 -1.1288 -1.6423 -1.0023
 6001SOL     OW29464   4.289   0.858   3.811  0.4070  0.0588 -0.2960
 6001SOL    HW129465   4.318   0.939   3.853  0.4292 -0.6463  1.0318
 6001SOL    HW229466   4.372   0.812   3.804  0.2123 -0.2727 -0.4496
 6002SOL     OW29467   0.807   2.552   8.225 -0.1768 -0.7646  0.1888
 6002SOL    HW129468   0.713   2.540   8.209 -0.4519 -0.1207  1.3292
 6002SOL    HW229469   0.809   2.555   8.321  2.4821  1.9167  0.0510
 6003SOL     OW29470   0.905   4.262  12.372  0.2230 -0.4477 -0.6600
 6003SOL    HW129471   0.835   4.204  12.340 -0.2094  0.0958 -0.7061
 6003SOL    HW229472   0.889   4.262  12.466  2.8412  2.4367 -0.2590
 6004SOL     OW29473   3.542   2.348  13.041 -0.0926 -0.0904 -0.7742
 6004SOL    HW129474   3.535   2.355  12.946 -0.9732 -1.8185 -0.8405
 6004SOL    HW229475   3.453   2.319  13.062 -0.1557  0.7857  0.1545
 6005SOL     OW29476   1.268   3.784   4.321 -0.6384  0.5867  0.2049
 6005SOL    HW129477   1.237   3.840   4.391  1.0918 -0.8165  2.0884
 6005SOL    HW229478   1.217   3.707   4.344 -1.2710  0.3209 -2.0431
 6006SOL     OW29479   2.029   2.006  13.393 -0.6350  0.5737 -0.3892
 6006SOL    HW129480   2.035   1.911  13.401  0.0364  0.6861  0.4393
 6006SOL    HW229481   2.117   2.041  13.411 -0.1339 -1.6458  1.5220
 6007SOL     OW29482   2.260   3.183  17.023 -0.0414 -0.0705  0.4366
 6007SOL    HW129483   2.190   3.170  17.088 -1.8077  3.3227 -0.7621
 6007SOL    HW229484   2.322   3.115  17.047  0.3999  0.5959  1.1988
 6008SOL     OW29485   2.973   3.550   4.463 -0.2668 -0.3823 -0.8300
 6008SOL    HW129486   3.000   3.459   4.450 -0.3543 -0.5824  0.4122
 6008SOL    HW229487   2.972   3.563   4.557 -3.8852 -0.6347 -0.8434
 6009SOL     OW29488   3.233   1.033   7.766  0.4240 -0.1539 -0.2700
 6009SOL    HW129489   3.199   0.956   7.720  1.5009 -0.1461 -1.0688
 6009SOL    HW229490   3.210   1.003   7.854  3.3090 -0.0684  0.5214
 6010SOL     OW29491   0.564   2.572   9.945  0.2731  0.7881  0.1742
 6010SOL    HW129492   0.560   2.635   9.874 -1.7974  0.0758 -0.3455
 6010SOL    HW229493   0.633   2.616   9.996  0.8193  1.5573 -1.2419
 6011SOL     OW29494   0.328   3.099  16.097  0.1197 -0.0681 -0.5061
 6011SOL    HW129495   0.293   3.096  16.186 -0.6258  0.1585 -0.7988
 6011SOL    HW229496   0.321   3.193  16.078 -2.4618 -0.1543  0.1352
 6012SOL     OW29497   4.189   0.334   5.489 -0.4513  0.2428  0.2587
 6012SOL    HW129498   4.192   0.379   5.405  0.8017  0.8078  0.6019
 6012SOL    HW229499   4.153   0.249   5.463 -1.4602  0.5211  0.7916
 6013SOL     OW29500   2.927   3.143   2.299 -0.4311 -0.7212  0.3127
 6013SOL    HW129501   2.865   3.211   2.327 -0.6559 -0.8688  0.1716
 6013SOL    HW229502   2.862   3.083   2.263 -0.2208 -1.6063  1.4039
 6014SOL     OW29503   3.210   0.994  11.632 -0.1214  0.8389 -0.3418
 6014SOL    HW129504   3.122   1.028  11.644  0.3430  1.0938  2.3637
 6014SOL    HW229505   3.209   0.920  11.571  1.9067  0.9887 -0.5765
 6015SOL     OW29506   3.933   0.955   3.559  0.6837 -0.1158 -0.1973
 6015SOL    HW129507   3.915   0.932   3.468  0.6898 -2.2039  0.3459
 6015SOL    HW229508   3.895   1.042   3.547 -0.9018 -0.5031  2.0347
 6016SOL     OW29509   4.118   4.089   7.394 -0.5863 -0.1739 -0.5870
 6016SOL    HW129510   4.076   4.075   7.309  1.0436 -0.4736 -1.3427
 6016SOL    HW229511   4.157   4.174   7.377  0.1128 -0.1727  1.0278
 6017SOL     OW29512   0.153   2.445   2.534 -0.3519  0.1846 -0.8641
 6017SOL    HW129513   0.063   2.413   2.535  0.4328 -2.0670  0.3332
 6017SOL    HW229514   0.181   2.399   2.455 -3.0270 -0.8059 -1.2226
 6018SOL     OW29515   3.686   4.559  13.502  0.0390 -0.3854  0.1501
 6018SOL    HW129516   3.677   4.588  13.411  0.4203 -0.3098  0.1378
 6018SOL    HW229517   3.728   4.639  13.534 -0.7178 -0.5476  1.5277
 6019SOL     OW29518   0.893   4.213  11.653 -0.0303  0.5864 -0.1205
 6019SOL    HW129519   0.896   4.195  11.559 -0.0691 -2.0798  0.3658
 6019SOL    HW229520   0.966   4.161  11.687 -1.5452 -1.5425 -0.1172
 6020SOL     OW29521   2.460   3.867   6.145  0.6307  0.0734  0.0219
 6020SOL    HW129522   2.509   3.794   6.108 -0.0592 -1.1106  1.4225
 6020SOL    HW229523   2.383   3.857   6.089  1.7446 -0.8664 -1.3342
 6021SOL     OW29524   3.230   1.989   6.682  0.1786  0.0964 -0.3219
 6021SOL    HW129525   3.247   1.999   6.775  0.1896  1.0240 -0.4265
 6021SOL    HW229526   3.150   1.936   6.681  0.7543 -0.7787  0.5623
 6022SOL     OW29527   2.843   3.437   3.481  0.2170  0.0043  0.7356
 6022SOL    HW129528   2.814   3.380   3.552 -0.6584 -1.2072 -0.6067
 6022SOL    HW229529   2.912   3.384   3.441 -0.6788 -0.4580 -0.2036
 6023SOL     OW29530   2.440   3.515   9.788 -0.2461  0.0885  0.4249
 6023SOL    HW129531   2.385   3.589   9.813 -0.2451  0.7178 -1.4295
 6023SOL    HW229532   2.496   3.554   9.721  0.3275 -0.1730  0.7503
 6024SOL     OW29533   3.838   2.406   4.162 -0.0754 -0.4214 -0.2992
 6024SOL    HW129534   3.823   2.312   4.159 -0.4204 -0.3818  0.0792
 6024SOL    HW229535   3.879   2.428   4.079  0.4045 -0.3343 -0.0369
 6025SOL     OW29536   3.563   2.863  10.359 -0.2015  0.2223  0.4928
 6025SOL    HW129537   3.586   2.956  10.364  1.1061 -0.1740  1.5416
 6025SOL    HW229538   3.494   2.861  10.292  0.0508  1.6525  0.1808
 6026SOL     OW29539   0.055   2.193   8.282 -0.3602  0.2358  0.0707
 6026SOL    HW129540   0.098   2.201   8.197  0.5787 -0.9272  0.4329
 6026SOL    HW229541   0.140   2.186   8.326 -0.2917  1.3104  0.1227
 6027SOL     OW29542   0.584   4.453  15.405  0.5530  0.7747  0.0778
 6027SOL    HW129543   0.642   4.529  15.401  1.4277 -0.0085 -2.2587
 6027SOL    HW229544   0.573   4.433  15.498  1.0630 -0.0860 -0.0444
 6028SOL     OW29545   2.280   0.198  13.357  0.2737  0.1976 -0.0376
 6028SOL    HW129546   2.275   0.170  13.449  0.4791 -2.2884 -0.7628
 6028SOL    HW229547   2.216   0.135  13.323 -0.3833  0.7723  0.1431
 6029SOL     OW29548   2.980   0.635   9.706  0.1352  0.0763 -0.3560
 6029SOL    HW129549   3.064   0.592   9.686  1.0579  2.3999 -1.5204
 6029SOL    HW229550   2.985   0.719   9.659  0.7687  0.0867 -0.2683
 6030SOL     OW29551   3.146   1.890   7.575 -0.0462 -0.3724  0.0641
 6030SOL    HW129552   3.090   1.829   7.622 -1.5258 -0.6238 -2.0246
 6030SOL    HW229553   3.143   1.842   7.492  1.9839 -0.5341  0.0782
 6031SOL     OW29554   0.265   0.842   2.137  0.1723  0.2515  0.8010
 6031SOL    HW129555   0.184   0.818   2.091  0.0327  0.4349  0.9492
 6031SOL    HW229556   0.264   0.784   2.213  0.7180 -1.8486 -0.8107
 6032SOL     OW29557   3.587   1.578  11.043  0.1139 -0.4180 -0.2501
 6032SOL    HW129558   3.653   1.631  10.998  2.0472 -2.4249  0.2354
 6032SOL    HW229559   3.646   1.522  11.092 -1.0444 -0.8519  0.6587
 6033SOL     OW29560   1.197   0.797   0.172  0.3637 -0.1096  0.2975
 6033SOL    HW129561   1.206   0.843   0.256  0.0763  0.7868 -0.1607
 6033SOL    HW229562   1.276   0.814   0.122  0.9854  1.4675  1.7984
 6034SOL     OW29563   3.205   3.639   2.331  0.2762 -0.4351  0.2113
 6034SOL    HW129564   3.225   3.547   2.351 -0.9671 -0.6995  0.2386
 6034SOL    HW229565   3.142   3.660   2.399 -3.4871 -2.5155 -2.6154
 6035SOL     OW29566   2.931   3.688   5.281  0.0423 -0.0750  0.0006
 6035SOL    HW129567   2.959   3.656   5.367  0.4233 -0.3916 -0.2439
 6035SOL    HW229568   2.836   3.696   5.292  0.0730  1.0397 -0.5512
 6036SOL     OW29569   4.293   1.398   1.948 -0.3808 -0.2047 -0.0822
 6036SOL    HW129570   4.362   1.346   1.908 -0.9678  1.2395 -2.9911
 6036SOL    HW229571   4.244   1.407   1.866 -1.0621 -2.9346  0.0351
 6037SOL     OW29572   4.117   1.561   1.366 -0.2426  0.5349  0.7543
 6037SOL    HW129573   4.197   1.613   1.371  0.0034  0.1314  1.0608
 6037SOL    HW229574   4.061   1.603   1.432 -0.0317  1.7799  0.1420
 6038SOL     OW29575   4.188   2.178   6.708  0.5026 -0.4073  0.8164
 6038SOL    HW129576   4.105   2.143   6.738 -0.3245  1.7620  1.0588
 6038SOL    HW229577   4.236   2.097   6.691  0.2999  0.0432 -1.9600
 6039SOL     OW29578   3.893   1.572  12.630  0.5835 -0.3579 -0.8432
 6039SOL    HW129579   3.966   1.521  12.595  0.5789 -0.4740 -0.6826
 6039SOL    HW229580   3.930   1.658  12.647  1.3121 -1.1044  1.4166
 6040SOL     OW29581   3.384   3.819   6.894  0.0868 -0.2028  0.2174
 6040SOL    HW129582   3.473   3.791   6.917 -0.3023  0.5427  2.5931
 6040SOL    HW229583   3.326   3.755   6.936  0.9303 -1.0637  0.0758
 6041SOL     OW29584   4.584   2.508  10.669  0.2076  0.1676 -0.0269
 6041SOL    HW129585   4.552   2.453  10.598 -0.2298 -0.0673  0.3505
 6041SOL    HW229586   4.677   2.486  10.666  0.1050 -0.1021 -1.0666
 6042SOL     OW29587   3.098   2.504   0.283  0.4781 -0.4510 -0.3441
 6042SOL    HW129588   3.006   2.503   0.311  0.9867 -0.3324  1.3378
 6042SOL    HW229589   3.126   2.414   0.266 -0.7174 -0.4864 -2.0518
 6043SOL     OW29590   0.849   1.660  15.981  0.2843  0.5637 -0.5243
 6043SOL    HW129591   0.933   1.695  16.011  1.1381  0.0033 -2.2804
 6043SOL    HW229592   0.830   1.703  15.898  0.0612  1.9531  0.2454
 6044SOL     OW29593   1.248   2.637   8.227 -0.0570  0.2866 -0.1350
 6044SOL    HW129594   1.260   2.732   8.235  1.9714 -0.0324  0.6953
 6044SOL    HW229595   1.295   2.608   8.305 -0.0302  0.0964 -0.2216
 6045SOL     OW29596   0.994   0.424   3.269  0.3768 -0.3908  0.5299
 6045SOL    HW129597   1.067   0.477   3.237 -0.0549  0.4084  0.8912
 6045SOL    HW229598   0.981   0.472   3.351  0.7986 -2.0521  1.5771
 6046SOL     OW29599   0.679   3.148  16.365 -0.2115 -0.5020  0.6802
 6046SOL    HW129600   0.641   3.084  16.425  3.4438 -0.0548  3.4429
 6046SOL    HW229601   0.617   3.221  16.376  0.8294  0.5997 -0.6253
 6047SOL     OW29602   2.698   0.177   0.182 -0.2693 -0.0448 -0.2250
 6047SOL    HW129603   2.757   0.107   0.152  0.8469 -0.7551  3.4812
 6047SOL    HW229604   2.728   0.176   0.274  0.9563 -1.8707 -0.6367
 6048SOL     OW29605   2.545   2.917   2.885 -0.3505 -0.0545 -0.3965
 6048SOL    HW129606   2.497   2.992   2.919 -2.3119 -1.0067 -1.0520
 6048SOL    HW229607   2.470   2.865   2.855 -1.1836 -0.0819  1.7389
 6049SOL     OW29608   2.678   2.233   1.946  0.2186  0.0698 -0.1080
 6049SOL    HW129609   2.642   2.312   1.989 -1.9309 -2.0064  1.9178
 6049SOL    HW229610   2.603   2.212   1.891  1.5160 -3.2002 -0.6250
 6050SOL     OW29611   3.857   2.935   2.527 -0.1215  0.2765 -0.8427
 6050SOL    HW129612   3.861   3.013   2.471 -0.9729 -0.2107 -1.5837
 6050SOL    HW229613   3.939   2.895   2.496 -1.2430  0.1576 -3.6694
 6051SOL     OW29614   0.813   4.218   8.509 -0.6930  0.0960 -0.0186
 6051SOL    HW129615   0.853   4.137   8.477  0.4780  0.6351  0.0666
 6051SOL    HW229616   0.898   4.241   8.548 -0.8886 -1.1713  1.1809
 6052SOL     OW29617   0.568   4.286   1.723  0.0222 -0.0929 -0.5478
 6052SOL    HW129618   0.661   4.284   1.742  0.6428  2.3262 -3.3755
 6052SOL    HW229619   0.536   4.265   1.811  0.2416  1.0602 -0.1944
 6053SOL     OW29620   0.625   0.580  14.519  0.5326  0.3825  0.5324
 6053SOL    HW129621   0.622   0.487  14.496 -0.2414  0.8257 -1.2218
 6053SOL    HW229622   0.570   0.580  14.597 -0.0352  0.4473  0.1338
 6054SOL     OW29623   0.583   4.298   5.593 -0.0304 -0.5681 -0.1871
 6054SOL    HW129624   0.580   4.203   5.582  2.4533 -0.9941  2.9023
 6054SOL    HW229625   0.519   4.311   5.662 -0.3453 -1.8318 -0.2508
 6055SOL     OW29626   4.663   0.132   6.254 -0.0675  0.1634  0.0655
 6055SOL    HW129627   0.034   0.151   6.267 -0.4316 -0.4542  3.4339
 6055SOL    HW229628   4.653   0.164   6.164  0.0428 -0.0384 -0.0178
 6056SOL     OW29629   3.019   1.767   5.845  0.0032  0.3992 -0.0233
 6056SOL    HW129630   2.956   1.695   5.850 -0.9007  1.1751 -0.3355
 6056SOL    HW229631   3.050   1.752   5.935  0.7283 -0.5137 -0.4250
 6057SOL     OW29632   3.452   2.581   2.759 -0.3607 -0.1995 -0.1401
 6057SOL    HW129633   3.452   2.672   2.788  0.0529 -0.0689 -0.5411
 6057SOL    HW229634   3.370   2.572   2.710 -0.5383  2.0065 -0.2788
 6058SOL     OW29635   1.527   4.527   9.816 -0.0636  0.1994 -0.1981
 6058SOL    HW129636   1.541   4.603   9.760  3.7686 -1.5335 -1.5964
 6058SOL    HW229637   1.573   4.567   9.889 -1.0590  0.3893  0.3254
 6059SOL     OW29638   0.499   4.527   2.299 -0.0968 -0.0760  0.2205
 6059SOL    HW129639   0.409   4.560   2.298 -0.7075 -1.6909  0.7085
 6059SOL    HW229640   0.540   4.569   2.375 -0.5804  0.9313 -0.0754
 6060SOL     OW29641   3.973   1.973   8.843 -0.0830 -0.7147  0.0715
 6060SOL    HW129642   3.993   2.000   8.933  0.8671 -0.5565 -0.1885
 6060SOL    HW229643   3.937   1.885   8.854  2.4500 -1.6906  0.4330
 6061SOL     OW29644   2.159   4.387   5.183  0.3851  0.4778  0.9435
 6061SOL    HW129645   2.165   4.339   5.101  0.0373 -0.2186  1.3254
 6061SOL    HW229646   2.175   4.311   5.239 -0.9957  0.7804  1.7573
 6062SOL     OW29647   1.764   2.430  16.901 -0.5044 -0.3013 -0.1427
 6062SOL    HW129648   1.740   2.502  16.843 -1.8729 -0.5429  0.1106
 6062SOL    HW229649   1.769   2.362  16.834  2.5019  0.3378 -0.5672
 6063SOL     OW29650   2.143   4.329   4.588  0.4284  0.4055  0.4446
 6063SOL    HW129651   2.153   4.389   4.661 -1.0260  0.8295  0.3076
 6063SOL    HW229652   2.056   4.294   4.608  0.6420  0.5976  1.7040
 6064SOL     OW29653   0.803   0.711  14.963  0.0465  0.5976 -0.1805
 6064SOL    HW129654   0.803   0.803  14.990 -0.7480  0.8153 -0.9479
 6064SOL    HW229655   0.770   0.670  15.044  1.3817 -0.4660 -0.1703
 6065SOL     OW29656   0.527   0.913  12.783  0.0157 -0.0954  0.4438
 6065SOL    HW129657   0.480   0.836  12.815  1.2829 -1.3310 -0.6670
 6065SOL    HW229658   0.551   0.878  12.697 -1.7674 -1.2172  0.3861
 6066SOL     OW29659   2.655   2.285   3.431  0.3023 -0.2258  0.2540
 6066SOL    HW129660   2.743   2.258   3.458  1.0620  0.2652 -1.7400
 6066SOL    HW229661   2.652   2.272   3.337 -0.6821 -0.9445  0.3792
 6067SOL     OW29662   0.465   3.273   2.773  0.5273  0.3731 -0.2881
 6067SOL    HW129663   0.398   3.272   2.841  1.6949  1.7195  0.8615
 6067SOL    HW229664   0.469   3.181   2.747  1.4977  0.5021 -0.6044
 6068SOL     OW29665   4.053   4.100   6.039  0.2198 -0.4004  0.1543
 6068SOL    HW129666   4.104   4.160   6.093  2.0446 -2.2761  0.5110
 6068SOL    HW229667   4.030   4.157   5.965  0.6897 -0.7958 -0.2900
 6069SOL     OW29668   0.252   2.886   7.728  0.1172 -0.2026  0.3385
 6069SOL    HW129669   0.201   2.806   7.718 -0.7868  0.5226 -0.7890
 6069SOL    HW229670   0.324   2.889   7.665 -0.7996 -0.5405 -0.7084
 6070SOL     OW29671   0.249   1.424   3.014 -0.8327  0.2924 -0.1409
 6070SOL    HW129672   0.330   1.376   3.034 -1.1298 -0.4919 -0.8395
 6070SOL    HW229673   0.182   1.358   3.003 -1.2193  0.8666 -1.2842
 6071SOL     OW29674   2.571   2.014   6.843  0.2648  0.1867 -0.0804
 6071SOL    HW129675   2.663   2.035   6.824  0.6104 -0.4518  0.8884
 6071SOL    HW229676   2.578   1.997   6.937  0.1663  1.0754  0.0912
 6072SOL     OW29677   4.212   1.759  10.074  0.0824 -0.2959 -0.4791
 6072SOL    HW129678   4.255   1.744   9.990 -0.7975 -1.3562 -0.7304
 6072SOL    HW229679   4.282   1.796  10.127 -1.2392  0.8507  0.4822
 6073SOL     OW29680   0.320   1.609   3.944 -0.1822 -0.2782  0.0176
 6073SOL    HW129681   0.374   1.678   3.982 -0.8506 -0.1680  0.7545
 6073SOL    HW229682   0.285   1.565   4.022 -0.8590  0.6743  0.2441
 6074SOL     OW29683   2.574   3.194   7.402 -1.0122  0.1938 -0.2774
 6074SOL    HW129684   2.667   3.207   7.420 -0.9152  0.3799 -0.9274
 6074SOL    HW229685   2.578   3.154   7.315 -2.7905  2.2224 -1.2802
 6075SOL     OW29686   2.435   0.984   8.503  0.2700 -0.2470 -0.1854
 6075SOL    HW129687   2.494   0.911   8.521  1.7681  0.5665 -1.7057
 6075SOL    HW229688   2.492   1.024   8.437  0.1008  1.1331  0.5023
 6076SOL     OW29689   1.497   0.656   5.623 -0.1086  0.5395 -0.3783
 6076SOL    HW129690   1.588   0.685   5.620  0.1349  0.0098  1.9181
 6076SOL    HW229691   1.479   0.625   5.534 -0.6205 -0.9337  0.2483
 6077SOL     OW29692   4.038   3.217   3.619 -0.3393 -0.1680 -0.3811
 6077SOL    HW129693   4.077   3.297   3.584  1.7279 -1.9905 -2.2412
 6077SOL    HW229694   4.120   3.178   3.649  0.6292  0.3663 -2.3690
 6078SOL     OW29695   2.524   4.568   1.332 -0.2839  0.1814 -0.1329
 6078SOL    HW129696   2.450   4.532   1.284 -0.1845 -0.1295 -0.0482
 6078SOL    HW229697   2.548   4.633   1.266 -2.0052  0.4509 -0.4953
 6079SOL     OW29698   4.194   0.616  17.068 -0.0897 -0.3151  0.0362
 6079SOL    HW129699   4.126   0.683  17.068  0.8858  0.6777  0.2363
 6079SOL    HW229700   4.168   0.570  17.148 -1.3735 -0.4040 -0.4333
 6080SOL     OW29701   0.087   3.472   3.310 -0.2288 -0.3535  0.0608
 6080SOL    HW129702   0.113   3.563   3.302 -0.6594 -0.1609  0.8265
 6080SOL    HW229703   0.003   3.483   3.356 -1.0717  0.4280 -1.6704
 6081SOL     OW29704   2.908   4.656   3.714  0.3094  0.4755 -0.0836
 6081SOL    HW129705   2.908   4.579   3.771 -3.4818 -0.3431 -1.2245
 6081SOL    HW229706   2.819   4.659   3.681  0.4751 -0.7125 -0.6575
 6082SOL     OW29707   2.823   2.394  16.933  0.2411 -0.0722 -0.3434
 6082SOL    HW129708   2.908   2.378  16.974  0.1133  0.0097 -0.0499
 6082SOL    HW229709   2.793   2.309  16.900  2.9686 -2.4783  3.2726
 6083SOL     OW29710   0.828   2.340   0.538  0.5961 -0.3325  0.4217
 6083SOL    HW129711   0.755   2.286   0.506  0.6129  0.2205 -0.5566
 6083SOL    HW229712   0.900   2.299   0.491  0.8950 -0.4383  0.9732
 6084SOL     OW29713   0.597   2.333   6.236 -0.0080 -0.1422  0.0673
 6084SOL    HW129714   0.544   2.402   6.275 -1.8929 -2.1685  1.0695
 6084SOL    HW229715   0.536   2.260   6.248 -0.1708 -0.1700 -0.9596
 6085SOL     OW29716   4.308   2.138   2.019 -0.5011  0.9476  0.2886
 6085SOL    HW129717   4.310   2.044   2.002  1.0968  1.1960 -0.9371
 6085SOL    HW229718   4.280   2.163   1.931  0.5649  0.3577 -0.2250
 6086SOL     OW29719   1.581   0.702  16.393  0.0017 -0.1947 -0.5359
 6086SOL    HW129720   1.534   0.707  16.476  0.7102 -1.9905 -0.0364
 6086SOL    HW229721   1.509   0.737  16.341  1.7901  1.6435 -1.7677
 6087SOL     OW29722   1.299   2.901   8.280  0.0104  0.5337 -0.0938
 6087SOL    HW129723   1.361   2.942   8.340  1.7948 -1.3277 -0.6466
 6087SOL    HW229724   1.325   2.942   8.198  3.7765 -1.6149  0.0062
 6088SOL     OW29725   3.242   2.345   9.244  0.3473 -0.2806 -0.1758
 6088SOL    HW129726   3.202   2.365   9.329 -1.4155 -2.3665 -0.4855
 6088SOL    HW229727   3.215   2.416   9.186 -0.5321  1.0488  1.8608
 6089SOL     OW29728   4.182   0.437   0.097 -0.6191  0.7313  0.4977
 6089SOL    HW129729   4.104   0.424   0.043  1.5523  1.1002 -2.7221
 6089SOL    HW229730   4.161   0.487   0.176  1.9422 -1.0367  2.3205
 6090SOL     OW29731   3.874   0.633   3.874 -1.0249  0.4876  0.0855
 6090SOL    HW129732   3.939   0.690   3.833  0.3268 -1.4885 -0.5188
 6090SOL    HW229733   3.825   0.595   3.800 -0.5673 -0.1171  0.0987
 6091SOL     OW29734   2.507   2.380   5.355 -0.0736  0.6789 -0.3767
 6091SOL    HW129735   2.471   2.464   5.385 -2.7665  0.1299 -2.1060
 6091SOL    HW229736   2.486   2.320   5.427 -1.5211  1.0507 -0.4871
 6092SOL     OW29737   2.283   1.452  13.805  0.3304  0.4720 -0.1953
 6092SOL    HW129738   2.293   1.485  13.894  1.0283 -0.6844  0.1550
 6092SOL    HW229739   2.198   1.410  13.816  0.7862 -0.6918 -1.1508
 6093SOL     OW29740   4.347   1.975   1.232  0.0396 -0.5208  0.0745
 6093SOL    HW129741   4.442   1.986   1.218 -0.4186  1.4591 -1.5748
 6093SOL    HW229742   4.338   1.903   1.294 -3.3373 -0.2655 -0.1669
 6094SOL     OW29743   0.257   4.592   1.093 -0.2827 -0.4567 -0.0927
 6094SOL    HW129744   0.278   4.664   1.151 -1.8256  0.9577 -1.2909
 6094SOL    HW229745   0.320   4.524   1.116 -0.5702 -0.5504  0.4187
 6095SOL     OW29746   1.008   1.611  11.913 -0.5955 -0.1431  0.2936
 6095SOL    HW129747   1.009   1.515  11.921  1.1354 -0.2591 -1.1397
 6095SOL    HW229748   1.094   1.625  11.953 -1.2269 -3.3937  2.7560
 6096SOL     OW29749   1.385   3.225   4.016 -0.5229  0.5164 -0.1330
 6096SOL    HW129750   1.415   3.180   3.937 -1.5442  0.2207 -0.3542
 6096SOL    HW229751   1.443   3.300   4.024  0.3832 -0.2034  0.0292
 6097SOL     OW29752   0.746   0.781   4.214 -0.0886  0.0382 -0.5092
 6097SOL    HW129753   0.731   0.857   4.270  2.0354 -0.0569  0.1864
 6097SOL    HW229754   0.693   0.715   4.260  0.4118 -1.5062 -2.1196
 6098SOL     OW29755   4.073   3.997  15.117 -0.3151  0.2800 -0.8798
 6098SOL    HW129756   4.005   4.064  15.126 -0.1159  0.4617 -0.7205
 6098SOL    HW229757   4.104   3.987  15.207 -1.5319 -0.0448 -0.5005
 6099SOL     OW29758   4.392   1.504  16.949 -0.2293  0.5891 -0.1200
 6099SOL    HW129759   4.455   1.556  16.900  2.0801 -1.9171  0.1538
 6099SOL    HW229760   4.327   1.500  16.879 -1.9462  0.4884  1.4850
 6100SOL     OW29761   0.340   4.234   8.131 -0.5027  0.1577  0.1744
 6100SOL    HW129762   0.301   4.237   8.219  0.9376 -0.1084  0.8279
 6100SOL    HW229763   0.400   4.308   8.125  1.2600 -1.2297  0.7602
 6101SOL     OW29764   1.526   4.356   9.040  0.0511 -0.3760 -0.2538
 6101SOL    HW129765   1.456   4.308   9.084 -0.2136 -0.4609 -0.7620
 6101SOL    HW229766   1.521   4.333   8.947 -0.3534  0.0899 -0.3472
 6102SOL     OW29767   4.097   1.894   4.974 -0.2359 -0.5650  0.0487
 6102SOL    HW129768   4.136   1.824   4.921 -2.4042 -1.7985  0.1062
 6102SOL    HW229769   4.012   1.853   4.987 -0.5684  0.2386  0.3996
 6103SOL     OW29770   1.036   4.425  14.198 -0.1684  0.6050  0.3320
 6103SOL    HW129771   1.008   4.392  14.284 -0.1021 -1.6483 -0.5206
 6103SOL    HW229772   1.060   4.347  14.149  2.3987  1.7671 -0.2601
 6104SOL     OW29773   1.037   0.022  13.125 -0.3396  0.1964  0.1126
 6104SOL    HW129774   1.039   0.031  13.221 -2.4119  0.6799  0.0926
 6104SOL    HW229775   1.048   4.650  13.105  0.6536  0.3174  0.0716
 6105SOL     OW29776   3.689   2.656  10.782 -0.1942  0.1290  0.0906
 6105SOL    HW129777   3.782   2.632  10.778 -0.7011 -1.7190 -0.7340
 6105SOL    HW229778   3.661   2.643  10.692  1.4812 -0.4763 -0.3503
 6106SOL     OW29779   3.947   3.802   2.529 -0.2154 -0.0758 -0.6030
 6106SOL    HW129780   3.903   3.823   2.611 -2.0062 -2.0163 -1.0575
 6106SOL    HW229781   3.977   3.714   2.550  1.1852  0.4211 -0.5674
 6107SOL     OW29782   0.786   0.134   7.564  0.5176 -0.2346 -0.0512
 6107SOL    HW129783   0.771   0.044   7.536  1.4726 -1.1238  2.3557
 6107SOL    HW229784   0.874   0.132   7.601  0.0186  2.1898  1.2941
 6108SOL     OW29785   1.462   4.220   2.439 -0.0205 -0.0215 -0.1596
 6108SOL    HW129786   1.377   4.199   2.477 -0.6984  1.2967 -0.9297
 6108SOL    HW229787   1.463   4.313   2.462  0.4327 -0.8081  3.0179
 6109SOL     OW29788   3.158   3.973   2.779 -0.1901 -0.3507 -0.2074
 6109SOL    HW129789   3.193   4.010   2.698 -2.6629  2.1736 -0.0947
 6109SOL    HW229790   3.173   4.043   2.842 -1.3669  1.1286 -1.5813
 6110SOL     OW29791   3.678   3.497   2.360  0.3332  0.3504  0.0229
 6110SOL    HW129792   3.692   3.591   2.370 -1.2092  0.7676 -1.8434
 6110SOL    HW229793   3.682   3.464   2.450 -0.1743 -3.2000 -1.2843
 6111SOL     OW29794   0.738   2.062   7.377 -0.7605  0.4771  0.5265
 6111SOL    HW129795   0.678   2.102   7.440 -0.2126 -2.6733  3.0337
 6111SOL    HW229796   0.684   1.989   7.346 -0.1039  1.2918 -2.4889
 6112SOL     OW29797   2.823   3.239   2.557 -0.2522  0.3523 -0.0317
 6112SOL    HW129798   2.875   3.188   2.620  1.4350  0.0991 -1.6204
 6112SOL    HW229799   2.873   3.316   2.532 -0.7778  0.1771 -1.6148
 6113SOL     OW29800   0.190   1.718   4.900  0.6540 -0.2285 -0.0087
 6113SOL    HW129801   0.248   1.685   4.831  1.3770  0.2098  0.3957
 6113SOL    HW229802   0.258   1.736   4.965  2.0325 -0.6431 -1.3446
 6114SOL     OW29803   2.327   0.759   3.843 -0.2104 -0.7669  0.2650
 6114SOL    HW129804   2.420   0.751   3.821 -0.1931  0.5661 -0.1372
 6114SOL    HW229805   2.291   0.693   3.784 -1.1448 -0.6625  0.7195
 6115SOL     OW29806   4.499   2.997   9.916  0.7179 -0.1887 -0.0129
 6115SOL    HW129807   4.475   3.083   9.950  2.2779  0.4808 -0.6100
 6115SOL    HW229808   4.412   2.973   9.885  0.8953  0.8469 -1.3097
 6116SOL     OW29809   4.047   0.627   7.076 -0.3085  0.1992 -0.1463
 6116SOL    HW129810   4.045   0.701   7.136  1.0384  0.7432 -0.7846
 6116SOL    HW229811   4.131   0.591   7.104 -0.8363 -0.8025  0.1796
 6117SOL     OW29812   0.028   0.567   8.618 -0.2954  0.0474  0.2735
 6117SOL    HW129813   0.012   0.474   8.600 -1.3180  0.5557 -1.4691
 6117SOL    HW229814   0.110   0.557   8.666 -1.4374 -1.8149  1.8594
 6118SOL     OW29815   4.395   0.644   7.358  0.3955  0.6372  0.0974
 6118SOL    HW129816   4.446   0.564   7.361  1.9936  1.6439  0.1011
 6118SOL    HW229817   4.306   0.617   7.381 -0.3150  2.0954 -0.9146
 6119SOL     OW29818   3.405   2.539   5.350  0.0407 -0.0682 -0.3955
 6119SOL    HW129819   3.462   2.474   5.309  0.3660  0.6646 -1.1030
 6119SOL    HW229820   3.458   2.619   5.347  2.1253 -1.4064  0.6800
 6120SOL     OW29821   1.645   3.854   5.136  0.2285 -0.1898  0.0138
 6120SOL    HW129822   1.663   3.793   5.208  1.7029  1.7717  1.2982
 6120SOL    HW229823   1.601   3.795   5.074 -1.9953  1.6464 -0.1696
 6121SOL     OW29824   0.935   4.176   8.235  0.2063  0.3615 -0.5009
 6121SOL    HW129825   0.964   4.261   8.267 -0.2248  0.2338  0.2419
 6121SOL    HW229826   1.014   4.123   8.247 -0.5095 -0.0223  2.7303
 6122SOL     OW29827   2.675   3.285   0.736  0.2012 -0.4284 -0.4730
 6122SOL    HW129828   2.726   3.253   0.662 -0.1426  1.0401 -1.3346
 6122SOL    HW229829   2.588   3.298   0.698  0.0669 -0.7241 -0.2695
 6123SOL     OW29830   3.261   2.062   8.504 -0.3377 -0.2831  0.2225
 6123SOL    HW129831   3.302   2.108   8.431 -1.7423 -0.9838 -1.0080
 6123SOL    HW229832   3.338   2.057   8.562  0.4385 -0.2792 -0.8066
 6124SOL     OW29833   3.702   4.136  15.697  0.6247  0.1168 -0.3631
 6124SOL    HW129834   3.675   4.207  15.640  1.0616  0.5354 -0.0578
 6124SOL    HW229835   3.619   4.105  15.732 -0.5819  1.9104 -1.6723
 6125SOL     OW29836   1.468   3.079  12.722  0.4618 -0.8688  0.5776
 6125SOL    HW129837   1.493   3.169  12.740 -1.7626 -0.3888  1.2342
 6125SOL    HW229838   1.427   3.093  12.636 -0.6421 -1.0311  1.0841
 6126SOL     OW29839   0.034   2.584   7.329 -0.3336  0.1654  0.1262
 6126SOL    HW129840   0.049   2.519   7.398 -0.3688 -0.0327 -0.0541
 6126SOL    HW229841   0.014   2.659   7.386  0.1579 -1.4377  2.4267
 6127SOL     OW29842   3.033   0.972   6.261 -0.3941 -0.4027  0.0822
 6127SOL    HW129843   2.983   0.891   6.272 -0.5798 -0.2420  0.4190
 6127SOL    HW229844   3.019   1.000   6.171 -0.7607 -2.8164 -0.6250
 6128SOL     OW29845   1.642   1.961   5.576  0.1982 -0.0620 -0.1520
 6128SOL    HW129846   1.656   1.867   5.579  1.0656  0.0312 -0.9707
 6128SOL    HW229847   1.627   1.984   5.484  0.3709  1.4448  0.1943
 6129SOL     OW29848   3.603   4.192   4.866  0.1808 -0.7538  0.6487
 6129SOL    HW129849   3.532   4.139   4.830 -0.2805 -0.7071  1.4677
 6129SOL    HW229850   3.649   4.227   4.790  0.0858 -0.8029  0.5682
 6130SOL     OW29851   3.708   0.860   7.217 -0.1338 -0.1101  0.0875
 6130SOL    HW129852   3.653   0.862   7.139 -0.5087  1.2435  0.3777
 6130SOL    HW229853   3.639   0.883   7.279  1.2516  1.1394  1.1816
 6131SOL     OW29854   3.849   3.170   3.220 -0.3146 -0.2180 -0.0337
 6131SOL    HW129855   3.784   3.239   3.230 -0.3445 -0.4495  1.2977
 6131SOL    HW229856   3.838   3.134   3.308 -0.5715  0.5556  0.2496
 6132SOL     OW29857   0.223   4.257   8.743  0.1566 -0.0661 -0.2851
 6132SOL    HW129858   0.129   4.240   8.737 -0.0558  0.5357  1.4200
 6132SOL    HW229859   0.267   4.175   8.767 -1.0861 -1.0976 -1.4639
 6133SOL     OW29860   2.856   4.043  15.921 -0.0153  0.1742 -0.0572
 6133SOL    HW129861   2.843   4.114  15.858 -0.1457 -0.8197 -1.1510
 6133SOL    HW229862   2.863   3.974  15.855  0.7146  1.0736 -0.9341
 6134SOL     OW29863   3.297   3.427   4.201 -0.0588  0.2723  0.5872
 6134SOL    HW129864   3.377   3.455   4.157 -0.2500  1.9375  1.2717
 6134SOL    HW229865   3.329   3.452   4.288  0.9877  0.7642  0.0645
 6135SOL     OW29866   2.127   3.775   6.961 -0.8548 -0.1288 -0.4005
 6135SOL    HW129867   2.210   3.728   6.953 -1.1186 -0.8034  0.9336
 6135SOL    HW229868   2.126   3.801   7.053  1.2598  0.0312 -0.4249
 6136SOL     OW29869   4.490   0.683   4.478  0.0013  0.7325 -0.3856
 6136SOL    HW129870   4.477   0.720   4.566  1.0108  1.8949 -0.7233
 6136SOL    HW229871   4.516   0.760   4.427  1.0463 -0.3326 -1.4563
 6137SOL     OW29872   1.806   1.427   3.814  0.1494  0.4056  0.1451
 6137SOL    HW129873   1.862   1.357   3.780  1.1756  1.7375 -0.9527
 6137SOL    HW229874   1.730   1.429   3.756 -0.6285 -0.3907  1.1453
 6138SOL     OW29875   0.185   0.890   1.016 -0.1957  0.0263 -0.3707
 6138SOL    HW129876   0.121   0.944   0.971 -1.9186 -0.5640  1.3832
 6138SOL    HW229877   0.191   0.926   1.105  0.4305  0.6782 -0.6809
 6139SOL     OW29878   1.312   0.068   1.688 -0.6944  0.6030 -0.1154
 6139SOL    HW129879   1.270   0.091   1.605  1.0913 -1.3333 -1.5639
 6139SOL    HW229880   1.330   0.147   1.739  0.5446 -1.0732  2.0629
 6140SOL     OW29881   0.607   1.537   3.263  0.5109  0.7686  0.3180
 6140SOL    HW129882   0.512   1.549   3.258  0.6861  2.9065  2.0727
 6140SOL    HW229883   0.623   1.531   3.168  1.5552  2.8757  0.3440
 6141SOL     OW29884   1.558   1.850   1.909 -0.0239  0.2970  0.2652
 6141SOL    HW129885   1.617   1.795   1.858  0.5051 -0.2382  1.4459
 6141SOL    HW229886   1.604   1.929   1.883  0.1643 -0.1141 -0.6371
 6142SOL     OW29887   0.777   3.526  14.743 -0.3250 -0.2617 -0.0780
 6142SOL    HW129888   0.786   3.479  14.661 -0.9777  0.0292 -0.3188
 6142SOL    HW229889   0.832   3.603  14.727  0.1527 -0.2453  1.5649
 6143SOL     OW29890   3.303   0.859  11.346  0.1076  0.3576  0.1915
 6143SOL    HW129891   3.243   0.785  11.344 -2.9974  2.8580  0.2737
 6143SOL    HW229892   3.379   0.804  11.326 -0.3890  0.3776 -1.7556
 6144SOL     OW29893   0.055   4.449   2.441  0.5390  0.3164  0.2669
 6144SOL    HW129894   4.698   4.503   2.457  0.7438  0.8540 -0.5845
 6144SOL    HW229895   0.021   4.379   2.385  0.0682  1.0319 -0.3524
 6145SOL     OW29896   2.109   3.428   2.064 -0.2192  0.1203  0.5548
 6145SOL    HW129897   2.168   3.494   2.028 -1.7128  0.9248 -0.3879
 6145SOL    HW229898   2.052   3.475   2.124 -1.5482 -2.8288  1.6003
 6146SOL     OW29899   0.261   3.062   8.318  0.4411 -0.1604 -0.5014
 6146SOL    HW129900   0.191   3.034   8.260 -0.1046  3.1306 -1.3991
 6146SOL    HW229901   0.239   3.154   8.334 -3.5651 -1.3783  0.8386
 6147SOL     OW29902   0.061   1.887   3.743  0.1653  0.1722  0.0136
 6147SOL    HW129903   0.067   1.824   3.670  0.9456 -0.3437  0.5166
 6147SOL    HW229904   4.700   1.931   3.720  0.2851  0.0208 -0.7211
 6148SOL     OW29905   2.457   4.514   2.948  0.1650  0.0508 -0.3449
 6148SOL    HW129906   2.374   4.465   2.945  0.7300 -1.0106  1.4410
 6148SOL    HW229907   2.492   4.473   2.869  1.1181  1.3479 -0.5857
 6149SOL     OW29908   2.864   2.597   7.071  0.0591  0.2195 -0.1938
 6149SOL    HW129909   2.954   2.600   7.037 -0.1370  2.5328 -0.4778
 6149SOL    HW229910   2.875   2.559   7.158  0.7123 -1.9223 -1.2001
 6150SOL     OW29911   3.497   1.987   9.020 -0.0836  0.2971  0.3167
 6150SOL    HW129912   3.472   2.072   9.056  0.1173 -0.1186  1.4366
 6150SOL    HW229913   3.588   1.977   9.047  0.3170  0.1335 -1.0542
 6151SOL     OW29914   2.848   3.387   6.321 -0.2384  0.1424  0.4719
 6151SOL    HW129915   2.905   3.463   6.330 -2.6412  2.0794 -0.6194
 6151SOL    HW229916   2.842   3.368   6.228 -2.3246  0.7179  0.4891
 6152SOL     OW29917   0.235   1.863  16.821 -0.5212 -0.1704 -0.4964
 6152SOL    HW129918   0.224   1.840  16.913 -1.7815  1.2495 -0.2930
 6152SOL    HW229919   0.330   1.870  16.825 -0.4435  0.5081 -3.0766
 6153SOL     OW29920   0.683   0.885   3.434 -0.3713 -0.2637 -0.2103
 6153SOL    HW129921   0.717   0.871   3.522  0.0120 -0.5010 -0.3935
 6153SOL    HW229922   0.719   0.807   3.391  3.1102  0.8793  0.6000
 6154SOL     OW29923   4.457   0.361   6.612 -0.1727 -0.0719 -0.5914
 6154SOL    HW129924   4.452   0.454   6.635  0.1815 -1.2206  4.2616
 6154SOL    HW229925   4.394   0.324   6.674  0.7387  1.0320  1.0129
 6155SOL     OW29926   0.217   1.594   5.744 -0.1450  0.6612  0.5372
 6155SOL    HW129927   0.127   1.592   5.711 -0.4082 -0.4649  1.3209
 6155SOL    HW229928   0.250   1.513   5.705  1.2396  1.0320  0.9761
 6156SOL     OW29929   0.155   4.182   2.308 -0.5064 -0.1476 -0.0153
 6156SOL    HW129930   0.204   4.228   2.376 -0.0731 -0.9275  0.1933
 6156SOL    HW229931   0.173   4.093   2.336 -0.0880 -0.6117 -1.7753
 6157SOL     OW29932   2.508   0.348   0.196 -0.7415  0.2568  0.1356
 6157SOL    HW129933   2.579   0.283   0.195 -0.0209  1.0716 -1.7051
 6157SOL    HW229934   2.558   0.429   0.188  0.6727 -0.7475 -1.3101
 6158SOL     OW29935   0.649   4.571   2.561  0.0459 -0.1245 -0.7876
 6158SOL    HW129936   0.728   4.594   2.611 -0.9503  0.2559  0.6058
 6158SOL    HW229937   0.661   4.476   2.561  2.7144  0.1931 -2.0293
 6159SOL     OW29938   0.014   2.066   6.266 -0.0226 -0.2530  0.1501
 6159SOL    HW129939   4.647   2.065   6.304  0.4771  1.0531  1.3217
 6159SOL    HW229940   0.008   2.154   6.229 -0.0656  0.4726  1.8888
 6160SOL     OW29941   2.535   0.110   3.500  0.6010 -0.4524 -0.1039
 6160SOL    HW129942   2.578   0.051   3.562  0.2249  0.0935  0.6738
 6160SOL    HW229943   2.595   0.116   3.426  1.3740  1.0204  0.6544
 6161SOL     OW29944   3.619   2.833   2.596 -0.5779  0.1867 -0.0010
 6161SOL    HW129945   3.710   2.861   2.583 -0.5235  0.5974  1.2115
 6161SOL    HW229946   3.625   2.738   2.587 -1.5714  0.1649 -0.4131
 6162SOL     OW29947   0.867   3.769   4.862  0.1344  0.1512  0.3978
 6162SOL    HW129948   0.781   3.806   4.882 -0.1391 -0.3706  0.1788
 6162SOL    HW229949   0.855   3.752   4.768  0.1623 -2.0313  0.7854
 6163SOL     OW29950   1.610   0.676   0.857 -0.5178 -0.5636  0.0057
 6163SOL    HW129951   1.693   0.646   0.821 -0.2534  0.6470 -0.4090
 6163SOL    HW229952   1.627   0.768   0.834  0.2783 -1.0886 -1.4419
 6164SOL     OW29953   3.943   0.202  13.788 -0.1305  0.0532 -0.3383
 6164SOL    HW129954   3.938   0.229  13.880  0.0472 -1.7852  0.2046
 6164SOL    HW229955   3.978   0.115  13.809 -1.2106 -0.7273 -1.8553
 6165SOL     OW29956   0.533   4.074   3.490  0.5940  0.3337  0.2178
 6165SOL    HW129957   0.568   4.087   3.402  0.7895 -1.4840  0.0178
 6165SOL    HW229958   0.516   4.160   3.529 -2.9572 -0.1329 -0.2722
 6166SOL     OW29959   2.072   0.858   5.553  0.1655 -0.0390  0.3224
 6166SOL    HW129960   2.120   0.775   5.555  0.8973  0.2750 -2.6491
 6166SOL    HW229961   2.019   0.858   5.632 -0.2920  2.5353  0.0208
 6167SOL     OW29962   3.920   2.082   8.052 -1.0046  0.8978  0.2467
 6167SOL    HW129963   3.982   2.019   8.015 -0.6128  1.4475 -0.0281
 6167SOL    HW229964   3.872   2.076   7.969  0.5894  2.8791 -0.8052
 6168SOL     OW29965   2.560   3.116   7.143  0.2876  0.3932  0.1346
 6168SOL    HW129966   2.509   3.037   7.124 -1.8610  1.2168  2.4040
 6168SOL    HW229967   2.575   3.147   7.054 -0.4341  1.2425  0.3095
 6169SOL     OW29968   0.362   4.411   3.400 -0.3119 -0.0824 -0.0618
 6169SOL    HW129969   0.422   4.359   3.347 -0.0616 -2.2915  2.4274
 6169SOL    HW229970   0.394   4.498   3.375  2.5532 -0.6422  1.6597
 6170SOL     OW29971   0.290   1.506   2.524  0.2582  0.1519  0.4712
 6170SOL    HW129972   0.364   1.459   2.563  1.9378  1.5073 -1.0813
 6170SOL    HW229973   0.226   1.488   2.592  1.6126 -1.0496  1.4080
 6171SOL     OW29974   0.760   4.300   5.047  0.0443  0.2634 -0.1796
 6171SOL    HW129975   0.783   4.212   5.015 -1.9639 -0.4950  0.5093
 6171SOL    HW229976   0.848   4.339   5.051  0.5139 -0.8091 -0.0359
 6172SOL     OW29977   0.750   3.287   3.063  0.3093 -0.4913 -0.0144
 6172SOL    HW129978   0.714   3.199   3.053 -0.2892 -0.3292  0.7174
 6172SOL    HW229979   0.754   3.298   3.158 -1.1790 -2.0851  0.2245
 6173SOL     OW29980   1.446   3.602   6.786  0.2305 -0.7746 -0.1400
 6173SOL    HW129981   1.389   3.528   6.766 -0.8934  0.1423 -0.3571
 6173SOL    HW229982   1.527   3.579   6.741 -0.2214 -0.1553 -1.2662
 6174SOL     OW29983   2.572   1.704  13.186 -0.4431 -0.1450  0.7955
 6174SOL    HW129984   2.504   1.764  13.217 -1.9671 -0.4375 -1.9517
 6174SOL    HW229985   2.517   1.675  13.113  0.6514  0.7291 -0.3806
 6175SOL     OW29986   1.575   2.558  15.587  0.1205 -0.0392 -0.0121
 6175SOL    HW129987   1.570   2.484  15.648 -0.3922 -0.3326 -0.4084
 6175SOL    HW229988   1.495   2.527  15.545 -0.4079  0.9307  0.2806
 6176SOL     OW29989   1.980   2.655  16.090 -0.5261  0.2170  0.3015
 6176SOL    HW129990   1.902   2.630  16.140  1.2654 -0.0517  2.9260
 6176SOL    HW229991   1.986   2.746  16.118  3.1048  0.4496 -1.3097
 6177SOL     OW29992   3.596   4.311   5.113 -0.1500 -0.5511  0.3478
 6177SOL    HW129993   3.593   4.274   5.025 -3.3128 -1.6939  0.9452
 6177SOL    HW229994   3.542   4.251   5.163 -1.4955  0.3108 -0.0864
 6178SOL     OW29995   2.867   0.380  11.800  0.6384 -0.5623 -0.2328
 6178SOL    HW129996   2.853   0.288  11.822  0.0488 -0.2703  0.6158
 6178SOL    HW229997   2.961   0.384  11.817  0.4096  2.3942  0.2175
 6179SOL     OW29998   3.899   1.244   7.922 -0.4006 -0.4464  0.2280
 6179SOL    HW129999   3.824   1.185   7.926 -0.6190 -0.2911 -1.9379
 6179SOL    HW230000   3.943   1.221   8.004 -1.9838  3.2574  2.1265
 6180SOL     OW30001   3.361   4.498   4.712 -0.2287  0.5430 -0.1884
 6180SOL    HW130002   3.271   4.484   4.679  0.0546 -2.6233  0.3186
 6180SOL    HW230003   3.350   4.460   4.799  1.7933  3.0272  1.1381
 6181SOL     OW30004   0.935   1.372   4.404 -0.0127 -0.1132 -0.1902
 6181SOL    HW130005   0.846   1.404   4.418  0.0546 -0.4212  0.9044
 6181SOL    HW230006   0.991   1.423   4.462 -3.5884  2.5197  0.9525
 6182SOL     OW30007   1.794   2.090   5.761 -0.0186 -0.3988  0.7265
 6182SOL    HW130008   1.858   2.019   5.748  0.3137  0.2833 -1.4206
 6182SOL    HW230009   1.730   2.057   5.698  0.9249 -1.9399  0.5563
 6183SOL     OW30010   1.303   0.716  11.905 -0.3076  0.1598 -0.1287
 6183SOL    HW130011   1.288   0.742  11.996 -0.1216 -0.8556  0.1834
 6183SOL    HW230012   1.364   0.646  11.926  0.1211  0.9646  1.2881
 6184SOL     OW30013   2.397   4.385   6.760  0.1841  0.3052 -0.2515
 6184SOL    HW130014   2.311   4.343   6.754  0.8812 -1.5163  2.6344
 6184SOL    HW230015   2.369   4.460   6.813  1.2852 -0.1481  0.9842
 6185SOL     OW30016   0.166   1.236   3.501 -0.3993  0.1796  0.1253
 6185SOL    HW130017   0.215   1.155   3.518 -0.0581  0.1102 -1.1835
 6185SOL    HW230018   0.215   1.279   3.431  0.0182  1.4714  1.2095
 6186SOL     OW30019   2.425   4.213   4.887 -0.2292 -0.1144  0.7153
 6186SOL    HW130020   2.334   4.227   4.913 -1.0264  1.5517 -3.0559
 6186SOL    HW230021   2.416   4.154   4.812 -0.2222 -0.6664  1.1426
 6187SOL     OW30022   2.966   3.970   7.740 -0.0049 -0.1536 -0.0868
 6187SOL    HW130023   2.945   3.877   7.740 -1.9884  0.2647 -4.9979
 6187SOL    HW230024   3.051   3.971   7.696  1.5700  0.6479  3.0085
 6188SOL     OW30025   2.354   2.810   4.189 -0.4256  0.9283 -0.0160
 6188SOL    HW130026   2.263   2.800   4.162 -0.3946  1.7667 -0.4527
 6188SOL    HW230027   2.397   2.732   4.154 -1.1132  0.3957  0.3189
 6189SOL     OW30028   1.644   2.704   5.245 -0.0430  0.9826 -0.3300
 6189SOL    HW130029   1.615   2.759   5.318  0.1314  0.6237  0.0092
 6189SOL    HW230030   1.640   2.768   5.174  1.1323  2.5895  1.0523
 6190SOL     OW30031   3.672   2.809   7.804  0.6133  0.1403  0.4317
 6190SOL    HW130032   3.667   2.835   7.896 -1.4942  0.4640  0.2259
 6190SOL    HW230033   3.759   2.769   7.806  1.4884  1.8718 -3.1731
 6191SOL     OW30034   1.489   4.282   8.308 -0.4941  0.3573 -0.0740
 6191SOL    HW130035   1.514   4.331   8.229  1.5548 -0.6836 -0.0885
 6191SOL    HW230036   1.490   4.191   8.279  0.7934  0.7920 -1.4444
 6192SOL     OW30037   2.655   0.094   8.599  0.3505 -0.2406  0.1113
 6192SOL    HW130038   2.688   0.072   8.512 -0.9564  0.0301 -0.4537
 6192SOL    HW230039   2.702   0.037   8.660  0.9552  1.4229  1.2007
 6193SOL     OW30040   3.956   1.340   7.533  0.0579 -0.6033 -0.4504
 6193SOL    HW130041   4.030   1.337   7.594 -2.1143 -2.3743  2.0804
 6193SOL    HW230042   3.966   1.429   7.502 -0.8036 -0.9413 -1.6916
 6194SOL     OW30043   1.792   4.005   1.694  0.0937  0.1351  0.2475
 6194SOL    HW130044   1.803   4.093   1.731  2.6884  0.7840 -2.0815
 6194SOL    HW230045   1.704   4.011   1.657 -0.8459 -0.4600  2.3794
 6195SOL     OW30046   1.929   0.308   9.828  0.4110 -0.1876 -0.3544
 6195SOL    HW130047   1.990   0.295   9.901  0.5319  1.8328 -0.0845
 6195SOL    HW230048   1.910   0.402   9.823 -0.9259 -0.3416  1.7211
 6196SOL     OW30049   4.196   1.457  16.771  0.0121  0.5301 -0.0168
 6196SOL    HW130050   4.120   1.421  16.816 -0.1427  0.0256 -0.6917
 6196SOL    HW230051   4.211   1.396  16.699 -0.6808  0.6578 -0.2753
 6197SOL     OW30052   1.826   0.645   0.698  0.1824 -0.3621  0.1233
 6197SOL    HW130053   1.858   0.556   0.684 -0.0181 -0.5763  0.9997
 6197SOL    HW230054   1.901   0.692   0.662  0.5689 -1.2409 -0.2371
 6198SOL     OW30055   3.489   1.260   2.753 -0.4735  0.2998 -0.2111
 6198SOL    HW130056   3.458   1.187   2.700  2.6627 -0.8257 -0.4770
 6198SOL    HW230057   3.406   1.288   2.794 -0.5640  2.5644 -1.9235
 6199SOL     OW30058   0.258   1.298   5.165  0.0901 -0.2832 -0.4743
 6199SOL    HW130059   0.250   1.365   5.232 -0.0575 -1.7595  0.9659
 6199SOL    HW230060   0.214   1.217   5.192 -0.4589 -0.0653 -0.7164
 6200SOL     OW30061   4.710   0.141   4.337  0.0080 -0.4928  0.4365
 6200SOL    HW130062   4.715   0.085   4.260 -3.3281 -0.5612  0.2322
 6200SOL    HW230063   4.682   0.074   4.399 -0.7108 -1.4415 -0.9048
 6201SOL     OW30064   1.858   4.401  13.910  0.3826  0.2032 -0.7348
 6201SOL    HW130065   1.945   4.435  13.888  1.3856 -1.4515  0.6568
 6201SOL    HW230066   1.826   4.474  13.962  0.9560 -0.3493  0.3923
 6202SOL     OW30067   0.944   1.112   3.300 -0.1412 -0.2802 -0.1199
 6202SOL    HW130068   1.015   1.173   3.279  0.1353 -0.2290  0.9701
 6202SOL    HW230069   0.940   1.114   3.396 -2.3447 -2.2395 -0.1553
 6203SOL     OW30070   1.172   3.584   0.522  0.0617  0.4710  0.0023
 6203SOL    HW130071   1.228   3.637   0.578 -2.7082  1.7175  1.5339
 6203SOL    HW230072   1.233   3.553   0.455  1.1958  1.3218  0.6423
 6204SOL     OW30073   1.803   1.744   4.300 -0.0026 -0.2400  0.2518
 6204SOL    HW130074   1.831   1.677   4.238  1.4592 -0.2691  0.9393
 6204SOL    HW230075   1.834   1.823   4.255  0.4371  0.8859  2.5175
 6205SOL     OW30076   3.499   3.573   8.523 -0.0945 -0.4903  0.0521
 6205SOL    HW130077   3.455   3.657   8.538  1.2044  0.2043 -0.0028
 6205SOL    HW230078   3.498   3.529   8.608 -1.7640 -1.6272 -0.5556
 6206SOL     OW30079   1.067   1.547   5.339 -0.0171  0.1830 -0.3880
 6206SOL    HW130080   1.070   1.457   5.307  0.3283  1.2391 -3.3825
 6206SOL    HW230081   1.034   1.594   5.262 -0.5826  0.2735 -0.0892
 6207SOL     OW30082   4.450   1.783   3.561 -0.3871  0.8790  0.8341
 6207SOL    HW130083   4.406   1.702   3.588  1.8306 -0.7945 -0.6042
 6207SOL    HW230084   4.544   1.766   3.559 -0.2187  1.5400  3.5182
 6208SOL     OW30085   2.166   0.246   9.992  0.1899  0.4267 -0.8089
 6208SOL    HW130086   2.251   0.289   9.997 -0.0307  0.7165  0.6698
 6208SOL    HW230087   2.131   0.275  10.076  0.5295  0.7173 -0.7670
 6209SOL     OW30088   0.809   4.425  17.676 -0.1743 -0.1660 -0.0987
 6209SOL    HW130089   0.873   4.381  17.619  2.0430  2.3210  0.4510
 6209SOL    HW230090   0.726   4.384  17.652  1.1188 -1.8686 -1.6933
 6210SOL     OW30091   3.129   0.441  12.458  0.1040  0.4584  0.7505
 6210SOL    HW130092   3.040   0.411  12.476 -0.0473  0.4747  0.0224
 6210SOL    HW230093   3.141   0.434  12.364 -0.0146  1.6231  0.6618
 6211SOL     OW30094   1.728   3.779   2.896  0.0294 -0.0847  0.4601
 6211SOL    HW130095   1.801   3.841   2.904  0.6240 -0.6073 -0.8876
 6211SOL    HW230096   1.765   3.702   2.941  0.8024 -1.3395 -2.3039
 6212SOL     OW30097   0.879   2.423   3.519  0.4481  0.1564 -0.4779
 6212SOL    HW130098   0.922   2.364   3.457 -0.2954 -0.5237 -0.3362
 6212SOL    HW230099   0.909   2.508   3.486 -0.8611 -0.2476 -2.7042
 6213SOL     OW30100   3.634   3.720   6.935  0.0559 -0.4689  0.4435
 6213SOL    HW130101   3.656   3.702   7.026 -0.4034 -0.9459  0.4619
 6213SOL    HW230102   3.669   3.641   6.896  0.9831 -0.3749  1.0827
 6214SOL     OW30103   0.956   0.203   8.482  0.2476  0.4289  0.3759
 6214SOL    HW130104   0.940   0.233   8.572 -0.9881 -1.9981  0.9695
 6214SOL    HW230105   0.879   0.241   8.439  1.1230  2.3639  0.5240
 6215SOL     OW30106   1.129   3.826   8.290  0.1276  0.2176  0.3325
 6215SOL    HW130107   1.197   3.792   8.231  0.1256  0.4705  0.1847
 6215SOL    HW230108   1.093   3.742   8.317 -0.9023  1.0473  1.5452
 6216SOL     OW30109   1.471   0.432   1.856 -0.4681  0.0923  0.1840
 6216SOL    HW130110   1.469   0.495   1.929 -1.6994  0.7165 -0.3925
 6216SOL    HW230111   1.527   0.477   1.793 -1.1413 -0.1111 -0.5555
 6217SOL     OW30112   1.581   3.698  13.059 -0.0258  0.3045  0.3298
 6217SOL    HW130113   1.672   3.728  13.060  0.0531  0.0529  0.9735
 6217SOL    HW230114   1.600   3.627  13.121  2.1339  0.7166  0.1514
 6218SOL     OW30115   4.710   1.226   4.202  0.0645  0.5992 -0.6811
 6218SOL    HW130116   0.025   1.168   4.135 -0.4443  0.4529 -0.8291
 6218SOL    HW230117   0.074   1.254   4.238 -0.9392  1.7763  0.7853
 6219SOL     OW30118   2.307   2.074   7.043  0.0938  0.5334 -0.1833
 6219SOL    HW130119   2.303   2.158   7.088 -2.1064 -1.5777  3.6206
 6219SOL    HW230120   2.389   2.045   7.082 -1.1325 -0.8662  1.3309
 6220SOL     OW30121   2.442   4.690  12.249 -0.3379 -0.3150 -0.1504
 6220SOL    HW130122   2.495   4.687  12.328  1.0345  4.4348 -0.9013
 6220SOL    HW230123   2.468   0.059  12.232 -0.2909 -0.5389 -1.2440
 6221SOL     OW30124   1.884   0.663   2.296  0.2613 -0.3938  0.5738
 6221SOL    HW130125   1.888   0.699   2.208  0.3913  0.1503  0.8014
 6221SOL    HW230126   1.829   0.724   2.345 -0.3199 -0.6554  0.2496
 6222SOL     OW30127   0.878   4.064   7.837 -0.0383  0.2396 -0.1322
 6222SOL    HW130128   0.847   4.150   7.812 -2.4366 -0.5055  0.3412
 6222SOL    HW230129   0.803   4.005   7.838 -1.0196  1.4876 -2.1140
 6223SOL     OW30130   1.526   0.858  12.164  0.1784  0.0713 -0.2160
 6223SOL    HW130131   1.606   0.806  12.172 -0.0149 -0.1500  0.2195
 6223SOL    HW230132   1.519   0.917  12.239  0.4604 -0.1944  0.0213
 6224SOL     OW30133   0.596   2.883  10.638  0.0664  0.1694 -0.1011
 6224SOL    HW130134   0.629   2.862  10.725  2.4628  0.2267 -0.9903
 6224SOL    HW230135   0.511   2.840  10.646 -0.4016  1.3476  1.4188
 6225SOL     OW30136   3.897   0.431   9.472 -0.4117 -0.6454  0.4275
 6225SOL    HW130137   3.802   0.423   9.472 -0.5509  1.1833  1.3972
 6225SOL    HW230138   3.906   0.522   9.500  0.5448 -1.0572  1.4463
 6226SOL     OW30139   3.868   0.111   0.904  0.1183  0.1013 -0.3414
 6226SOL    HW130140   3.853   0.028   0.858  2.0268 -0.5162  0.1506
 6226SOL    HW230141   3.845   0.179   0.841  0.1223  0.3784 -0.0408
 6227SOL     OW30142   0.297   2.806   9.591 -0.3462 -0.7811  0.5710
 6227SOL    HW130143   0.340   2.720   9.591 -1.9836 -1.6358  4.7760
 6227SOL    HW230144   0.252   2.812   9.507 -0.9644 -0.8495  0.9009
 6228SOL     OW30145   3.729   3.064   4.096  0.6687  0.0439 -0.3100
 6228SOL    HW130146   3.742   2.993   4.033 -1.8145 -0.1886 -0.5602
 6228SOL    HW230147   3.670   3.020   4.158 -1.4708 -1.4314 -3.3912
 6229SOL     OW30148   4.251   3.115   3.789 -0.0779  0.5046  0.5691
 6229SOL    HW130149   4.281   3.044   3.733 -0.0699  1.1617 -0.2496
 6229SOL    HW230150   4.204   3.066   3.857  1.3476  0.7024  1.7045
 6230SOL     OW30151   3.667   2.328   2.592  0.1348 -0.1416  0.5226
 6230SOL    HW130152   3.688   2.260   2.528  1.8167  0.2717  0.6369
 6230SOL    HW230153   3.758   2.347   2.616  0.1402  0.8356 -0.2510
 6231SOL     OW30154   1.744   4.282   7.359  0.2363 -0.2824  0.0996
 6231SOL    HW130155   1.769   4.374   7.353  0.4540 -0.3780 -0.4258
 6231SOL    HW230156   1.662   4.285   7.409  0.0058 -0.4186 -0.2663
 6232SOL     OW30157   3.440   2.459   9.978 -0.0275  0.1091 -0.2906
 6232SOL    HW130158   3.438   2.430  10.069  0.4646  0.1654 -0.2568
 6232SOL    HW230159   3.522   2.420   9.946  0.0096  1.1234 -1.4759
 6233SOL     OW30160   4.116   1.625   4.433 -0.6136  0.2837 -0.0245
 6233SOL    HW130161   4.141   1.541   4.470  0.4178  0.7488  0.3272
 6233SOL    HW230162   4.145   1.688   4.499  1.3958 -1.3046  0.5735
 6234SOL     OW30163   3.868   1.767  16.495 -0.5949  0.6852  0.4877
 6234SOL    HW130164   3.811   1.743  16.568 -3.1241  0.3460 -1.5948
 6234SOL    HW230165   3.921   1.693  16.465 -1.0322  0.1787  0.9604
 6235SOL     OW30166   2.651   1.865  12.965  0.0408 -0.0720 -0.0149
 6235SOL    HW130167   2.570   1.915  12.977 -0.4730 -0.2599 -2.6495
 6235SOL    HW230168   2.655   1.812  13.044 -1.0946  2.2522  1.5738
 6236SOL     OW30169   4.310   2.403  10.029  0.2132  0.2931 -0.5054
 6236SOL    HW130170   4.261   2.358   9.960  0.3504  0.2317 -0.5621
 6236SOL    HW230171   4.321   2.485   9.981  1.7725  1.2000  1.3805
 6237SOL     OW30172   1.570   0.088   3.350 -0.0601 -0.1667 -0.3867
 6237SOL    HW130173   1.554   0.173   3.310 -0.9560 -0.1899 -0.0734
 6237SOL    HW230174   1.657   0.078   3.311 -0.0956  0.5780 -0.6390
 6238SOL     OW30175   1.589   1.291   1.313 -0.3708  0.4397 -0.5868
 6238SOL    HW130176   1.511   1.343   1.294  0.0120  1.2301 -0.0276
 6238SOL    HW230177   1.636   1.299   1.229  1.6403  0.8045  0.5628
 6239SOL     OW30178   3.664   3.399   2.622  0.2193 -0.2068  0.1744
 6239SOL    HW130179   3.573   3.392   2.651 -0.4382 -2.0790 -2.3334
 6239SOL    HW230180   3.693   3.309   2.637  1.4872 -0.2005 -2.2230
 6240SOL     OW30181   3.388   0.012  16.195  0.5551  0.1815  0.0395
 6240SOL    HW130182   3.453   0.052  16.138 -0.6261  1.2994 -0.5326
 6240SOL    HW230183   3.344   4.679  16.130 -0.1651 -2.2215  2.5200
 6241SOL     OW30184   0.735   3.555   6.358  0.0444 -0.0554 -0.4963
 6241SOL    HW130185   0.702   3.643   6.341 -1.5396 -0.2393  1.5802
 6241SOL    HW230186   0.747   3.546   6.453 -0.6076  1.1923 -0.3083
 6242SOL     OW30187   3.641   3.763  11.834 -0.0964 -0.0490  0.0764
 6242SOL    HW130188   3.668   3.854  11.831 -0.0284 -0.0282  1.3832
 6242SOL    HW230189   3.546   3.761  11.818 -0.0840  3.9546 -0.3864
 6243SOL     OW30190   2.164   4.644   2.890  0.5532  0.7781  0.1014
 6243SOL    HW130191   2.237   4.682   2.940  0.9280 -0.1667  0.2875
 6243SOL    HW230192   2.218   4.614   2.817  0.9965 -2.2639  1.6923
 6244SOL     OW30193   0.317   1.580   1.770  0.0892 -0.3283  0.0534
 6244SOL    HW130194   0.408   1.611   1.763 -0.5180  1.4716  0.2953
 6244SOL    HW230195   0.311   1.555   1.862 -0.4068 -0.7500 -0.0998
 6245SOL     OW30196   2.134   3.181   6.743  0.2593 -0.3416 -0.3302
 6245SOL    HW130197   2.228   3.202   6.745  0.0539  0.6651 -1.3392
 6245SOL    HW230198   2.123   3.155   6.835  0.2010 -2.4666 -0.9325
 6246SOL     OW30199   0.892   2.419   8.815 -0.0422 -0.0547 -0.4232
 6246SOL    HW130200   0.930   2.335   8.839 -0.8263  0.0453  1.1518
 6246SOL    HW230201   0.809   2.393   8.775 -1.3989  1.2734  1.5356
 6247SOL     OW30202   1.181   1.472  16.534  0.1471 -0.0262 -0.6176
 6247SOL    HW130203   1.241   1.546  16.525  0.3871  0.1879  2.8655
 6247SOL    HW230204   1.226   1.388  16.536 -1.7217 -1.0850 -2.3657
 6248SOL     OW30205   1.251   1.356   8.649  0.0645  0.1303  0.7238
 6248SOL    HW130206   1.274   1.377   8.740  0.3685  3.1624 -0.0498
 6248SOL    HW230207   1.156   1.372   8.651 -0.1567 -1.1703  0.3935
 6249SOL     OW30208   2.980   2.521  14.245 -0.1940 -0.1575 -0.0979
 6249SOL    HW130209   2.934   2.577  14.183  2.9722  1.2057 -1.2040
 6249SOL    HW230210   2.957   2.430  14.226  0.7975 -0.5552  0.6077
 6250SOL     OW30211   0.932   3.376   3.573 -0.7245  0.7720 -0.3082
 6250SOL    HW130212   0.868   3.447   3.577 -0.3762  1.1406 -1.0982
 6250SOL    HW230213   0.959   3.364   3.664 -0.3067 -0.1820 -0.5583
 6251SOL     OW30214   3.893   3.982   3.732  0.0945  0.1474  0.7534
 6251SOL    HW130215   3.896   4.041   3.808  1.5413  0.9546  0.0644
 6251SOL    HW230216   3.974   3.990   3.682  0.3410 -0.1746  1.1038
 6252SOL     OW30217   2.882   0.936  15.688 -0.4492 -0.2254 -0.0837
 6252SOL    HW130218   2.870   1.013  15.744  0.4760  0.8255 -1.3244
 6252SOL    HW230219   2.915   0.969  15.605 -0.5999 -1.2270 -0.5445
 6253SOL     OW30220   0.553   0.050   1.513 -0.0574  0.2721 -0.0008
 6253SOL    HW130221   0.625   0.091   1.560  0.4692 -0.0096 -0.5663
 6253SOL    HW230222   0.540   0.126   1.456  1.4395  0.6058  0.1072
 6254SOL     OW30223   2.218   0.651   8.626  0.2609 -0.9911 -0.1398
 6254SOL    HW130224   2.210   0.681   8.717 -2.1827 -3.7476  0.5628
 6254SOL    HW230225   2.237   0.558   8.618 -1.3781 -1.3513  0.0682
 6255SOL     OW30226   4.349   1.707   1.431 -0.3460  0.4625  0.4168
 6255SOL    HW130227   4.354   1.737   1.521  0.8628  2.4835 -0.3364
 6255SOL    HW230228   4.438   1.679   1.408 -0.4621 -0.0731  0.6214
 6256SOL     OW30229   2.252   0.556   2.810  0.3442  0.4676 -0.0271
 6256SOL    HW130230   2.322   0.555   2.875  1.6034  1.6810 -1.3632
 6256SOL    HW230231   2.257   0.472   2.763 -1.6447  0.4534 -0.2444
 6257SOL     OW30232   4.122   0.918   6.007  0.2743  0.0875 -0.5458
 6257SOL    HW130233   4.041   0.876   5.980  0.2372  0.3923 -0.9096
 6257SOL    HW230234   4.094   0.969   6.083  0.0581  1.1345 -1.3318
 6258SOL     OW30235   3.484   0.335  12.983  0.7961  0.0798 -0.6710
 6258SOL    HW130236   3.493   0.395  12.909 -0.6555 -0.1614 -1.0403
 6258SOL    HW230237   3.399   0.295  12.965  0.0014  1.1870  0.6262
 6259SOL     OW30238   0.750   0.419   0.346 -0.1142 -0.1404 -0.1264
 6259SOL    HW130239   0.755   0.432   0.251  2.7267  2.4763  0.3605
 6259SOL    HW230240   0.666   0.375   0.361 -1.1790  1.3367 -1.7559
 6260SOL     OW30241   4.196   1.379   3.077  0.2779  0.6888  0.3550
 6260SOL    HW130242   4.261   1.310   3.072 -1.4101 -0.8376 -0.3908
 6260SOL    HW230243   4.136   1.333   3.135 -1.3898  3.4132  0.7814
 6261SOL     OW30244   0.932   0.716   8.828  0.2868  0.2375  0.0314
 6261SOL    HW130245   1.005   0.748   8.774  1.3844  1.1843  2.0769
 6261SOL    HW230246   0.961   0.732   8.918 -2.7145  1.1737  0.8300
 6262SOL     OW30247   3.966   0.384   3.049  0.0708 -0.3071 -0.2099
 6262SOL    HW130248   4.020   0.346   2.980 -2.2401 -0.5373 -1.8728
 6262SOL    HW230249   3.979   0.307   3.104 -0.1650 -1.2028 -1.4129
 6263SOL     OW30250   0.007   3.425  17.654 -0.2037  0.1767 -0.0428
 6263SOL    HW130251   0.074   3.404  17.589  0.2917  1.5314  0.0365
 6263SOL    HW230252   4.658   3.461  17.600 -0.3364 -2.2009 -1.4848
 6264SOL     OW30253   1.546   1.287  14.117 -0.5627 -0.7286 -0.2923
 6264SOL    HW130254   1.502   1.291  14.032 -1.0525 -0.1525 -0.0128
 6264SOL    HW230255   1.595   1.206  14.111  1.4526  0.3370  1.8024
 6265SOL     OW30256   1.966   1.345  10.896  0.2881 -0.2008 -0.5736
 6265SOL    HW130257   2.057   1.317  10.891  0.0489 -1.2432  1.1618
 6265SOL    HW230258   1.927   1.281  10.955  1.8714 -0.9361 -0.3267
 6266SOL     OW30259   2.533   4.139   8.146 -0.0423 -0.3123 -0.1024
 6266SOL    HW130260   2.519   4.220   8.097  0.5714 -0.8811 -1.2153
 6266SOL    HW230261   2.628   4.130   8.152  0.0238  0.9764  0.6199
 6267SOL     OW30262   2.932   1.789   4.458  0.2163  0.1283 -0.2828
 6267SOL    HW130263   2.842   1.772   4.486  0.1549 -0.3747 -0.7950
 6267SOL    HW230264   2.924   1.879   4.427 -0.5364  0.2655  0.3039
 6268SOL     OW30265   1.246   0.218   3.459 -0.3634  0.1224  0.3919
 6268SOL    HW130266   1.237   0.296   3.404 -1.9678 -0.0147  0.4595
 6268SOL    HW230267   1.213   0.145   3.406 -0.5901  1.2487 -1.0002
 6269SOL     OW30268   3.919   3.432   8.621 -0.1864 -0.0741  0.0721
 6269SOL    HW130269   3.973   3.510   8.616  1.6293 -1.4379 -1.7177
 6269SOL    HW230270   3.828   3.458   8.636 -0.4797 -1.4829  0.7653
 6270SOL     OW30271   2.688   2.195   3.192  0.6033  0.8355  0.5953
 6270SOL    HW130272   2.678   2.100   3.196  2.5609  0.5539 -0.8654
 6270SOL    HW230273   2.634   2.204   3.113  2.9401  1.1139 -0.9945
 6271SOL     OW30274   3.725   0.195   3.194  0.9358 -0.2922 -0.0972
 6271SOL    HW130275   3.819   0.216   3.192  1.1624 -1.2464  0.3405
 6271SOL    HW230276   3.702   0.159   3.109 -1.7905 -0.5603  0.7686
 6272SOL     OW30277   4.034   3.175  16.761 -0.2088  0.6817  0.2547
 6272SOL    HW130278   4.121   3.149  16.730 -0.4649  0.5570 -0.3571
 6272SOL    HW230279   4.058   3.195  16.851  0.6853  2.2170 -0.3355
 6273SOL     OW30280   2.405   2.618   4.029 -0.0428  0.6549 -0.3191
 6273SOL    HW130281   2.466   2.557   3.987 -0.3606 -0.7094  1.2091
 6273SOL    HW230282   2.322   2.589   3.993 -1.7483  3.5507  1.2917
 6274SOL     OW30283   3.771   2.515   3.867 -0.1803  0.7952  0.2987
 6274SOL    HW130284   3.796   2.594   3.819  0.5823  0.3023 -0.1170
 6274SOL    HW230285   3.849   2.460   3.853 -0.3346  1.2868 -2.4764
 6275SOL     OW30286   1.982   3.353  11.451  0.1784  0.0978 -0.0121
 6275SOL    HW130287   2.007   3.432  11.498 -2.0190  0.5623  0.4018
 6275SOL    HW230288   2.055   3.357  11.389 -2.8845 -0.6887 -3.6852
 6276SOL     OW30289   2.089   2.032  13.101  0.3478 -0.1586  0.8862
 6276SOL    HW130290   2.059   2.000  13.186 -0.4540  1.8264  1.3685
 6276SOL    HW230291   2.175   2.064  13.129  0.3281 -2.1720  3.2077
 6277SOL     OW30292   0.773   0.603   8.251 -0.6353  0.1251  0.2757
 6277SOL    HW130293   0.840   0.603   8.319  0.8087 -1.7857 -1.1396
 6277SOL    HW230294   0.697   0.592   8.307 -1.0598  3.5336  0.3319
 6278SOL     OW30295   1.936   0.494   4.371 -0.5035  0.4693 -0.1991
 6278SOL    HW130296   2.021   0.456   4.348  0.2324  1.4575  0.8932
 6278SOL    HW230297   1.900   0.482   4.283  2.9092 -1.8352 -1.3028
 6279SOL     OW30298   3.188   0.205   4.124 -0.2844  0.4272  0.1834
 6279SOL    HW130299   3.178   0.157   4.042  0.2853 -0.5744  0.7099
 6279SOL    HW230300   3.282   0.219   4.133 -0.5984  1.8421  1.4048
 6280SOL     OW30301   1.352   3.499  10.874 -0.6126 -0.1152 -0.1818
 6280SOL    HW130302   1.443   3.496  10.846 -0.4908  0.1100  0.1766
 6280SOL    HW230303   1.325   3.587  10.847 -1.5510 -0.2101  0.4223
 6281SOL     OW30304   3.503   3.353   1.111  0.1877  0.0106  0.1799
 6281SOL    HW130305   3.415   3.362   1.075 -0.2700 -0.4931  1.1750
 6281SOL    HW230306   3.537   3.432   1.069 -1.0077  0.3890 -0.0870
 6282SOL     OW30307   3.144   0.949  11.121  0.2942 -0.4856  0.0152
 6282SOL    HW130308   3.119   0.968  11.031 -0.5224 -0.9057  0.1590
 6282SOL    HW230309   3.229   0.909  11.101  1.8906  2.1011  1.5182
 6283SOL     OW30310   1.895   1.300   5.436  0.0992  0.1601 -0.3107
 6283SOL    HW130311   1.807   1.311   5.472  1.3793  1.0604  2.5293
 6283SOL    HW230312   1.931   1.242   5.502 -0.7881 -0.1146 -0.0701
 6284SOL     OW30313   1.522   1.859  14.560 -0.5306  0.4531 -0.1139
 6284SOL    HW130314   1.496   1.829  14.472  0.9382 -1.0057 -0.0449
 6284SOL    HW230315   1.616   1.842  14.555 -0.4652  0.9039 -0.4035
 6285SOL     OW30316   3.074   1.906   5.330 -0.2243  0.3090  0.3248
 6285SOL    HW130317   3.112   1.925   5.416 -2.2714 -0.6254  1.4516
 6285SOL    HW230318   2.998   1.964   5.338  0.0684  0.5133  1.5818
 6286SOL     OW30319   1.863   3.616   3.079 -0.4752  0.3100 -0.0436
 6286SOL    HW130320   1.883   3.694   3.132 -2.6739 -1.3071  3.2014
 6286SOL    HW230321   1.948   3.588   3.048  0.4579  0.0757  2.6838
 6287SOL     OW30322   2.660   4.298   7.578  0.1076  0.2783 -0.0385
 6287SOL    HW130323   2.623   4.346   7.504 -1.4295  0.0739  0.6109
 6287SOL    HW230324   2.747   4.281   7.540 -0.4076 -0.1479 -1.0328
 6288SOL     OW30325   1.188   1.958  15.342  0.2233  0.3866 -0.3067
 6288SOL    HW130326   1.095   1.954  15.320  0.5328 -0.6153 -1.4621
 6288SOL    HW230327   1.210   2.051  15.336  1.0961  0.0907 -1.6674
 6289SOL     OW30328   4.268   0.690   7.718 -0.8817 -0.1772 -0.1465
 6289SOL    HW130329   4.295   0.776   7.750  0.6351 -0.4840 -0.5985
 6289SOL    HW230330   4.214   0.715   7.643  0.6987  0.9273 -0.9233
 6290SOL     OW30331   2.757   2.097  15.668  0.2876  0.1885  0.7283
 6290SOL    HW130332   2.774   2.157  15.595 -2.0881  1.1110  0.9568
 6290SOL    HW230333   2.813   2.136  15.735  0.5443  2.3197 -0.6982
 6291SOL     OW30334   3.918   3.069   9.573 -0.2441 -0.1401 -0.2764
 6291SOL    HW130335   4.002   3.037   9.541  0.0436  1.0148 -0.7001
 6291SOL    HW230336   3.948   3.073   9.664  1.9909  1.9504 -1.0805
 6292SOL     OW30337   0.295   4.438   3.673  0.0063 -0.4509 -0.1982
 6292SOL    HW130338   0.349   4.369   3.711  2.0499  2.6003  2.4594
 6292SOL    HW230339   0.319   4.437   3.580 -3.5241  0.0635 -1.1189
 6293SOL     OW30340   4.163   1.189   5.321 -0.3353 -0.6395 -1.0911
 6293SOL    HW130341   4.233   1.155   5.377 -3.7701 -0.6911  3.2240
 6293SOL    HW230342   4.208   1.248   5.260 -0.8894 -2.0255 -2.8411
 6294SOL     OW30343   4.640   1.729   4.894 -1.0805  0.1922 -0.4305
 6294SOL    HW130344   4.636   1.819   4.862  1.3946  0.2276 -0.6500
 6294SOL    HW230345   0.013   1.714   4.902 -0.7903  0.4433 -3.4939
 6295SOL     OW30346   1.200   3.784   6.754 -0.1482  0.3452 -0.4275
 6295SOL    HW130347   1.217   3.728   6.829  0.4301 -1.1019 -1.6298
 6295SOL    HW230348   1.289   3.809   6.728 -1.6489  2.0068 -3.9289
 6296SOL     OW30349   3.969   4.265  15.259  0.1361 -0.0490  0.4180
 6296SOL    HW130350   3.982   4.359  15.243 -0.5748  0.2975  1.8999
 6296SOL    HW230351   3.874   4.260  15.260  0.1113  0.2842 -0.2421
 6297SOL     OW30352   3.785   2.150  13.046  0.5248 -0.1986 -0.1998
 6297SOL    HW130353   3.778   2.232  12.997 -1.4045 -0.1341  0.1876
 6297SOL    HW230354   3.878   2.140  13.027  0.1121  1.1616 -2.8412
 6298SOL     OW30355   0.132   1.631   7.472  0.0148 -0.7391  0.7610
 6298SOL    HW130356   0.160   1.553   7.423 -1.0932 -0.3021 -0.5692
 6298SOL    HW230357   0.169   1.700   7.416  0.5464 -0.3254  1.6197
 6299SOL     OW30358   2.662   3.432   5.188  0.2302 -0.0173 -1.1178
 6299SOL    HW130359   2.672   3.419   5.283 -2.9244 -1.4637 -0.9983
 6299SOL    HW230360   2.588   3.375   5.169 -0.9635  0.6004  1.6185
 6300SOL     OW30361   3.209   2.954  16.197 -0.7320  0.1258 -0.4615
 6300SOL    HW130362   3.183   3.046  16.210  0.1081  0.1185  1.2748
 6300SOL    HW230363   3.211   2.965  16.102 -1.3587 -1.0456 -0.6046
 6301SOL     OW30364   3.511   3.216  13.874 -0.2152  0.0392 -0.3247
 6301SOL    HW130365   3.481   3.268  13.948 -0.2711 -2.8574  1.6948
 6301SOL    HW230366   3.547   3.140  13.920  0.9865  0.5060 -0.4925
 6302SOL     OW30367   0.662   2.884   6.709 -0.4332 -0.1439 -0.0665
 6302SOL    HW130368   0.606   2.960   6.691  1.0722  0.4392 -2.2728
 6302SOL    HW230369   0.601   2.811   6.717  1.3194 -1.6275 -0.3435
 6303SOL     OW30370   1.301   1.679   1.949 -0.5997  0.3018 -0.3467
 6303SOL    HW130371   1.357   1.602   1.945  0.1395  0.8142  0.0060
 6303SOL    HW230372   1.341   1.733   2.017 -0.0691  1.7770 -1.8326
 6304SOL     OW30373   4.070   2.408   5.913 -0.2109  0.1112 -0.3990
 6304SOL    HW130374   4.096   2.489   5.955 -1.0610  1.1295 -1.8372
 6304SOL    HW230375   4.058   2.345   5.984  0.0068  0.2001 -0.2840
 6305SOL     OW30376   1.734   0.971   5.565 -0.3299 -0.0179  0.4475
 6305SOL    HW130377   1.758   1.009   5.649 -0.5043  2.4313 -0.5874
 6305SOL    HW230378   1.759   0.880   5.579 -2.2872 -0.6636 -0.2576
 6306SOL     OW30379   3.402   0.689   5.539  0.2041 -0.2065 -0.1595
 6306SOL    HW130380   3.424   0.770   5.585  0.0954 -0.5334  0.4653
 6306SOL    HW230381   3.484   0.661   5.497  0.0796 -4.0426  2.1983
 6307SOL     OW30382   0.840   3.123   3.877 -0.5422 -0.0324  0.2470
 6307SOL    HW130383   0.862   3.082   3.794  0.3648 -0.8760  0.9054
 6307SOL    HW230384   0.746   3.103   3.878 -0.5593 -0.0670 -1.9925
 6308SOL     OW30385   2.402   1.373   4.952 -0.1338  0.4215 -0.0173
 6308SOL    HW130386   2.344   1.332   5.016 -1.5594 -0.8157 -2.1084
 6308SOL    HW230387   2.470   1.306   4.951 -0.4684  0.0844  0.0397
 6309SOL     OW30388   1.942   2.948   9.308 -0.4245 -0.0349 -0.0150
 6309SOL    HW130389   1.982   2.982   9.388  0.5951 -0.0586 -0.5160
 6309SOL    HW230390   1.910   2.863   9.339 -0.2267 -1.2799 -3.1654
 6310SOL     OW30391   1.020   1.237   0.375 -0.5632 -0.4637 -0.2011
 6310SOL    HW130392   1.107   1.275   0.371 -0.8076  0.0132 -0.9664
 6310SOL    HW230393   0.994   1.274   0.459  1.8559  0.4498  0.1389
 6311SOL     OW30394   2.551   3.433  10.835  0.3244  0.3634  0.2422
 6311SOL    HW130395   2.576   3.353  10.882  0.0801 -0.3680 -0.8585
 6311SOL    HW230396   2.594   3.416  10.751  0.1150  0.6741  0.0745
 6312SOL     OW30397   1.581   2.417  13.051  0.2632  0.1964 -0.1468
 6312SOL    HW130398   1.575   2.356  13.124  2.2141  1.5075  1.1409
 6312SOL    HW230399   1.536   2.494  13.084  0.1079 -0.0995  0.3260
 6313SOL     OW30400   1.589   0.952  16.583  0.1033 -0.3954 -0.0842
 6313SOL    HW130401   1.601   0.918  16.494 -2.9930  0.0597 -0.6609
 6313SOL    HW230402   1.666   1.006  16.601  0.1366  0.5689 -3.0449
 6314SOL     OW30403   3.948   1.816   7.497 -0.3977  0.0035 -0.0464
 6314SOL    HW130404   3.970   1.783   7.584  1.9484  0.9285 -0.2920
 6314SOL    HW230405   3.970   1.743   7.439 -1.9078 -0.5252  0.0443
 6315SOL     OW30406   4.188   4.263  13.183 -0.7429  0.3453  0.4415
 6315SOL    HW130407   4.252   4.260  13.255 -0.6982 -2.3381  0.2863
 6315SOL    HW230408   4.135   4.188  13.208 -0.4817 -0.7037 -2.1310
 6316SOL     OW30409   0.020   4.464   6.279  0.2155 -0.2365  0.4038
 6316SOL    HW130410   0.064   4.399   6.334  1.1981  0.7024  0.7335
 6316SOL    HW230411   4.662   4.481   6.330 -0.1350  0.8594 -0.4916
 6317SOL     OW30412   0.327   2.355   4.596  0.1349  0.0136  0.0849
 6317SOL    HW130413   0.376   2.347   4.678  0.8022  0.7608 -0.2290
 6317SOL    HW230414   0.370   2.289   4.542 -1.3268 -1.8361  1.1885
 6318SOL     OW30415   2.169   3.488  10.642 -0.0879  0.2553  0.7131
 6318SOL    HW130416   2.227   3.505  10.715  0.6261  0.8212  0.0099
 6318SOL    HW230417   2.089   3.538  10.659 -0.1209 -0.3848  2.4330
 6319SOL     OW30418   0.174   0.385  12.228 -0.2928 -0.3012 -0.2405
 6319SOL    HW130419   0.131   0.450  12.173 -2.5271 -0.0690  1.7471
 6319SOL    HW230420   0.236   0.349  12.165  0.5420  1.5646 -0.4908
 6320SOL     OW30421   3.234   0.333   4.858  0.3114  0.2542  0.2752
 6320SOL    HW130422   3.291   0.260   4.883 -0.0697  0.5993  2.1278
 6320SOL    HW230423   3.188   0.290   4.786  2.0619 -0.3920 -0.4453
 6321SOL     OW30424   4.703   0.995   2.827  0.0147  0.0865  0.0546
 6321SOL    HW130425   4.682   0.965   2.739  2.2932  0.8113 -0.7169
 6321SOL    HW230426   4.621   0.963   2.867 -0.1382 -0.6846 -0.8676
 6322SOL     OW30427   2.370   3.977   4.270  0.5284  0.1011  0.0957
 6322SOL    HW130428   2.399   4.055   4.223  0.3318 -0.3043 -0.6936
 6322SOL    HW230429   2.458   3.944   4.288  0.1550  0.1055  1.9324
 6323SOL     OW30430   3.092   1.807   3.514 -0.1371 -0.4388  0.6236
 6323SOL    HW130431   3.080   1.713   3.523 -0.8370 -0.3242  0.8852
 6323SOL    HW230432   3.029   1.845   3.575 -1.2166 -0.5070 -0.4508
 6324SOL     OW30433   1.584   0.319   3.051 -0.5605  0.1674  0.0228
 6324SOL    HW130434   1.558   0.235   3.012 -1.5767  1.3316 -1.7771
 6324SOL    HW230435   1.679   0.316   3.052 -0.5596  0.1932  0.0050
 6325SOL     OW30436   1.011   0.209   7.370  0.1186 -0.0806  0.1423
 6325SOL    HW130437   0.982   0.222   7.280  0.5724 -1.8722 -0.2552
 6325SOL    HW230438   0.925   0.190   7.409  0.7753 -0.7446  1.2605
 6326SOL     OW30439   0.445   3.889   5.274  0.0805 -0.3372  0.1907
 6326SOL    HW130440   0.505   3.939   5.219  0.9971 -0.0263  1.4691
 6326SOL    HW230441   0.468   3.914   5.364  0.9209 -0.6341  0.0616
 6327SOL     OW30442   0.964   0.790   4.515 -0.2450  0.2256 -0.4373
 6327SOL    HW130443   0.894   0.855   4.498 -0.9823 -0.0283  1.6039
 6327SOL    HW230444   0.917   0.707   4.516  1.3129 -0.6546 -0.9663
 6328SOL     OW30445   4.164   3.838   3.658 -0.4599  0.2770 -0.8991
 6328SOL    HW130446   4.259   3.840   3.648 -0.2303 -0.6372  1.0449
 6328SOL    HW230447   4.148   3.749   3.690 -1.0780 -0.3917 -3.0881
 6329SOL     OW30448   0.051   1.543   2.374 -0.5055 -0.6764 -0.7634
 6329SOL    HW130449   0.045   1.456   2.412  0.1380 -0.0235  0.8088
 6329SOL    HW230450   0.146   1.550   2.366 -0.4179 -0.3329  0.6481
 6330SOL     OW30451   3.708   0.920   2.612  0.1403  0.0227  0.1082
 6330SOL    HW130452   3.803   0.921   2.598  0.4566 -0.9873  2.2052
 6330SOL    HW230453   3.675   0.952   2.528  2.7711  3.3839  0.3434
 6331SOL     OW30454   1.269   3.576  11.552  0.0180  0.7718  0.6214
 6331SOL    HW130455   1.359   3.554  11.528 -0.0478  0.3654  0.7597
 6331SOL    HW230456   1.261   3.664  11.515  0.1091 -0.1484 -1.5856
 6332SOL     OW30457   3.913   3.924   6.996  0.5752 -0.0555 -0.1783
 6332SOL    HW130458   4.003   3.910   6.966  0.5805 -3.1484  1.2356
 6332SOL    HW230459   3.875   3.836   6.991  1.6947 -0.7690  3.1421
 6333SOL     OW30460   4.011   0.706   8.502 -0.0362 -0.6343  0.2040
 6333SOL    HW130461   4.011   0.726   8.408  0.8507 -1.2397  0.0754
 6333SOL    HW230462   4.103   0.723   8.523  0.5519 -4.9896  1.2046
 6334SOL     OW30463   1.296   4.485   5.848  1.0491  0.2526  0.1321
 6334SOL    HW130464   1.278   4.575   5.876 -1.8437  0.5217 -2.6336
 6334SOL    HW230465   1.207   4.454   5.836  1.3428 -1.5377  2.5358
 6335SOL     OW30466   1.967   2.594   8.279  0.0535 -1.0310  0.0136
 6335SOL    HW130467   1.879   2.629   8.294  0.5178  0.2592 -0.2525
 6335SOL    HW230468   1.953   2.501   8.298 -1.2969 -1.0396 -0.9933
 6336SOL     OW30469   4.285   1.803   6.827  0.0611  0.5716 -0.0397
 6336SOL    HW130470   4.219   1.744   6.791  1.2736  0.9760 -2.9165
 6336SOL    HW230471   4.236   1.839   6.901 -2.1277 -0.1678 -1.1224
 6337SOL     OW30472   2.557   4.130   6.892 -0.0091  0.2193 -0.3693
 6337SOL    HW130473   2.463   4.124   6.908  0.4119  0.2728  2.0888
 6337SOL    HW230474   2.552   4.212   6.843 -0.0930 -0.4779 -1.5293
 6338SOL     OW30475   1.693   0.206   1.223 -0.3065  0.4179 -0.3819
 6338SOL    HW130476   1.683   0.246   1.137 -0.9320  0.6492 -0.2019
 6338SOL    HW230477   1.624   0.140   1.213  1.3843 -1.8233  2.7911
 6339SOL     OW30478   3.969   2.723  10.656  0.2383  0.2322  0.4384
 6339SOL    HW130479   4.045   2.759  10.611  0.8024 -0.6900  0.6574
 6339SOL    HW230480   3.993   2.630  10.653  1.2569  0.4275  2.5877
 6340SOL     OW30481   3.922   1.503   5.771 -0.5591  0.2068 -0.6218
 6340SOL    HW130482   3.900   1.547   5.853 -2.7107 -0.0496 -1.0637
 6340SOL    HW230483   3.883   1.565   5.709 -3.0802 -0.0689  0.6772
 6341SOL     OW30484   1.653   2.862   3.430  0.3179 -0.2369  0.2345
 6341SOL    HW130485   1.714   2.853   3.503 -0.4459  0.5109  0.9582
 6341SOL    HW230486   1.687   2.798   3.368 -2.4559  0.4001 -1.9242
 6342SOL     OW30487   0.742   3.593   3.632 -0.0173 -0.1536 -0.7793
 6342SOL    HW130488   0.729   3.660   3.699  0.1518 -0.0469 -0.8549
 6342SOL    HW230489   0.754   3.654   3.559 -0.4697 -0.0926 -0.8049
 6343SOL     OW30490   1.912   2.609   5.001  0.8406 -0.4117 -0.3474
 6343SOL    HW130491   1.883   2.680   4.945  2.0313  0.2563 -0.1008
 6343SOL    HW230492   1.868   2.530   4.968 -0.8636 -0.3143  1.6426
 6344SOL     OW30493   2.807   3.030  17.559  0.8154 -0.0683  0.2671
 6344SOL    HW130494   2.855   3.073  17.630 -2.1802 -0.8509  2.8222
 6344SOL    HW230495   2.720   3.065  17.580  0.7966 -0.2124  0.4331
 6345SOL     OW30496   3.373   3.341  14.093  0.0954  0.1483 -0.4872
 6345SOL    HW130497   3.449   3.333  14.151 -0.5076 -0.4341  0.2090
 6345SOL    HW230498   3.350   3.429  14.122 -0.0705 -0.1646  0.3299
 6346SOL     OW30499   3.579   0.435   6.503  0.6958 -0.0273 -0.1959
 6346SOL    HW130500   3.613   0.399   6.421 -0.8407  1.3599 -1.4135
 6346SOL    HW230501   3.525   0.511   6.485 -0.6151 -0.6735  1.0763
 6347SOL     OW30502   4.054   0.008  14.361 -0.1447  0.0301 -0.1756
 6347SOL    HW130503   4.002   0.001  14.441  0.1338  0.6990  0.0591
 6347SOL    HW230504   3.981   0.014  14.299 -0.7043 -1.1129  0.3703
 6348SOL     OW30505   1.622   2.155   8.467 -0.6421  0.5053 -0.2015
 6348SOL    HW130506   1.681   2.128   8.396 -0.1040  2.0751 -0.3520
 6348SOL    HW230507   1.685   2.189   8.531  0.4081  2.9158 -2.4972
 6349SOL     OW30508   1.303   3.946   9.142  0.0759  0.3700 -0.0805
 6349SOL    HW130509   1.334   3.906   9.061 -1.4138 -0.9622  0.0065
 6349SOL    HW230510   1.351   3.890   9.203 -1.0267  2.4717  2.7402
 6350SOL     OW30511   2.311   0.761   9.549 -0.4065  0.6681 -0.2667
 6350SOL    HW130512   2.226   0.779   9.510 -0.5523 -0.2164 -0.3728
 6350SOL    HW230513   2.355   0.843   9.528  0.3200  0.1252 -0.9177
 6351SOL     OW30514   0.166   0.693  12.726  0.8134  0.5447  0.0136
 6351SOL    HW130515   0.178   0.600  12.707 -1.6557  0.4212 -0.8920
 6351SOL    HW230516   0.086   0.682  12.778 -0.2210 -0.3715 -1.7870
 6352SOL     OW30517   3.295   1.195   4.173  0.0448  0.3050  0.2140
 6352SOL    HW130518   3.348   1.116   4.167 -0.1186  0.2974 -1.1369
 6352SOL    HW230519   3.204   1.168   4.167 -0.2081  1.2949 -0.4479
 6353SOL     OW30520   4.107   2.187  12.322  0.0243  0.4743 -0.0641
 6353SOL    HW130521   4.089   2.103  12.279  0.6045  0.4693 -0.3046
 6353SOL    HW230522   4.159   2.224  12.251 -0.0376  0.9335  0.1359
 6354SOL     OW30523   0.203   2.148   6.654  0.1016 -0.4304  0.3999
 6354SOL    HW130524   0.236   2.143   6.564  2.8358  2.1658  1.2550
 6354SOL    HW230525   0.197   2.243   6.656 -0.6657 -0.4728 -0.0732
 6355SOL     OW30526   2.706   1.444   2.688 -0.2321 -0.0019 -0.2751
 6355SOL    HW130527   2.742   1.430   2.775 -2.4832  1.7630  0.9403
 6355SOL    HW230528   2.788   1.450   2.639 -1.3416  2.9549 -1.7777
 6356SOL     OW30529   0.284   1.055   8.790  0.2683 -0.1305 -0.1259
 6356SOL    HW130530   0.290   1.015   8.703 -1.2706  0.5241 -0.5246
 6356SOL    HW230531   0.339   1.133   8.785 -1.7886  1.1963 -1.8859
 6357SOL     OW30532   1.566   1.198   4.069 -0.3119 -0.2417  0.2809
 6357SOL    HW130533   1.483   1.182   4.024 -0.1674  1.2725 -0.5289
 6357SOL    HW230534   1.529   1.262   4.131  0.8379  2.0386 -1.3770
 6358SOL     OW30535   3.287   3.547   5.925 -0.4610 -0.0374  0.3223
 6358SOL    HW130536   3.313   3.611   5.859 -0.0918 -0.0715  0.4383
 6358SOL    HW230537   3.335   3.468   5.900 -1.4383 -0.6357  0.2884
 6359SOL     OW30538   1.480   0.718   2.314 -0.0214 -0.2656 -0.1601
 6359SOL    HW130539   1.463   0.809   2.288 -0.3721 -0.0411  0.8446
 6359SOL    HW230540   1.539   0.732   2.388  0.2060  0.2604 -0.4375
 6360SOL     OW30541   0.694   2.130  17.049 -0.0870 -0.1641 -0.2584
 6360SOL    HW130542   0.603   2.112  17.073  0.6097 -1.4315  1.4701
 6360SOL    HW230543   0.689   2.126  16.954  0.4140 -1.4470 -0.2220
 6361SOL     OW30544   0.439   0.333   4.393 -0.0729  0.1921  0.3355
 6361SOL    HW130545   0.362   0.314   4.447 -1.4237  0.5211 -1.4955
 6361SOL    HW230546   0.411   0.298   4.309 -1.6348  0.0014  0.9379
 6362SOL     OW30547   1.052   0.964  15.212 -0.3677  0.5333 -0.3707
 6362SOL    HW130548   1.092   0.951  15.298 -1.5555 -1.3366 -0.1105
 6362SOL    HW230549   1.126   0.933  15.160  0.2186 -1.8870  1.9092
 6363SOL     OW30550   2.546   2.486   2.664  0.1720  0.3946 -0.5226
 6363SOL    HW130551   2.546   2.390   2.666 -1.3209  0.3779 -1.3511
 6363SOL    HW230552   2.626   2.492   2.715 -0.2739  0.4623  0.1708
 6364SOL     OW30553   0.075   1.253  11.704  0.2814  0.0955  0.1791
 6364SOL    HW130554   0.028   1.253  11.787  0.2854  0.0583  0.1812
 6364SOL    HW230555   0.007   1.216  11.647  0.2689 -1.2866  1.0965
 6365SOL     OW30556   2.003   4.108   6.080  0.1269 -0.7766  0.3481
 6365SOL    HW130557   2.002   4.187   6.135  1.2418  0.1380 -0.9482
 6365SOL    HW230558   2.091   4.112   6.043 -1.2742  2.1355 -2.6213
 6366SOL     OW30559   2.013   1.297   4.076  0.2456 -0.1426  0.3400
 6366SOL    HW130560   1.946   1.248   4.029  1.1184 -1.1122  0.0994
 6366SOL    HW230561   2.066   1.217   4.084  0.9228  0.5563  2.8156
 6367SOL     OW30562   2.721   2.641   7.473 -0.1312  0.2731  0.4221
 6367SOL    HW130563   2.734   2.575   7.541 -2.0090 -1.2816 -0.7269
 6367SOL    HW230564   2.636   2.678   7.496 -2.8752 -3.2680 -4.1259
 6368SOL     OW30565   0.213   1.162   4.503  0.5505 -0.7303  0.0777
 6368SOL    HW130566   0.204   1.074   4.540 -1.0114 -0.7257 -0.3173
 6368SOL    HW230567   0.130   1.201   4.532  0.4263  1.1444 -2.8207
 6369SOL     OW30568   0.211   1.514   5.361  0.2370  0.0750 -0.1867
 6369SOL    HW130569   0.130   1.553   5.396  0.4562 -0.0419  0.4522
 6369SOL    HW230570   0.271   1.587   5.374  0.9994 -0.4616 -0.7322
 6370SOL     OW30571   1.856   2.668   2.872  0.0834 -0.2232 -0.5090
 6370SOL    HW130572   1.843   2.592   2.816 -0.9947 -1.2442  1.1109
 6370SOL    HW230573   1.848   2.740   2.811 -2.1148 -1.5413 -1.7642
 6371SOL     OW30574   1.694   0.155   8.150 -0.0833 -0.1052 -0.1340
 6371SOL    HW130575   1.644   0.073   8.144 -0.4641  0.1799 -0.9129
 6371SOL    HW230576   1.746   0.133   8.227 -1.0532  0.9137  0.8226
 6372SOL     OW30577   2.719   3.942   5.955  0.7610 -0.3268 -0.2401
 6372SOL    HW130578   2.759   3.918   6.039 -0.8080 -1.6869  0.1268
 6372SOL    HW230579   2.665   3.864   5.940  0.6339 -0.7072  2.0558
 6373SOL     OW30580   2.594   1.437  16.558  0.3852 -0.7222  0.1136
 6373SOL    HW130581   2.508   1.469  16.586  1.4917  1.3344  1.1612
 6373SOL    HW230582   2.655   1.489  16.610  0.3909 -1.4688  0.8583
 6374SOL     OW30583   2.076   4.654   2.515  0.3489  0.8791  0.0468
 6374SOL    HW130584   2.144   4.631   2.579 -0.0831 -0.8893 -0.1263
 6374SOL    HW230585   2.084   4.568   2.474  2.9510 -0.2118  2.7975
 6375SOL     OW30586   2.952   2.030   3.281 -0.7674  0.4636 -0.2908
 6375SOL    HW130587   3.041   2.024   3.316 -1.1755  0.3425  0.7430
 6375SOL    HW230588   2.956   2.124   3.263 -0.5465  0.5618  0.2812
 6376SOL     OW30589   1.865   2.055  10.276  0.0863 -0.2908  0.2814
 6376SOL    HW130590   1.854   2.053  10.371 -0.5854  2.6223  0.2579
 6376SOL    HW230591   1.827   1.969  10.260  0.9306 -0.5907 -0.0613
 6377SOL     OW30592   3.896   2.502  15.654  0.1944  0.5641  0.1381
 6377SOL    HW130593   3.930   2.585  15.688  0.2257  0.7650 -0.3888
 6377SOL    HW230594   3.872   2.529  15.566 -1.8944 -0.1768  0.4775
 6378SOL     OW30595   2.015   2.525   9.493 -0.7691  0.0792 -0.0991
 6378SOL    HW130596   1.942   2.587   9.498  1.3257  2.5886 -0.1666
 6378SOL    HW230597   1.982   2.439   9.518 -0.6967  0.3642  0.9597
 6379SOL     OW30598   0.066   1.169   6.841  0.0119 -0.1338 -0.3902
 6379SOL    HW130599   0.108   1.123   6.769 -0.1699  0.8813 -1.1461
 6379SOL    HW230600   0.000   1.228   6.805  0.0239  0.8776  1.2299
 6380SOL     OW30601   1.169   2.090   6.501  0.3082  0.0166  0.0947
 6380SOL    HW130602   1.221   2.113   6.424  0.8212 -0.2994  0.3477
 6380SOL    HW230603   1.101   2.036   6.462 -0.1331  0.9725 -0.4387
 6381SOL     OW30604   4.272   2.199   8.420 -0.4100  0.0733 -0.6324
 6381SOL    HW130605   4.225   2.278   8.395  0.6712  0.5677 -1.0926
 6381SOL    HW230606   4.221   2.177   8.499 -0.8075  0.5154 -0.7651
 6382SOL     OW30607   0.230   3.789   0.829 -0.2725  0.2310 -0.0167
 6382SOL    HW130608   0.150   3.753   0.791 -1.3457  3.9873 -1.3110
 6382SOL    HW230609   0.232   3.754   0.919 -0.3655  2.6607  0.9366
 6383SOL     OW30610   3.399   0.969   0.428 -0.6505 -0.5363 -0.0424
 6383SOL    HW130611   3.351   1.039   0.472 -0.0052  0.0563 -0.2876
 6383SOL    HW230612   3.359   0.901   0.481  0.9742 -2.8352 -1.7552
 6384SOL     OW30613   2.154   4.419   9.606 -0.3981 -0.0594 -0.6986
 6384SOL    HW130614   2.071   4.465   9.619  0.7857  1.7176  0.5631
 6384SOL    HW230615   2.129   4.333   9.640 -2.5205  0.7601 -0.2141
 6385SOL     OW30616   2.553   3.602  17.221 -0.3638 -0.2319 -0.2199
 6385SOL    HW130617   2.467   3.564  17.208  0.3448 -0.7696 -3.2059
 6385SOL    HW230618   2.546   3.693  17.191  2.2742  0.3511  0.8740
 6386SOL     OW30619   1.667   1.932   4.444 -0.3989 -0.4237  0.1183
 6386SOL    HW130620   1.737   1.899   4.388 -0.6998 -3.2294  1.4371
 6386SOL    HW230621   1.656   2.022   4.413 -0.8818 -1.3810 -2.4580
 6387SOL     OW30622   3.216   2.103   3.352 -0.7316 -0.0224  0.4548
 6387SOL    HW130623   3.309   2.111   3.371 -0.1038  0.2362 -2.6828
 6387SOL    HW230624   3.188   2.169   3.415 -0.8936 -0.7534  1.1458
 6388SOL     OW30625   4.555   1.138  11.570  0.2031  0.3259  0.1867
 6388SOL    HW130626   4.540   1.205  11.503 -0.7583 -1.7402 -1.6703
 6388SOL    HW230627   4.499   1.072  11.529  3.5015 -0.5056 -2.9854
 6389SOL     OW30628   3.561   1.497   5.933  0.3469 -0.8241  0.3395
 6389SOL    HW130629   3.523   1.494   6.021  1.2209 -0.8780  0.7086
 6389SOL    HW230630   3.650   1.463   5.937  1.0973  1.1180  0.5218
 6390SOL     OW30631   2.853   2.249   7.569  0.0137  0.0507 -0.2501
 6390SOL    HW130632   2.797   2.192   7.622  1.4237 -0.9919  0.1421
 6390SOL    HW230633   2.815   2.329   7.605  1.5378  0.9159 -0.5469
 6391SOL     OW30634   1.378   3.016   0.505 -0.2030 -0.3200 -0.3778
 6391SOL    HW130635   1.404   2.931   0.469 -0.5009  0.0849 -1.5585
 6391SOL    HW230636   1.302   2.991   0.557 -0.4137 -0.6677 -0.8529
 6392SOL     OW30637   1.645   3.542   6.610  0.0520  0.0224  0.2563
 6392SOL    HW130638   1.630   3.624   6.564 -0.3583 -1.0023 -1.4085
 6392SOL    HW230639   1.703   3.490   6.555 -0.5884  0.4048 -0.7724
 6393SOL     OW30640   0.915   2.113   6.721 -0.2479  0.0559 -0.1646
 6393SOL    HW130641   0.970   2.034   6.716 -1.1856 -0.6129  0.0740
 6393SOL    HW230642   0.861   2.082   6.794 -1.1867  0.5967 -0.6351
 6394SOL     OW30643   2.519   4.400  14.087  0.5759 -0.1820  0.5246
 6394SOL    HW130644   2.509   4.481  14.137  1.0643  0.4267 -0.3587
 6394SOL    HW230645   2.470   4.338  14.141  2.4420 -1.5132  0.6852
 6395SOL     OW30646   2.290   3.545   8.179 -0.1131  0.1576  0.3575
 6395SOL    HW130647   2.254   3.577   8.096 -0.5790  0.3213  0.6221
 6395SOL    HW230648   2.359   3.607   8.205 -0.3314  0.6676 -0.2694
 6396SOL     OW30649   0.996   1.121   4.488  0.0055 -0.3081  0.8186
 6396SOL    HW130650   0.998   1.214   4.464  1.4669 -0.4960  0.2567
 6396SOL    HW230651   0.914   1.101   4.442 -0.1185  1.4339  0.2636
 6397SOL     OW30652   2.096   2.991   2.493  0.7644 -0.6059 -0.8625
 6397SOL    HW130653   2.027   3.041   2.450 -1.9030 -1.8572  1.9913
 6397SOL    HW230654   2.104   2.912   2.439 -0.6438 -0.6343 -1.0275
 6398SOL     OW30655   0.963   0.474  13.554  0.1200  0.3562 -0.4161
 6398SOL    HW130656   1.043   0.458  13.502  0.1236 -0.5707 -0.1143
 6398SOL    HW230657   0.933   0.385  13.570  0.0554  0.1457 -1.6709
 6399SOL     OW30658   3.530   2.327   4.238 -0.0981  0.3894  0.2594
 6399SOL    HW130659   3.534   2.329   4.142  2.5695 -0.9150  0.3501
 6399SOL    HW230660   3.622   2.307   4.258  0.6483  1.9186 -1.6180
 6400SOL     OW30661   3.188   1.839  11.666  0.1116 -0.2982 -0.1638
 6400SOL    HW130662   3.258   1.822  11.603  0.8374 -0.9381  0.8202
 6400SOL    HW230663   3.231   1.908  11.717  0.3215 -1.8144  1.6661
 6401SOL     OW30664   0.362   4.003   7.302 -0.8235 -0.0035 -0.6158
 6401SOL    HW130665   0.400   3.925   7.342 -0.0762  0.7252  0.0918
 6401SOL    HW230666   0.443   4.025   7.256 -0.9868 -1.0180 -1.4026
 6402SOL     OW30667   3.980   3.160   5.528 -0.5997  0.2093 -0.3293
 6402SOL    HW130668   4.053   3.119   5.575  0.3727  0.7960 -1.3372
 6402SOL    HW230669   4.007   3.150   5.437  1.5415  2.1516  0.0868
 6403SOL     OW30670   0.760   2.367   9.498 -0.1499  0.0017  0.0883
 6403SOL    HW130671   0.675   2.404   9.472  0.9532  1.2617 -1.7399
 6403SOL    HW230672   0.728   2.294   9.552 -1.8453 -0.0282 -0.9445
 6404SOL     OW30673   3.996   0.209  12.569  0.7220 -0.0509  0.2002
 6404SOL    HW130674   4.089   0.213  12.547  0.4105 -0.6032 -1.2155
 6404SOL    HW230675   3.993   0.210  12.664 -1.9058  1.3631  0.0741
 6405SOL     OW30676   1.751   2.057   9.156  0.4307 -0.4890 -0.2288
 6405SOL    HW130677   1.774   2.144   9.189 -3.1263 -0.2210  1.5931
 6405SOL    HW230678   1.711   2.089   9.074  0.4376 -1.1672 -0.4944
 6406SOL     OW30679   2.699   4.282   5.638 -0.4492 -0.1073  0.2540
 6406SOL    HW130680   2.715   4.199   5.683 -0.5893  0.1867  0.8432
 6406SOL    HW230681   2.699   4.257   5.546  0.1885  1.8002 -0.2510
 6407SOL     OW30682   1.833   2.074   2.784  0.1798  0.3918 -0.2147
 6407SOL    HW130683   1.892   2.026   2.725  0.8876 -0.2119  0.9926
 6407SOL    HW230684   1.760   2.107   2.732 -0.5708  2.0101  1.8958
 6408SOL     OW30685   0.529   1.529   8.704  0.0393 -0.1128 -0.4775
 6408SOL    HW130686   0.444   1.487   8.719 -0.5650  1.1500 -0.4253
 6408SOL    HW230687   0.530   1.537   8.609  0.3233 -0.2180 -0.4845
 6409SOL     OW30688   3.881   1.777   7.776  0.5963  0.2767  0.0461
 6409SOL    HW130689   3.810   1.722   7.809 -0.0227  0.8556 -0.3500
 6409SOL    HW230690   3.957   1.719   7.789 -0.4837 -1.1715 -0.1133
 6410SOL     OW30691   1.811   3.122   2.581  0.9691  0.1484  0.2403
 6410SOL    HW130692   1.761   3.201   2.562 -0.2037 -0.7025 -0.2340
 6410SOL    HW230693   1.835   3.091   2.494 -0.5899  1.6475 -0.7215
 6411SOL     OW30694   0.826   3.679   2.045 -0.4506 -0.2525 -0.8228
 6411SOL    HW130695   0.885   3.712   2.112  0.9302 -3.0952 -0.6206
 6411SOL    HW230696   0.740   3.683   2.087 -0.9707  1.4535 -2.0428
 6412SOL     OW30697   1.567   2.201   7.763  0.0158 -0.6360 -0.1741
 6412SOL    HW130698   1.639   2.252   7.727 -1.0614  1.1886  0.2436
 6412SOL    HW230699   1.596   2.204   7.854 -1.4442  1.1937  0.2469
 6413SOL     OW30700   3.330   1.079   5.021  0.0580 -0.0203 -0.5145
 6413SOL    HW130701   3.335   1.174   5.037 -1.5756  0.1731 -1.0990
 6413SOL    HW230702   3.352   1.043   5.107  1.7000  0.7912 -0.5888
 6414SOL     OW30703   3.251   2.603  16.714 -0.1616  0.7797  0.5250
 6414SOL    HW130704   3.217   2.683  16.753  2.0120  1.6486  0.6710
 6414SOL    HW230705   3.335   2.604  16.759 -0.2067 -2.8332  0.6543
 6415SOL     OW30706   1.243   0.661  14.792  0.0349  0.0140  0.2001
 6415SOL    HW130707   1.320   0.605  14.779 -0.0085  0.0928 -0.3715
 6415SOL    HW230708   1.284   0.747  14.795  1.0994 -0.5902  2.8049
 6416SOL     OW30709   1.635   0.946  17.277 -0.3069  0.2080 -0.0406
 6416SOL    HW130710   1.695   0.872  17.279  1.9799  2.1713  2.7018
 6416SOL    HW230711   1.690   1.013  17.237 -2.3927  1.6160 -0.5767
 6417SOL     OW30712   4.560   1.928  16.282 -0.2030  0.2434  0.5446
 6417SOL    HW130713   4.519   1.996  16.229  1.5151  1.9230  1.4060
 6417SOL    HW230714   4.572   1.959  16.372  2.4681  1.0145 -0.0798
 6418SOL     OW30715   0.561   4.097   2.545  0.4793 -0.3636 -0.0322
 6418SOL    HW130716   0.468   4.082   2.528  0.1153  3.2663 -1.2396
 6418SOL    HW230717   0.569   4.189   2.521 -1.9539 -0.1433 -0.0238
 6419SOL     OW30718   2.709   1.507   8.618 -0.5557  0.5226  0.0817
 6419SOL    HW130719   2.713   1.545   8.706  3.0013  1.1321 -0.3707
 6419SOL    HW230720   2.782   1.446   8.613 -1.0907  0.0072 -1.3316
 6420SOL     OW30721   0.703   1.418   6.160  0.3667 -0.6796 -0.2746
 6420SOL    HW130722   0.686   1.350   6.225  0.7049  0.4199  0.9400
 6420SOL    HW230723   0.776   1.376   6.113 -0.4586 -3.4652  0.8920
 6421SOL     OW30724   3.021   4.218   6.317 -0.6739  0.3583 -0.0015
 6421SOL    HW130725   3.052   4.297   6.274 -0.2529 -0.2401 -0.8062
 6421SOL    HW230726   3.032   4.243   6.409  0.6930  0.9459 -0.3280
 6422SOL     OW30727   2.032   3.247   8.452 -0.0450  0.3015  0.3963
 6422SOL    HW130728   2.114   3.277   8.412 -1.3461  0.5737 -2.0399
 6422SOL    HW230729   2.061   3.172   8.505 -0.2100  1.2725  1.8508
 6423SOL     OW30730   4.306   1.033   7.488 -0.0145 -0.0311 -0.4663
 6423SOL    HW130731   4.268   0.984   7.562  0.6083  0.8804  0.4472
 6423SOL    HW230732   4.283   1.125   7.494 -0.3371 -0.1821  0.6689
 6424SOL     OW30733   2.928   1.152   7.531  0.2635  0.1841  0.0615
 6424SOL    HW130734   2.917   1.172   7.438 -0.4994 -0.7983 -0.0578
 6424SOL    HW230735   2.866   1.211   7.574  0.2468 -1.1122  1.7840
 6425SOL     OW30736   1.784   1.090  14.439 -0.0007 -0.5979 -0.3128
 6425SOL    HW130737   1.826   1.172  14.415  0.8493 -0.8733  0.2482
 6425SOL    HW230738   1.727   1.081  14.362  1.5340  0.0153 -1.5009
 6426SOL     OW30739   2.631   2.943   6.116  0.6374  0.1418  0.2461
 6426SOL    HW130740   2.584   3.025   6.104  0.5014 -0.3713 -2.6573
 6426SOL    HW230741   2.615   2.924   6.208 -2.6044  1.2379 -0.1097
 6427SOL     OW30742   3.573   4.193  12.167 -0.3476  0.5340 -0.3670
 6427SOL    HW130743   3.540   4.269  12.215  2.4442 -0.6549  3.4357
 6427SOL    HW230744   3.494   4.141  12.183 -0.0047 -0.1389 -0.8427
 6428SOL     OW30745   2.231   1.414  13.513 -0.3208  0.0641 -0.2351
 6428SOL    HW130746   2.160   1.456  13.561 -0.9106  0.0372 -1.0905
 6428SOL    HW230747   2.259   1.363  13.590 -0.8978 -3.4908 -2.3690
 6429SOL     OW30748   0.885   1.368  15.893 -0.6212 -0.7493  0.3792
 6429SOL    HW130749   0.790   1.365  15.904 -0.9634  0.4313 -2.1016
 6429SOL    HW230750   0.913   1.396  15.980  0.5736  2.3658 -1.0233
 6430SOL     OW30751   4.172   2.063   1.479  0.9210 -0.4304 -0.6433
 6430SOL    HW130752   4.150   2.089   1.390 -0.2528  0.7426 -0.0198
 6430SOL    HW230753   4.267   2.069   1.483  0.9867 -0.9639 -1.4814
 6431SOL     OW30754   0.807   4.543   6.959  0.0689  0.4800 -0.6020
 6431SOL    HW130755   0.781   4.634   6.943 -0.6654  0.1437 -1.3546
 6431SOL    HW230756   0.775   4.534   7.048 -0.4184  0.6599 -0.7587
 6432SOL     OW30757   0.187   1.722   6.974 -0.3561 -0.4725  0.7812
 6432SOL    HW130758   0.118   1.685   6.920  0.1426  0.9162 -0.8006
 6432SOL    HW230759   0.189   1.662   7.049 -0.8798 -0.2735  0.9540
 6433SOL     OW30760   4.389   0.956   6.379 -0.1558 -0.1324  0.2364
 6433SOL    HW130761   4.385   0.971   6.473  0.1853 -0.3658  0.2890
 6433SOL    HW230762   4.409   0.862   6.379  0.0517 -0.0859 -1.7365
 6434SOL     OW30763   3.061   3.354   3.327  0.4389 -0.2601  0.2170
 6434SOL    HW130764   3.088   3.446   3.335 -0.9925  0.2387 -0.6206
 6434SOL    HW230765   3.141   3.332   3.279  1.4181  2.7209  0.4592
 6435SOL     OW30766   0.890   0.113  11.040 -0.2431 -0.2206 -0.1761
 6435SOL    HW130767   0.958   0.113  11.107 -0.2792 -1.6284 -0.1375
 6435SOL    HW230768   0.829   0.052  11.084 -0.6256 -1.4939 -2.4492
 6436SOL     OW30769   3.440   1.690   1.293 -0.1021  0.6183 -0.0366
 6436SOL    HW130770   3.428   1.597   1.316 -0.0679  0.7228  0.4039
 6436SOL    HW230771   3.397   1.699   1.208 -1.4706 -0.1455  0.5697
 6437SOL     OW30772   0.239   0.942   3.658 -0.4188 -0.3255  0.1005
 6437SOL    HW130773   0.202   0.857   3.680  1.0996 -1.3784 -1.3801
 6437SOL    HW230774   0.284   0.977   3.735 -1.7410  2.2772 -0.2791
 6438SOL     OW30775   0.536   0.640   0.393  0.3904  0.0839  0.9613
 6438SOL    HW130776   0.615   0.587   0.388  0.6541  0.4243  1.4940
 6438SOL    HW230777   0.548   0.715   0.334  1.2279  0.0577  1.1077
 6439SOL     OW30778   3.325   0.647  17.275  0.2201 -0.0019  0.1513
 6439SOL    HW130779   3.386   0.717  17.254 -1.0080  1.0086 -0.0232
 6439SOL    HW230780   3.346   0.576  17.214 -1.4042 -2.0169  1.9094
 6440SOL     OW30781   1.310   0.407  15.689  0.2631  0.6572  0.3830
 6440SOL    HW130782   1.247   0.345  15.651  1.6001  0.5215 -1.5925
 6440SOL    HW230783   1.293   0.491  15.646 -1.8451 -1.1325 -2.2945
 6441SOL     OW30784   1.173   1.751   2.721 -0.5817 -0.4664  0.1656
 6441SOL    HW130785   1.265   1.749   2.694 -0.5207  2.9345  0.1320
 6441SOL    HW230786   1.133   1.814   2.661  0.8224 -1.5368 -1.8746
 6442SOL     OW30787   3.247   3.881   5.961  0.1209  0.2359  0.2113
 6442SOL    HW130788   3.300   3.892   5.882 -0.0474  0.7953  0.1758
 6442SOL    HW230789   3.306   3.900   6.034  0.7209  0.0627 -0.2314
 6443SOL     OW30790   1.914   2.680   5.263 -0.3283 -0.5257 -0.4897
 6443SOL    HW130791   1.924   2.676   5.168 -1.1769 -1.2445 -0.5562
 6443SOL    HW230792   1.821   2.688   5.284 -0.4216 -1.9262 -0.3372
 6444SOL     OW30793   3.328   3.882  11.021  0.2471  0.3068 -0.9887
 6444SOL    HW130794   3.377   3.825  10.962  0.1269 -0.6117 -0.1981
 6444SOL    HW230795   3.371   3.859  11.103 -0.4439  3.0585  0.1235
 6445SOL     OW30796   3.403   0.258   3.904  0.0335  0.4410  0.2146
 6445SOL    HW130797   3.440   0.186   3.852  0.3850  0.3614  0.5701
 6445SOL    HW230798   3.475   0.306   3.944  0.6175  0.6399 -1.0598
 6446SOL     OW30799   0.173   2.488   4.031 -0.4495 -0.2714  0.4882
 6446SOL    HW130800   0.134   2.531   3.955 -1.4189 -0.2657  0.9918
 6446SOL    HW230801   0.255   2.537   4.045 -1.0601 -0.2553  4.0189
 6447SOL     OW30802   3.641   4.699   4.293 -0.0486  0.6060  0.0445
 6447SOL    HW130803   3.575   0.040   4.324 -1.2145  0.3724 -1.9800
 6447SOL    HW230804   3.716   0.021   4.333  0.8121 -1.3475  0.5130
 6448SOL     OW30805   3.211   4.585   5.001  0.2767 -0.6527  0.1419
 6448SOL    HW130806   3.284   4.592   5.063 -1.4747 -0.9475  2.2508
 6448SOL    HW230807   3.208   4.494   4.970 -0.4942 -1.7865  3.5132
 6449SOL     OW30808   2.493   4.315   3.896 -0.5028 -0.3337 -0.0798
 6449SOL    HW130809   2.515   4.223   3.911 -0.6667 -0.5445 -1.0955
 6449SOL    HW230810   2.581   4.335   3.864  0.1254 -1.4626  0.9298
 6450SOL     OW30811   3.993   3.111   4.335 -0.4421 -0.0735 -0.0797
 6450SOL    HW130812   3.919   3.148   4.287 -0.5677  0.1215  0.2641
 6450SOL    HW230813   3.965   3.023   4.359 -1.3368  1.1086  3.1450
 6451SOL     OW30814   0.754   0.981   2.931 -0.0760 -0.4081  0.0625
 6451SOL    HW130815   0.804   0.942   3.002 -1.9195 -0.9092  1.0816
 6451SOL    HW230816   0.830   0.988   2.874 -0.4878 -4.0379 -0.9326
 6452SOL     OW30817   1.190   4.710   6.971  0.2577  0.2478  0.3211
 6452SOL    HW130818   1.130   0.056   6.938 -0.5320 -0.1622  0.9237
 6452SOL    HW230819   1.265   0.013   6.917 -0.6263 -1.1518 -1.5580
 6453SOL     OW30820   2.316   2.144   4.655 -0.0309  0.4892 -0.0789
 6453SOL    HW130821   2.395   2.090   4.655  0.1901  0.8190  0.1938
 6453SOL    HW230822   2.271   2.090   4.720  0.4520 -2.0417 -1.8422
 6454SOL     OW30823   2.764   2.458   7.683 -0.0568  0.0192  0.3522
 6454SOL    HW130824   2.678   2.440   7.720  0.1624  2.0531  1.8738
 6454SOL    HW230825   2.804   2.531   7.731  0.7466 -1.9884  2.7431
 6455SOL     OW30826   1.618   1.867   7.723 -0.0650 -0.3370  0.0122
 6455SOL    HW130827   1.529   1.877   7.757 -0.5991 -0.2720 -1.4428
 6455SOL    HW230828   1.619   1.948   7.673 -2.4966 -0.0092  0.5088
 6456SOL     OW30829   2.144   1.807  10.839 -0.0432  0.2173  0.2392
 6456SOL    HW130830   2.092   1.838  10.765 -1.0266  1.2318  1.3525
 6456SOL    HW230831   2.081   1.748  10.879  0.6115  0.4580  1.6155
 6457SOL     OW30832   1.091   3.055   4.144  0.6774  0.2040 -0.1344
 6457SOL    HW130833   1.040   2.977   4.125 -2.0776  2.4042 -1.8517
 6457SOL    HW230834   1.139   3.073   4.063  1.2136  1.7985  0.5342
 6458SOL     OW30835   4.142   1.550   7.134 -0.2855 -0.1076 -0.3405
 6458SOL    HW130836   4.074   1.491   7.100  1.4042 -2.1771 -0.1274
 6458SOL    HW230837   4.122   1.635   7.095 -0.3969  0.3766  0.7687
 6459SOL     OW30838   3.242   4.658   1.262  0.1559  0.1885  0.4017
 6459SOL    HW130839   3.188   4.660   1.341  0.4245  1.6892  0.5394
 6459SOL    HW230840   3.329   4.645   1.299  1.2479  2.0637 -1.5884
 6460SOL     OW30841   2.988   1.856   6.682  0.0037  0.5051 -0.5085
 6460SOL    HW130842   2.962   1.770   6.717 -0.7178  1.0581  0.3233
 6460SOL    HW230843   2.940   1.917   6.738  0.8798  0.7232  0.0100
 6461SOL     OW30844   0.576   3.821  14.076  0.2632  0.3219 -0.1886
 6461SOL    HW130845   0.482   3.814  14.065  0.0497  1.0037  1.1521
 6461SOL    HW230846   0.587   3.916  14.079  2.6725  0.0277  0.9382
 6462SOL     OW30847   3.910   2.493   7.559 -0.0335  0.3167  0.1067
 6462SOL    HW130848   3.991   2.516   7.604 -0.1893  0.7329  0.1679
 6462SOL    HW230849   3.837   2.509   7.618 -0.8170 -1.0106 -0.5045
 6463SOL     OW30850   3.266   3.638   6.527 -0.2324  0.1644 -0.0943
 6463SOL    HW130851   3.207   3.653   6.600 -0.0323 -3.4041  0.8015
 6463SOL    HW230852   3.216   3.571   6.479 -0.4234  0.0410  0.2803
 6464SOL     OW30853   3.525   3.590  15.836  0.0436 -0.0152  0.3902
 6464SOL    HW130854   3.478   3.658  15.884  0.3148  0.5812 -0.1862
 6464SOL    HW230855   3.565   3.538  15.905  1.3921  1.1108  0.4512
 6465SOL     OW30856   3.727   3.564   8.375  0.0010 -0.1742 -0.4934
 6465SOL    HW130857   3.771   3.646   8.394 -2.4326  0.2570  3.2533
 6465SOL    HW230858   3.650   3.568   8.432 -1.1225  0.5140 -2.0732
 6466SOL     OW30859   0.852   4.191  11.370  0.5877 -0.6524 -0.6777
 6466SOL    HW130860   0.833   4.112  11.320 -1.3224  1.0620 -2.6236
 6466SOL    HW230861   0.775   4.206  11.424 -0.2189  0.0890 -2.0445
 6467SOL     OW30862   0.910   2.695   2.507 -0.0029 -0.0203 -0.0640
 6467SOL    HW130863   0.876   2.645   2.434  1.2428  2.5071 -2.3768
 6467SOL    HW230864   0.847   2.764   2.527  0.0529 -0.5984  2.1011
 6468SOL     OW30865   2.962   1.486   2.624  0.3812  0.3409  0.9512
 6468SOL    HW130866   3.011   1.543   2.565 -1.6091  0.3049 -0.7421
 6468SOL    HW230867   2.985   1.526   2.708 -1.4759 -1.5801  2.4107
 6469SOL     OW30868   0.675   0.895   1.936  0.0109 -0.2162  0.0153
 6469SOL    HW130869   0.709   0.887   1.847  2.3994  0.1184  0.8770
 6469SOL    HW230870   0.711   0.981   1.958  0.5646 -0.6111  0.6588
 6470SOL     OW30871   1.310   1.740   4.918 -0.1208 -0.2612 -0.0574
 6470SOL    HW130872   1.368   1.665   4.912 -0.6327 -0.6620 -0.0367
 6470SOL    HW230873   1.347   1.796   4.985 -1.1091  0.4972 -0.1395
 6471SOL     OW30874   4.024   1.576   5.264  0.1831  0.2368 -0.3543
 6471SOL    HW130875   4.012   1.596   5.357  0.2784 -0.5403 -0.1759
 6471SOL    HW230876   4.092   1.641   5.247 -0.7723  0.7186 -2.2983
 6472SOL     OW30877   3.989   1.706   1.555 -0.4409  0.3984 -0.1040
 6472SOL    HW130878   3.928   1.780   1.552 -2.2404 -1.0155  1.6146
 6472SOL    HW230879   4.048   1.758   1.610 -0.6896  0.0307  0.5146
 6473SOL     OW30880   1.076   0.757  11.468  0.0422 -0.9455  0.4802
 6473SOL    HW130881   1.021   0.690  11.508 -2.5451  0.8285 -0.0864
 6473SOL    HW230882   1.141   0.755  11.538 -0.5475  2.0257  1.1324
 6474SOL     OW30883   2.590   2.813   6.881  0.1317 -0.0466  0.0920
 6474SOL    HW130884   2.632   2.733   6.849  0.9915 -0.0310  1.1890
 6474SOL    HW230885   2.500   2.804   6.850  0.4843 -1.3834 -0.5186
 6475SOL     OW30886   0.124   2.947  16.283 -0.3263  0.2251 -0.0212
 6475SOL    HW130887   0.096   2.874  16.339 -0.5761  1.6633  1.7380
 6475SOL    HW230888   0.109   2.916  16.194 -1.1991 -0.6662  0.4354
 6476SOL     OW30889   1.291   2.912   2.740 -0.0858 -0.2762  0.3959
 6476SOL    HW130890   1.352   2.985   2.746  0.3581 -0.7223  1.2070
 6476SOL    HW230891   1.288   2.895   2.646  0.0560 -2.2024  0.7349
 6477SOL     OW30892   4.481   1.831   2.769 -0.1716 -0.2775  0.1800
 6477SOL    HW130893   4.546   1.849   2.702  0.6672  1.4332  1.4596
 6477SOL    HW230894   4.534   1.852   2.846  0.4587  2.0594 -0.8936
 6478SOL     OW30895   1.643   3.797   7.264  0.4940  0.3149 -0.1585
 6478SOL    HW130896   1.662   3.880   7.221 -1.1306  0.8811  0.2104
 6478SOL    HW230897   1.716   3.775   7.322 -0.6244  1.8743  1.8186
 6479SOL     OW30898   2.595   2.716   2.029  0.1711 -0.1800  0.1982
 6479SOL    HW130899   2.665   2.689   2.090  0.7825  2.8027  0.8479
 6479SOL    HW230900   2.530   2.722   2.100 -0.4953 -1.8265 -0.2830
 6480SOL     OW30901   1.770   2.122   3.665 -0.2367 -0.4070  0.0316
 6480SOL    HW130902   1.802   2.098   3.752  1.9742  4.7092  0.6516
 6480SOL    HW230903   1.677   2.098   3.664 -0.9781  2.3507  2.0670
 6481SOL     OW30904   4.547   2.198  11.324 -0.1644  0.2940 -0.2346
 6481SOL    HW130905   4.462   2.225  11.289 -0.0062  0.9124 -0.1415
 6481SOL    HW230906   4.533   2.215  11.417 -0.8059  2.0756 -0.6573
 6482SOL     OW30907   1.054   3.794   0.791 -0.4804  0.2513 -0.4031
 6482SOL    HW130908   1.127   3.777   0.732  0.6251  1.5355  0.5961
 6482SOL    HW230909   1.066   3.885   0.818  1.1525 -0.2306  0.5232
 6483SOL     OW30910   2.083   1.792   7.211  0.2920 -0.0041 -0.0288
 6483SOL    HW130911   2.000   1.835   7.190  1.4321  2.2381  0.0842
 6483SOL    HW230912   2.039   1.707   7.215 -1.3157  0.7715 -1.0131
 6484SOL     OW30913   0.706   2.526   6.788 -0.1963  0.0593  0.4967
 6484SOL    HW130914   0.748   2.581   6.854 -0.3365  1.5732 -0.6797
 6484SOL    HW230915   0.682   2.448   6.839  0.4235 -0.5224 -0.0910
 6485SOL     OW30916   3.739   3.834   5.126  0.0384 -0.0549  0.1531
 6485SOL    HW130917   3.689   3.860   5.203 -1.3125  0.4376 -0.8900
 6485SOL    HW230918   3.808   3.901   5.127  0.5535 -0.5690 -0.5055
 6486SOL     OW30919   1.860   1.475   7.624 -0.0598  0.0061  0.1399
 6486SOL    HW130920   1.849   1.512   7.537  0.4035  3.1702  1.4445
 6486SOL    HW230921   1.806   1.538   7.673  0.9047 -1.6883  3.4268
 6487SOL     OW30922   0.235   4.682  12.945  0.0096 -0.3853 -0.3983
 6487SOL    HW130923   0.309   4.665  13.004 -1.3503  0.0030  1.4370
 6487SOL    HW230924   0.270   0.019  12.879 -0.4972 -0.2086 -0.5140
 6488SOL     OW30925   2.582   1.591   1.064  0.1403  0.6667 -0.3454
 6488SOL    HW130926   2.529   1.520   1.098 -0.9317  0.6324 -2.0876
 6488SOL    HW230927   2.665   1.550   1.088 -0.4364 -1.1781 -1.5962
 6489SOL     OW30928   1.733   0.859   3.975 -0.2233  0.0534  0.3805
 6489SOL    HW130929   1.637   0.863   3.985 -0.2803 -1.4807  0.4185
 6489SOL    HW230930   1.736   0.768   3.948 -0.2932  0.2921 -0.4539
 6490SOL     OW30931   1.179   2.401   7.178  0.5796 -0.0293 -0.4030
 6490SOL    HW130932   1.109   2.360   7.229  0.0011  1.3807 -0.0537
 6490SOL    HW230933   1.138   2.487   7.171  0.1732 -0.1896  0.0242
 6491SOL     OW30934   0.600   2.175   3.964 -0.3723 -1.0964 -0.0160
 6491SOL    HW130935   0.660   2.129   4.022 -1.4942  2.0713  3.7053
 6491SOL    HW230936   0.650   2.195   3.885  1.6754 -1.7159  1.1163
 6492SOL     OW30937   2.394   2.725   4.834  0.5985  0.3943 -0.7045
 6492SOL    HW130938   2.311   2.690   4.868  3.2230 -4.2596  0.8456
 6492SOL    HW230939   2.463   2.685   4.887  1.6086  0.9681 -1.6052
 6493SOL     OW30940   1.092   0.443   3.845 -0.3364  0.6988 -0.2200
 6493SOL    HW130941   1.163   0.498   3.812 -0.1346  1.1430  0.9792
 6493SOL    HW230942   1.012   0.494   3.828 -0.3675  1.8311  3.2379
 6494SOL     OW30943   1.124   1.704  13.287  0.0433 -0.3209  0.2216
 6494SOL    HW130944   1.185   1.769  13.321  0.9075 -1.4075  0.7144
 6494SOL    HW230945   1.177   1.626  13.269 -0.2056 -0.6347  0.8675
 6495SOL     OW30946   3.080   4.514   0.358 -0.0583 -0.4163 -0.1882
 6495SOL    HW130947   3.155   4.511   0.418  1.2068  0.5634 -1.7366
 6495SOL    HW230948   3.095   4.425   0.325 -2.3414 -0.9501  0.2667
 6496SOL     OW30949   3.352   3.145  10.877  0.5362  0.0715 -0.3983
 6496SOL    HW130950   3.391   3.074  10.828 -1.1590 -0.4814 -0.9515
 6496SOL    HW230951   3.331   3.216  10.816  0.7868  0.8762  0.4479
 6497SOL     OW30952   0.903   1.959  15.235 -0.3825  0.3350 -0.4177
 6497SOL    HW130953   0.856   1.945  15.153 -0.6656  1.9006 -0.5291
 6497SOL    HW230954   0.856   1.934  15.314  0.4947  1.4019  0.4557
 6498SOL     OW30955   3.106   2.427   8.647 -0.7171  0.7849  0.1019
 6498SOL    HW130956   3.189   2.454   8.687 -0.4232  0.1661 -0.0886
 6498SOL    HW230957   3.117   2.459   8.558  0.0292  0.6894  0.1534
 6499SOL     OW30958   3.888   1.004   4.862  0.8815 -0.4488 -0.1897
 6499SOL    HW130959   3.952   1.074   4.873  1.9537 -1.4614 -0.0225
 6499SOL    HW230960   3.814   1.048   4.904  0.4987 -0.6686 -0.6317
 6500SOL     OW30961   4.250   4.329  10.257  0.8350 -0.5607 -0.2892
 6500SOL    HW130962   4.232   4.242  10.223 -0.8910 -0.0736 -0.6458
 6500SOL    HW230963   4.341   4.313  10.279  1.2718  0.4992 -1.2931
 6501SOL     OW30964   1.505   4.666  12.368 -0.2421 -0.3438 -0.7595
 6501SOL    HW130965   1.468   4.579  12.360 -2.2276  0.4672 -0.3050
 6501SOL    HW230966   1.476   4.682  12.458  1.1199  2.5968 -0.8274
 6502SOL     OW30967   3.772   1.642   6.878 -0.1396 -0.0307  0.0224
 6502SOL    HW130968   3.803   1.626   6.789  2.1446  1.6314  0.5367
 6502SOL    HW230969   3.823   1.583   6.934  1.5939  2.0835  0.6571
 6503SOL     OW30970   3.227   3.166   1.181  0.1449  0.0565  0.4747
 6503SOL    HW130971   3.201   3.240   1.126 -1.9359 -0.5086  0.7063
 6503SOL    HW230972   3.277   3.119   1.113 -0.2469  2.7866 -1.6887
 6504SOL     OW30973   1.784   4.702   8.601  0.4288  0.2675  0.3080
 6504SOL    HW130974   1.693   4.714   8.574  0.0549 -1.2669  0.8947
 6504SOL    HW230975   1.784   4.627   8.661 -0.4089 -0.0243 -0.0501
 6505SOL     OW30976   0.587   4.403   4.442  0.8082  0.0329 -0.1340
 6505SOL    HW130977   0.658   4.353   4.482 -0.8348 -0.2700  2.4365
 6505SOL    HW230978   0.558   4.451   4.520 -2.2960  0.8757 -1.8111
 6506SOL     OW30979   2.405   0.018   7.738  0.0554 -0.0659  0.3083
 6506SOL    HW130980   2.396   0.112   7.748 -1.3500 -0.2407  0.7156
 6506SOL    HW230981   2.406   4.720   7.644  0.9540 -0.7094  0.4402
 6507SOL     OW30982   3.595   3.121  10.404 -0.1734 -0.0053  0.0299
 6507SOL    HW130983   3.508   3.155  10.427 -0.2035 -0.1546  0.1385
 6507SOL    HW230984   3.657   3.179  10.448  0.1790  1.3630 -2.2920
 6508SOL     OW30985   1.197   2.799   6.120 -0.0514 -0.2939 -0.3465
 6508SOL    HW130986   1.212   2.706   6.140  0.3076 -0.2077 -0.2158
 6508SOL    HW230987   1.166   2.802   6.029 -0.7254 -0.1858 -0.1158
 6509SOL     OW30988   3.579   1.600  12.872  0.3928 -0.2143  0.1652
 6509SOL    HW130989   3.551   1.687  12.842 -1.0588 -0.0735  1.9210
 6509SOL    HW230990   3.603   1.610  12.965  2.5676  0.0692 -0.4432
 6510SOL     OW30991   0.465   2.997  13.562 -0.6065 -0.0641  0.3723
 6510SOL    HW130992   0.468   2.902  13.577  2.2548 -0.0493 -0.1838
 6510SOL    HW230993   0.468   3.007  13.467  1.0417 -0.2849  0.4065
 6511SOL     OW30994   2.556   3.899  15.247  0.1390  0.0058  0.4741
 6511SOL    HW130995   2.561   3.833  15.177  1.4840 -0.0920  0.6543
 6511SOL    HW230996   2.622   3.960  15.214  0.1022 -0.0375  0.3225
 6512SOL     OW30997   3.622   3.008   3.743 -0.4553  0.4108 -0.0163
 6512SOL    HW130998   3.695   3.069   3.754 -1.3035  1.4329 -0.1076
 6512SOL    HW230999   3.561   3.054   3.686 -1.0979 -0.0373  0.3132
 6513SOL     OW31000   1.849   3.031   2.318  0.0660  0.2784 -0.6069
 6513SOL    HW131001   1.857   2.942   2.284 -0.0142  0.4376 -1.0566
 6513SOL    HW231002   1.880   3.084   2.244  0.0551 -0.4184 -1.1127
 6514SOL     OW31003   4.096   3.357   4.424 -0.2010 -0.4389  0.0296
 6514SOL    HW131004   4.075   3.293   4.355  0.5264  1.0751 -1.6065
 6514SOL    HW231005   4.126   3.305   4.498 -0.5758  1.7323  1.6916
 6515SOL     OW31006   3.165   3.027   6.621 -0.0093  0.0429  0.2639
 6515SOL    HW131007   3.120   3.071   6.549 -0.3372 -1.7826 -0.6379
 6515SOL    HW231008   3.245   3.079   6.614 -0.1891  0.1793 -0.7969
 6516SOL     OW31009   0.813   3.173  10.784 -0.0844 -0.4690  0.5140
 6516SOL    HW131010   0.754   3.170  10.709 -1.9132 -0.6734  1.9753
 6516SOL    HW231011   0.876   3.107  10.754 -1.2211 -0.8617 -1.0086
 6517SOL     OW31012   2.466   1.973   2.543 -0.8990 -0.2119  0.3519
 6517SOL    HW131013   2.377   1.944   2.523 -1.1188  0.4414  0.3658
 6517SOL    HW231014   2.499   1.922   2.617  0.5612 -0.9937 -0.8628
 6518SOL     OW31015   2.848   1.524   0.863  0.1738 -0.3346  0.2225
 6518SOL    HW131016   2.804   1.609   0.852  0.5681 -0.3814 -1.7926
 6518SOL    HW231017   2.933   1.559   0.836  0.2570 -2.4441 -2.2348
 6519SOL     OW31018   1.124   0.458   9.460  0.3336 -0.4342 -0.9250
 6519SOL    HW131019   1.159   0.512   9.531  0.3736 -0.9131 -0.5812
 6519SOL    HW231020   1.086   0.386   9.511  1.1727 -0.3441 -0.1690
 6520SOL     OW31021   0.113   4.047   6.190  0.1218  0.1618 -0.0863
 6520SOL    HW131022   0.150   4.134   6.179 -0.4569  0.4208 -0.0106
 6520SOL    HW231023   0.187   3.995   6.159  1.1131  0.5710  1.6367
 6521SOL     OW31024   3.836   0.401   7.459 -0.7953  0.0387  0.2392
 6521SOL    HW131025   3.742   0.388   7.474 -1.4656  1.9239 -2.2873
 6521SOL    HW231026   3.834   0.497   7.455 -4.5444 -0.0370  0.5295
 6522SOL     OW31027   0.511   0.471   6.440 -0.3624 -0.6752  0.2137
 6522SOL    HW131028   0.445   0.423   6.491  0.4766 -1.9281  0.1213
 6522SOL    HW231029   0.497   0.555   6.483 -0.8457 -0.7784  0.2593
 6523SOL     OW31030   1.973   2.262   2.947  0.0770  0.1748  0.3299
 6523SOL    HW131031   2.053   2.288   2.901 -1.1625  2.5929 -0.4549
 6523SOL    HW231032   1.929   2.195   2.895  2.5365 -1.4793  0.3808
 6524SOL     OW31033   3.096   1.017   0.657 -0.4435 -0.2773 -0.1699
 6524SOL    HW131034   3.170   0.959   0.669 -1.3264 -0.9610  1.9682
 6524SOL    HW231035   3.087   0.997   0.564 -0.2248  1.9703 -0.6862
 6525SOL     OW31036   3.728   1.046   7.580  0.0722  0.3357 -0.0794
 6525SOL    HW131037   3.752   0.979   7.644  0.7034  1.6884  1.1031
 6525SOL    HW231038   3.634   1.037   7.599 -0.7151  1.5437 -3.4399
 6526SOL     OW31039   3.090   3.172  13.441  0.0723 -0.7100  0.1805
 6526SOL    HW131040   3.037   3.169  13.361  1.6709  1.7826 -0.9971
 6526SOL    HW231041   3.151   3.239  13.410 -1.8299  1.3962  0.9571
 6527SOL     OW31042   0.325   3.306   3.459 -0.2044 -0.1528  0.1502
 6527SOL    HW131043   0.360   3.394   3.444  0.5611 -0.1905  1.7143
 6527SOL    HW231044   0.265   3.298   3.385  0.3870 -0.9673 -0.2377
 6528SOL     OW31045   2.335   3.567   1.042  0.0289 -0.0138  0.1084
 6528SOL    HW131046   2.430   3.562   1.037  0.1134  2.1286 -0.6005
 6528SOL    HW231047   2.310   3.660   1.040 -0.8140 -0.2057  1.3712
 6529SOL     OW31048   0.173   0.363   1.076  0.3190  0.4253 -0.1153
 6529SOL    HW131049   0.104   0.375   1.141  0.5556  1.1586 -0.0035
 6529SOL    HW231050   0.179   0.452   1.040 -1.2452  0.6914  0.2677
 6530SOL     OW31051   1.362   4.143  13.389  0.1754  0.1793  0.1873
 6530SOL    HW131052   1.351   4.196  13.310 -2.0143 -3.3264 -1.8750
 6530SOL    HW231053   1.452   4.111  13.381  0.3099  0.8649 -1.0732
 6531SOL     OW31054   4.332   3.253   7.594  0.1095  0.0635  0.3436
 6531SOL    HW131055   4.284   3.189   7.646 -0.9144  0.7404  0.2255
 6531SOL    HW231056   4.380   3.295   7.666 -1.6306  1.0073  0.9447
 6532SOL     OW31057   2.503   2.906   1.797  0.0135 -0.4907 -0.0695
 6532SOL    HW131058   2.540   2.857   1.870  1.1888 -0.8044 -0.8870
 6532SOL    HW231059   2.472   2.989   1.834 -0.0488 -0.6316  0.1917
 6533SOL     OW31060   1.369   3.548  12.459 -0.0505  0.5350  0.4107
 6533SOL    HW131061   1.449   3.496  12.459 -1.1224 -1.1444 -1.8361
 6533SOL    HW231062   1.407   3.630  12.429 -0.1575 -0.2421 -1.8410
 6534SOL     OW31063   3.909   2.191  17.403  0.1157  0.5396  0.1728
 6534SOL    HW131064   3.870   2.270  17.367 -0.9609  1.2807  2.9597
 6534SOL    HW231065   3.866   2.191  17.488 -0.0827 -0.1909  0.0770
 6535SOL     OW31066   2.427   2.935   9.463  0.2658 -0.4789 -0.1220
 6535SOL    HW131067   2.354   2.875   9.480 -1.2750  1.1291 -1.0568
 6535SOL    HW231068   2.498   2.881   9.428 -0.5539 -1.9238  0.4144
 6536SOL     OW31069   1.806   4.391   3.976  0.0570  0.0913 -0.0478
 6536SOL    HW131070   1.722   4.401   4.022  1.5050 -2.3197  3.1539
 6536SOL    HW231071   1.764   4.363   3.894 -3.1063  0.7143  1.3524
 6537SOL     OW31072   2.971   0.285   8.585 -0.2222 -0.3677 -0.7028
 6537SOL    HW131073   2.883   0.280   8.622 -0.9929 -2.0563 -2.8194
 6537SOL    HW231074   2.960   0.229   8.509 -1.8241  1.6566 -1.9695
 6538SOL     OW31075   0.190   3.449   6.552  0.1694 -0.4914 -0.1047
 6538SOL    HW131076   0.160   3.407   6.471 -1.0433 -0.6265  0.4322
 6538SOL    HW231077   0.226   3.379   6.606  2.3447  1.6655  1.2536
 6539SOL     OW31078   1.494   0.439   0.021 -0.0347  0.1031  0.5582
 6539SOL    HW131079   1.414   0.481   0.053 -0.8848 -0.9795 -0.1158
 6539SOL    HW231080   1.491   0.470  17.616  2.3885  0.7923  0.7277
 6540SOL     OW31081   0.947   3.207   0.396 -0.1139 -0.1839  0.0372
 6540SOL    HW131082   0.886   3.253   0.338 -0.3838 -2.0171 -1.1199
 6540SOL    HW231083   0.902   3.133   0.437 -1.9325  1.2004  0.5265
 6541SOL     OW31084   0.936   2.485   4.379 -0.8930 -0.0308  0.6072
 6541SOL    HW131085   1.000   2.530   4.323  0.3340 -1.1140  1.1339
 6541SOL    HW231086   0.893   2.447   4.302  0.4222 -3.0911  1.3688
 6542SOL     OW31087   4.470   3.279   3.255 -0.4884 -0.0529  0.2179
 6542SOL    HW131088   4.489   3.205   3.198 -0.5129  0.9540 -1.1059
 6542SOL    HW231089   4.389   3.315   3.219  1.1770  1.8142 -1.7419
 6543SOL     OW31090   0.765   1.351  10.890  0.2221  0.2387  0.2703
 6543SOL    HW131091   0.774   1.392  10.804 -0.6303 -0.7487 -0.3002
 6543SOL    HW231092   0.670   1.365  10.894  0.4996  2.0622  0.4445
 6544SOL     OW31093   2.009   4.515   7.136  0.2579  0.0185  0.4493
 6544SOL    HW131094   2.085   4.571   7.120  0.1269 -0.0984 -0.5527
 6544SOL    HW231095   1.976   4.507   7.047 -0.0325  1.4722  0.4340
 6545SOL     OW31096   4.422   4.078   0.043  0.1145 -0.0957  0.2050
 6545SOL    HW131097   4.458   4.166   0.034 -0.4101  0.2169  1.2246
 6545SOL    HW231098   4.394   4.060  17.639  1.7859  2.4696 -0.8252
 6546SOL     OW31099   2.625   2.311   0.395  0.3234  0.3922 -0.0427
 6546SOL    HW131100   2.586   2.231   0.428 -0.2910  0.6805 -0.0805
 6546SOL    HW231101   2.621   2.294   0.301 -0.3047 -0.2997  0.1140
 6547SOL     OW31102   1.266   4.006   1.651  0.3542  0.4047 -0.0518
 6547SOL    HW131103   1.205   4.064   1.606 -0.2739  0.2071  0.5418
 6547SOL    HW231104   1.251   4.032   1.742  1.1566 -3.5343  1.1646
 6548SOL     OW31105   3.858   1.586   2.377 -0.2473  0.0457  0.1172
 6548SOL    HW131106   3.812   1.524   2.321  1.6928 -1.4780  0.2079
 6548SOL    HW231107   3.793   1.656   2.380  0.4514  0.7640 -1.9048
 6549SOL     OW31108   2.131   4.606  11.747 -0.0810 -0.1384  0.3250
 6549SOL    HW131109   2.071   4.545  11.704 -1.8526  1.7772  0.0986
 6549SOL    HW231110   2.169   4.632  11.663  2.8845 -0.8606  1.4415
 6550SOL     OW31111   2.388   3.396  10.440 -0.4652 -0.1771 -0.5448
 6550SOL    HW131112   2.382   3.427  10.530  0.6349 -0.2974 -0.4218
 6550SOL    HW231113   2.473   3.352  10.434  0.6750  1.9683 -0.0069
 6551SOL     OW31114   1.144   0.003   3.321 -0.2574  0.4936 -0.2118
 6551SOL    HW131115   1.052   0.029   3.331 -0.4226 -0.2175  0.1430
 6551SOL    HW231116   1.159   4.688   3.234  2.3636  0.2586  0.3340
 6552SOL     OW31117   3.401   3.156   6.564  0.1110  0.3213  0.2019
 6552SOL    HW131118   3.425   3.248   6.557 -0.8142  0.5732  0.3399
 6552SOL    HW231119   3.481   3.125   6.608  1.5813  2.3531 -1.0655
 6553SOL     OW31120   2.523   0.171  12.624  0.1892  0.1372 -0.1030
 6553SOL    HW131121   2.592   0.143  12.563 -1.2997 -0.0914 -1.6648
 6553SOL    HW231122   2.520   0.263  12.596 -0.9801  0.2535  0.4211
 6554SOL     OW31123   0.366   3.586   8.105 -0.0206 -0.1697 -0.6074
 6554SOL    HW131124   0.411   3.501   8.109  0.2581 -0.0852 -2.0957
 6554SOL    HW231125   0.274   3.559   8.103 -0.2503  0.6248 -0.6738
 6555SOL     OW31126   2.448   3.209   6.690  0.2398 -0.3290  0.7214
 6555SOL    HW131127   2.520   3.149   6.708  1.5233  0.8577 -0.4221
 6555SOL    HW231128   2.416   3.164   6.612  0.1201  0.6814  0.1844
 6556SOL     OW31129   0.779   1.064   0.071 -0.2981 -0.3269  0.5282
 6556SOL    HW131130   0.691   1.058   0.034 -0.4160  1.1966  0.5676
 6556SOL    HW231131   0.778   0.991   0.133  2.0492  0.3620  1.3895
 6557SOL     OW31132   1.061   4.181   9.278 -0.2413 -0.1181  0.5861
 6557SOL    HW131133   1.001   4.227   9.336 -1.8582 -0.7518 -0.5616
 6557SOL    HW231134   0.995   4.138   9.224 -0.7275 -0.2980  1.3268
 6558SOL     OW31135   2.706   2.086   9.162  0.0239  0.1326 -0.0991
 6558SOL    HW131136   2.736   2.111   9.074 -0.2219  1.6002  0.2300
 6558SOL    HW231137   2.658   2.168   9.177  1.3361  0.6163  1.3931
 6559SOL     OW31138   1.591   3.440   4.673  0.1366  0.9152 -0.7627
 6559SOL    HW131139   1.509   3.456   4.627 -0.0730 -1.8110 -1.3418
 6559SOL    HW231140   1.555   3.400   4.752  2.1154 -0.2107 -0.4431
 6560SOL     OW31141   2.993   0.939  14.516 -0.0635  0.7623  0.1634
 6560SOL    HW131142   2.993   0.871  14.448 -0.1521  0.7821  0.1445
 6560SOL    HW231143   2.961   0.888  14.590  1.2170 -0.7655 -0.3449
 6561SOL     OW31144   3.986   1.082  15.703 -0.0360  0.8245  0.0704
 6561SOL    HW131145   4.074   1.081  15.739 -0.9735 -2.4753  2.3066
 6561SOL    HW231146   3.965   1.173  15.686  2.5912  1.4363  0.0774
 6562SOL     OW31147   2.785   2.263  14.425 -0.1511 -0.4443 -0.3460
 6562SOL    HW131148   2.731   2.186  14.441  0.6179 -0.9809 -0.3532
 6562SOL    HW231149   2.737   2.305  14.353 -0.2765 -1.5805 -0.9199
 6563SOL     OW31150   1.287   2.453   3.977  0.1312 -0.1793 -0.0300
 6563SOL    HW131151   1.363   2.511   3.970 -0.1420  0.2601  0.5737
 6563SOL    HW231152   1.317   2.370   3.939  0.5226  0.1125 -0.3647
 6564SOL     OW31153   2.561   1.920   7.419 -0.2446  0.7468 -0.5042
 6564SOL    HW131154   2.591   2.005   7.450 -0.2951 -0.1041  1.8821
 6564SOL    HW231155   2.486   1.917   7.478 -0.6710  0.7524 -1.0530
 6565SOL     OW31156   3.807   3.253  16.619  0.3132  0.3354  0.6626
 6565SOL    HW131157   3.759   3.318  16.670 -1.6917 -0.6457  0.0289
 6565SOL    HW231158   3.876   3.230  16.682 -0.4368 -1.4428  0.8469
 6566SOL     OW31159   4.394   3.516   2.262 -0.7973 -0.4141  0.3034
 6566SOL    HW131160   4.420   3.594   2.312  1.8813 -1.2329  0.1966
 6566SOL    HW231161   4.479   3.485   2.231 -2.2577 -0.9191 -3.1418
 6567SOL     OW31162   1.615   0.610   9.650  0.1780 -0.2492 -0.1460
 6567SOL    HW131163   1.581   0.690   9.690  0.1133 -1.1056  1.5019
 6567SOL    HW231164   1.596   0.634   9.559  0.7212  0.8675  0.0388
 6568SOL     OW31165   3.042   2.613   1.905 -0.9383 -0.2689 -0.3034
 6568SOL    HW131166   2.996   2.548   1.958  1.5839 -2.8997 -1.3212
 6568SOL    HW231167   2.986   2.686   1.879 -0.1905 -0.0617 -1.3647
 6569SOL     OW31168   1.274   3.247   1.340 -0.1958 -0.4286  0.6901
 6569SOL    HW131169   1.238   3.261   1.252 -2.7416 -0.5534  1.7031
 6569SOL    HW231170   1.223   3.175   1.377 -1.4791 -0.2032 -0.5907
 6570SOL     OW31171   1.669   3.111   4.100  0.0668  0.5856 -0.3183
 6570SOL    HW131172   1.709   3.180   4.153 -2.7411  0.7600  1.5733
 6570SOL    HW231173   1.745   3.055   4.083  0.7714  1.3652  0.2266
 6571SOL     OW31174   2.699   2.105   2.391 -0.4603 -0.4125  0.0679
 6571SOL    HW131175   2.760   2.079   2.460  1.3572 -1.1519 -1.8207
 6571SOL    HW231176   2.618   2.061   2.416  1.1093 -2.0039  2.3213
 6572SOL     OW31177   4.555   1.893   0.150 -0.0634 -0.2270 -0.2132
 6572SOL    HW131178   4.507   1.811   0.152 -0.2967 -0.1082 -1.1508
 6572SOL    HW231179   4.641   1.851   0.149 -0.1780 -0.4422 -1.2665
 6573SOL     OW31180   4.581   2.688   4.242  0.2088  0.0236  0.6286
 6573SOL    HW131181   4.517   2.679   4.172  1.3811  0.3280 -0.4859
 6573SOL    HW231182   4.585   2.597   4.269 -2.6563 -0.3808 -0.3009
 6574SOL     OW31183   4.353   0.145   7.279 -0.0947  0.1601  0.5774
 6574SOL    HW131184   4.296   0.072   7.255  0.3382 -0.7708  2.3571
 6574SOL    HW231185   4.419   0.115   7.216  0.7707  0.5265  1.3181
 6575SOL     OW31186   2.336   0.281   7.678 -0.0078 -0.0095  0.4902
 6575SOL    HW131187   2.347   0.307   7.586 -2.1136 -2.1995 -0.3846
 6575SOL    HW231188   2.250   0.239   7.679  0.6213 -1.3160  0.1122
 6576SOL     OW31189   3.696   4.095   7.160 -0.1536  0.5902  0.3541
 6576SOL    HW131190   3.747   4.074   7.081  0.3775 -1.4028  1.2315
 6576SOL    HW231191   3.749   4.157   7.210 -0.1301 -0.5605  1.7343
 6577SOL     OW31192   1.012   0.952   6.697  0.2937  0.0044  0.3476
 6577SOL    HW131193   0.988   0.962   6.789 -0.6961 -1.4041  0.2423
 6577SOL    HW231194   1.036   0.860   6.693  1.4764  0.2030  2.7823
 6578SOL     OW31195   4.067   3.614   7.548  0.3814  0.4289  0.7830
 6578SOL    HW131196   3.991   3.666   7.572 -0.8115 -2.0961  2.5082
 6578SOL    HW231197   4.134   3.665   7.593  2.0304 -0.7757 -0.2967
 6579SOL     OW31198   0.583   2.876  11.933  0.6224 -0.4463 -0.0495
 6579SOL    HW131199   0.518   2.847  11.998 -0.5150 -0.9534 -1.4009
 6579SOL    HW231200   0.649   2.922  11.984 -0.1250  0.3437  0.2109
 6580SOL     OW31201   0.194   3.995   6.510  0.8639 -0.1636 -0.0256
 6580SOL    HW131202   0.132   3.966   6.443  0.4582  0.1410  0.2143
 6580SOL    HW231203   0.226   3.909   6.538  1.0745  0.7947  2.6634
 6581SOL     OW31204   0.704   3.639   6.069  0.3488 -0.9804 -0.5677
 6581SOL    HW131205   0.784   3.586   6.075  0.6560 -0.5330 -0.7610
 6581SOL    HW231206   0.717   3.674   5.981  3.2914  0.5979  0.5232
 6582SOL     OW31207   1.235   0.663  14.502  0.2164  0.6912 -0.2063
 6582SOL    HW131208   1.211   0.634  14.590  0.6497  3.1348  0.7268
 6582SOL    HW231209   1.299   0.732  14.521  2.7516 -1.3860 -1.2157
 6583SOL     OW31210   0.976   2.044  15.544 -0.4448 -0.7466 -0.4657
 6583SOL    HW131211   0.992   1.955  15.512 -0.6522 -0.5030 -1.2505
 6583SOL    HW231212   0.881   2.040  15.554 -0.5704  3.9258  0.1594
 6584SOL     OW31213   4.121   2.125   3.659  0.4323  0.1361 -0.0777
 6584SOL    HW131214   4.056   2.133   3.589  1.7081  3.0358 -0.9367
 6584SOL    HW231215   4.092   2.186   3.726  0.7489 -1.0434  1.1427
 6585SOL     OW31216   2.289   1.889   3.327 -0.0444 -0.0521 -0.1724
 6585SOL    HW131217   2.310   1.824   3.260 -0.0166  0.1001 -0.3109
 6585SOL    HW231218   2.193   1.885   3.323  0.0057  0.2399 -1.6544
 6586SOL     OW31219   2.678   4.432   4.746 -0.1472 -0.4383 -0.2818
 6586SOL    HW131220   2.644   4.439   4.835  0.3184  1.1756 -0.2301
 6586SOL    HW231221   2.621   4.496   4.704  0.1835 -0.0649 -0.1623
 6587SOL     OW31222   2.727   1.131   6.865 -0.2032  0.2369  0.5037
 6587SOL    HW131223   2.659   1.068   6.888 -1.4789  0.5567 -2.3860
 6587SOL    HW231224   2.799   1.070   6.850 -0.3368 -0.6941  3.6638
 6588SOL     OW31225   0.655   4.679   7.173 -0.3133 -0.6144 -0.5988
 6588SOL    HW131226   0.632   0.018   7.245 -1.7991 -1.7964 -0.1006
 6588SOL    HW231227   0.710   4.623   7.227  1.4286 -0.0684 -1.8088
 6589SOL     OW31228   3.684   4.133   7.537 -0.3059  0.0376  0.0318
 6589SOL    HW131229   3.593   4.106   7.526 -0.4146  0.0535  0.9183
 6589SOL    HW231230   3.688   4.195   7.464  0.9872  0.0323  0.1105
 6590SOL     OW31231   2.560   0.202   7.295 -0.4576 -0.2058  0.3442
 6590SOL    HW131232   2.568   0.231   7.204  2.4164 -0.3244  0.5538
 6590SOL    HW231233   2.514   0.119   7.284  2.6164 -1.4620 -3.2922
 6591SOL     OW31234   2.505   1.841   3.851  0.3477 -0.5312 -0.0801
 6591SOL    HW131235   2.486   1.794   3.770  3.2964 -0.6644 -0.7110
 6591SOL    HW231236   2.601   1.846   3.846  0.2048  0.2876 -1.8422
 6592SOL     OW31237   3.923   1.679   9.816  0.6255 -0.3283 -0.6701
 6592SOL    HW131238   3.879   1.619   9.755 -1.3806  0.5649 -0.1166
 6592SOL    HW231239   3.914   1.629   9.898 -2.0349 -0.2308 -0.8978
 6593SOL     OW31240   3.774   1.474   9.008 -0.2400 -0.0182  0.4130
 6593SOL    HW131241   3.743   1.479   8.918  0.2321 -1.4219  0.1699
 6593SOL    HW231242   3.816   1.388   9.003 -2.5345 -1.0588 -1.2006
 6594SOL     OW31243   1.926   4.536   9.677 -0.4557  0.0077 -0.1189
 6594SOL    HW131244   1.848   4.565   9.630 -1.3759  0.4426  1.6716
 6594SOL    HW231245   1.956   4.603   9.739  2.8794 -0.4456 -1.2284
 6595SOL     OW31246   0.367   2.262   3.818 -0.1983 -0.5076  0.1035
 6595SOL    HW131247   0.459   2.253   3.845  0.9388  0.8423 -3.3225
 6595SOL    HW231248   0.368   2.343   3.767 -1.7022  0.1336  1.0956
 6596SOL     OW31249   3.678   3.657   7.454 -0.2733 -0.8136 -0.2713
 6596SOL    HW131250   3.714   3.708   7.527  0.1518  0.0166 -1.0580
 6596SOL    HW231251   3.721   3.572   7.460  0.1223 -0.6580 -0.8539
 6597SOL     OW31252   3.775   0.192   4.109  0.1640 -0.1020  0.2058
 6597SOL    HW131253   3.742   0.222   4.193 -0.4074 -1.4996  0.4716
 6597SOL    HW231254   3.794   0.278   4.072  0.4757 -0.3395 -0.1900
 6598SOL     OW31255   0.480   4.525  11.558  0.5474  0.1578  0.3005
 6598SOL    HW131256   0.450   4.435  11.570 -0.1639  0.1629 -1.5306
 6598SOL    HW231257   0.515   4.525  11.469 -1.7256 -3.2540 -0.5762
 6599SOL     OW31258   3.659   0.889   3.728 -0.0057 -0.3680 -0.1630
 6599SOL    HW131259   3.715   0.918   3.656  1.0969 -2.6788 -0.2354
 6599SOL    HW231260   3.579   0.939   3.712 -1.6347 -1.5038  4.2821
 6600SOL     OW31261   3.484   3.110  13.244 -0.2419 -0.7325  0.9574
 6600SOL    HW131262   3.512   3.191  13.201 -1.3618 -0.1382  1.3416
 6600SOL    HW231263   3.507   3.121  13.336  1.5450  2.6942  0.1086
 6601SOL     OW31264   2.824   3.759  17.252 -0.2443  0.2139  0.7368
 6601SOL    HW131265   2.809   3.807  17.334 -0.1475 -0.8209  1.3585
 6601SOL    HW231266   2.740   3.719  17.229 -1.3392  1.5987  2.2937
 6602SOL     OW31267   3.527   0.152   8.635 -0.0163  0.1826  1.2156
 6602SOL    HW131268   3.488   0.086   8.693 -1.4950 -1.5357 -1.7554
 6602SOL    HW231269   3.609   0.164   8.683  1.1332  1.7236 -1.1402
 6603SOL     OW31270   4.669   2.302   4.083 -0.1209 -0.0602 -0.4824
 6603SOL    HW131271   4.657   2.310   4.178 -1.3211  0.7701 -0.7060
 6603SOL    HW231272   0.034   2.343   4.075  0.2402 -0.7238  0.0131
 6604SOL     OW31273   1.879   2.405   7.421 -0.5897  0.0255 -0.6457
 6604SOL    HW131274   1.823   2.452   7.360  1.5634  2.2475 -0.9296
 6604SOL    HW231275   1.861   2.311   7.420 -0.5625  0.0211 -0.8490
 6605SOL     OW31276   2.973   1.851   2.242  0.5612  0.6567 -0.6537
 6605SOL    HW131277   2.970   1.940   2.207 -1.1420  0.0576 -2.0267
 6605SOL    HW231278   2.981   1.791   2.167 -1.8353  1.4202 -1.5281
 6606SOL     OW31279   0.286   4.250   3.118 -0.2783  0.3636  0.1492
 6606SOL    HW131280   0.235   4.279   3.043  0.8700  0.6072 -0.5385
 6606SOL    HW231281   0.356   4.315   3.118 -0.5713  0.6910  2.8237
 6607SOL     OW31282   1.391   0.083  14.418  0.7620 -0.8552 -0.1443
 6607SOL    HW131283   1.319   0.047  14.366 -0.8820 -0.3750  1.8172
 6607SOL    HW231284   1.344   0.083  14.501 -0.3493  2.6257 -0.7876
 6608SOL     OW31285   1.402   3.994   4.794 -0.3891 -0.1396 -0.1417
 6608SOL    HW131286   1.466   3.950   4.738  0.3163  0.3378  0.2931
 6608SOL    HW231287   1.438   4.083   4.802 -1.6937  0.2520  1.2611
 6609SOL     OW31288   1.468   1.353  14.382  0.2930 -0.2392 -0.1706
 6609SOL    HW131289   1.513   1.328  14.301 -1.7330 -3.7992 -0.1903
 6609SOL    HW231290   1.453   1.270  14.426 -0.7333  0.7525  1.3390
 6610SOL     OW31291   3.636   4.266   4.190  0.0411 -0.2571  0.4368
 6610SOL    HW131292   3.600   4.191   4.238 -0.7157  1.2571  2.2209
 6610SOL    HW231293   3.657   4.322   4.264 -1.5114  0.4156  0.3702
 6611SOL     OW31294   1.646   3.750   7.629  0.4440 -0.7268  0.1825
 6611SOL    HW131295   1.699   3.735   7.551 -0.3342 -1.0658 -0.2865
 6611SOL    HW231296   1.682   3.685   7.690  0.5965 -1.7532 -1.0059
 6612SOL     OW31297   4.160   1.196   4.378  0.2886  0.7977  0.0622
 6612SOL    HW131298   4.135   1.172   4.289 -0.7905 -2.1079  1.1751
 6612SOL    HW231299   4.075   1.224   4.411 -0.5030  2.1109 -3.1022
 6613SOL     OW31300   2.869   4.586  13.259 -0.3746 -0.3097 -0.0216
 6613SOL    HW131301   2.826   4.526  13.320 -0.1652  0.5141  0.9266
 6613SOL    HW231302   2.904   4.529  13.191  2.3829  1.4468 -0.0512
 6614SOL     OW31303   3.026   0.337  16.253 -0.6065  0.3463  0.5190
 6614SOL    HW131304   3.051   0.339  16.160 -0.6760 -0.3365  0.4830
 6614SOL    HW231305   3.108   0.317  16.298 -0.1241  0.0092 -0.4933
 6615SOL     OW31306   0.818   3.328   8.044  0.2106  0.2119  0.8344
 6615SOL    HW131307   0.793   3.240   8.013  0.4758  0.8869 -1.2775
 6615SOL    HW231308   0.901   3.326   8.091 -0.3333  2.2960  1.8499
 6616SOL     OW31309   2.097   2.589   7.831 -0.4934  0.0907 -0.1713
 6616SOL    HW131310   2.064   2.511   7.877 -1.4267 -0.0413 -1.0637
 6616SOL    HW231311   2.047   2.589   7.749 -1.2991 -2.1292  0.3017
 6617SOL     OW31312   3.385   0.389  12.554 -0.0135 -0.2750 -0.4870
 6617SOL    HW131313   3.291   0.403  12.550  0.2086  1.6976  0.9108
 6617SOL    HW231314   3.400   0.295  12.560 -0.3112 -0.4194 -2.0934
 6618SOL     OW31315   0.536   2.467   6.559 -0.1336  0.4735  0.3000
 6618SOL    HW131316   0.584   2.407   6.617 -0.0584 -0.9687 -1.2499
 6618SOL    HW231317   0.604   2.516   6.512  1.2720 -1.0354  0.7360
 6619SOL     OW31318   0.343   0.078   7.760 -0.1306  0.4704 -0.0657
 6619SOL    HW131319   0.281   0.097   7.831 -0.7102 -2.7018  0.2778
 6619SOL    HW231320   0.369   4.709   7.778  0.3828 -0.1268 -3.7419
 6620SOL     OW31321   0.397   0.428   1.924  0.5397  0.0123  0.0224
 6620SOL    HW131322   0.398   0.504   1.866  0.4696 -0.1251 -0.1579
 6620SOL    HW231323   0.461   0.374   1.879  0.0976  0.9837 -1.7542
 6621SOL     OW31324   1.890   1.433   6.762 -0.3458  0.4351 -0.6111
 6621SOL    HW131325   1.922   1.517   6.793 -2.0012  0.6525  0.5334
 6621SOL    HW231326   1.962   1.369   6.769  1.1291  2.1006 -0.6226
 6622SOL     OW31327   0.153   0.761   9.790  0.1437 -0.0767  0.8146
 6622SOL    HW131328   0.238   0.769   9.748 -1.3089  0.2304 -2.1058
 6622SOL    HW231329   0.129   0.675   9.756  1.0930  0.5828 -1.5147
 6623SOL     OW31330   1.165   3.735   3.427 -0.6762 -0.8517  0.3609
 6623SOL    HW131331   1.139   3.680   3.353 -3.1806  2.8627 -1.5343
 6623SOL    HW231332   1.229   3.678   3.471 -2.3307  0.3950  4.3142
 6624SOL     OW31333   0.674   2.827  16.107  0.2923 -0.0519 -0.3943
 6624SOL    HW131334   0.583   2.799  16.108  0.3744 -0.2961  1.0353
 6624SOL    HW231335   0.676   2.892  16.037  2.6489 -0.1010 -0.3828
 6625SOL     OW31336   3.994   3.961   4.403 -0.0551  0.4532 -0.1715
 6625SOL    HW131337   3.979   3.877   4.447 -0.0572  0.1819 -0.6791
 6625SOL    HW231338   4.074   3.937   4.356 -1.1291 -1.7928 -0.9051
 6626SOL     OW31339   3.382   4.448  13.944 -0.4211 -0.4835  0.1442
 6626SOL    HW131340   3.404   4.402  13.863  1.4450  0.7105 -0.0222
 6626SOL    HW231341   3.291   4.419  13.954 -1.1315  1.3596 -0.9454
 6627SOL     OW31342   1.255   1.434   7.803 -0.3657 -0.0828  0.7978
 6627SOL    HW131343   1.214   1.513   7.766 -0.5942  0.0789  1.3955
 6627SOL    HW231344   1.231   1.440   7.895 -0.7537  2.9898  0.5050
 6628SOL     OW31345   3.344   1.118  11.306 -0.3722 -0.1248  0.2484
 6628SOL    HW131346   3.347   1.023  11.317 -0.3691  0.0971  2.2112
 6628SOL    HW231347   3.276   1.117  11.239  1.4484  0.1347 -1.5988
 6629SOL     OW31348   3.081   4.450  11.854  0.7559 -0.5074  0.2085
 6629SOL    HW131349   3.161   4.421  11.897  0.2115 -1.4400  0.5840
 6629SOL    HW231350   3.094   4.404  11.771  1.2652  1.1800 -0.6423
 6630SOL     OW31351   3.479   4.313  16.097  0.0936  0.5845 -0.7505
 6630SOL    HW131352   3.384   4.323  16.106  0.2617  0.1488  1.6697
 6630SOL    HW231353   3.488   4.275  16.010  3.6803  1.3008 -0.6936
 6631SOL     OW31354   1.010   0.874  14.218 -0.8120  0.4807 -0.1524
 6631SOL    HW131355   1.081   0.925  14.178  0.2766  0.1873  1.4074
 6631SOL    HW231356   0.969   0.817  14.153 -0.8676  1.6142 -1.1121
 6632SOL     OW31357   0.536   4.643   4.577  0.0066  1.0385  0.1732
 6632SOL    HW131358   0.466   4.696   4.538  0.1875 -0.3324 -2.0342
 6632SOL    HW231359   0.557   4.689   4.658  0.6756 -0.0133  0.5904
 6633SOL     OW31360   3.486   1.124   7.709  0.8320  0.2647 -0.1448
 6633SOL    HW131361   3.524   1.122   7.797  3.5037 -1.6815 -1.3636
 6633SOL    HW231362   3.401   1.085   7.728  1.1216 -0.6670 -0.7927
 6634SOL     OW31363   1.006   0.062   2.452 -0.4219  0.1244  0.0892
 6634SOL    HW131364   1.050   0.099   2.374 -0.2776  0.8649  0.5140
 6634SOL    HW231365   0.982   0.143   2.498  1.1023  0.7623 -0.2232
 6635SOL     OW31366   3.492   3.327  17.356 -0.9925  0.5201 -0.2895
 6635SOL    HW131367   3.510   3.282  17.438 -1.9226  0.0066 -0.3743
 6635SOL    HW231368   3.400   3.351  17.366 -1.2274 -0.7333  0.5225
 6636SOL     OW31369   2.390   0.960   3.413  0.2882  0.3182  0.5816
 6636SOL    HW131370   2.444   0.952   3.492  3.0204  0.5676 -1.2729
 6636SOL    HW231371   2.337   0.881   3.427 -1.3655  1.0448 -1.5581
 6637SOL     OW31372   3.934   1.656  12.931  0.5883  0.3364  0.4875
 6637SOL    HW131373   4.007   1.672  12.871 -0.6757  0.8436 -0.8863
 6637SOL    HW231374   3.925   1.561  12.938  0.4548  0.1728 -2.1939
 6638SOL     OW31375   3.412   0.776   4.004  0.0964  0.2881 -0.8150
 6638SOL    HW131376   3.343   0.795   3.940 -0.9965 -0.3186  0.1862
 6638SOL    HW231377   3.460   0.714   3.949  0.6483 -0.9739  1.0695
 6639SOL     OW31378   3.659   1.196   9.137  0.0941  0.0135  0.3041
 6639SOL    HW131379   3.709   1.195   9.219  1.3696 -0.0245 -0.4774
 6639SOL    HW231380   3.591   1.259   9.161  0.1759 -0.1638  0.9921
 6640SOL     OW31381   2.094   4.322   6.223 -0.0088 -0.4783  1.2511
 6640SOL    HW131382   2.155   4.344   6.294  0.7786 -0.2578  0.5071
 6640SOL    HW231383   2.039   4.401   6.227 -0.3580 -0.6236 -0.9506
 6641SOL     OW31384   0.982   1.194  11.111 -0.0456 -0.4085 -0.1946
 6641SOL    HW131385   1.063   1.149  11.131  0.0692 -0.4547 -0.7680
 6641SOL    HW231386   0.932   1.172  11.190  0.2116 -2.0349 -0.5000
 6642SOL     OW31387   4.044   4.265   2.308  0.0951  0.7303  0.0984
 6642SOL    HW131388   4.015   4.224   2.389 -1.3322  0.1546 -0.7091
 6642SOL    HW231389   3.962   4.288   2.263 -0.2311  0.9444  0.8077
 6643SOL     OW31390   1.311   1.138   6.466 -0.0967  0.0487 -0.0344
 6643SOL    HW131391   1.304   1.188   6.385  1.3838  3.7444  2.0766
 6643SOL    HW231392   1.364   1.197   6.520  0.7358 -0.1722 -0.6115
 6644SOL     OW31393   1.901   2.358  17.100 -0.3552 -0.0341 -0.2436
 6644SOL    HW131394   1.928   2.273  17.065  1.0711  0.8836 -1.3347
 6644SOL    HW231395   1.837   2.387  17.035 -0.5550 -0.8516 -0.4093
 6645SOL     OW31396   0.031   2.074   4.280 -0.0860 -0.0073 -0.0363
 6645SOL    HW131397   4.659   2.082   4.299 -0.3209 -1.0923 -0.7207
 6645SOL    HW231398   0.045   2.010   4.210 -1.2062  1.7237 -1.8352
 6646SOL     OW31399   0.181   2.944   6.138 -0.2534  0.5284  0.1202
 6646SOL    HW131400   0.246   2.893   6.089 -0.0102  1.2275 -0.2852
 6646SOL    HW231401   0.195   2.909   6.226 -4.3028  0.6686  0.8234
 6647SOL     OW31402   3.584   1.956  11.624 -0.1451 -0.7674  0.2409
 6647SOL    HW131403   3.637   2.020  11.577  2.4091 -1.8114  1.6937
 6647SOL    HW231404   3.644   1.933  11.695 -1.5715  0.9617  2.0254
 6648SOL     OW31405   0.575   4.715   4.844 -0.2782  0.3697  0.7678
 6648SOL    HW131406   0.634   0.032   4.909  0.8810 -2.6073  1.4804
 6648SOL    HW231407   0.505   4.691   4.904 -0.3057 -0.8162  0.2559
 6649SOL     OW31408   2.994   3.357   2.769  0.0220 -0.5710 -0.7873
 6649SOL    HW131409   2.981   3.277   2.818  2.2656  0.3376  1.2437
 6649SOL    HW231410   3.041   3.412   2.831 -0.3404 -1.6913  0.4680
 6650SOL     OW31411   2.120   2.860   8.666 -0.2283  0.0867 -0.1459
 6650SOL    HW131412   2.052   2.796   8.687  1.7076 -1.6332  0.8452
 6650SOL    HW231413   2.169   2.870   8.748  1.8229 -0.3224 -1.3092
 6651SOL     OW31414   4.603   2.825   2.078 -0.2997 -0.5964 -0.3325
 6651SOL    HW131415   4.645   2.899   2.035 -0.6078  1.1652  2.4379
 6651SOL    HW231416   4.671   2.804   2.141  0.5110  0.1004 -0.9860
 6652SOL     OW31417   1.549   2.669  15.961  0.1057 -0.0362  0.5406
 6652SOL    HW131418   1.571   2.677  16.054  0.4720 -1.2656  0.5579
 6652SOL    HW231419   1.635   2.687  15.922 -0.5094  0.5027 -0.5687
 6653SOL     OW31420   2.416   2.611   4.546  0.3671  0.0225  0.6157
 6653SOL    HW131421   2.436   2.546   4.478  0.3942 -2.1496  2.7062
 6653SOL    HW231422   2.358   2.555   4.599  1.5575 -1.4978  0.3358
 6654SOL     OW31423   0.257   1.964   2.686 -0.0654  0.4299  0.9920
 6654SOL    HW131424   0.312   1.886   2.678 -0.4511  0.1650  0.9074
 6654SOL    HW231425   0.173   1.949   2.643 -0.5622 -0.7539  2.3741
 6655SOL     OW31426   0.282   3.392   4.178 -0.7094 -0.0654 -0.2402
 6655SOL    HW131427   0.358   3.334   4.175 -0.0270  0.8668 -1.0443
 6655SOL    HW231428   0.271   3.391   4.273 -0.7268 -0.9557 -0.2533
 6656SOL     OW31429   2.924   2.834   1.826 -0.0733 -0.0597 -1.0534
 6656SOL    HW131430   2.876   2.831   1.743  0.5407  0.1478 -1.4206
 6656SOL    HW231431   2.936   2.928   1.836 -2.6866  0.0356  1.1137
 6657SOL     OW31432   1.585   1.023   8.543 -0.1174  0.1279  0.3273
 6657SOL    HW131433   1.563   0.935   8.514 -1.5051  1.0724 -1.4797
 6657SOL    HW231434   1.668   1.037   8.496  0.1550  0.0691  0.7877
 6658SOL     OW31435   2.741   0.398   1.135  0.5120 -0.4619 -0.4196
 6658SOL    HW131436   2.659   0.349   1.132 -0.1332  0.4540  2.0349
 6658SOL    HW231437   2.718   0.491   1.136 -0.8205 -0.7995  2.6999
 6659SOL     OW31438   0.214   1.557   0.443  0.7007  0.3916 -0.4232
 6659SOL    HW131439   0.121   1.558   0.421  0.3749  2.1448  1.0235
 6659SOL    HW231440   0.210   1.549   0.539 -2.4085  0.4289 -0.5243
 6660SOL     OW31441   3.963   1.303  15.071  0.1705  0.0001  0.7579
 6660SOL    HW131442   3.973   1.248  15.149  0.4117 -1.1878 -0.1065
 6660SOL    HW231443   3.872   1.327  15.089  0.0728  0.5697 -0.5430
 6661SOL     OW31444   0.295   1.914   7.639 -1.1903 -0.0783  0.3730
 6661SOL    HW131445   0.249   1.907   7.555  1.8972  0.0261 -1.3428
 6661SOL    HW231446   0.279   2.008   7.647  0.0763  0.2685 -1.1627
 6662SOL     OW31447   1.162   3.246  14.568 -0.7585 -0.3065 -0.2023
 6662SOL    HW131448   1.206   3.299  14.636  0.4829 -0.9664 -0.4979
 6662SOL    HW231449   1.188   3.156  14.588  1.9067  0.5200  0.1706
 6663SOL     OW31450   4.716   3.432   3.704 -0.4968 -0.2120 -0.4182
 6663SOL    HW131451   0.022   3.340   3.703  1.3409  0.3196 -0.7729
 6663SOL    HW231452   4.680   3.453   3.618 -0.2345  1.0553 -0.2179
 6664SOL     OW31453   1.555   1.133   7.129  0.3034  0.4331 -0.0361
 6664SOL    HW131454   1.540   1.142   7.223 -1.2091  1.7282 -0.3882
 6664SOL    HW231455   1.477   1.085   7.104  1.7488 -1.4602 -0.9123
 6665SOL     OW31456   0.824   4.032   2.105 -0.1307  0.6131  0.1035
 6665SOL    HW131457   0.795   3.965   2.166 -1.5974  0.5896 -0.6341
 6665SOL    HW231458   0.916   4.032   2.131 -0.1054 -1.9477 -0.0261
 6666SOL     OW31459   4.280   1.057  10.891 -0.1115 -0.3738  0.1742
 6666SOL    HW131460   4.356   1.077  10.945  0.1621 -1.4127  0.1685
 6666SOL    HW231461   4.256   0.966  10.907 -2.8863 -0.0110 -1.9982
 6667SOL     OW31462   3.978   3.009  13.397 -0.1353  0.4452  0.2489
 6667SOL    HW131463   4.060   3.058  13.394 -0.1245  0.3793 -0.5724
 6667SOL    HW231464   3.943   3.040  13.314 -3.5473 -2.1305  0.6932
 6668SOL     OW31465   4.191   3.791   7.341 -0.0329  0.2965 -0.8344
 6668SOL    HW131466   4.177   3.727   7.410 -0.2639  0.6083 -0.5883
 6668SOL    HW231467   4.100   3.821   7.339 -0.2534 -0.2891  1.3136
 6669SOL     OW31468   2.354   1.558   7.081  0.3008  0.2338 -0.0907
 6669SOL    HW131469   2.346   1.482   7.023 -0.2783  0.3675 -0.1844
 6669SOL    HW231470   2.317   1.515   7.159  0.6157 -0.8429 -0.5452
 6670SOL     OW31471   3.235   0.446   5.222  0.2822 -0.1173 -0.4474
 6670SOL    HW131472   3.191   0.428   5.139  0.3023 -0.5511 -0.3664
 6670SOL    HW231473   3.158   0.441   5.279  0.1523 -0.0806 -0.6188
 6671SOL     OW31474   0.556   0.517   7.310  0.6516 -0.2729  0.5647
 6671SOL    HW131475   0.590   0.601   7.340 -2.1176  1.0747 -0.0598
 6671SOL    HW231476   0.619   0.455   7.348 -0.4538  0.1605  3.0334
 6672SOL     OW31477   2.113   0.020   9.760 -0.0942  0.5018  0.2106
 6672SOL    HW131478   2.191   0.058   9.720 -0.7164  1.2845 -0.2826
 6672SOL    HW231479   2.094   0.075   9.837 -0.0888 -0.4129  0.8577
 6673SOL     OW31480   3.793   3.570   5.176 -0.1926  0.3129 -0.6168
 6673SOL    HW131481   3.770   3.662   5.165 -2.2094 -0.0135  1.0055
 6673SOL    HW231482   3.714   3.524   5.203  0.1974 -0.2676 -0.4432
 6674SOL     OW31483   0.653   2.738   1.794 -0.0809  0.0721  0.1712
 6674SOL    HW131484   0.571   2.781   1.816  0.5634  0.6945  1.3249
 6674SOL    HW231485   0.657   2.758   1.701 -1.0148 -1.5065 -0.2108
 6675SOL     OW31486   1.675   4.055   2.328  0.0467 -0.1731 -0.6049
 6675SOL    HW131487   1.746   4.101   2.373  0.7885  0.1063 -2.0589
 6675SOL    HW231488   1.606   4.095   2.380 -0.1807 -0.9390 -0.3228
 6676SOL     OW31489   0.491   2.730  13.611 -0.6320 -0.1877 -0.1976
 6676SOL    HW131490   0.426   2.663  13.590 -0.0514 -0.6547 -0.4761
 6676SOL    HW231491   0.569   2.686  13.578  0.4663 -0.1935  2.4182
 6677SOL     OW31492   3.473   2.088   6.568  0.4170  0.4871 -0.2027
 6677SOL    HW131493   3.391   2.044   6.592  0.5288  0.3382 -0.0988
 6677SOL    HW231494   3.461   2.171   6.616  0.2910 -0.5752  1.5958
 6678SOL     OW31495   0.576   4.164  12.472 -0.7072 -0.6075 -0.0369
 6678SOL    HW131496   0.612   4.139  12.387 -3.9622  1.4507 -2.0026
 6678SOL    HW231497   0.542   4.080  12.505  3.5571 -2.6252 -0.8146
 6679SOL     OW31498   3.999   1.110   3.075  0.0964 -0.2578 -0.1616
 6679SOL    HW131499   3.961   1.111   2.987 -0.8943 -0.1461  0.2693
 6679SOL    HW231500   3.927   1.155   3.118 -0.3637 -0.0232 -1.1681
 6680SOL     OW31501   0.359   4.002   6.039 -0.2270  0.2219  0.5183
 6680SOL    HW131502   0.341   3.975   5.949  0.3981  0.5258  0.3035
 6680SOL    HW231503   0.426   3.938   6.062  1.5009  2.5940  2.1031
 6681SOL     OW31504   4.087   1.924   3.097  0.3669 -0.2720  0.4979
 6681SOL    HW131505   3.992   1.936   3.100  0.4271  0.5112 -1.0149
 6681SOL    HW231506   4.125   1.983   3.032 -0.1844  0.9013  1.2532
 6682SOL     OW31507   0.991   0.191  11.833 -0.4819  0.4068  0.8456
 6682SOL    HW131508   0.958   0.236  11.911  0.2488  1.2510  0.6689
 6682SOL    HW231509   1.079   0.225  11.848  0.7604 -2.5658  0.2368
 6683SOL     OW31510   4.309   3.285  15.761 -0.2900  0.1199 -0.0684
 6683SOL    HW131511   4.310   3.256  15.852  1.4502  3.0569  0.8742
 6683SOL    HW231512   4.336   3.373  15.787 -0.3539  0.7385 -2.1309
 6684SOL     OW31513   1.842   1.245   4.291 -0.6405  0.4108  0.5344
 6684SOL    HW131514   1.857   1.155   4.262  0.0690  0.8114 -0.3440
 6684SOL    HW231515   1.911   1.284   4.237  0.4717 -1.0685  0.8905
 6685SOL     OW31516   4.255   0.002   6.597 -0.8388 -0.4932 -0.0635
 6685SOL    HW131517   4.333   4.668   6.606  0.6418  1.3281 -1.8299
 6685SOL    HW231518   4.221   4.693   6.512 -0.1314  1.3781 -0.9939
 6686SOL     OW31519   3.381   0.130   5.082  0.8465 -0.6045  0.4278
 6686SOL    HW131520   3.363   0.059   5.143 -3.1766 -0.1215 -0.2428
 6686SOL    HW231521   3.414   0.198   5.140  1.4462 -0.0351 -0.5803
 6687SOL     OW31522   1.944   1.619  10.898  0.7738  0.2664  0.8159
 6687SOL    HW131523   1.956   1.531  10.863 -0.6451 -0.1918  1.4910
 6687SOL    HW231524   1.925   1.593  10.988 -1.6155  1.5333  0.6716
 6688SOL     OW31525   3.240   3.945   4.919  0.0154  0.1388  0.3756
 6688SOL    HW131526   3.168   3.954   4.982  0.6392 -0.4669  1.1771
 6688SOL    HW231527   3.208   3.882   4.854 -0.3975  2.0192 -1.2355
 6689SOL     OW31528   1.741   4.061   8.997  0.2457 -1.0419 -0.2787
 6689SOL    HW131529   1.762   4.150   9.028 -0.2447 -1.8809  2.5176
 6689SOL    HW231530   1.716   4.020   9.080 -1.6379 -0.1032 -0.3668
 6690SOL     OW31531   0.383   0.938   0.124 -0.1171 -0.1335  0.0993
 6690SOL    HW131532   0.461   0.918   0.176 -0.6460 -0.8685  0.5965
 6690SOL    HW231533   0.366   1.026   0.158 -2.1821 -0.5806  0.2478
 6691SOL     OW31534   0.812   3.751   2.737  0.3537 -0.1427 -0.9219
 6691SOL    HW131535   0.816   3.843   2.711  1.6539  0.0462 -0.0581
 6691SOL    HW231536   0.745   3.737   2.805 -0.9384  2.5420 -1.6557
 6692SOL     OW31537   3.314   0.713   4.814 -0.4791  0.3394 -0.6809
 6692SOL    HW131538   3.369   0.771   4.762  0.8955 -0.1232  0.2750
 6692SOL    HW231539   3.334   0.755   4.898  0.9033 -1.7367  0.0301
 6693SOL     OW31540   0.887   4.362  14.416  0.1009 -0.4057 -0.0182
 6693SOL    HW131541   0.813   4.301  14.417 -0.6827  0.5277  0.0959
 6693SOL    HW231542   0.881   4.410  14.499 -0.3872 -0.5564  0.0382
 6694SOL     OW31543   2.996   1.001   5.088  0.0462  0.1228 -0.0403
 6694SOL    HW131544   2.984   1.093   5.069 -0.4226 -0.1151 -0.8769
 6694SOL    HW231545   3.063   1.012   5.156  0.5009 -2.0686 -0.1104
 6695SOL     OW31546   3.933   0.641  17.585 -0.6332 -0.3746  0.0307
 6695SOL    HW131547   3.898   0.643  17.674 -3.3249 -1.0456 -1.0184
 6695SOL    HW231548   4.023   0.672  17.598 -0.8634  0.9426 -1.4582
 6696SOL     OW31549   0.296   3.605  14.767 -0.2902 -0.5505  0.0030
 6696SOL    HW131550   0.331   3.552  14.695 -1.2633 -0.1771 -0.7525
 6696SOL    HW231551   0.364   3.672  14.773 -0.5233 -0.2833 -0.2891
 6697SOL     OW31552   1.571   0.802   9.433  0.2176  0.1458 -0.1301
 6697SOL    HW131553   1.640   0.850   9.478 -1.2432  0.9185  1.2885
 6697SOL    HW231554   1.495   0.859   9.448 -1.0144 -0.8113 -2.7351
 6698SOL     OW31555   1.456   2.331   7.156  0.1423 -0.1846 -0.0642
 6698SOL    HW131556   1.494   2.404   7.204 -0.4703 -0.3751  0.7001
 6698SOL    HW231557   1.366   2.350   7.181 -0.1040 -1.4691  0.0282
 6699SOL     OW31558   2.203   0.651   5.890 -0.2273  0.5285 -0.2834
 6699SOL    HW131559   2.216   0.704   5.968  1.2396 -0.0740 -0.1198
 6699SOL    HW231560   2.294   0.623   5.880 -0.4716  0.0087 -1.1002
 6700SOL     OW31561   1.794   1.439   8.236 -0.2043 -0.3374 -0.4254
 6700SOL    HW131562   1.794   1.437   8.332 -3.5649 -2.4898 -0.4873
 6700SOL    HW231563   1.777   1.349   8.210  1.9943 -0.5880 -0.9458
 6701SOL     OW31564   2.329   3.366  15.998 -0.5398 -0.4537  0.4781
 6701SOL    HW131565   2.262   3.377  16.065 -0.1722 -0.0956  0.7872
 6701SOL    HW231566   2.347   3.272  15.998  3.5062  0.3165  1.7209
 6702SOL     OW31567   0.732   3.075   5.102  0.1530 -0.2788 -0.5872
 6702SOL    HW131568   0.644   3.087   5.138  0.1375 -1.2665 -0.2753
 6702SOL    HW231569   0.738   3.153   5.047  0.0120  1.5448  1.9652
 6703SOL     OW31570   1.361   4.389   5.335 -0.0567  0.0868 -0.0717
 6703SOL    HW131571   1.394   4.452   5.399 -0.6240  0.8121 -0.4966
 6703SOL    HW231572   1.430   4.324   5.322  1.5206  1.9533 -1.1501
 6704SOL     OW31573   4.315   1.508   2.391  0.3258  0.0184 -0.5403
 6704SOL    HW131574   4.223   1.533   2.389  0.2402 -0.0785  1.4079
 6704SOL    HW231575   4.359   1.593   2.382  0.6993 -0.2437 -1.1582
 6705SOL     OW31576   3.494   2.458  10.532  0.0806  0.0698 -0.3861
 6705SOL    HW131577   3.586   2.484  10.542 -0.1562  0.6621  0.2874
 6705SOL    HW231578   3.442   2.534  10.507 -0.0370  0.2210  0.3259
 6706SOL     OW31579   1.254   1.070   8.803 -0.0508 -0.0880 -0.1976
 6706SOL    HW131580   1.299   0.995   8.841  0.1235  0.4328  0.6266
 6706SOL    HW231581   1.331   1.127   8.804 -0.1026 -0.0043 -0.7218
 6707SOL     OW31582   3.734   0.936   8.663  0.4182  0.7560 -0.2336
 6707SOL    HW131583   3.826   0.958   8.679  1.2614 -2.7846 -0.3560
 6707SOL    HW231584   3.694   0.990   8.732  0.2635  1.2571 -0.7163
 6708SOL     OW31585   2.909   1.216   7.271  0.2593 -0.4285 -0.2229
 6708SOL    HW131586   2.832   1.211   7.215  1.1271  0.2752 -1.4781
 6708SOL    HW231587   2.974   1.270   7.226  0.4581 -0.8082 -0.3923
 6709SOL     OW31588   1.352   0.014  10.440 -0.3870 -0.0635 -0.4411
 6709SOL    HW131589   1.402   0.029  10.360 -1.4993  2.2119 -0.7187
 6709SOL    HW231590   1.301   4.657  10.418 -0.6607  0.3643 -1.3530
 6710SOL     OW31591   1.814   4.276   1.765  0.7140  0.6064 -0.3944
 6710SOL    HW131592   1.816   4.359   1.812 -0.4364  0.0440  0.6794
 6710SOL    HW231593   1.741   4.287   1.704  0.6604 -1.2972 -0.7004
 6711SOL     OW31594   0.930   3.276   9.543  0.0600 -0.3889  0.0960
 6711SOL    HW131595   0.988   3.234   9.479 -0.1110 -0.3469 -0.0878
 6711SOL    HW231596   0.903   3.202   9.597 -2.2153  0.4449  0.0569
 6712SOL     OW31597   1.263   3.993   5.787  0.0076 -0.6141 -0.4035
 6712SOL    HW131598   1.267   3.928   5.857 -1.7430  0.3301  0.5849
 6712SOL    HW231599   1.206   4.054   5.834 -1.5793 -0.9220 -1.9176
 6713SOL     OW31600   1.733   2.508  11.861  0.1361 -0.2617  0.1073
 6713SOL    HW131601   1.823   2.526  11.889  0.2073  0.4444 -0.5866
 6713SOL    HW231602   1.684   2.551  11.931 -0.8168 -1.4919  0.2065
 6714SOL     OW31603   2.543   0.848   4.793 -0.2345 -0.4369 -0.1691
 6714SOL    HW131604   2.609   0.779   4.786  0.6888  0.6516 -1.9741
 6714SOL    HW231605   2.472   0.805   4.842  0.4610  0.5382  1.7032
 6715SOL     OW31606   2.994   4.009   4.652  0.6402  0.0500 -0.8470
 6715SOL    HW131607   2.910   3.965   4.666  0.4928  0.1264 -1.4887
 6715SOL    HW231608   3.053   3.935   4.667 -1.1981 -1.1347  0.5682
 6716SOL     OW31609   2.590   3.257   6.911  0.3468  0.1687 -0.1696
 6716SOL    HW131610   2.536   3.251   6.832 -0.4723 -0.4173  0.4310
 6716SOL    HW231611   2.679   3.262   6.878  1.1072 -0.2610  1.8401
 6717SOL     OW31612   2.000   0.495   7.476  0.5376  0.4468  0.2415
 6717SOL    HW131613   2.063   0.500   7.404  0.5357  2.6023  0.3977
 6717SOL    HW231614   1.916   0.492   7.430  0.1369 -2.7718  1.1770
 6718SOL     OW31615   2.687   2.560   5.272 -0.5134 -0.0055 -0.0538
 6718SOL    HW131616   2.634   2.492   5.312 -2.1471  0.6625 -1.0601
 6718SOL    HW231617   2.680   2.629   5.338 -0.4972  0.7050 -0.7936
 6719SOL     OW31618   1.563   3.987   8.740  0.1381  0.2580 -0.3521
 6719SOL    HW131619   1.656   3.991   8.761  0.0546  1.8340 -0.2959
 6719SOL    HW231620   1.531   4.076   8.755 -1.8705 -0.3576 -0.9184
 6720SOL     OW31621   3.348   2.935   5.450 -0.4601 -0.4353 -0.1765
 6720SOL    HW131622   3.306   2.850   5.462  1.9694 -1.6399 -0.3126
 6720SOL    HW231623   3.382   2.944   5.539 -2.2922 -1.6853  0.6473
 6721SOL     OW31624   0.360   2.474   2.306  0.2099 -0.7871 -0.5627
 6721SOL    HW131625   0.327   2.431   2.228  1.8219  2.3158 -2.9631
 6721SOL    HW231626   0.452   2.446   2.306  0.5573  0.3196  2.2923
 6722SOL     OW31627   0.267   0.497  15.763 -0.0760 -0.5195  0.2104
 6722SOL    HW131628   0.314   0.502  15.679 -1.9455 -0.1506 -0.8134
 6722SOL    HW231629   0.212   0.418  15.761 -0.6815 -0.0174 -3.7885
 6723SOL     OW31630   2.878   1.690   7.549  0.3374 -0.4847  0.0332
 6723SOL    HW131631   2.824   1.684   7.470 -0.0461  0.9493  0.1744
 6723SOL    HW231632   2.941   1.624   7.520 -1.4766 -0.3249 -4.1768
 6724SOL     OW31633   3.032   1.593  10.882  0.1668  0.4816 -0.2562
 6724SOL    HW131634   3.099   1.571  10.947 -0.8713 -1.5255  0.1371
 6724SOL    HW231635   3.050   1.686  10.882 -1.2632  0.7562  1.6734
 6725SOL     OW31636   2.250   3.939   7.160  0.9414 -0.0183 -0.5454
 6725SOL    HW131637   2.182   3.981   7.213 -0.0610 -0.2553 -1.6240
 6725SOL    HW231638   2.283   3.882   7.229  0.9026  1.1295  0.4173
 6726SOL     OW31639   1.362   3.472   1.678  0.1209 -0.0623 -0.0137
 6726SOL    HW131640   1.364   3.555   1.726 -1.3076  1.6534 -2.9130
 6726SOL    HW231641   1.389   3.425   1.757 -1.4370 -0.7000  0.1534
 6727SOL     OW31642   0.834   4.640  15.263  0.1372  0.8075  0.2511
 6727SOL    HW131643   0.783   4.693  15.201 -0.0925 -0.0185 -0.2712
 6727SOL    HW231644   0.904   4.703  15.276 -0.7045  1.1240  3.0785
 6728SOL     OW31645   0.270   0.188   1.963 -0.4267 -0.2620 -0.1731
 6728SOL    HW131646   0.291   0.281   1.958 -0.4984 -0.2318  0.1025
 6728SOL    HW231647   0.336   0.155   2.024 -0.1244  0.4066 -0.1429
 6729SOL     OW31648   1.295   4.314   4.027  0.4091  0.3470  0.1396
 6729SOL    HW131649   1.276   4.380   3.960  1.5414  1.8183  1.2753
 6729SOL    HW231650   1.270   4.355   4.110  1.3728  0.8137  0.1952
 6730SOL     OW31651   2.888   4.338  14.871  0.5216  0.0846  0.1011
 6730SOL    HW131652   2.982   4.325  14.880  0.6115  0.1226 -0.8428
 6730SOL    HW231653   2.858   4.277  14.938  0.2487 -1.7335 -1.6970
 6731SOL     OW31654   3.145   1.541   3.890 -0.1244 -0.0089 -0.0978
 6731SOL    HW131655   3.181   1.513   3.973 -0.5474  0.1020  0.1250
 6731SOL    HW231656   3.140   1.456   3.846 -0.1578 -0.2715  0.4194
 6732SOL     OW31657   4.459   3.345   4.818 -0.1190 -0.2172 -0.1563
 6732SOL    HW131658   4.458   3.256   4.852  3.0252 -0.8807 -1.7808
 6732SOL    HW231659   4.456   3.400   4.896  0.2933 -0.4057 -0.0098
 6733SOL     OW31660   0.338   3.001  17.457 -0.1820 -0.0044 -0.2115
 6733SOL    HW131661   0.337   2.920  17.508 -0.3308 -0.6142 -1.1924
 6733SOL    HW231662   0.312   2.955  17.377  0.3828  0.0537 -0.4285
 6734SOL     OW31663   2.966   0.896  13.203  0.2263 -0.0008  0.0641
 6734SOL    HW131664   2.897   0.935  13.149  0.8341 -0.5570 -1.1097
 6734SOL    HW231665   2.937   0.805  13.206 -0.4470  0.2168  0.2537
 6735SOL     OW31666   1.550   2.183  17.122  0.8086  0.2554  0.1124
 6735SOL    HW131667   1.518   2.226  17.043  1.5941  0.9793  0.1839
 6735SOL    HW231668   1.473   2.168  17.177  1.2555 -0.9171  0.4329
 6736SOL     OW31669   2.389   3.016   8.470  0.5915 -0.1513 -0.3654
 6736SOL    HW131670   2.369   2.926   8.444 -0.1861  0.3668 -1.5572
 6736SOL    HW231671   2.370   3.066   8.390  0.1255  1.6767  0.8887
 6737SOL     OW31672   2.091   2.125   3.158  0.2863 -0.3396  0.1748
 6737SOL    HW131673   2.108   2.064   3.087  2.5360 -1.3563  1.5849
 6737SOL    HW231674   2.036   2.193   3.118  1.4415 -0.0512 -0.8991
 6738SOL     OW31675   3.619   0.214   5.979  0.1005 -0.1427  0.4413
 6738SOL    HW131676   3.680   0.200   5.907 -1.0087 -0.9043 -0.3649
 6738SOL    HW231677   3.584   0.128   6.005 -1.6036  0.9622  1.7992
 6739SOL     OW31678   1.417   2.899   5.369 -0.1481  0.9721  0.1445
 6739SOL    HW131679   1.391   2.953   5.444  0.5755  0.7437  0.5561
 6739SOL    HW231680   1.419   2.956   5.293 -2.0828 -1.0067 -1.3740
 6740SOL     OW31681   4.057   3.843   4.808  0.5458 -0.0776 -0.5935
 6740SOL    HW131682   3.999   3.917   4.788  0.5582 -0.1516 -0.8918
 6740SOL    HW231683   3.998   3.768   4.813 -1.1270  1.1253 -2.1721
 6741SOL     OW31684   2.168   2.364   5.237 -0.4822 -0.3329 -0.8865
 6741SOL    HW131685   2.229   2.291   5.244 -0.1796 -0.1252 -1.3140
 6741SOL    HW231686   2.112   2.342   5.311  1.3955  0.0592  0.6462
 6742SOL     OW31687   0.867   1.328  15.031 -0.2854  0.5058  0.4416
 6742SOL    HW131688   0.858   1.389  14.958 -2.2722 -0.7938 -0.4041
 6742SOL    HW231689   0.879   1.251  14.975 -2.9871  0.7000 -0.3970
 6743SOL     OW31690   0.223   4.336   4.948 -0.1759 -0.5189  0.5858
 6743SOL    HW131691   0.130   4.314   4.954 -0.3287 -0.4315 -1.2482
 6743SOL    HW231692   0.269   4.252   4.948 -1.9394 -1.5255 -3.5106
 6744SOL     OW31693   3.077   4.705   6.636 -0.3274 -0.7250  0.2621
 6744SOL    HW131694   3.036   4.693   6.551  0.7347 -1.1930 -0.1829
 6744SOL    HW231695   3.152   4.648   6.619  1.0311  1.2803 -0.4832
 6745SOL     OW31696   0.466   0.083   6.052 -0.7272 -0.7156 -0.3797
 6745SOL    HW131697   0.450   0.129   6.134 -1.8636 -1.8073  0.0208
 6745SOL    HW231698   0.548   0.038   6.071 -1.0268 -1.7603 -1.4835
 6746SOL     OW31699   0.532   2.199  12.534  0.7543  0.0056  0.2450
 6746SOL    HW131700   0.587   2.149  12.473  0.5919  0.0151  0.0908
 6746SOL    HW231701   0.473   2.127  12.556  1.2943  0.0088  1.6345
 6747SOL     OW31702   1.235   3.436   6.645  0.3632  0.2008  0.8276
 6747SOL    HW131703   1.188   3.390   6.715  0.9677 -0.6247  0.6854
 6747SOL    HW231704   1.277   3.367   6.594 -1.9749  0.1442 -1.0473
 6748SOL     OW31705   4.094   0.057   9.048  0.3163  0.2153  0.1240
 6748SOL    HW131706   4.055   4.690   9.055 -0.4336  0.6032  0.7012
 6748SOL    HW231707   4.124   0.078   9.136  0.2819  0.1049  0.1619
 6749SOL     OW31708   3.504   2.564   3.901 -0.4776  0.0508  0.3617
 6749SOL    HW131709   3.514   2.489   3.843 -0.3936  0.2419  0.1321
 6749SOL    HW231710   3.596   2.585   3.915 -0.5187  0.8226 -0.4827
 6750SOL     OW31711   3.113   1.486   5.115 -0.9633  0.3947 -0.1198
 6750SOL    HW131712   3.050   1.512   5.182  0.8402  1.6598  1.0810
 6750SOL    HW231713   3.152   1.573   5.104 -0.2915  0.1721  0.5538
 6751SOL     OW31714   2.566   1.062   2.535 -0.3913 -0.1107  0.6622
 6751SOL    HW131715   2.595   0.980   2.574  1.2747  0.4808  0.6521
 6751SOL    HW231716   2.492   1.041   2.478 -0.2314 -0.8334  0.7344
 6752SOL     OW31717   2.666   0.426   1.511 -1.2324  0.0226  0.7725
 6752SOL    HW131718   2.584   0.425   1.561 -1.3533 -1.4643  0.5478
 6752SOL    HW231719   2.714   0.496   1.555  0.3989  0.5539 -1.8951
 6753SOL     OW31720   1.112   3.979   4.858 -0.3686 -0.0622  0.3106
 6753SOL    HW131721   1.202   3.985   4.828 -1.6102  0.4493 -3.3735
 6753SOL    HW231722   1.089   3.908   4.798  0.5480  0.8524 -1.1185
 6754SOL     OW31723   1.024   3.982  11.421  0.0400  0.2962 -0.3179
 6754SOL    HW131724   0.992   4.058  11.371 -1.8879 -1.1560 -1.2925
 6754SOL    HW231725   1.056   3.931  11.347 -0.2869  0.2385 -0.4190
 6755SOL     OW31726   3.888   1.469   5.015  0.4979  0.4255  0.3615
 6755SOL    HW131727   3.917   1.499   5.101  1.2163 -1.1997  0.6844
 6755SOL    HW231728   3.826   1.401   5.041  0.7886  1.0291  2.6332
 6756SOL     OW31729   0.686   4.112   8.093 -0.0354  0.1714 -0.2205
 6756SOL    HW131730   0.779   4.134   8.088  0.0267 -0.4992 -1.8482
 6756SOL    HW231731   0.686   4.084   8.185 -0.7150 -1.5369 -0.7288
 6757SOL     OW31732   4.062   1.353   9.242  0.2252  0.7179  0.1613
 6757SOL    HW131733   4.046   1.356   9.336  1.0558 -1.5785  0.3894
 6757SOL    HW231734   4.022   1.267   9.223  2.3613 -0.4036  0.7493
 6758SOL     OW31735   2.861   3.949   8.827  0.3317 -0.1072  0.5970
 6758SOL    HW131736   2.793   3.933   8.762  1.4690  0.2199 -0.6663
 6758SOL    HW231737   2.871   3.860   8.861 -0.3574 -0.5268 -0.2888
 6759SOL     OW31738   2.073   1.737   4.689  0.3360  0.0394  0.0262
 6759SOL    HW131739   2.099   1.652   4.724  0.2475  0.8877  2.1379
 6759SOL    HW231740   1.987   1.723   4.650  0.2805 -2.1324  0.9097
 6760SOL     OW31741   4.718   4.367  10.729  0.1273 -0.0203  0.9223
 6760SOL    HW131742   4.712   4.454  10.691  1.4410 -0.1763  0.3916
 6760SOL    HW231743   4.648   4.317  10.686 -0.2257 -0.0372  1.5098
 6761SOL     OW31744   3.931   1.318   2.449  0.9293  0.2462  0.0630
 6761SOL    HW131745   3.854   1.306   2.505  0.8007 -1.1714 -0.4081
 6761SOL    HW231746   3.915   1.403   2.408 -0.2775 -0.0429 -0.0574
 6762SOL     OW31747   3.280   4.362   7.298 -0.1227 -0.0947 -0.0177
 6762SOL    HW131748   3.193   4.322   7.288  0.0575 -0.6096  0.4784
 6762SOL    HW231749   3.263   4.448   7.261  1.2591 -0.0716 -0.5895
 6763SOL     OW31750   3.870   4.188   3.938  0.6235 -0.2177  1.0758
 6763SOL    HW131751   3.852   4.129   4.011 -0.4610 -0.3270  0.7222
 6763SOL    HW231752   3.945   4.232   3.977  0.4411 -0.4518  1.6784
 6764SOL     OW31753   2.770   3.660  11.079  0.3936  0.5087  0.4246
 6764SOL    HW131754   2.813   3.595  11.024  2.2275  1.0638  1.2275
 6764SOL    HW231755   2.677   3.637  11.077  0.4266  0.4824 -0.5161
 6765SOL     OW31756   3.580   0.223  13.483 -0.4595 -0.2597  0.2930
 6765SOL    HW131757   3.603   0.313  13.504  1.0900 -0.8498  1.1433
 6765SOL    HW231758   3.658   0.178  13.516  0.9489  0.9330 -1.4268
 6766SOL     OW31759   3.914   4.521  13.286 -0.3051  0.7208  0.3862
 6766SOL    HW131760   3.835   4.562  13.252 -1.0434 -1.9692 -1.1050
 6766SOL    HW231761   3.982   4.581  13.257  0.8328 -0.0940  1.3359
 6767SOL     OW31762   4.564   0.144   0.975  0.2368 -0.2971 -0.0182
 6767SOL    HW131763   4.643   0.094   0.994  0.0453 -0.3861  0.5441
 6767SOL    HW231764   4.511   0.119   1.051 -0.8279 -0.7713 -0.9164
 6768SOL     OW31765   4.572   0.032   9.344 -0.1138  0.5078 -0.3939
 6768SOL    HW131766   4.531   4.700   9.276  2.5563 -1.4167 -0.5325
 6768SOL    HW231767   4.506   0.040   9.413 -0.1758 -0.1218 -0.3793
 6769SOL     OW31768   0.273   1.639   9.004  0.6169  0.0730  0.8060
 6769SOL    HW131769   0.349   1.582   9.015  1.1493  0.8382  1.0436
 6769SOL    HW231770   0.202   1.581   8.977 -0.5646  2.2326 -0.7676
 6770SOL     OW31771   0.797   0.567   2.187  0.2806 -0.1947  0.6513
 6770SOL    HW131772   0.769   0.542   2.275  0.2632 -1.1799  0.3580
 6770SOL    HW231773   0.716   0.613   2.163  0.7286  0.7097  0.8582
 6771SOL     OW31774   3.306   3.871   2.015 -0.0762 -0.0832 -0.3569
 6771SOL    HW131775   3.358   3.921   2.079  1.1942  1.1158 -2.3021
 6771SOL    HW231776   3.376   3.835   1.961 -1.1068 -0.3521 -1.5066
 6772SOL     OW31777   2.179   1.017  14.801  0.1030  0.2185 -0.0435
 6772SOL    HW131778   2.175   1.003  14.896 -2.3554 -1.5356 -0.4045
 6772SOL    HW231779   2.101   1.068  14.779  0.5387  0.3400 -1.2876
 6773SOL     OW31780   1.932   1.586   7.307 -0.4854 -0.2784  0.6130
 6773SOL    HW131781   1.921   1.506   7.256  0.6210 -0.1569  0.1699
 6773SOL    HW231782   1.844   1.622   7.298 -0.0650  0.6229  0.1323
 6774SOL     OW31783   3.723   0.265   5.219  0.2997 -0.3268  0.2253
 6774SOL    HW131784   3.638   0.290   5.255  0.7161  2.3775 -0.6765
 6774SOL    HW231785   3.714   0.188   5.164  2.3051 -0.5515  0.2254
 6775SOL     OW31786   0.449   3.416  11.858 -0.1048  0.0529 -1.0915
 6775SOL    HW131787   0.503   3.493  11.843  0.2208 -0.4224 -2.3330
 6775SOL    HW231788   0.506   3.377  11.924  3.1818  1.4936 -3.1049
 6776SOL     OW31789   0.846   4.578  14.107 -0.3909  0.0303  0.1315
 6776SOL    HW131790   0.909   4.512  14.136  1.0805  1.3413 -0.0582
 6776SOL    HW231791   0.830   4.547  14.018  0.3997  0.1480 -0.0538
 6777SOL     OW31792   1.475   4.589   5.187 -0.4652 -0.3757 -0.5110
 6777SOL    HW131793   1.462   4.677   5.220  2.3274  0.5163 -1.7207
 6777SOL    HW231794   1.423   4.529   5.240  0.7396 -1.9175 -1.0577
 6778SOL     OW31795   0.564   1.486   5.023 -0.1343  0.4821  0.6818
 6778SOL    HW131796   0.594   1.454   5.108  2.2793  1.3540  0.1523
 6778SOL    HW231797   0.604   1.416   4.971  1.7301  0.0875  2.6276
 6779SOL     OW31798   4.359   2.849   5.131 -0.0806 -0.0744 -0.1083
 6779SOL    HW131799   4.287   2.858   5.068 -0.1535 -1.4389 -0.2153
 6779SOL    HW231800   4.374   2.755   5.129 -0.1534 -0.0885  0.0063
 6780SOL     OW31801   1.491   2.881  12.035  0.7006 -0.1787 -0.5428
 6780SOL    HW131802   1.572   2.881  11.984  1.0286  1.2577 -0.0329
 6780SOL    HW231803   1.528   2.890  12.123  2.0018  0.0060 -1.1081
 6781SOL     OW31804   0.818   4.414   5.782  0.3173 -0.0016  0.4764
 6781SOL    HW131805   0.793   4.490   5.834 -1.3029 -0.8747  0.9574
 6781SOL    HW231806   0.739   4.405   5.729  1.2061 -0.7727 -0.7082
 6782SOL     OW31807   2.479   0.212   2.929 -0.8248  0.0793  0.1530
 6782SOL    HW131808   2.502   0.287   2.875  0.9221 -1.0782 -0.7056
 6782SOL    HW231809   2.440   0.160   2.858  2.1347  1.9763 -2.8191
 6783SOL     OW31810   2.820   0.920   3.243  0.6552  0.6607 -0.1215
 6783SOL    HW131811   2.819   0.860   3.318  1.2207  2.3829  1.2720
 6783SOL    HW231812   2.747   0.977   3.267  1.2008  0.6569  1.5495
 6784SOL     OW31813   0.859   0.831   6.165 -0.4134  0.7196 -0.1606
 6784SOL    HW131814   0.896   0.806   6.081  1.3404  2.6005  0.0671
 6784SOL    HW231815   0.775   0.785   6.161  1.3096 -2.3786 -0.8068
 6785SOL     OW31816   3.033   0.741   4.363 -0.4350 -0.0806  0.0662
 6785SOL    HW131817   3.019   0.822   4.413 -1.9361 -0.3748  0.1394
 6785SOL    HW231818   3.091   0.689   4.419 -0.2679  0.5595  0.4991
 6786SOL     OW31819   0.267   0.487   8.725 -0.0162  0.0893 -0.4061
 6786SOL    HW131820   0.308   0.534   8.797  0.2890  0.8864 -1.1003
 6786SOL    HW231821   0.291   0.397   8.747  0.9752  0.3147 -0.6086
 6787SOL     OW31822   4.601   2.029   4.784  0.2021  0.1175 -0.5728
 6787SOL    HW131823   4.668   2.098   4.786  1.3107 -1.0030  0.6906
 6787SOL    HW231824   4.554   2.024   4.867 -0.0034 -0.2462 -0.7108
 6788SOL     OW31825   3.584   3.000  15.939 -0.3058  0.0952 -0.1939
 6788SOL    HW131826   3.618   2.985  16.028  2.0753  2.0025 -0.7850
 6788SOL    HW231827   3.637   3.078  15.924  0.1437 -0.2542 -0.4156
 6789SOL     OW31828   2.142   1.924   4.035 -0.2097 -0.4870  0.2852
 6789SOL    HW131829   2.206   1.957   3.971 -0.4570 -0.3113  0.1271
 6789SOL    HW231830   2.166   1.836   4.065  2.3041  0.6289  1.5540
 6790SOL     OW31831   2.250   4.712   1.722 -0.5897  0.0778  1.0577
 6790SOL    HW131832   2.242   0.069   1.668 -1.6194 -1.2774 -0.7522
 6790SOL    HW231833   2.184   4.653   1.686  1.6980 -0.6401 -1.9945
 6791SOL     OW31834   2.936   2.394   6.260 -0.3850 -0.3804 -0.2302
 6791SOL    HW131835   2.951   2.427   6.171 -2.3186  1.9327  0.3010
 6791SOL    HW231836   2.900   2.477   6.291  2.2122  0.5130  0.4321
 6792SOL     OW31837   0.628   0.903   7.979 -0.2887 -0.5040 -0.6688
 6792SOL    HW131838   0.589   0.861   8.055  0.3515  0.4767  0.1879
 6792SOL    HW231839   0.557   0.909   7.915 -1.3911  1.4348  0.7278
 6793SOL     OW31840   3.418   3.915   4.112  0.2195 -0.1330 -0.1396
 6793SOL    HW131841   3.390   3.845   4.052  1.7799 -1.4902  0.7277
 6793SOL    HW231842   3.432   3.976   4.040 -1.7445  0.0851 -0.3375
 6794SOL     OW31843   1.909   3.789   8.136  0.2720 -0.4007  0.1872
 6794SOL    HW131844   1.961   3.865   8.109  0.3123 -0.0898  1.1481
 6794SOL    HW231845   1.928   3.719   8.073  1.0770 -0.0481  0.0479
 6795SOL     OW31846   2.697   4.269   8.718  0.4884  0.1450 -0.0048
 6795SOL    HW131847   2.605   4.243   8.716  0.9789 -1.5718 -0.4063
 6795SOL    HW231848   2.693   4.339   8.654  0.5561  0.4634  0.3377
 6796SOL     OW31849   0.204   0.174   6.880 -0.3383  0.3609  0.0452
 6796SOL    HW131850   0.217   0.097   6.824  0.2971  0.0908  0.5702
 6796SOL    HW231851   0.270   0.163   6.948 -0.0069  0.8968 -0.1927
 6797SOL     OW31852   2.845   1.356  12.725  0.2943 -0.4298  0.0353
 6797SOL    HW131853   2.889   1.304  12.792 -2.7887 -1.6213  1.1010
 6797SOL    HW231854   2.758   1.376  12.759  0.6846 -0.4787  1.0622
 6798SOL     OW31855   0.146   1.861   7.307  0.0005  0.1420 -0.4606
 6798SOL    HW131856   0.058   1.855   7.268 -0.6310 -0.0274  0.9862
 6798SOL    HW231857   0.127   1.935   7.366 -1.3865 -1.3814  1.0171
 6799SOL     OW31858   0.203   4.415   1.632  0.1919  0.2787 -0.3296
 6799SOL    HW131859   0.234   4.332   1.593 -3.6856 -1.1415 -0.4132
 6799SOL    HW231860   0.277   4.474   1.618  0.7107 -1.0799 -3.3953
 6800SOL     OW31861   4.538   2.863  11.368 -0.5500 -0.4904 -0.0071
 6800SOL    HW131862   4.488   2.924  11.314  2.2461 -0.6853 -2.8719
 6800SOL    HW231863   4.601   2.829  11.304 -2.8695 -2.9263 -0.9874
 6801SOL     OW31864   0.713   0.044   3.447  0.1142 -0.6980  0.6754
 6801SOL    HW131865   0.641   0.102   3.421  0.2890 -0.2819  1.1233
 6801SOL    HW231866   0.789   0.092   3.414 -0.3127 -0.3596  0.1774
 6802SOL     OW31867   1.639   3.073   5.940  0.0141 -0.2474 -0.3058
 6802SOL    HW131868   1.678   2.987   5.928 -0.8116 -0.5581 -0.6906
 6802SOL    HW231869   1.548   3.049   5.922  0.3320 -0.8148 -1.1379
 6803SOL     OW31870   2.306   0.765   6.370  0.1707 -0.6464 -1.0536
 6803SOL    HW131871   2.303   0.845   6.422 -2.0332 -1.4346  0.0482
 6803SOL    HW231872   2.310   0.702   6.442  1.5514 -0.0626 -0.6230
 6804SOL     OW31873   3.442   4.292  14.518 -0.1182  0.6683 -0.6510
 6804SOL    HW131874   3.466   4.210  14.560  0.4788  1.2623  0.1715
 6804SOL    HW231875   3.386   4.334  14.584 -1.4270  1.0079 -1.9792
 6805SOL     OW31876   2.267   3.992   2.977  0.0228 -0.1845 -0.3777
 6805SOL    HW131877   2.257   3.961   2.887 -0.1391 -0.1789 -0.3617
 6805SOL    HW231878   2.348   3.944   2.997  0.6448  1.7256  1.6349
 6806SOL     OW31879   0.714   2.765   4.959  0.6490  0.3733 -0.3509
 6806SOL    HW131880   0.636   2.755   5.014  1.1291 -0.6151  0.1412
 6806SOL    HW231881   0.685   2.846   4.917 -0.8399 -0.1220 -0.3146
 6807SOL     OW31882   0.641   2.268   6.862  0.1781  0.3888 -0.6102
 6807SOL    HW131883   0.547   2.256   6.877  0.2897  0.6166  0.2537
 6807SOL    HW231884   0.668   2.180   6.836 -3.0598 -0.3032 -1.7502
 6808SOL     OW31885   0.614   0.113   7.780  0.2155 -0.2205  0.1127
 6808SOL    HW131886   0.523   0.124   7.750  0.7336  2.5209 -0.4030
 6808SOL    HW231887   0.659   0.105   7.696  0.2748 -0.0465  0.1292
 6809SOL     OW31888   2.645   0.429   5.151 -0.0663 -0.5372 -0.3499
 6809SOL    HW131889   2.698   0.353   5.127 -0.2458 -1.2520  1.5357
 6809SOL    HW231890   2.708   0.486   5.195 -1.4804  0.7269  0.0619
 6810SOL     OW31891   2.305   0.737   1.617  0.4336  0.6409 -0.2001
 6810SOL    HW131892   2.285   0.752   1.709  0.7084 -0.6436  0.0665
 6810SOL    HW231893   2.283   0.644   1.608  1.3483  0.4570 -0.5503
 6811SOL     OW31894   0.099   1.254   0.359 -0.1049  0.0200  0.0557
 6811SOL    HW131895   0.051   1.171   0.364  1.3009 -0.9650 -2.6458
 6811SOL    HW231896   0.085   1.297   0.443 -1.5648 -2.2707  0.9958
 6812SOL     OW31897   3.631   3.727   5.588  0.9350  0.3457 -0.2666
 6812SOL    HW131898   3.704   3.733   5.650  0.5802  0.1270  0.1717
 6812SOL    HW231899   3.653   3.648   5.539 -2.1748 -2.2168  2.5051
 6813SOL     OW31900   1.058   1.277  15.511 -0.2533 -0.0297 -0.2983
 6813SOL    HW131901   1.153   1.278  15.497 -0.1255  0.1373  0.6299
 6813SOL    HW231902   1.028   1.244  15.426 -0.2411 -0.9250  0.0457
 6814SOL     OW31903   4.691   1.645   3.244  0.2097  0.5684  0.1759
 6814SOL    HW131904   4.655   1.630   3.156 -0.0521  0.0920  0.3619
 6814SOL    HW231905   0.060   1.670   3.221  0.2696  1.2449  1.1588
 6815SOL     OW31906   1.770   4.496   2.253 -0.0772  0.0621 -0.7273
 6815SOL    HW131907   1.696   4.555   2.269 -0.1245  0.8184 -3.9001
 6815SOL    HW231908   1.790   4.470   2.343  0.3098  1.5161 -0.4008
 6816SOL     OW31909   3.979   4.579   7.140 -0.2263  0.3960  0.3901
 6816SOL    HW131910   3.894   4.543   7.166 -0.4008 -0.0048 -0.7401
 6816SOL    HW231911   4.003   4.501   7.089  2.3378  1.6426 -0.3079
 6817SOL     OW31912   2.473   2.368   3.883 -0.1340  0.1280  0.4909
 6817SOL    HW131913   2.487   2.291   3.828  0.6098  0.5115  0.1464
 6817SOL    HW231914   2.464   2.422   3.804 -1.4590  0.4198  0.8437
 6818SOL     OW31915   1.716   1.087   2.440  0.4678  0.4259 -0.4337
 6818SOL    HW131916   1.706   1.137   2.359  0.0005  0.3345 -0.4336
 6818SOL    HW231917   1.796   1.127   2.475  0.3648 -0.6685  1.0444
 6819SOL     OW31918   4.424   4.316   4.317  0.3447 -0.1975  0.0669
 6819SOL    HW131919   4.388   4.262   4.247 -1.3929  1.4961 -0.3471
 6819SOL    HW231920   4.415   4.249   4.385 -1.2481  0.7165  0.7635
 6820SOL     OW31921   4.134   0.758  15.037 -0.0765  0.4105  0.6276
 6820SOL    HW131922   4.149   0.787  14.947  0.4499  2.8662  1.5153
 6820SOL    HW231923   4.075   0.686  15.013  1.0034 -0.4343  0.5059
 6821SOL     OW31924   0.324   1.824   9.275 -0.3379  0.0971 -0.1773
 6821SOL    HW131925   0.238   1.813   9.235  0.4120  0.2608 -1.8017
 6821SOL    HW231926   0.384   1.814   9.201 -0.5139  0.8429 -0.4246
 6822SOL     OW31927   1.944   3.654  16.606 -0.5631  0.1052 -0.7271
 6822SOL    HW131928   1.885   3.681  16.677  0.2925  0.1238 -0.0215
 6822SOL    HW231929   2.036   3.670  16.629 -0.2290 -3.5439  0.4894
 6823SOL     OW31930   0.074   2.228   7.327 -0.8640  0.0273 -0.0262
 6823SOL    HW131931   0.151   2.255   7.278 -1.7056  0.5584 -1.0664
 6823SOL    HW231932   0.008   2.283   7.284 -1.1736 -1.2719 -1.2064
 6824SOL     OW31933   0.881   1.370   5.118 -0.7869  0.4996 -0.2862
 6824SOL    HW131934   0.870   1.284   5.160  0.4346  0.1351 -0.7268
 6824SOL    HW231935   0.886   1.361   5.023 -1.5854  0.1401 -0.3016
 6825SOL     OW31936   1.511   2.807   9.499 -0.3485 -0.1215  0.0772
 6825SOL    HW131937   1.482   2.772   9.583  1.7692 -4.0211 -0.8202
 6825SOL    HW231938   1.460   2.753   9.438  1.2173 -0.8779 -0.5902
 6826SOL     OW31939   1.766   0.042   9.320  0.4064 -0.2321 -0.0871
 6826SOL    HW131940   1.733   4.674   9.307  2.4289 -1.0221  0.1041
 6826SOL    HW231941   1.797   0.038   9.411  0.7373 -1.8530 -0.2697
 6827SOL     OW31942   2.150   1.849   4.453 -0.6221  0.2514 -0.6000
 6827SOL    HW131943   2.117   1.818   4.537  1.8496 -0.5014  0.0938
 6827SOL    HW231944   2.220   1.785   4.443  1.5919  2.6514 -0.4461
 6828SOL     OW31945   1.099   3.191   7.150  0.2738 -0.1148  0.1546
 6828SOL    HW131946   1.147   3.231   7.223  1.5694 -1.6213  0.1318
 6828SOL    HW231947   1.095   3.102   7.187  3.6563 -1.3788 -2.4784
 6829SOL     OW31948   2.145   3.483   3.573 -0.4960  0.1370  0.0400
 6829SOL    HW131949   2.211   3.543   3.539  1.1141 -2.6203 -1.7503
 6829SOL    HW231950   2.061   3.528   3.565 -0.8769 -0.9064 -1.8092
 6830SOL     OW31951   0.780   4.177   0.800 -0.1002  0.3008  0.0149
 6830SOL    HW131952   0.874   4.176   0.781 -0.3434 -1.9903 -1.1405
 6830SOL    HW231953   0.762   4.083   0.795  2.4064 -0.1659 -0.3490
 6831SOL     OW31954   1.470   0.886   4.035 -0.5349 -0.0116 -0.4056
 6831SOL    HW131955   1.416   0.950   4.083 -1.1017  0.2202 -1.3530
 6831SOL    HW231956   1.411   0.858   3.965 -0.1149  0.4860 -0.9563
 6832SOL     OW31957   4.714   2.355  12.586  0.2004 -0.4077  0.1205
 6832SOL    HW131958   0.086   2.352  12.612  0.0484 -0.4353  0.6752
 6832SOL    HW231959   4.669   2.401  12.657 -0.3694  0.8228 -1.0306
 6833SOL     OW31960   2.354   2.469  14.696 -0.3201  0.3716  0.2368
 6833SOL    HW131961   2.397   2.386  14.677  1.3190  0.7798  2.2887
 6833SOL    HW231962   2.314   2.488  14.611  1.2067  0.4530 -0.4476
 6834SOL     OW31963   4.351   1.624  11.326  0.3283  0.2322 -0.2170
 6834SOL    HW131964   4.421   1.675  11.286 -0.0180  0.6569 -0.2831
 6834SOL    HW231965   4.366   1.544  11.275  0.7666  0.1775 -0.0042
 6835SOL     OW31966   4.293   1.965  10.441  0.0796  0.0408 -0.1301
 6835SOL    HW131967   4.312   2.039  10.383 -3.1694  1.9151  1.1799
 6835SOL    HW231968   4.369   1.965  10.499 -0.5904 -0.0352  0.7579
 6836SOL     OW31969   1.574   0.341   3.822 -0.0003  0.3525  0.3212
 6836SOL    HW131970   1.553   0.397   3.896 -1.2627  0.5690 -0.2050
 6836SOL    HW231971   1.498   0.283   3.825  0.5649 -0.6394 -3.4603
 6837SOL     OW31972   4.197   2.399   4.327 -1.2026 -0.3954 -0.2569
 6837SOL    HW131973   4.271   2.345   4.354  0.1958  1.3148 -0.6937
 6837SOL    HW231974   4.177   2.357   4.243  0.1909 -0.5981 -0.4808
 6838SOL     OW31975   1.847   4.414   9.329 -0.0961  0.0036  0.7489
 6838SOL    HW131976   1.835   4.447   9.418 -0.2219 -0.4063  0.8838
 6838SOL    HW231977   1.936   4.377   9.333 -0.1528 -0.1462  0.6068
 6839SOL     OW31978   0.977   0.450   5.606  0.2989  0.0532  0.0268
 6839SOL    HW131979   1.002   0.420   5.693  1.9493 -1.1897 -0.8706
 6839SOL    HW231980   1.056   0.435   5.553  0.1901 -0.3337 -0.0287
 6840SOL     OW31981   0.133   1.881   6.449  0.2606  0.0909  0.3812
 6840SOL    HW131982   0.128   1.935   6.370  0.3650  0.1508  0.4144
 6840SOL    HW231983   0.100   1.799   6.413  1.4524 -0.6649  0.9802
 6841SOL     OW31984   2.698   0.122   4.447  0.1180  0.9399 -0.0937
 6841SOL    HW131985   2.780   0.124   4.397 -0.4863  0.1021 -1.1150
 6841SOL    HW231986   2.645   0.168   4.382  0.1653  0.7130 -0.2943
 6842SOL     OW31987   3.582   2.839   2.314  0.3190  0.0777  0.7402
 6842SOL    HW131988   3.602   2.816   2.405 -0.2159 -2.2801  0.2723
 6842SOL    HW231989   3.588   2.746   2.289 -2.4713  0.2585 -0.5728
 6843SOL     OW31990   0.582   0.618   2.952  0.6436  0.5539 -0.3976
 6843SOL    HW131991   0.584   0.571   2.869  2.0746 -0.0436 -0.0261
 6843SOL    HW231992   0.670   0.603   2.986 -0.4303 -2.2816  1.1502
 6844SOL     OW31993   4.299   0.200   0.249  0.3397  0.4483  0.2968
 6844SOL    HW131994   4.321   0.209   0.341 -1.0041  2.2906  0.4302
 6844SOL    HW231995   4.340   0.272   0.202  1.5233 -0.9023 -0.7369
 6845SOL     OW31996   1.560   0.820   3.051 -0.3805  0.2814 -0.6685
 6845SOL    HW131997   1.556   0.724   3.045 -1.8679  0.3334 -0.4964
 6845SOL    HW231998   1.512   0.850   2.973 -2.4853  0.0551  0.5208
 6846SOL     OW31999   0.274   3.857   2.738 -0.2585  0.4859  0.1937
 6846SOL    HW132000   0.353   3.811   2.710 -1.0622 -0.9926  0.3937
 6846SOL    HW232001   0.216   3.781   2.742  1.2692 -0.7432 -0.9175
 6847SOL     OW32002   2.396   4.331  16.826  0.1257 -0.1199 -0.6116
 6847SOL    HW132003   2.356   4.411  16.793 -0.3098 -0.7911 -1.7166
 6847SOL    HW232004   2.460   4.314  16.756 -0.7257 -2.5966 -0.7608
 6848SOL     OW32005   3.380   3.717   5.736  0.5530  0.0676  0.0711
 6848SOL    HW132006   3.375   3.642   5.677 -0.8399  0.7195 -0.6714
 6848SOL    HW232007   3.464   3.751   5.706  0.3209 -0.1810 -0.8705
 6849SOL     OW32008   0.166   1.222   6.349  0.1122  0.1912 -0.0748
 6849SOL    HW132009   0.245   1.276   6.347  0.5916 -0.5100  0.0883
 6849SOL    HW232010   0.201   1.133   6.343 -0.4418 -0.1390  1.6968
 6850SOL     OW32011   4.279   1.728  10.343 -0.5211 -0.3069  0.7504
 6850SOL    HW132012   4.242   1.814  10.364  1.6927 -0.1825  4.0658
 6850SOL    HW232013   4.369   1.742  10.371 -0.6533 -0.9825  1.5150
 6851SOL     OW32014   4.213   2.154   7.638  0.5042  0.1463  0.1208
 6851SOL    HW132015   4.124   2.153   7.603  1.4919  2.0492 -2.4467
 6851SOL    HW232016   4.227   2.059   7.639 -0.3945  0.0133  0.0083
 6852SOL     OW32017   4.633   2.387   7.185  0.6422  0.5313 -0.2151
 6852SOL    HW132018   4.549   2.425   7.159  0.5154 -0.3450 -1.0619
 6852SOL    HW232019   4.676   2.470   7.208 -0.4813  1.3905 -1.1954
 6853SOL     OW32020   4.155   1.100   7.224 -0.0378  0.2511 -0.2994
 6853SOL    HW132021   4.197   1.185   7.212  0.6428  0.3539  2.7227
 6853SOL    HW232022   4.175   1.071   7.314 -1.5418 -0.7509 -0.2857
 6854SOL     OW32023   3.028   3.867   5.119 -0.5075  0.2884 -0.3929
 6854SOL    HW132024   3.036   3.793   5.180  1.8582  0.1125 -0.9239
 6854SOL    HW232025   2.941   3.846   5.086 -0.7560 -0.2390  0.5839
 6855SOL     OW32026   4.390   3.205   5.899 -0.4178  0.1493 -0.3304
 6855SOL    HW132027   4.400   3.215   5.804  1.4047 -0.3408 -0.1899
 6855SOL    HW232028   4.443   3.127   5.914 -2.0440 -0.8927 -0.0955
 6856SOL     OW32029   2.020   3.986   4.280 -0.3446  0.4707  0.2596
 6856SOL    HW132030   1.949   3.992   4.344 -0.3823  1.1647  0.1565
 6856SOL    HW232031   2.012   4.073   4.241  2.0700  0.1476 -0.9623
 6857SOL     OW32032   2.911   1.237  10.332  0.5729 -0.0086  0.5936
 6857SOL    HW132033   2.880   1.316  10.377  0.0358 -0.3304  0.7960
 6857SOL    HW232034   2.918   1.275  10.245  2.2524  0.5035  0.9460
 6858SOL     OW32035   0.230   2.873  13.404  0.0731 -0.2132  0.0789
 6858SOL    HW132036   0.195   2.953  13.443 -0.3360  0.1180 -0.9966
 6858SOL    HW232037   0.302   2.907  13.350  0.4737  0.6643  1.1587
 6859SOL     OW32038   3.857   3.242   2.959 -0.5316 -0.2842  0.2737
 6859SOL    HW132039   3.904   3.201   3.031  0.1039 -2.2645 -1.2891
 6859SOL    HW232040   3.774   3.206   2.991 -1.5956  3.0565  1.2710
 6860SOL     OW32041   3.295   1.889   0.790  0.7516  0.0053 -0.0985
 6860SOL    HW132042   3.278   1.906   0.698 -0.8120 -0.3671  0.1074
 6860SOL    HW232043   3.342   1.970   0.813  2.3656 -0.9644 -0.0114
 6861SOL     OW32044   2.642   3.200  10.933 -0.3508 -0.2494 -0.1787
 6861SOL    HW132045   2.730   3.179  10.903  0.5625  1.7982  1.1269
 6861SOL    HW232046   2.657   3.192  11.027 -1.2325 -0.6805 -0.0677
 6862SOL     OW32047   1.900   2.112   7.964 -0.3763  0.0168  0.1910
 6862SOL    HW132048   1.915   2.031   7.917 -0.5340 -0.5207  1.0706
 6862SOL    HW232049   1.805   2.112   7.977 -0.5032  3.4719 -0.5175
 6863SOL     OW32050   4.674   2.918   7.785  0.2947 -0.4160 -0.2722
 6863SOL    HW132051   0.029   2.863   7.803  1.4934  0.9940 -1.0945
 6863SOL    HW232052   4.659   2.902   7.692 -0.5773  0.4352 -0.2850
 6864SOL     OW32053   1.469   0.561   3.007 -0.0301  0.4095  0.6257
 6864SOL    HW132054   1.487   0.467   3.008 -0.8653  0.2280 -1.2013
 6864SOL    HW232055   1.426   0.573   2.922  0.5704 -0.4773  0.1889
 6865SOL     OW32056   2.121   0.977   7.293  0.0291  0.1063 -0.3553
 6865SOL    HW132057   2.149   1.063   7.327  2.7612 -0.8844 -0.0952
 6865SOL    HW232058   2.124   0.925   7.374 -1.4028 -0.8763 -0.9503
 6866SOL     OW32059   1.725   0.412   8.894 -0.1035 -0.3378  0.1551
 6866SOL    HW132060   1.791   0.358   8.938 -0.1974  0.3477  1.1459
 6866SOL    HW232061   1.702   0.484   8.954  1.1688 -0.8587  1.2630
 6867SOL     OW32062   3.636   1.996   6.055 -0.2959 -0.0716  0.4404
 6867SOL    HW132063   3.631   1.963   6.144 -2.3723  0.8003  0.6316
 6867SOL    HW232064   3.730   2.012   6.045  0.3711 -2.2539  3.1818
 6868SOL     OW32065   0.912   0.547   2.637  0.1944 -0.4389  0.8870
 6868SOL    HW132066   0.969   0.606   2.687  1.8304 -2.5262  1.4539
 6868SOL    HW232067   0.920   0.588   2.551  0.4879 -1.2454  0.5365
 6869SOL     OW32068   3.333   1.839   6.976 -0.0941  0.2957 -0.2001
 6869SOL    HW132069   3.258   1.780   6.983 -0.2139  0.5704  0.8665
 6869SOL    HW232070   3.295   1.926   6.970 -1.1031 -0.1625 -0.4524
 6870SOL     OW32071   0.742   3.309   2.787  0.3377  0.4004  0.3124
 6870SOL    HW132072   0.646   3.305   2.783  0.4992 -2.2551 -0.8287
 6870SOL    HW232073   0.753   3.318   2.882  0.4488 -0.4299  0.3768
 6871SOL     OW32074   3.175   4.295  14.051 -0.0367  0.5520  0.3426
 6871SOL    HW132075   3.189   4.210  14.008  1.5687  1.3264 -0.6695
 6871SOL    HW232076   3.197   4.281  14.143 -2.7289 -0.4465  0.8393
 6872SOL     OW32077   0.481   0.990   5.364 -0.5363  0.0914  1.0629
 6872SOL    HW132078   0.469   0.901   5.330 -0.0566 -0.4229  2.2214
 6872SOL    HW232079   0.566   0.976   5.406 -0.6573 -0.5082  1.1052
 6873SOL     OW32080   1.607   4.389   4.164 -0.0927  0.2532 -0.2360
 6873SOL    HW132081   1.611   4.293   4.160  1.7528  0.2005  2.6660
 6873SOL    HW232082   1.612   4.404   4.258 -3.2759 -0.8544  0.1257
 6874SOL     OW32083   0.915   2.720   5.796 -0.1768  0.0038  0.3677
 6874SOL    HW132084   0.895   2.630   5.771  1.1103  0.0956 -0.9845
 6874SOL    HW232085   0.886   2.744   5.884  0.7814 -0.1819  0.7259
 6875SOL     OW32086   4.177   4.316   5.568 -0.4201 -0.1409 -0.2092
 6875SOL    HW132087   4.196   4.409   5.582 -1.0432 -0.1529  0.7062
 6875SOL    HW232088   4.215   4.299   5.482  2.5271 -0.1608  1.0851
 6876SOL     OW32089   2.712   4.351   0.945  0.6580  0.9816 -0.0136
 6876SOL    HW132090   2.673   4.438   0.953 -0.4684  0.5703 -1.0266
 6876SOL    HW232091   2.657   4.303   1.006  3.3221  0.1988  1.7869
 6877SOL     OW32092   0.077   0.850   4.292  0.0634  0.0256  0.2838
 6877SOL    HW132093   0.076   0.904   4.213  2.3509 -0.9155 -0.3905
 6877SOL    HW232094   4.705   0.858   4.313 -0.1912  0.8072 -1.1163
 6878SOL     OW32095   2.206   2.617   9.808 -0.1302 -0.1990 -0.3338
 6878SOL    HW132096   2.143   2.586   9.873 -1.9682  0.1120 -1.9562
 6878SOL    HW232097   2.290   2.578   9.832  0.3223  0.5683 -0.6706
 6879SOL     OW32098   1.699   3.788  14.919 -0.1654  0.5623  0.0361
 6879SOL    HW132099   1.718   3.706  14.874 -0.5697  0.6697 -0.3261
 6879SOL    HW232100   1.773   3.847  14.904  0.2402  0.5734  2.0797
 6880SOL     OW32101   2.965   1.210  12.504  0.1204  0.2069  0.5958
 6880SOL    HW132102   2.980   1.129  12.552 -1.8833  0.0995  1.0195
 6880SOL    HW232103   2.927   1.261  12.575 -0.2719 -2.1092  2.0543
 6881SOL     OW32104   4.112   1.338   0.860 -0.1143 -0.2219  0.4519
 6881SOL    HW132105   4.108   1.383   0.945  1.1793  0.6903  0.0275
 6881SOL    HW232106   4.125   1.247   0.884  2.0037  0.2733  1.2325
 6882SOL     OW32107   3.494   1.553   8.819  0.2804  0.1799 -0.4157
 6882SOL    HW132108   3.463   1.591   8.736  2.9068  2.2522 -0.4286
 6882SOL    HW232109   3.449   1.617   8.874 -1.5086 -1.4397 -0.0095
 6883SOL     OW32110   1.148   0.583  17.601 -0.3939 -0.1002 -0.0493
 6883SOL    HW132111   1.132   0.662  17.549  0.8966  0.2414  0.0902
 6883SOL    HW232112   1.121   0.513  17.541  2.0931 -1.1284  0.0151
 6884SOL     OW32113   2.519   2.564  14.405  0.1365 -0.3449  0.0299
 6884SOL    HW132114   2.496   2.649  14.443 -1.7454 -0.2149 -1.3935
 6884SOL    HW232115   2.427   2.539  14.393 -0.0870  1.1489 -1.2585
 6885SOL     OW32116   2.125   0.927   9.396  0.5718  0.0534 -0.1099
 6885SOL    HW132117   2.162   0.910   9.309 -1.5444  0.7047 -1.1512
 6885SOL    HW232118   2.130   1.022   9.406 -2.1637  0.2116 -0.3205
 6886SOL     OW32119   4.699   4.352  15.671 -0.3083  0.0067  0.0604
 6886SOL    HW132120   4.623   4.401  15.638 -0.0949  0.8067  0.7647
 6886SOL    HW232121   4.654   4.289  15.729  0.6809  0.4086  1.2550
 6887SOL     OW32122   4.175   1.626  12.469 -0.0629 -0.0990 -0.7005
 6887SOL    HW132123   4.113   1.579  12.413 -0.4641 -1.4655  0.9064
 6887SOL    HW232124   4.252   1.569  12.469  1.7504  2.3383 -0.2388
 6888SOL     OW32125   0.962   1.069   8.087  0.6980 -0.0566  0.3887
 6888SOL    HW132126   0.920   1.136   8.033  0.3139 -0.2582  0.4363
 6888SOL    HW232127   0.978   1.117   8.168 -0.8600 -1.9949  1.8464
 6889SOL     OW32128   2.318   2.290   7.220  0.3626  0.8374  0.1219
 6889SOL    HW132129   2.248   2.355   7.228 -2.0304 -1.6244 -1.0360
 6889SOL    HW232130   2.393   2.349   7.223  1.1094 -0.0162 -1.8398
 6890SOL     OW32131   0.478   4.170   6.991  0.4663  0.2202 -0.6233
 6890SOL    HW132132   0.471   4.089   6.941 -3.3633  0.4127 -0.3446
 6890SOL    HW232133   0.573   4.181   6.992  0.3946  1.0126 -2.8210
 6891SOL     OW32134   1.564   4.061  12.004 -0.0753  0.1713  0.1360
 6891SOL    HW132135   1.594   4.152  12.001 -0.8000  0.3557 -1.2154
 6891SOL    HW232136   1.503   4.065  12.078  1.0341  0.0539  1.0716
 6892SOL     OW32137   3.297   1.127  14.363  0.3090  0.4064  0.4728
 6892SOL    HW132138   3.287   1.220  14.386  0.3699  0.6526 -0.4762
 6892SOL    HW232139   3.386   1.107  14.390  0.2433  0.5363  0.7868
 6893SOL     OW32140   3.396   2.765   7.720  0.2825  0.6684  0.1651
 6893SOL    HW132141   3.483   2.745   7.756 -0.6351  0.2059  2.1586
 6893SOL    HW232142   3.338   2.696   7.752  1.2518  0.3133  1.1569
 6894SOL     OW32143   0.811   3.476  10.587 -0.3781  0.2305  0.2205
 6894SOL    HW132144   0.862   3.480  10.668 -0.1295 -0.3056  0.0901
 6894SOL    HW232145   0.775   3.389  10.603  0.5923  0.0210  1.2276
 6895SOL     OW32146   2.132   1.116  16.469 -0.0823 -0.2885 -0.1198
 6895SOL    HW132147   2.150   1.031  16.428  0.3782 -0.1376 -0.2336
 6895SOL    HW232148   2.172   1.175  16.405  0.9200 -0.1501  0.6218
 6896SOL     OW32149   3.365   2.672   7.470  0.1309  0.0003  0.1166
 6896SOL    HW132150   3.384   2.727   7.546  0.5923 -0.1982  0.1449
 6896SOL    HW232151   3.446   2.623   7.455  1.0783  1.1526  1.4102
 6897SOL     OW32152   4.590   2.402   5.607 -0.2183 -0.1126  0.3378
 6897SOL    HW132153   4.531   2.381   5.679  1.2182  0.8629  1.8098
 6897SOL    HW232154   4.578   2.496   5.595 -1.5467 -0.1608  1.2623
 6898SOL     OW32155   0.130   1.835   3.993 -0.6923 -0.7086 -0.1606
 6898SOL    HW132156   0.122   1.863   3.902  0.7302  1.9709  0.5144
 6898SOL    HW232157   0.041   1.802   4.004 -1.4514  0.6468 -2.1670
 6899SOL     OW32158   1.036   2.672   3.006  0.2431 -0.2556 -0.3307
 6899SOL    HW132159   1.103   2.645   3.069 -0.3186  0.1861  0.4574
 6899SOL    HW232160   1.053   2.766   2.998 -4.5876  0.4721 -1.4870
 6900SOL     OW32161   4.481   3.530  13.211 -0.1099 -0.0595  0.7815
 6900SOL    HW132162   4.441   3.602  13.260  0.2281  0.1175  0.7932
 6900SOL    HW232163   4.572   3.558  13.219 -0.4508  1.3847 -0.6117
 6901SOL     OW32164   3.347   3.766  16.532  0.4155  0.4173  0.2436
 6901SOL    HW132165   3.419   3.723  16.580  1.3345 -0.1603 -1.6313
 6901SOL    HW232166   3.382   3.793  16.448 -1.9215  1.6717 -0.3203
 6902SOL     OW32167   2.172   4.639  12.304 -0.1264 -0.4157 -0.1174
 6902SOL    HW132168   2.147   4.648  12.212 -0.9438  2.6992  0.4102
 6902SOL    HW232169   2.265   4.660  12.295 -0.4289 -0.5831 -3.6740
 6903SOL     OW32170   3.771   1.338   6.002 -0.5081  0.0520 -0.0665
 6903SOL    HW132171   3.820   1.364   6.080 -0.5945 -2.6008  0.8555
 6903SOL    HW232172   3.833   1.352   5.930  0.7858 -0.2831  0.9873
 6904SOL     OW32173   2.659   4.691  15.093  0.5294 -0.0809  0.0483
 6904SOL    HW132174   2.731   4.657  15.040 -0.0591 -0.7449 -0.3155
 6904SOL    HW232175   2.586   4.663  15.039 -1.2147  0.9891  1.8411
 6905SOL     OW32176   0.505   2.813   2.511  0.1233 -0.2297 -0.1821
 6905SOL    HW132177   0.456   2.733   2.533  0.1257 -0.5108 -1.2076
 6905SOL    HW232178   0.570   2.816   2.581 -1.9400  1.0971  1.6713
 6906SOL     OW32179   0.440   4.645   3.061 -0.3151  0.6611 -0.2802
 6906SOL    HW132180   0.384   4.679   2.991 -0.4224 -2.6180 -1.8213
 6906SOL    HW232181   0.505   4.601   3.007  0.1795 -0.5032  1.2678
 6907SOL     OW32182   2.053   2.651  17.665 -0.2451  0.3179  0.5088
 6907SOL    HW132183   1.970   2.606  17.655  0.4955 -1.2524  1.4024
 6907SOL    HW232184   2.119   2.590  17.630 -1.4775 -1.0015  0.4767
 6908SOL     OW32185   1.703   0.662   6.778 -0.0372 -0.0268  0.2751
 6908SOL    HW132186   1.634   0.663   6.845  0.8772 -0.2348  1.2193
 6908SOL    HW232187   1.779   0.700   6.823  0.0758  1.5043 -1.2154
 6909SOL     OW32188   4.694   2.838  16.851  0.7007  0.1076 -0.5454
 6909SOL    HW132189   4.646   2.897  16.909 -1.3298 -1.7507 -0.3574
 6909SOL    HW232190   0.063   2.872  16.853  0.2437  1.3114 -0.5658
 6910SOL     OW32191   2.617   0.646   9.838  0.1488  0.5373 -0.4671
 6910SOL    HW132192   2.659   0.661   9.753  2.3634 -1.4208  0.2771
 6910SOL    HW232193   2.531   0.618   9.806 -0.5048 -0.2005  1.9530
 6911SOL     OW32194   4.340   4.708   1.775  0.5352 -0.3117 -0.0829
 6911SOL    HW132195   4.408   0.044   1.738 -2.3910  2.9460 -0.3906
 6911SOL    HW232196   4.387   4.677   1.853 -0.3606 -1.1577  0.1169
 6912SOL     OW32197   4.701   3.529   6.792  0.2129  0.4608  0.0702
 6912SOL    HW132198   0.032   3.564   6.719 -0.9298 -0.3661 -1.1375
 6912SOL    HW232199   4.691   3.594   6.862 -1.8932  0.2456 -0.0255
 6913SOL     OW32200   1.844   2.799   3.213  0.1005 -0.4117 -0.0995
 6913SOL    HW132201   1.846   2.721   3.268  4.2216  0.6001  1.1657
 6913SOL    HW232202   1.915   2.849   3.253  0.0390 -0.6149  0.2598
 6914SOL     OW32203   3.649   2.478   6.651 -0.2700 -0.5000 -0.2356
 6914SOL    HW132204   3.599   2.560   6.649 -1.6344 -1.3561 -1.6463
 6914SOL    HW232205   3.579   2.421   6.683 -2.2380  1.6671 -0.6776
 6915SOL     OW32206   1.284   3.818  10.273  0.3779 -0.2738  1.0759
 6915SOL    HW132207   1.257   3.726  10.263  2.0786 -0.7193  0.7288
 6915SOL    HW232208   1.242   3.836  10.357 -0.2595 -2.9709  1.3414
 6916SOL     OW32209   3.944   0.444   9.174 -0.1656  0.1047 -0.0973
 6916SOL    HW132210   3.937   0.484   9.261 -2.4421 -0.7725  0.1451
 6916SOL    HW232211   3.904   0.360   9.195  1.5696  0.0730  3.0710
 6917SOL     OW32212   4.478   1.230  10.038  0.0496 -0.3202  0.0746
 6917SOL    HW132213   4.400   1.202   9.989  0.9724  0.4187 -1.8359
 6917SOL    HW232214   4.528   1.277   9.971 -0.1074  0.5459  0.5734
 6918SOL     OW32215   4.146   3.880   9.763 -0.2281 -0.1575  0.7069
 6918SOL    HW132216   4.123   3.967   9.729  0.9711 -0.0446  0.1969
 6918SOL    HW232217   4.163   3.887   9.857  2.0445  1.5589  0.1572
 6919SOL     OW32218   1.605   2.232  17.552  0.4001  0.3836 -0.3290
 6919SOL    HW132219   1.521   2.274  17.534 -0.1479 -1.1958 -1.4459
 6919SOL    HW232220   1.623   2.181  17.473  1.4117  0.2050  0.0207
 6920SOL     OW32221   4.017   2.701   3.733  0.1749 -0.1269 -0.7083
 6920SOL    HW132222   4.017   2.735   3.644  0.4465  0.1621 -0.5991
 6920SOL    HW232223   4.014   2.607   3.717 -0.5193 -0.0967 -0.7510
 6921SOL     OW32224   1.143   2.779  10.085  0.0551  0.3489  0.4739
 6921SOL    HW132225   1.084   2.783  10.009  0.4015 -0.1138  0.1775
 6921SOL    HW232226   1.118   2.859  10.131 -1.1964  0.9384 -1.2113
 6922SOL     OW32227   1.793   4.508   1.930 -0.1561 -0.1464 -0.3020
 6922SOL    HW132228   1.745   4.591   1.923  1.5364  0.9044  0.4218
 6922SOL    HW232229   1.804   4.506   2.025 -0.5949 -2.7926 -0.3234
 6923SOL     OW32230   3.274   3.342   0.941  0.0188 -0.1394  0.5361
 6923SOL    HW132231   3.268   3.437   0.941  0.5276 -0.1122 -0.9550
 6923SOL    HW232232   3.229   3.320   0.860 -0.9470  2.0526  0.4800
 6924SOL     OW32233   1.877   1.451   2.519 -0.6786 -0.6751  0.6418
 6924SOL    HW132234   1.866   1.453   2.424 -0.3587  4.1238  0.6759
 6924SOL    HW232235   1.783   1.448   2.538 -1.4126 -1.1348 -3.1577
 6925SOL     OW32236   1.234   1.974   9.047  0.6727 -0.3803  0.1731
 6925SOL    HW132237   1.285   2.037   9.099 -0.3601  0.6005  0.0005
 6925SOL    HW232238   1.252   1.896   9.099  0.1603  0.6919  1.9663
 6926SOL     OW32239   4.666   0.980  10.587 -0.2811  1.2052  0.5577
 6926SOL    HW132240   4.695   0.911  10.527 -0.3249  0.6309  1.1974
 6926SOL    HW232241   4.585   0.936  10.615  0.5557 -0.6544  0.1053
 6927SOL     OW32242   3.053   3.201  13.157 -0.2965  0.2715 -0.1237
 6927SOL    HW132243   2.980   3.257  13.130 -0.7920  0.2340  1.1388
 6927SOL    HW232244   3.120   3.264  13.182  0.3795  0.3773 -2.1693
 6928SOL     OW32245   2.232   3.195  11.619  0.4733 -0.1264  0.2802
 6928SOL    HW132246   2.203   3.164  11.705 -0.6036  0.3758  0.1044
 6928SOL    HW232247   2.157   3.175  11.563 -0.5558  5.6283 -0.4964
 6929SOL     OW32248   1.098   1.149   3.945  0.4953  0.5267  0.5647
 6929SOL    HW132249   1.124   1.079   4.005  0.0547  1.6621  2.0805
 6929SOL    HW232250   1.027   1.195   3.990  0.5610  1.6035 -0.4294
 6930SOL     OW32251   4.432   2.741   6.098 -0.2998  0.6910  0.3226
 6930SOL    HW132252   4.465   2.821   6.057  1.9956 -0.6706 -0.5044
 6930SOL    HW232253   4.452   2.668   6.039  1.8492  0.8720  0.8258
 6931SOL     OW32254   0.885   2.036  17.211 -0.7300  0.3619 -0.8223
 6931SOL    HW132255   0.816   2.059  17.149  0.0793  0.8846 -1.5197
 6931SOL    HW232256   0.934   1.967  17.168 -3.3651 -2.7348  1.1172
 6932SOL     OW32257   4.490   1.124   3.579 -0.3551 -0.6930  0.3379
 6932SOL    HW132258   4.515   1.041   3.620  2.7547 -0.2737 -0.7684
 6932SOL    HW232259   4.394   1.123   3.577 -0.4371  0.8965  4.9392
 6933SOL     OW32260   3.645   1.144   4.962  0.6340  0.5920  0.6077
 6933SOL    HW132261   3.642   1.172   5.053 -4.3738 -0.1456  0.6618
 6933SOL    HW232262   3.557   1.108   4.949  0.6529  1.1651 -1.0739
 6934SOL     OW32263   2.186   3.596  11.819 -0.1820  0.1288  0.4356
 6934SOL    HW132264   2.180   3.657  11.893 -0.7442  0.4797  0.0944
 6934SOL    HW232265   2.247   3.528  11.847  0.4431  0.2367 -0.6479
 6935SOL     OW32266   0.783   0.020   1.069 -0.6663  0.3567 -0.1393
 6935SOL    HW132267   0.745   0.100   1.032 -2.4500 -0.2916  0.2532
 6935SOL    HW232268   0.862   0.059   1.106 -0.8584 -0.6140  1.2695
 6936SOL     OW32269   0.853   1.069   7.268 -0.6017  0.0757 -0.1531
 6936SOL    HW132270   0.772   1.018   7.275 -1.3557  1.0786 -1.4269
 6936SOL    HW232271   0.825   1.135   7.331  0.1526  1.0296 -0.7987
 6937SOL     OW32272   1.057   1.772  15.508 -0.3724  0.1883  0.4045
 6937SOL    HW132273   1.107   1.768  15.427 -3.4497  0.2183 -1.4816
 6937SOL    HW232274   1.043   1.677  15.506 -0.1599  0.1422  0.9778
 6938SOL     OW32275   4.401   3.108   2.865 -0.3493  0.5248 -0.4416
 6938SOL    HW132276   4.403   3.022   2.823 -0.6144 -0.2542  1.1433
 6938SOL    HW232277   4.381   3.151   2.782 -1.0740  0.3058 -0.3776
 6939SOL     OW32278   1.462   0.813  14.452  0.1325 -0.3888 -0.2502
 6939SOL    HW132279   1.506   0.741  14.406 -0.0165 -1.0476  0.6420
 6939SOL    HW232280   1.522   0.821  14.526  0.3423 -1.9280 -0.2539
 6940SOL     OW32281   4.067   2.774   4.678 -0.2763  0.4362 -0.4888
 6940SOL    HW132282   4.065   2.679   4.663  0.6712  0.4762 -0.8686
 6940SOL    HW232283   4.155   2.772   4.715 -1.3782  0.6237  2.1500
 6941SOL     OW32284   0.657   1.490   4.402  0.3761 -0.0035 -0.3056
 6941SOL    HW132285   0.568   1.480   4.370 -0.0180  0.2922  0.6952
 6941SOL    HW232286   0.687   1.564   4.348  0.6247  0.1646  0.0642
 6942SOL     OW32287   3.130   2.306   7.543 -0.3464  0.4592  0.0660
 6942SOL    HW132288   3.040   2.277   7.529 -0.6521  0.7731  1.3907
 6942SOL    HW232289   3.125   2.400   7.527  0.5667  0.3838 -0.6937
 6943SOL     OW32290   0.447   3.732   6.133  0.6318 -0.0559 -0.4818
 6943SOL    HW132291   0.539   3.705   6.134  0.0234 -2.1792 -1.6200
 6943SOL    HW232292   0.422   3.727   6.225 -2.1889  0.4875 -1.2282
 6944SOL     OW32293   0.706   3.912   9.192  0.4584 -0.0619  0.4684
 6944SOL    HW132294   0.736   4.001   9.177 -1.8257  0.5547 -0.4674
 6944SOL    HW232295   0.789   3.886   9.232  0.8792 -0.0186 -0.3775
 6945SOL     OW32296   4.301   1.870   7.761 -0.4617  0.0726  0.0011
 6945SOL    HW132297   4.364   1.848   7.693  0.3291  1.2879  0.3352
 6945SOL    HW232298   4.255   1.788   7.778  0.0062 -0.1149  0.3467
 6946SOL     OW32299   0.364   0.597   3.606 -0.0762 -0.1124  0.3552
 6946SOL    HW132300   0.359   0.678   3.555 -0.7490  0.5582  1.4967
 6946SOL    HW232301   0.389   0.530   3.542 -0.1445  0.1535  0.0544
 6947SOL     OW32302   3.190   0.098   3.873 -0.3114  0.0444 -0.5803
 6947SOL    HW132303   3.271   0.148   3.863 -0.7703  0.5587 -1.7723
 6947SOL    HW232304   3.216   0.011   3.842  2.9408  1.0987 -0.8443
 6948SOL     OW32305   1.155   2.294   9.273 -0.2320  0.2003 -0.2781
 6948SOL    HW132306   1.211   2.342   9.334  0.0275  0.5186 -0.7676
 6948SOL    HW232307   1.221   2.256   9.214  0.3918  0.2375  0.3954
 6949SOL     OW32308   3.771   2.089   4.854  0.2415  0.0915 -0.2917
 6949SOL    HW132309   3.755   2.044   4.771  0.8160 -1.3614  0.3649
 6949SOL    HW232310   3.791   2.020   4.918 -0.8060 -0.6048 -0.7058
 6950SOL     OW32311   1.573   4.250   1.220 -0.2670  0.2198  0.5864
 6950SOL    HW132312   1.495   4.286   1.177  0.8391 -0.8368 -2.3420
 6950SOL    HW232313   1.538   4.178   1.271 -1.2941  0.7569  0.6484
 6951SOL     OW32314   0.641   2.072   5.732  0.7011 -0.3479 -0.7174
 6951SOL    HW132315   0.641   2.167   5.722 -1.2928 -0.5613 -2.5596
 6951SOL    HW232316   0.680   2.051   5.817 -3.6064  1.4978  1.7087
 6952SOL     OW32317   0.886   1.590   0.775 -0.4111 -0.1920  0.1287
 6952SOL    HW132318   0.930   1.674   0.785  0.3832 -0.7586  1.3797
 6952SOL    HW232319   0.826   1.602   0.701  0.8993  2.5661 -0.4560
 6953SOL     OW32320   0.943   0.691   0.062 -0.2184 -0.1155  0.4726
 6953SOL    HW132321   1.018   0.645   0.025 -1.1550 -0.8017 -0.5768
 6953SOL    HW232322   0.975   0.746   0.134  1.0592 -0.3469  0.0793
 6954SOL     OW32323   4.630   3.128  16.265  0.2916  0.5367 -0.3977
 6954SOL    HW132324   4.556   3.069  16.253 -0.0759  0.6218  1.4495
 6954SOL    HW232325   4.697   3.062  16.282  1.1521  0.9973 -2.0661
 6955SOL     OW32326   0.016   3.234   6.476 -1.3313 -0.0828 -0.3229
 6955SOL    HW132327   4.699   3.239   6.564 -1.1988 -1.6162 -0.1788
 6955SOL    HW232328   4.684   3.306   6.442  2.1532  1.7330 -1.8290
 6956SOL     OW32329   2.710   2.587   9.132 -0.1602 -0.5492  0.8566
 6956SOL    HW132330   2.652   2.514   9.154 -1.5109 -0.7789 -3.6754
 6956SOL    HW232331   2.683   2.642   9.206 -1.4921 -0.4646  0.3129
 6957SOL     OW32332   0.363   0.588   0.748  0.0085 -0.3766  0.6972
 6957SOL    HW132333   0.301   0.524   0.712 -2.0685  1.4381  1.0467
 6957SOL    HW232334   0.445   0.550   0.716  0.2722 -0.7472  1.8155
 6958SOL     OW32335   1.425   4.110   2.177  0.4424 -0.2344 -0.1028
 6958SOL    HW132336   1.416   4.016   2.187 -1.6956  0.0508  0.6696
 6958SOL    HW232337   1.468   4.132   2.260 -0.1629 -0.4134  0.2551
 6959SOL     OW32338   3.538   2.394   8.487  0.2034  0.6645  0.5531
 6959SOL    HW132339   3.625   2.377   8.523 -0.4531 -2.1924  0.7995
 6959SOL    HW232340   3.512   2.302   8.484  0.1688  0.6945 -0.2903
 6960SOL     OW32341   1.296   2.830   7.481 -0.1287 -0.1942  0.5403
 6960SOL    HW132342   1.264   2.763   7.420  1.1930  1.0205 -1.5061
 6960SOL    HW232343   1.322   2.784   7.560  3.1118  1.3854  0.4322
 6961SOL     OW32344   2.063   0.693   5.239  0.3949  0.6268 -0.6436
 6961SOL    HW132345   2.052   0.673   5.146  1.3175 -0.9198 -0.4230
 6961SOL    HW232346   2.048   0.612   5.288  0.6532 -0.1887 -1.9245
 6962SOL     OW32347   1.408   1.929   7.243  0.0911  0.8124  0.0943
 6962SOL    HW132348   1.502   1.934   7.259  0.8365 -1.2998 -3.6219
 6962SOL    HW232349   1.367   2.014   7.255 -0.7516  0.5034 -0.5180
 6963SOL     OW32350   1.076   2.897  10.538 -0.5640 -0.2480 -0.4553
 6963SOL    HW132351   1.063   2.916  10.631  1.0927 -2.4418  0.2186
 6963SOL    HW232352   0.988   2.900  10.501 -0.0562  1.3327 -1.5384
 6964SOL     OW32353   0.123   4.351  15.427  0.5376  0.5214 -0.1950
 6964SOL    HW132354   0.097   4.383  15.513  2.1907 -1.3751  1.0277
 6964SOL    HW232355   0.119   4.431  15.376 -3.4516  0.4047 -0.0345
 6965SOL     OW32356   3.795   0.548   6.847  0.4115  0.4160 -0.1419
 6965SOL    HW132357   3.861   0.592   6.899  0.7662 -0.7328  0.3760
 6965SOL    HW232358   3.775   0.610   6.777  0.6412  3.3020  2.3601
 6966SOL     OW32359   1.303   1.715   5.929  1.0185  1.0077 -0.2596
 6966SOL    HW132360   1.324   1.728   5.837  1.3696  1.7179 -0.0846
 6966SOL    HW232361   1.381   1.761   5.959  0.1319  1.4863  1.3223
 6967SOL     OW32362   4.353   0.038  14.161  0.2007  0.0527 -0.9494
 6967SOL    HW132363   4.352   0.034  14.256 -1.6979  1.4544 -0.8883
 6967SOL    HW232364   4.445   0.020  14.142  0.5046  1.4036 -0.7604
 6968SOL     OW32365   1.429   0.459   8.850  0.6166  0.0337  0.4471
 6968SOL    HW132366   1.389   0.377   8.881  0.6674 -0.4150 -0.6828
 6968SOL    HW232367   1.512   0.432   8.809 -1.7141 -0.9118 -3.6613
 6969SOL     OW32368   4.535   1.000  15.391 -0.4214  0.5924  0.2691
 6969SOL    HW132369   4.608   1.055  15.361 -1.0750  0.5779 -1.3684
 6969SOL    HW232370   4.588   0.923  15.412 -1.3054 -0.2217 -0.4714
 6970SOL     OW32371   1.779   0.280   1.777  0.3461  0.4700  0.0436
 6970SOL    HW132372   1.781   0.298   1.683 -1.5321  0.7142  0.0628
 6970SOL    HW232373   1.725   0.202   1.771 -0.7230  1.2830 -0.8002
 6971SOL     OW32374   0.244   0.270  17.683  0.0133  0.2585  0.2643
 6971SOL    HW132375   0.325   0.304   0.035  0.5471 -0.7991  0.0653
 6971SOL    HW232376   0.196   0.348  17.654  0.4424 -0.4348 -2.2996
 6972SOL     OW32377   1.745   1.450  13.051  0.3137 -0.5497  0.3713
 6972SOL    HW132378   1.724   1.410  13.136  0.7611 -0.6424  0.4382
 6972SOL    HW232379   1.771   1.374  13.000  1.0835  0.0129 -0.0771
 6973SOL     OW32380   1.023   3.006   4.864 -0.0805 -0.6071 -0.3266
 6973SOL    HW132381   0.929   2.987   4.855  0.1158 -2.0311  0.7972
 6973SOL    HW232382   1.046   2.971   4.778  1.5225  2.6417 -1.2275
 6974SOL     OW32383   4.164   0.841   8.943 -0.0245 -0.5040  0.3818
 6974SOL    HW132384   4.151   0.774   9.011  0.6216 -1.4405 -0.4150
 6974SOL    HW232385   4.259   0.837   8.931 -0.1112 -0.3564 -0.3109
 6975SOL     OW32386   0.550   2.342   5.744  0.3091  0.4118  0.5336
 6975SOL    HW132387   0.575   2.367   5.832  0.3692  3.4174 -0.3459
 6975SOL    HW232388   0.497   2.413   5.709  1.2765  0.5367 -0.6951
 6976SOL     OW32389   4.641   0.740  17.166 -0.8252 -0.2794  0.0423
 6976SOL    HW132390   4.643   0.759  17.260  0.3597  0.4361 -0.1336
 6976SOL    HW232391   0.008   0.770  17.143 -1.7512  1.3117 -1.4266
 6977SOL     OW32392   1.794   0.434   4.145  0.0495 -0.1696 -0.0731
 6977SOL    HW132393   1.716   0.398   4.187 -1.9977  2.0479 -2.0032
 6977SOL    HW232394   1.823   0.352   4.107  1.8145 -0.5337  2.0582
 6978SOL     OW32395   3.432   3.604  12.254 -0.7825 -0.2337 -0.1231
 6978SOL    HW132396   3.510   3.659  12.263 -1.3439  0.2536  1.7286
 6978SOL    HW232397   3.416   3.594  12.160 -1.0164  0.4368 -0.1566
 6979SOL     OW32398   2.312   1.050   8.732 -0.0469  0.1801 -0.3919
 6979SOL    HW132399   2.333   1.141   8.750  0.7052 -0.5491  2.4147
 6979SOL    HW232400   2.343   1.033   8.643  1.3250 -0.3526  0.1807
 6980SOL     OW32401   1.666   0.576   8.185 -0.4931  0.1715  0.0781
 6980SOL    HW132402   1.624   0.494   8.210 -2.5809  0.9621 -0.7734
 6980SOL    HW232403   1.595   0.640   8.191  0.3068  1.1030 -0.3659
 6981SOL     OW32404   0.391   1.086  12.583  0.3239 -0.3024  0.0429
 6981SOL    HW132405   0.437   1.007  12.612  1.4793  1.2664  2.5080
 6981SOL    HW232406   0.344   1.113  12.661 -1.3633 -0.4155 -0.9300
 6982SOL     OW32407   2.498   3.238   5.076  0.2536  0.2559 -0.4053
 6982SOL    HW132408   2.573   3.218   5.021 -0.2331  0.4629 -1.1339
 6982SOL    HW232409   2.428   3.227   5.013 -0.9308  0.1670  0.9192
 6983SOL     OW32410   4.375   2.302   6.912  0.2307  0.1180  0.2836
 6983SOL    HW132411   4.434   2.236   6.949 -0.8811  0.7252  3.1817
 6983SOL    HW232412   4.322   2.257   6.846  0.5472  0.4002 -0.1628
 6984SOL     OW32413   4.273   2.467   8.064 -0.6362  0.5971  0.1721
 6984SOL    HW132414   4.197   2.412   8.082  0.8048 -2.4258 -2.9592
 6984SOL    HW232415   4.272   2.521   8.143 -0.0316  0.2245  0.4364
 6985SOL     OW32416   2.348   4.058   2.015  0.3636 -0.4526  0.2714
 6985SOL    HW132417   2.442   4.055   2.002  0.2035  0.8234 -1.0429
 6985SOL    HW232418   2.334   3.972   1.975  1.0462  0.1050 -1.1457
 6986SOL     OW32419   4.684   1.264   6.592  0.3206 -0.3859  0.2894
 6986SOL    HW132420   0.033   1.204   6.565  0.5809  0.3297 -0.6353
 6986SOL    HW232421   0.006   1.349   6.600 -2.1462  1.0804 -2.3756
 6987SOL     OW32422   0.510   3.320  15.519  0.6039  0.2843  0.2210
 6987SOL    HW132423   0.527   3.387  15.453  0.3179  0.2850  0.1473
 6987SOL    HW232424   0.571   3.331  15.592  0.0835 -0.9670  0.8386
 6988SOL     OW32425   0.170   1.624   6.306  0.3046  0.3924  0.5296
 6988SOL    HW132426   0.155   1.674   6.225  2.1131 -0.0939 -0.1129
 6988SOL    HW232427   0.186   1.543   6.258  0.7031 -0.1989  1.6826
 6989SOL     OW32428   0.823   3.112  13.589  0.1583 -0.0723 -0.3940
 6989SOL    HW132429   0.916   3.131  13.580 -0.1799  1.3201 -0.9369
 6989SOL    HW232430   0.819   3.018  13.606  3.4428 -0.1694 -0.1824
 6990SOL     OW32431   3.895   3.265   9.365 -0.4059  0.0662  0.0093
 6990SOL    HW132432   3.808   3.300   9.384 -0.3491 -0.0477  0.4756
 6990SOL    HW232433   3.919   3.211   9.440  1.7878 -1.8142 -2.0398
 6991SOL     OW32434   2.042   1.543   6.318 -0.2784  0.2107 -0.1508
 6991SOL    HW132435   2.039   1.508   6.229 -0.0752 -1.9399  0.6749
 6991SOL    HW232436   1.995   1.626   6.322 -0.0104  0.3173  1.0198
 6992SOL     OW32437   0.841   4.214   5.318  0.0592  0.2310  0.1307
 6992SOL    HW132438   0.815   4.290   5.265  3.7990  0.6483 -1.1384
 6992SOL    HW232439   0.864   4.263   5.397 -1.1017 -1.1246  1.2995
 6993SOL     OW32440   1.469   3.092   2.612  0.2420  0.6197 -0.0846
 6993SOL    HW132441   1.497   3.068   2.524  2.3907  3.9993 -0.3254
 6993SOL    HW232442   1.422   3.173   2.592  3.2003  1.9608 -1.6100
 6994SOL     OW32443   4.395   2.641   5.402 -0.3704  0.3502  0.1138
 6994SOL    HW132444   4.419   2.567   5.347 -0.5542  1.3329 -1.3008
 6994SOL    HW232445   4.300   2.642   5.413 -0.6826 -1.7945 -2.5209
 6995SOL     OW32446   1.176   0.461   6.958 -0.5871 -0.3135  0.0409
 6995SOL    HW132447   1.223   0.390   6.913  1.2649  0.2694  1.0620
 6995SOL    HW232448   1.152   0.414   7.038  1.7306  1.6754  1.9185
 6996SOL     OW32449   2.489   0.716   1.405 -0.2501  0.4463  0.3158
 6996SOL    HW132450   2.398   0.702   1.381  0.4952 -0.3708 -2.0133
 6996SOL    HW232451   2.490   0.705   1.501  0.3462  1.7559  0.4593
 6997SOL     OW32452   0.762   2.509   1.866  0.3194  0.2639 -0.0427
 6997SOL    HW132453   0.715   2.587   1.834  0.2914  0.1379 -0.3155
 6997SOL    HW232454   0.803   2.551   1.941  0.0740 -0.4937  0.5059
 6998SOL     OW32455   3.969   0.033   4.017 -0.1853  0.2683  0.6112
 6998SOL    HW132456   4.011   0.026   4.103  2.3253  1.3708 -0.5328
 6998SOL    HW232457   3.897   0.089   4.046  0.7110  3.1235 -2.6824
 6999SOL     OW32458   0.140   0.800   0.172  0.1925 -0.5089  0.9271
 6999SOL    HW132459   0.214   0.854   0.146 -0.0379 -1.0644 -0.8568
 6999SOL    HW232460   0.176   0.734   0.232  1.3566 -1.6295 -1.0035
 7000SOL     OW32461   0.529   1.798   8.666  0.0765  0.3718  0.1674
 7000SOL    HW132462   0.534   1.709   8.700  1.1407 -0.4902 -2.2135
 7000SOL    HW232463   0.453   1.836   8.709 -0.9294  0.3691 -1.5988
 7001SOL     OW32464   0.167   0.313   4.486 -0.3037 -0.6669 -0.1434
 7001SOL    HW132465   0.097   0.371   4.455  0.1013  1.1782  2.4364
 7001SOL    HW232466   0.128   0.230   4.460  3.4187 -3.0102  1.7607
 7002SOL     OW32467   2.080   4.345   2.413  0.4752 -0.4638  0.1132
 7002SOL    HW132468   2.063   4.251   2.411 -2.8635  0.1573 -1.3441
 7002SOL    HW232469   2.112   4.356   2.323  2.1277 -0.3967  0.7248
 7003SOL     OW32470   1.701   4.401   6.188  0.3044 -0.5396 -0.0270
 7003SOL    HW132471   1.707   4.473   6.251 -0.8287 -0.3716 -0.1063
 7003SOL    HW232472   1.671   4.327   6.240 -3.7315  1.5393  0.6442
 7004SOL     OW32473   2.266   0.196  17.680 -0.0818  0.0560 -0.2336
 7004SOL    HW132474   2.298   0.284   0.013  1.2755 -0.4413 -0.1641
 7004SOL    HW232475   2.345   0.144   0.012 -0.1028  0.5688  1.3419
 7005SOL     OW32476   3.589   0.435   8.925 -0.3311 -0.1400  0.3964
 7005SOL    HW132477   3.541   0.431   8.842 -0.0656 -0.4496  0.2568
 7005SOL    HW232478   3.679   0.435   8.893 -1.4162 -0.5700 -2.6475
 7006SOL     OW32479   0.174   0.219  11.812 -0.3889 -0.6086 -0.0966
 7006SOL    HW132480   0.216   0.236  11.896 -1.2169  2.2872 -0.2740
 7006SOL    HW232481   0.237   0.163  11.766 -1.2681 -1.3623 -0.3984
 7007SOL     OW32482   4.026   2.224  11.658 -0.5254 -0.2765  0.1991
 7007SOL    HW132483   3.995   2.141  11.622 -0.0051 -0.3352 -0.1127
 7007SOL    HW232484   4.071   2.257  11.580 -1.1996  1.0612  0.3756
 7008SOL     OW32485   0.956   2.362   4.037  0.1871  0.0491 -0.6726
 7008SOL    HW132486   0.863   2.380   4.030  0.1381  0.3672  0.7568
 7008SOL    HW232487   0.957   2.268   4.058  1.1988  0.1165 -0.4162
 7009SOL     OW32488   3.611   1.186  12.543 -0.0803 -0.0305  0.4253
 7009SOL    HW132489   3.607   1.270  12.588 -1.5841 -0.2771  0.7437
 7009SOL    HW232490   3.641   1.132  12.617  0.0067  0.7866  0.9856
 7010SOL     OW32491   1.546   3.868   3.686  0.2497 -0.2041  0.0586
 7010SOL    HW132492   1.631   3.826   3.672  0.8824  0.0301  3.3061
 7010SOL    HW232493   1.539   3.910   3.601  0.8600  0.1446  0.1794
 7011SOL     OW32494   3.730   3.027   5.995  0.0178  0.7821 -0.2798
 7011SOL    HW132495   3.765   3.115   5.984  1.3487  0.2350 -0.3481
 7011SOL    HW232496   3.722   2.995   5.905  1.1270  1.5302 -0.6473
 7012SOL     OW32497   3.989   2.828   1.881  0.4680  0.1031 -0.1776
 7012SOL    HW132498   3.894   2.833   1.864  0.4007  2.1063  0.8441
 7012SOL    HW232499   4.026   2.857   1.797  1.8274  0.8698  0.6955
 7013SOL     OW32500   3.183   2.427   8.032  0.1738 -0.8244  0.3761
 7013SOL    HW132501   3.163   2.346   7.985 -2.9022  0.3854 -0.3777
 7013SOL    HW232502   3.278   2.428   8.046  0.0664 -0.5667  1.0982
 7014SOL     OW32503   3.357   3.819   3.243 -0.0482 -0.2898 -0.1146
 7014SOL    HW132504   3.344   3.852   3.332  0.0085  0.0254 -0.2221
 7014SOL    HW232505   3.439   3.859   3.215  0.7700 -1.8711  0.0191
 7015SOL     OW32506   3.935   0.444  10.954  0.7718 -0.1989 -0.3728
 7015SOL    HW132507   4.019   0.412  10.922  0.8950 -1.0728  0.8098
 7015SOL    HW232508   3.953   0.519  11.011  1.6491 -0.1649 -0.6991
 7016SOL     OW32509   1.042   3.329   8.176 -0.4487  0.4805  0.1715
 7016SOL    HW132510   1.133   3.312   8.151 -0.2544  0.5247  0.8455
 7016SOL    HW232511   1.047   3.312   8.270  0.4178 -2.5488 -0.4048
 7017SOL     OW32512   2.762   3.392   7.525  0.7402 -0.1387 -0.2013
 7017SOL    HW132513   2.770   3.455   7.453  1.1502  1.5027  1.2874
 7017SOL    HW232514   2.815   3.319   7.492 -0.0471  0.2898 -2.4203
 7018SOL     OW32515   3.069   4.112  12.456 -0.0805 -0.6117 -0.6718
 7018SOL    HW132516   2.994   4.055  12.442 -0.0828 -0.6660 -0.4307
 7018SOL    HW232517   3.129   4.059  12.509  0.2999 -0.1858 -0.6786
 7019SOL     OW32518   4.358   4.629   9.186 -0.4087  0.2458  0.3457
 7019SOL    HW132519   4.286   4.683   9.218  2.1023  3.0397  1.2710
 7019SOL    HW232520   4.390   4.683   9.113 -0.6035  3.0640  2.3827
 7020SOL     OW32521   3.336   1.728   1.012  0.0298  0.0960 -0.1447
 7020SOL    HW132522   3.317   1.777   0.932 -2.9431 -0.2010  0.4105
 7020SOL    HW232523   3.292   1.646   0.990 -0.2457  0.4052 -0.7685
 7021SOL     OW32524   3.929   2.636   3.262 -0.6988  0.1525  0.5258
 7021SOL    HW132525   3.986   2.667   3.333 -0.2197 -1.0702  0.6653
 7021SOL    HW232526   3.965   2.678   3.185  2.1733 -0.9293  1.3014
 7022SOL     OW32527   2.278   1.023   3.796 -0.4307  0.6603 -0.2584
 7022SOL    HW132528   2.311   0.938   3.826  0.1595  1.1394  0.4390
 7022SOL    HW232529   2.184   1.011   3.809 -0.3934  2.0498  1.2333
 7023SOL     OW32530   4.536   1.683  15.320 -0.0952 -0.1009  0.1818
 7023SOL    HW132531   4.441   1.677  15.313 -0.1125  1.2498 -0.7806
 7023SOL    HW232532   4.542   1.674  15.415  0.5552  0.7137  0.2123
 7024SOL     OW32533   3.032   0.723  15.766  0.4717  0.1019  0.1277
 7024SOL    HW132534   2.995   0.810  15.751  1.9483  0.8386  0.7815
 7024SOL    HW232535   3.092   0.734  15.840 -0.1997 -0.0677  0.6994
 7025SOL     OW32536   3.526   4.607   6.455  0.0088 -1.0597  0.0266
 7025SOL    HW132537   3.531   4.525   6.505 -0.3132 -0.7665  0.5456
 7025SOL    HW232538   3.549   4.670   6.523 -0.4524  0.4442 -1.2253
 7026SOL     OW32539   3.861   0.473   8.522 -0.1442 -0.0642 -0.0683
 7026SOL    HW132540   3.929   0.540   8.514 -0.4481  0.0821 -1.4760
 7026SOL    HW232541   3.801   0.517   8.581  0.4720 -1.0519  1.3051
 7027SOL     OW32542   0.877   3.322   6.304 -0.1229 -0.0734  0.1431
 7027SOL    HW132543   0.935   3.369   6.244  0.7632 -0.1013  0.9801
 7027SOL    HW232544   0.823   3.395   6.335  4.3194  3.2936 -0.1547
 7028SOL     OW32545   2.430   1.585   0.132 -0.0993 -0.6478  0.3303
 7028SOL    HW132546   2.366   1.542   0.190 -1.6932 -0.3168 -1.1712
 7028SOL    HW232547   2.509   1.579   0.185 -0.4295 -0.4189  0.8420
 7029SOL     OW32548   4.688   3.421  11.972 -0.3732 -0.0104  0.0865
 7029SOL    HW132549   0.030   3.355  11.999 -1.4761 -0.9450  0.3842
 7029SOL    HW232550   0.013   3.505  11.971 -1.8830  0.7784 -2.1586
 7030SOL     OW32551   1.261   1.917   1.748  0.0172  0.2116  0.2560
 7030SOL    HW132552   1.308   1.870   1.817 -0.9600  0.3404  1.0054
 7030SOL    HW232553   1.219   1.986   1.800  0.7653 -0.3579  1.6169
 7031SOL     OW32554   2.849   2.012   2.645 -0.4980 -0.2862 -0.6880
 7031SOL    HW132555   2.834   2.093   2.694 -1.4050 -1.9431  1.8003
 7031SOL    HW232556   2.781   1.957   2.682 -0.0232 -2.1341 -2.5744
 7032SOL     OW32557   3.205   1.155   9.977  0.0594  0.3110  0.3785
 7032SOL    HW132558   3.273   1.218   9.955  0.0705 -0.3667 -1.5262
 7032SOL    HW232559   3.255   1.074   9.993  1.5103  0.7437 -2.0513
 7033SOL     OW32560   1.813   4.036   4.452  0.5513 -0.3108  0.4421
 7033SOL    HW132561   1.797   3.997   4.537  2.0408  0.9468  1.3200
 7033SOL    HW232562   1.727   4.041   4.412  0.2418 -0.9484  1.0370
 7034SOL     OW32563   3.435   4.672   5.902  0.2224  0.4222 -0.0925
 7034SOL    HW132564   3.347   4.682   5.867  0.6917  1.4791 -0.9523
 7034SOL    HW232565   3.486   4.672   5.821  0.3345 -1.8266 -0.0184
 7035SOL     OW32566   3.847   1.946   1.549  0.3768  0.4168  0.1083
 7035SOL    HW132567   3.858   2.012   1.481 -0.6603  1.3322  0.8344
 7035SOL    HW232568   3.752   1.935   1.554  0.4021 -1.4414 -3.0328
 7036SOL     OW32569   0.778   1.802   6.466 -0.1825  0.3646  0.2687
 7036SOL    HW132570   0.791   1.738   6.395  1.1899 -0.2233  1.0530
 7036SOL    HW232571   0.705   1.779   6.523 -0.1228  0.4228  0.3687
 7037SOL     OW32572   0.558   2.172  16.478  0.0744  0.2923 -0.2677
 7037SOL    HW132573   0.592   2.247  16.429 -0.2791 -0.1063 -1.1169
 7037SOL    HW232574   0.466   2.190  16.497  0.5013  0.3529  1.7644
 7038SOL     OW32575   2.221   1.252   6.645  0.3611 -0.6149  0.0131
 7038SOL    HW132576   2.225   1.337   6.601 -0.5041 -0.8085 -0.4355
 7038SOL    HW232577   2.166   1.268   6.721  0.8566 -0.0129  0.2462
 7039SOL     OW32578   3.454   0.824   3.332 -0.0540  0.0984  0.3184
 7039SOL    HW132579   3.487   0.734   3.333  0.8882  0.4258 -0.9975
 7039SOL    HW232580   3.416   0.846   3.247  2.6382  2.1813 -0.3609
 7040SOL     OW32581   0.834   1.390   5.522  0.2361 -0.4988 -0.0351
 7040SOL    HW132582   0.750   1.434   5.511  1.1435  1.3788  0.4915
 7040SOL    HW232583   0.886   1.467   5.545 -1.4274  0.4064  0.6949
 7041SOL     OW32584   2.998   1.502  10.614  0.0575 -0.2488 -0.0430
 7041SOL    HW132585   2.932   1.569  10.592  0.0140 -0.5446 -0.7971
 7041SOL    HW232586   3.015   1.516  10.707  1.7873  0.5166 -0.4734
 7042SOL     OW32587   1.391   2.868  11.776 -0.1456  0.0508  0.6708
 7042SOL    HW132588   1.420   2.859  11.867  2.7050 -2.6892 -0.4925
 7042SOL    HW232589   1.468   2.819  11.747  0.9335  1.3344  1.3514
 7043SOL     OW32590   0.797   0.760  14.646 -0.2144 -0.1531  0.7187
 7043SOL    HW132591   0.752   0.681  14.616 -1.9632  1.6481 -1.4267
 7043SOL    HW232592   0.851   0.710  14.707 -2.3025 -1.6461  1.3766
 7044SOL     OW32593   2.408   4.575  12.572  0.4528 -0.0892 -0.3230
 7044SOL    HW132594   2.489   4.617  12.545  0.6715 -0.9790 -1.0485
 7044SOL    HW232595   2.345   4.642  12.545 -0.3973 -1.2685 -1.2834
 7045SOL     OW32596   1.889   2.834  12.119 -0.0676 -0.0971  0.5173
 7045SOL    HW132597   1.840   2.778  12.180 -0.0817 -2.6650 -1.8058
 7045SOL    HW232598   1.974   2.832  12.162  1.8113 -1.7018 -3.2302
 7046SOL     OW32599   4.688   4.388   4.336  1.0316 -0.1478  0.3941
 7046SOL    HW132600   4.687   4.295   4.355 -0.0420 -0.3735 -0.7800
 7046SOL    HW232601   4.595   4.407   4.328  1.5029  1.6637 -1.0537
 7047SOL     OW32602   0.489   0.627   3.923  0.2407  0.7906 -0.2280
 7047SOL    HW132603   0.405   0.643   3.964 -0.5601 -0.2526 -1.4789
 7047SOL    HW232604   0.456   0.600   3.837 -0.0775  1.9937 -0.4894
 7048SOL     OW32605   0.852   0.480   6.532  0.3437  0.0788  0.0560
 7048SOL    HW132606   0.916   0.548   6.511  0.0128  0.5328  0.5233
 7048SOL    HW232607   0.800   0.528   6.596  0.1043  0.5659 -0.5056
 7049SOL     OW32608   4.527   0.901   7.361  0.1435  0.5222 -0.4305
 7049SOL    HW132609   4.485   0.815   7.366  0.2483  0.4256 -1.2606
 7049SOL    HW232610   4.454   0.957   7.387  0.4610 -0.2294  2.0769
 7050SOL     OW32611   3.238   4.070   2.530  0.5876 -0.1111  0.4785
 7050SOL    HW132612   3.313   4.039   2.480 -1.4092 -0.1138 -2.5750
 7050SOL    HW232613   3.175   4.004   2.498 -1.1623  0.2521  3.2047
 7051SOL     OW32614   1.986   2.971   3.030  0.5145 -0.2988  0.2589
 7051SOL    HW132615   2.032   3.005   2.954 -0.6282 -1.0163 -0.7552
 7051SOL    HW232616   2.051   2.999   3.094  0.4241 -0.4635  0.4256
 7052SOL     OW32617   0.141   2.511   6.336 -0.6472  0.4834  0.2845
 7052SOL    HW132618   0.047   2.527   6.331 -0.8941 -1.3445 -0.9797
 7052SOL    HW232619   0.176   2.600   6.340  0.6256  0.0869 -1.9107
 7053SOL     OW32620   3.299   1.530   5.622 -0.0669  0.1286  0.5517
 7053SOL    HW132621   3.291   1.574   5.537 -0.6292 -1.6200 -0.2879
 7053SOL    HW232622   3.370   1.587   5.652 -1.0151  2.1439 -1.0403
 7054SOL     OW32623   2.311   3.200   4.892  0.1136 -0.3566  0.8415
 7054SOL    HW132624   2.349   3.134   4.834 -1.6310 -0.2365 -0.4393
 7054SOL    HW232625   2.219   3.200   4.868  0.2935 -0.8705  0.1687
 7055SOL     OW32626   2.626   3.310   5.796 -0.5438 -0.4359 -0.0256
 7055SOL    HW132627   2.630   3.215   5.804  3.3489 -0.3708 -1.2938
 7055SOL    HW232628   2.622   3.309   5.700 -1.8616 -3.2449  0.0707
 7056SOL     OW32629   0.976   3.353  17.356 -0.5729  0.4122 -0.2516
 7056SOL    HW132630   0.884   3.340  17.335 -0.4986 -0.8943  0.2253
 7056SOL    HW232631   0.959   3.378  17.447 -1.8621 -0.3626 -0.2822
 7057SOL     OW32632   3.510   2.096   0.059  0.2673  0.4234 -0.6396
 7057SOL    HW132633   3.580   2.033   0.075 -1.0986 -0.5526  1.5489
 7057SOL    HW232634   3.508   2.084  17.650 -0.4421  0.3259 -0.6178
 7058SOL     OW32635   2.833   4.563   5.274 -0.5344  0.0935 -0.3641
 7058SOL    HW132636   2.740   4.570   5.294 -0.1919 -0.6748  1.5027
 7058SOL    HW232637   2.828   4.488   5.214 -1.5027 -0.6753  0.6677
 7059SOL     OW32638   2.775   1.576   8.349  0.2396 -0.1436  0.1410
 7059SOL    HW132639   2.846   1.515   8.371 -0.7132 -0.9431  1.0107
 7059SOL    HW232640   2.729   1.568   8.433 -3.0353  3.0766 -1.3588
 7060SOL     OW32641   0.948   1.325   8.618  0.6874 -0.0507  0.4957
 7060SOL    HW132642   0.914   1.358   8.535  0.2575  0.2861  0.7995
 7060SOL    HW232643   0.866   1.316   8.666  0.3435  1.7510  0.2573
 7061SOL     OW32644   2.514   1.433   6.609  0.0010  0.5262 -0.4879
 7061SOL    HW132645   2.594   1.393   6.644  0.0681  1.8635  0.8802
 7061SOL    HW232646   2.475   1.475   6.686  0.1413 -1.1602  0.5060
 7062SOL     OW32647   0.604   3.655  10.316 -0.4599 -0.1693  0.8648
 7062SOL    HW132648   0.569   3.736  10.278  2.8001 -0.1119 -2.0623
 7062SOL    HW232649   0.617   3.680  10.407 -2.3509 -1.6536  1.5346
 7063SOL     OW32650   3.350   1.954  16.230  0.9383  0.0948  0.3894
 7063SOL    HW132651   3.391   1.980  16.312  1.0604  0.2196  0.2897
 7063SOL    HW232652   3.334   2.036  16.182  3.6376  0.2804 -0.1642
 7064SOL     OW32653   0.869   3.662   5.266 -0.6590  0.0411  0.5619
 7064SOL    HW132654   0.923   3.633   5.193 -0.3506 -1.7322  1.5014
 7064SOL    HW232655   0.872   3.755   5.244  2.0524  0.3248  2.2517
 7065SOL     OW32656   2.901   3.432   3.787  0.4233  0.4369 -0.4314
 7065SOL    HW132657   2.958   3.472   3.853  3.8301 -2.8289 -1.3377
 7065SOL    HW232658   2.973   3.398   3.733  0.2734  1.1778 -1.1099
 7066SOL     OW32659   4.578   2.817   3.795  0.1295 -0.2638 -0.3244
 7066SOL    HW132660   4.604   2.908   3.782 -1.2986  0.4585  1.8971
 7066SOL    HW232661   4.533   2.840   3.876 -0.0580 -0.7240 -0.2965
 7067SOL     OW32662   1.527   1.182   2.692  0.4019 -0.2459  0.3824
 7067SOL    HW132663   1.433   1.175   2.677  0.2729 -1.0600  1.5897
 7067SOL    HW232664   1.548   1.217   2.605 -0.6108 -1.2395 -0.2596
 7068SOL     OW32665   4.054   0.139   7.002  0.0691  0.7622 -0.2238
 7068SOL    HW132666   4.002   0.135   7.082 -0.0130 -1.0661 -0.3664
 7068SOL    HW232667   4.062   0.047   6.975 -1.0688  0.6132 -0.0688
 7069SOL     OW32668   3.109   3.134   2.538  0.3533  0.3207  0.1726
 7069SOL    HW132669   3.076   3.169   2.455  1.5365  1.3138  0.1223
 7069SOL    HW232670   3.103   3.208   2.599  0.5702  0.5862 -0.1290
 7070SOL     OW32671   1.636   2.224   8.038  0.3732  0.2928 -0.1902
 7070SOL    HW132672   1.566   2.169   8.075  0.1979  0.4622 -0.2680
 7070SOL    HW232673   1.611   2.301   8.088  1.5702  1.9661 -2.2028
 7071SOL     OW32674   3.597   0.433   3.990 -0.0318 -0.0138  0.2223
 7071SOL    HW132675   3.580   0.515   3.942  1.2144  2.2492  3.6438
 7071SOL    HW232676   3.688   0.451   4.015 -0.5738  1.9185  0.8688
 7072SOL     OW32677   3.275   0.816   3.771  0.1122 -0.3158  0.2476
 7072SOL    HW132678   3.325   0.764   3.710 -1.5852 -0.2270 -1.2301
 7072SOL    HW232679   3.188   0.780   3.755 -0.6277  1.7574 -0.4278
 7073SOL     OW32680   4.237   3.186   1.296 -0.0105 -0.2739  0.1050
 7073SOL    HW132681   4.153   3.155   1.262  0.2665 -0.5457 -0.3284
 7073SOL    HW232682   4.256   3.246   1.224 -1.9722  0.8407  0.5009
 7074SOL     OW32683   0.522   1.949   6.059 -0.0805  0.2214 -0.5607
 7074SOL    HW132684   0.460   2.004   6.108  1.7792 -0.7281  2.8562
 7074SOL    HW232685   0.600   1.955   6.114 -1.3826  2.6031  1.0686
 7075SOL     OW32686   0.218   4.690   0.676  0.1756 -0.1036 -0.2572
 7075SOL    HW132687   0.236   4.698   0.582 -1.8869  1.4696 -0.5122
 7075SOL    HW232688   0.250   0.058   0.694  2.3962 -0.6456 -1.5405
 7076SOL     OW32689   1.841   2.677   3.843 -0.5195 -0.4232 -0.4504
 7076SOL    HW132690   1.820   2.750   3.785 -1.3036  0.7984  1.3607
 7076SOL    HW232691   1.877   2.621   3.775  0.7950  0.8044 -0.7675
 7077SOL     OW32692   4.346   0.238   9.659  0.6987 -0.1822  0.3114
 7077SOL    HW132693   4.306   0.192   9.732 -1.9282  0.6777 -0.5607
 7077SOL    HW232694   4.295   0.319   9.662 -0.4271 -0.9898  2.5344
 7078SOL     OW32695   2.374   3.153   1.923 -0.2065  0.0523  0.5635
 7078SOL    HW132696   2.294   3.130   1.876 -0.8956 -1.2268  2.3507
 7078SOL    HW232697   2.365   3.244   1.951 -0.5619  0.5314 -1.1671
 7079SOL     OW32698   4.394   3.557   1.297  0.5195 -0.2886  0.7574
 7079SOL    HW132699   4.300   3.550   1.311  0.1102  0.3222 -1.8085
 7079SOL    HW232700   4.395   3.617   1.223 -0.6418 -0.2518  0.7771
 7080SOL     OW32701   2.236   3.095   3.953 -0.1111 -0.4382 -0.4704
 7080SOL    HW132702   2.329   3.086   3.975  0.0172  1.4154 -0.2587
 7080SOL    HW232703   2.234   3.182   3.914  0.1200  0.4158  1.4315
 7081SOL     OW32704   0.385   1.865   8.885  0.3053 -0.1918  0.1423
 7081SOL    HW132705   0.320   1.930   8.857 -0.1212 -1.9597 -2.9411
 7081SOL    HW232706   0.331   1.797   8.925  1.4627 -2.0598 -1.4894
 7082SOL     OW32707   2.867   0.218   1.499  0.0031  0.1091  0.0542
 7082SOL    HW132708   2.859   0.310   1.525  1.2088 -0.3005  1.8635
 7082SOL    HW232709   2.778   0.196   1.471 -0.7692  0.0651  2.5685
 7083SOL     OW32710   0.511   2.879   7.521 -0.3182  0.1924  0.0781
 7083SOL    HW132711   0.575   2.896   7.452  1.4513  3.3798  2.5030
 7083SOL    HW232712   0.499   2.786   7.504  1.6671 -0.2372  1.0398
 7084SOL     OW32713   0.228   4.181   7.584 -0.0853 -0.2383  0.1464
 7084SOL    HW132714   0.246   4.089   7.605 -0.9103 -0.0560  1.6368
 7084SOL    HW232715   0.316   4.219   7.589  0.6316 -1.6285 -2.1101
 7085SOL     OW32716   1.274   0.479   0.185  0.1489 -0.0668  0.1031
 7085SOL    HW132717   1.224   0.450   0.261 -0.4510  1.3657  0.2574
 7085SOL    HW232718   1.236   0.563   0.160  1.1629  0.7043  1.1450
 7086SOL     OW32719   3.441   1.617  11.940  0.3748 -0.3122  0.1361
 7086SOL    HW132720   3.450   1.535  11.988 -3.4684 -1.0332 -0.3416
 7086SOL    HW232721   3.357   1.646  11.976 -0.1547 -1.9046  0.1469
 7087SOL     OW32722   2.580   4.598   7.888 -0.1507 -0.3993 -0.3459
 7087SOL    HW132723   2.649   4.577   7.826  1.0584  1.3270  0.4234
 7087SOL    HW232724   2.516   4.636   7.827  0.3479 -2.0580 -1.8809
 7088SOL     OW32725   2.741   2.487  11.560  0.4602  0.2289  0.3947
 7088SOL    HW132726   2.782   2.528  11.483  1.0016 -0.9927  0.0280
 7088SOL    HW232727   2.766   2.551  11.626  0.0320  0.0504  0.7213
 7089SOL     OW32728   1.967   1.844   3.828 -0.0406 -0.2093  0.3773
 7089SOL    HW132729   2.014   1.884   3.755 -0.2205  1.5453  1.2431
 7089SOL    HW232730   1.933   1.921   3.873 -0.7229 -0.1833 -0.1828
 7090SOL     OW32731   0.793   2.199  14.593  0.5367  0.3985 -0.4668
 7090SOL    HW132732   0.823   2.163  14.510  0.1940  0.2173 -0.5109
 7090SOL    HW232733   0.875   2.218  14.639 -0.4925  2.1730  0.6518
 7091SOL     OW32734   2.372   0.129   8.557  0.0827 -0.2817  0.0109
 7091SOL    HW132735   2.458   0.097   8.585  0.4532 -0.2952 -1.1441
 7091SOL    HW232736   2.315   0.061   8.592 -0.2035 -1.3411 -2.5373
 7092SOL     OW32737   0.325   0.923   2.445 -0.0671 -1.0757  0.0369
 7092SOL    HW132738   0.248   0.954   2.396  0.1483 -0.4329  0.1066
 7092SOL    HW232739   0.359   0.850   2.394 -1.4637 -1.2616 -0.6236
 7093SOL     OW32740   1.498   4.491   5.554  0.4987  0.0694 -0.3052
 7093SOL    HW132741   1.593   4.478   5.552  0.4892 -0.2982  1.7399
 7093SOL    HW232742   1.461   4.439   5.625 -2.1022  1.5208 -0.6018
 7094SOL     OW32743   2.915   2.645   0.610 -0.1158 -0.2423 -0.0639
 7094SOL    HW132744   2.860   2.648   0.688  1.4493  1.9336  0.9509
 7094SOL    HW232745   2.892   2.565   0.563  0.5145  0.4325 -1.5343
 7095SOL     OW32746   2.365   4.346  16.429 -0.3678 -0.2385  0.6063
 7095SOL    HW132747   2.365   4.286  16.355  1.2792  1.3173 -0.6895
 7095SOL    HW232748   2.419   4.304  16.496  2.4823  3.1786  0.4735
 7096SOL     OW32749   4.272   2.902   9.794  0.1607 -0.0925  0.1944
 7096SOL    HW132750   4.186   2.941   9.809  0.5441 -0.0928  2.4464
 7096SOL    HW232751   4.305   2.949   9.718 -1.5586  1.1722  0.2129
 7097SOL     OW32752   3.319   1.106   6.675 -0.2706  0.1653  0.1750
 7097SOL    HW132753   3.311   1.070   6.586  1.3521 -0.6277  0.3445
 7097SOL    HW232754   3.371   1.182   6.648  1.9593 -1.8347 -1.1916
 7098SOL     OW32755   3.844   1.934  13.283 -0.0624  0.2723  0.4277
 7098SOL    HW132756   3.904   1.878  13.331 -1.1125 -1.2192 -0.0230
 7098SOL    HW232757   3.907   1.998  13.249  0.6397 -0.7490 -0.1656
 7099SOL     OW32758   2.255   4.056   6.332  0.1667 -0.3980 -0.1653
 7099SOL    HW132759   2.234   4.148   6.347  0.1326 -0.4092 -0.1463
 7099SOL    HW232760   2.312   4.075   6.256 -0.4710  0.7231 -0.3632
 7100SOL     OW32761   1.351   2.555  15.827 -0.3121 -0.6605 -0.2412
 7100SOL    HW132762   1.425   2.585  15.881 -1.4463  1.5986  0.0412
 7100SOL    HW232763   1.377   2.465  15.811 -3.4586 -1.3522 -1.3879
 7101SOL     OW32764   4.171   4.273  11.649  0.4211  0.0153  0.5588
 7101SOL    HW132765   4.156   4.246  11.739 -0.8491  0.9545  0.6229
 7101SOL    HW232766   4.262   4.302  11.652  0.0604  1.6068 -2.9707
 7102SOL     OW32767   3.117   4.583  16.380 -0.0887 -0.1291  0.0492
 7102SOL    HW132768   3.111   4.600  16.474  2.1522  0.6028  0.0518
 7102SOL    HW232769   3.025   4.562  16.361  0.7379 -2.4214 -1.3934
 7103SOL     OW32770   2.140   0.594  12.533  0.0270  0.6152 -0.2680
 7103SOL    HW132771   2.194   0.591  12.611 -4.8071  0.3626  3.0757
 7103SOL    HW232772   2.056   0.551  12.553 -0.6440  2.1226  0.0954
 7104SOL     OW32773   2.785   1.226  12.141  0.2558  0.0568  0.3488
 7104SOL    HW132774   2.730   1.147  12.142 -3.4641  2.6876  2.7277
 7104SOL    HW232775   2.799   1.248  12.049 -0.3668  0.1255  0.2713
 7105SOL     OW32776   3.779   4.328   7.867  0.2998  0.2356  0.4163
 7105SOL    HW132777   3.829   4.396   7.820 -1.0356  0.3758 -0.7844
 7105SOL    HW232778   3.767   4.364   7.955  0.6270  0.7665  0.2455
 7106SOL     OW32779   4.009   0.883   5.327 -0.5939 -0.0616 -0.1783
 7106SOL    HW132780   4.075   0.922   5.268 -0.0610 -1.9249 -0.8096
 7106SOL    HW232781   4.040   0.902   5.415 -3.7653 -1.9352  1.2898
 7107SOL     OW32782   0.874   4.621   7.843  0.2053 -0.8224 -0.4403
 7107SOL    HW132783   0.798   4.620   7.785 -0.8250 -2.0060  0.9113
 7107SOL    HW232784   0.942   4.615   7.777  1.2371  3.6738  0.1874
 7108SOL     OW32785   2.006   2.607  14.738 -0.5462  0.1948 -0.5487
 7108SOL    HW132786   1.984   2.574  14.651 -0.2301 -1.9939  0.2035
 7108SOL    HW232787   2.052   2.687  14.714 -2.9198  1.8388  0.4083
 7109SOL     OW32788   2.149   2.822  14.712 -0.1091  0.0671  0.4474
 7109SOL    HW132789   2.184   2.884  14.776 -1.4495  0.9840  0.2776
 7109SOL    HW232790   2.212   2.832  14.641 -0.4968 -0.9566 -0.0433
 7110SOL     OW32791   1.885   1.901   5.172 -0.3378 -0.3801  0.1528
 7110SOL    HW132792   1.848   1.844   5.105 -0.8507 -0.9534  0.9110
 7110SOL    HW232793   1.925   1.839   5.235  1.5884  1.7369  1.0212
 7111SOL     OW32794   4.385   3.814   8.066  0.2037  0.2642 -0.0486
 7111SOL    HW132795   4.430   3.857   7.993 -0.3403 -1.5337 -1.4238
 7111SOL    HW232796   4.298   3.854   8.056  1.3710  2.9008  0.1051
 7112SOL     OW32797   2.841   1.180  15.821 -0.0288  0.4431  0.6602
 7112SOL    HW132798   2.853   1.168  15.916 -0.7542 -1.8531  0.4405
 7112SOL    HW232799   2.793   1.263  15.817 -1.8084 -0.6291 -0.1349
 7113SOL     OW32800   2.031   3.078   9.568 -0.5676  0.1955 -0.2150
 7113SOL    HW132801   2.106   3.070   9.627 -0.2416  0.9166 -0.5324
 7113SOL    HW232802   2.004   3.169   9.579 -0.2213  0.0684  1.7600
 7114SOL     OW32803   0.137   1.797   9.996  0.1600 -0.5517  0.0309
 7114SOL    HW132804   0.092   1.719   9.965 -0.5115 -0.0802 -0.1822
 7114SOL    HW232805   0.162   1.772  10.085 -0.8339  0.8141  0.6992
 7115SOL     OW32806   2.010   0.016   4.697 -0.3747  0.2128 -0.2378
 7115SOL    HW132807   1.972   4.714   4.613 -0.0673  0.2985 -0.4016
 7115SOL    HW232808   1.991   0.110   4.697  0.3076  0.3561 -0.0485
 7116SOL     OW32809   4.054   1.611  11.480 -0.2650 -0.6836  0.2602
 7116SOL    HW132810   3.967   1.644  11.500  0.0898 -1.2820  2.8247
 7116SOL    HW232811   4.020   1.556  11.410  0.8433  3.8289 -3.7955
 7117SOL     OW32812   1.989   1.053   3.194 -0.0662 -0.0269  0.9310
 7117SOL    HW132813   2.082   1.076   3.189 -0.3915  0.9522 -0.8579
 7117SOL    HW232814   1.976   1.009   3.110  1.5007 -0.8488  1.1324
 7118SOL     OW32815   1.112   2.936   2.986  0.3500  0.7224  0.8341
 7118SOL    HW132816   1.173   2.945   2.912  0.2741 -2.0955  0.3918
 7118SOL    HW232817   1.170   2.967   3.055  0.7040  0.8672  0.4687
 7119SOL     OW32818   2.972   4.527   0.878 -0.1011  0.0154  0.5082
 7119SOL    HW132819   2.923   4.569   0.950  3.4367 -1.0531  3.5309
 7119SOL    HW232820   3.048   4.584   0.892  0.6044 -0.2014 -2.5099
 7120SOL     OW32821   1.102   3.165   9.353 -0.1685 -0.1562  0.4449
 7120SOL    HW132822   1.172   3.103   9.375  1.1192  0.5047 -1.7729
 7120SOL    HW232823   1.093   3.149   9.259  1.6802 -1.1141  0.4356
 7121SOL     OW32824   1.536   4.122   5.154  0.1183  0.3123 -0.2912
 7121SOL    HW132825   1.587   4.148   5.231  0.1542  0.6845 -0.4424
 7121SOL    HW232826   1.586   4.051   5.114  0.5806 -1.1433  2.7941
 7122SOL     OW32827   3.919   2.292   5.131 -0.0814  0.5336 -0.2771
 7122SOL    HW132828   3.840   2.237   5.120 -0.4280  1.0227 -0.2247
 7122SOL    HW232829   3.953   2.260   5.214  1.0823  0.1914 -0.8842
 7123SOL     OW32830   0.350   2.137   6.205 -0.5340  0.3666 -0.2122
 7123SOL    HW132831   0.284   2.127   6.273  0.5258 -1.5039  0.5666
 7123SOL    HW232832   0.320   2.220   6.170  0.8855  0.5408 -1.0370
 7124SOL     OW32833   4.421   3.736   2.430  0.6748 -0.3419  0.2749
 7124SOL    HW132834   4.372   3.733   2.512 -0.3449  1.3732 -0.2716
 7124SOL    HW232835   4.500   3.776   2.465  1.2335 -1.1091 -0.1022
 7125SOL     OW32836   4.599   1.110   7.957  0.3581  0.1413  0.0053
 7125SOL    HW132837   4.591   1.015   7.956 -1.8509  0.3008  1.6810
 7125SOL    HW232838   4.646   1.117   8.040 -0.3017  3.3519  0.0988
 7126SOL     OW32839   2.584   1.434  12.741  0.2836 -0.9228 -0.4820
 7126SOL    HW132840   2.572   1.508  12.681 -0.3708  0.6415  1.5604
 7126SOL    HW232841   2.504   1.426  12.794 -0.3588  1.2071 -1.0881
 7127SOL     OW32842   1.175   1.299   5.715 -0.5566 -0.4274  0.0606
 7127SOL    HW132843   1.179   1.366   5.647  1.2196  0.4346  0.9962
 7127SOL    HW232844   1.234   1.334   5.783  0.2421 -1.1614 -0.2486
 7128SOL     OW32845   0.372   1.963   5.375 -0.1950 -0.9476 -0.5046
 7128SOL    HW132846   0.459   1.972   5.335 -1.0562 -0.3588 -2.2677
 7128SOL    HW232847   0.377   2.021   5.451  0.6341  0.2559 -1.4877
 7129SOL     OW32848   0.617   3.808   4.974 -0.4499 -0.8835 -0.2745
 7129SOL    HW132849   0.601   3.758   5.054  1.1799 -0.1228  0.5191
 7129SOL    HW232850   0.631   3.897   5.008 -2.0281  0.1924 -2.4509
 7130SOL     OW32851   0.887   2.747   7.701  0.2162 -0.2892  0.2922
 7130SOL    HW132852   0.921   2.836   7.704 -0.2554 -0.0462 -1.5185
 7130SOL    HW232853   0.831   2.735   7.778  0.4380  1.0062  0.6535
 7131SOL     OW32854   1.666   3.138   3.397 -0.4129  0.2009  1.0177
 7131SOL    HW132855   1.756   3.155   3.426 -0.2559  1.7019 -0.3365
 7131SOL    HW232856   1.654   3.044   3.411  2.4726 -0.1511  1.1195
 7132SOL     OW32857   1.648   4.658   6.282 -0.6228 -0.3124 -0.7026
 7132SOL    HW132858   1.684   0.025   6.290 -2.0875  0.2679 -0.4725
 7132SOL    HW232859   1.600   4.660   6.365 -0.2396  2.6874 -0.5638
 7133SOL     OW32860   2.920   1.494   9.863 -0.2620  0.3035 -0.3173
 7133SOL    HW132861   2.882   1.471   9.778  1.3160  0.2756 -1.0062
 7133SOL    HW232862   2.990   1.429   9.873  0.3256  0.3741 -4.0812
 7134SOL     OW32863   1.801   1.647   3.143  0.0872 -0.2874  0.0517
 7134SOL    HW132864   1.770   1.707   3.075  0.0283 -0.3394  0.0330
 7134SOL    HW232865   1.776   1.707   3.213 -0.7893  0.1656 -0.6582
 7135SOL     OW32866   4.155   3.115   6.709 -0.5046  0.4088 -0.8374
 7135SOL    HW132867   4.227   3.089   6.765 -2.0196 -0.0146  0.9048
 7135SOL    HW232868   4.196   3.095   6.624  0.0058 -0.5715 -0.3551
 7136SOL     OW32869   4.418   1.905   6.337  0.5621  0.1916  0.5769
 7136SOL    HW132870   4.424   1.908   6.433  1.8672  2.7874  0.4007
 7136SOL    HW232871   4.437   1.811   6.332 -0.6380  0.0794 -1.5709
 7137SOL     OW32872   2.608   3.403   1.383  0.2013  0.7186  0.0882
 7137SOL    HW132873   2.625   3.373   1.293  1.1781  0.2072  0.4412
 7137SOL    HW232874   2.528   3.351   1.393  0.8725 -0.4592 -0.6415
 7138SOL     OW32875   2.634   3.588  13.694  0.1830 -0.2406  0.5315
 7138SOL    HW132876   2.644   3.667  13.642 -2.7074 -0.4377 -0.3098
 7138SOL    HW232877   2.679   3.630  13.767 -0.2061  1.2253 -0.0625
 7139SOL     OW32878   4.468   0.854  11.424 -0.2475 -0.1648 -0.6387
 7139SOL    HW132879   4.460   0.809  11.508  1.8567 -0.4646 -0.5991
 7139SOL    HW232880   4.555   0.822  11.399  0.6073  0.1656  1.9677
 7140SOL     OW32881   1.779   3.293  11.631 -0.7181  0.4046  0.3889
 7140SOL    HW132882   1.851   3.295  11.568 -1.2789  0.9345 -0.2407
 7140SOL    HW232883   1.821   3.312  11.715  0.4808  2.0031 -0.5853
 7141SOL     OW32884   2.623   3.735   5.285 -0.4068 -0.2499 -0.0193
 7141SOL    HW132885   2.627   3.639   5.286 -0.9526 -0.2615  0.8893
 7141SOL    HW232886   2.546   3.748   5.340 -2.1049 -0.1029 -2.4226
 7142SOL     OW32887   0.501   4.095  17.464 -0.0615 -0.3032  0.3138
 7142SOL    HW132888   0.486   4.168  17.523  0.2986  0.7962 -0.9593
 7142SOL    HW232889   0.434   4.031  17.489 -0.6432  1.1462  2.4769
 7143SOL     OW32890   2.437   0.529   7.014  0.6591 -0.4874 -0.2386
 7143SOL    HW132891   2.499   0.556   7.081 -0.2926  0.4396  0.2576
 7143SOL    HW232892   2.376   0.602   7.015  1.4391  0.1597  0.0528
 7144SOL     OW32893   1.084   2.888  15.912 -0.0662  0.0978 -0.5517
 7144SOL    HW132894   1.175   2.914  15.896 -0.5218  2.6856  1.2067
 7144SOL    HW232895   1.096   2.800  15.876 -2.3674 -0.0011 -1.1158
 7145SOL     OW32896   2.043   3.328  13.223 -0.6936 -0.0805 -0.1341
 7145SOL    HW132897   1.987   3.305  13.298 -0.4078 -1.1784 -0.2639
 7145SOL    HW232898   2.115   3.266  13.234 -0.8288 -0.5822 -2.1961
 7146SOL     OW32899   3.988   2.454  10.750  0.1492  0.4593  0.3603
 7146SOL    HW132900   3.921   2.386  10.750  1.0422 -0.4451  3.1433
 7146SOL    HW232901   4.002   2.485  10.840  2.8609  0.2674  0.0283
 7147SOL     OW32902   3.163   4.058   8.942  0.5964 -0.1440  0.3998
 7147SOL    HW132903   3.115   4.034   9.021  2.3490 -0.8191  1.2491
 7147SOL    HW232904   3.152   4.153   8.949 -1.3233 -0.3837  0.6898
 7148SOL     OW32905   4.433   0.003   8.854  0.8251 -0.2149  0.1877
 7148SOL    HW132906   4.350   4.677   8.855  1.0498 -0.6358 -0.3892
 7148SOL    HW232907   4.457   0.016   8.762 -1.5991 -0.9705 -0.5333
 7149SOL     OW32908   4.632   1.237  10.423  0.2935 -0.4620 -0.4894
 7149SOL    HW132909   4.668   1.196  10.345  0.8370  0.1006 -0.5372
 7149SOL    HW232910   4.665   1.176  10.489  0.1229 -1.5379 -1.4094
 7150SOL     OW32911   4.258   4.331   7.390  0.1033 -0.3695 -1.1637
 7150SOL    HW132912   4.305   4.384   7.326 -1.2810  0.5153 -1.4401
 7150SOL    HW232913   4.302   4.354   7.472 -1.0411  2.4553 -1.3451
 7151SOL     OW32914   3.995   2.453  12.339  0.5640 -0.3832  0.1913
 7151SOL    HW132915   3.954   2.409  12.265  1.8764  0.6030 -1.1259
 7151SOL    HW232916   4.034   2.375  12.378 -0.5712 -2.4928 -2.8570
 7152SOL     OW32917   3.733   1.792   8.087  0.3836  0.0314  0.1273
 7152SOL    HW132918   3.812   1.772   8.137  0.6197 -1.5416 -0.8635
 7152SOL    HW232919   3.679   1.812   8.163 -0.4237 -1.9890  0.0904
 7153SOL     OW32920   0.525   1.826  16.855 -0.1222  0.1593  0.3273
 7153SOL    HW132921   0.537   1.810  16.949 -0.6069 -0.3041  0.3121
 7153SOL    HW232922   0.525   1.736  16.821 -0.4881 -0.4699  1.9702
 7154SOL     OW32923   2.013   0.965   3.462 -0.1440  0.3350 -0.0156
 7154SOL    HW132924   1.976   0.963   3.374  1.8481  2.3116 -0.9009
 7154SOL    HW232925   2.044   0.877   3.482  1.9232  0.6001 -2.0585
 7155SOL     OW32926   4.710   3.249   0.192  0.1107  0.2458  0.1362
 7155SOL    HW132927   4.704   3.294   0.108  0.2844 -0.8494 -0.4652
 7155SOL    HW232928   0.082   3.246   0.215  0.5536  0.7087 -1.5998
 7156SOL     OW32929   1.694   3.332   7.614  0.0352  0.1011  0.2131
 7156SOL    HW132930   1.744   3.404   7.652  0.9716  0.4732 -1.7345
 7156SOL    HW232931   1.734   3.257   7.658 -2.0303  0.7311  3.1079
 7157SOL     OW32932   2.160   1.982   5.108  0.1399 -0.4880 -0.2358
 7157SOL    HW132933   2.066   1.981   5.125 -0.0914 -0.1812 -1.5352
 7157SOL    HW232934   2.163   1.974   5.013 -1.0417  2.4873 -0.5336
 7158SOL     OW32935   1.112   3.992   6.247 -0.3630  0.3840 -0.2151
 7158SOL    HW132936   1.054   3.919   6.226  0.7174 -1.1584  2.1598
 7158SOL    HW232937   1.102   4.037   6.163  0.5871  2.6902  0.8996
 7159SOL     OW32938   3.132   2.468  11.421 -0.6230 -0.4954  0.0402
 7159SOL    HW132939   3.142   2.418  11.502 -2.6243 -1.2132 -0.1552
 7159SOL    HW232940   3.226   2.475  11.402 -0.4023 -2.0445  0.5364
 7160SOL     OW32941   0.867   4.300   3.073 -0.0368 -0.5168  0.2860
 7160SOL    HW132942   0.909   4.216   3.090  0.9809 -0.2235 -0.7457
 7160SOL    HW232943   0.847   4.318   3.165 -2.7833  0.4346 -0.4996
 7161SOL     OW32944   0.257   4.395   8.356 -0.4068  0.1683  0.1906
 7161SOL    HW132945   0.179   4.439   8.390 -0.9693 -1.2729  0.7663
 7161SOL    HW232946   0.312   4.386   8.434 -0.2050  0.8462  0.1275
 7162SOL     OW32947   3.910   2.324  12.129  0.5244 -0.1283  0.1963
 7162SOL    HW132948   3.851   2.332  12.053  1.1575  0.1022 -0.2730
 7162SOL    HW232949   3.995   2.300  12.093  0.8938 -1.0223  1.6751
 7163SOL     OW32950   0.978   3.578  14.253 -0.3679  0.0931 -0.4053
 7163SOL    HW132951   1.040   3.651  14.245 -1.2408  1.0451  1.6619
 7163SOL    HW232952   1.003   3.539  14.337 -2.8887 -0.2765  0.1675
 7164SOL     OW32953   2.856   0.255   5.133  0.8888  0.0884  0.3717
 7164SOL    HW132954   2.912   0.304   5.073 -1.9733  1.7753 -0.9032
 7164SOL    HW232955   2.929   0.201   5.165  1.3585  1.2175  1.2110
 7165SOL     OW32956   1.462   1.573   7.506 -0.5315 -0.2244 -0.2674
 7165SOL    HW132957   1.471   1.540   7.416  1.0657 -1.2475  0.2670
 7165SOL    HW232958   1.368   1.592   7.513 -0.4025  0.1222  0.4331
 7166SOL     OW32959   0.006   1.693   0.200  0.6266  0.0539  0.1878
 7166SOL    HW132960   4.700   1.641   0.275  0.3348  0.0919  0.1107
 7166SOL    HW232961   0.009   1.631   0.127 -3.1720 -2.0557  1.8565
 7167SOL     OW32962   4.118   2.681   5.455 -0.5186 -0.5133 -0.6738
 7167SOL    HW132963   4.094   2.744   5.388  0.3031  0.7320  0.1967
 7167SOL    HW232964   4.059   2.607   5.443 -2.3823  1.3921 -3.2088
 7168SOL     OW32965   2.122   2.330   4.964  0.1076  0.3404 -0.0068
 7168SOL    HW132966   2.099   2.342   5.056 -1.3909  1.4637 -0.5197
 7168SOL    HW232967   2.044   2.290   4.926  1.7279 -0.6414 -2.3409
 7169SOL     OW32968   2.347   1.436   5.272 -0.1754  0.4899 -0.6051
 7169SOL    HW132969   2.322   1.518   5.230 -1.0081  1.2389  1.3334
 7169SOL    HW232970   2.288   1.375   5.228  0.2155 -0.5180  0.2670
 7170SOL     OW32971   4.133   1.288  14.734  0.4523 -0.0350  0.2569
 7170SOL    HW132972   4.095   1.376  14.741 -2.4324 -1.0680 -2.4351
 7170SOL    HW232973   4.102   1.238  14.810 -0.4263  1.5812  0.9633
 7171SOL     OW32974   2.419   3.479  16.557 -0.1045 -0.4421 -0.5312
 7171SOL    HW132975   2.338   3.432  16.537 -0.4439  0.8780 -2.1931
 7171SOL    HW232976   2.488   3.424  16.521 -0.2986 -0.7623 -0.4189
 7172SOL     OW32977   1.727   0.581   3.917 -0.1759  0.3137  0.4742
 7172SOL    HW132978   1.754   0.507   3.862  0.0585  1.8334 -1.4796
 7172SOL    HW232979   1.766   0.549   3.998 -0.7208 -0.6498  0.3510
 7173SOL     OW32980   3.032   1.023   8.581 -0.2246 -0.3806 -0.6040
 7173SOL    HW132981   2.951   1.060   8.616  1.1727  1.6078  0.5469
 7173SOL    HW232982   3.064   0.974   8.657 -1.0444  1.5416  0.9636
 7174SOL     OW32983   4.241   3.431   7.188 -0.3168 -0.3172 -0.0778
 7174SOL    HW132984   4.168   3.490   7.209  0.0571 -0.2629  1.0958
 7174SOL    HW232985   4.196   3.360   7.142  0.1937 -1.6678  1.4777
 7175SOL     OW32986   2.710   0.534  10.717 -0.0774  0.0977  0.1050
 7175SOL    HW132987   2.651   0.469  10.756 -0.9612  0.7086 -0.2175
 7175SOL    HW232988   2.785   0.511  10.772 -1.6486 -2.2716  1.2458
 7176SOL     OW32989   2.470   4.151   6.573  0.0118 -0.3257  0.0638
 7176SOL    HW132990   2.473   4.247   6.578  0.5961 -0.4430  1.9611
 7176SOL    HW232991   2.392   4.137   6.518 -0.6148  0.7365  0.6843
 7177SOL     OW32992   0.784   0.269   8.259 -0.0787  0.0205 -0.5020
 7177SOL    HW132993   0.690   0.287   8.260 -0.1081  0.0453 -3.5898
 7177SOL    HW232994   0.819   0.357   8.247  2.0524 -0.9950 -1.6097
 7178SOL     OW32995   2.434   0.532   5.819 -0.5276 -0.4980 -0.1933
 7178SOL    HW132996   2.489   0.455   5.806 -0.5944 -1.0559  2.7403
 7178SOL    HW232997   2.462   0.593   5.751  1.1368 -1.2403 -0.1629
 7179SOL     OW32998   4.253   2.543   8.431  0.3322  0.1942  0.1574
 7179SOL    HW132999   4.282   2.570   8.518 -2.9317 -0.6420  1.5556
 7179SOL    HW233000   4.274   2.620   8.379 -0.2158  1.2899  1.5684
 7180SOL     OW33001   3.071   1.652   8.331  0.2759  0.0624 -0.4108
 7180SOL    HW133002   3.048   1.707   8.256  0.1389  1.5212  0.6962
 7180SOL    HW233003   3.053   1.715   8.402  3.6329 -0.3831  0.8393
 7181SOL     OW33004   3.098   2.643   5.883 -0.2228  0.5591  0.0475
 7181SOL    HW133005   3.137   2.586   5.950  1.7110  2.5089  0.5651
 7181SOL    HW233006   3.009   2.608   5.874 -0.1190  0.2983  0.0248
 7182SOL     OW33007   2.513   4.601   3.872  0.0310 -0.4752 -0.3245
 7182SOL    HW133008   2.517   4.589   3.967  1.5312  0.5641 -0.2371
 7182SOL    HW233009   2.451   4.532   3.851  0.9347 -1.0746 -0.9856
 7183SOL     OW33010   3.696   4.078   3.393  0.2012  0.2544 -0.0894
 7183SOL    HW133011   3.670   4.069   3.301 -0.9230  1.0785  0.1463
 7183SOL    HW233012   3.672   4.168   3.413 -2.5529  0.1038 -2.6238
 7184SOL     OW33013   3.494   0.932   9.217 -0.2711  0.2716  0.7387
 7184SOL    HW133014   3.551   0.994   9.170 -0.1834  0.0410  0.5427
 7184SOL    HW233015   3.551   0.867   9.259  0.2063 -2.0560 -3.5244
 7185SOL     OW33016   2.656   2.545  12.592 -0.1432  0.7439  0.7219
 7185SOL    HW133017   2.626   2.636  12.583  1.5118  1.1756 -0.3881
 7185SOL    HW233018   2.751   2.553  12.597 -0.0824  0.6956 -0.3965
 7186SOL     OW33019   2.486   1.223   2.731  0.0629  0.1472 -0.2226
 7186SOL    HW133020   2.492   1.170   2.652  2.8064 -0.9200  0.6878
 7186SOL    HW233021   2.526   1.305   2.701 -0.6539 -0.0683 -1.7324
 7187SOL     OW33022   3.074   4.295   9.062  0.4202 -0.8609 -0.1328
 7187SOL    HW133023   3.024   4.377   9.059 -0.6362 -1.4989 -0.0830
 7187SOL    HW233024   3.028   4.246   9.130  1.6202 -2.2758 -0.3343
 7188SOL     OW33025   4.429   2.827  14.427  0.5506 -0.5790  0.6036
 7188SOL    HW133026   4.411   2.756  14.366 -0.4318  0.1186  0.0759
 7188SOL    HW233027   4.343   2.860  14.455  0.5364 -0.9968  1.0518
 7189SOL     OW33028   4.642   1.897   3.082  0.0692 -0.0846 -0.5188
 7189SOL    HW133029   4.711   1.928   3.140  0.2100  0.6905 -1.1007
 7189SOL    HW233030   4.683   1.836   3.020  0.1580 -0.1563 -0.3904
 7190SOL     OW33031   3.960   2.892  10.845 -0.4331  0.0530 -0.6193
 7190SOL    HW133032   4.008   2.838  10.908 -0.5303 -0.5359 -1.0497
 7190SOL    HW233033   3.950   2.832  10.771 -1.2941  0.6224 -0.9624
 7191SOL     OW33034   0.769   3.932  15.652 -0.6425  0.1850 -0.8041
 7191SOL    HW133035   0.854   3.974  15.662 -0.1310 -0.6486 -1.6141
 7191SOL    HW233036   0.713   4.004  15.621  0.0858 -0.2541 -3.1182
 7192SOL     OW33037   4.339   1.746   4.880 -0.5508  0.1733 -0.0636
 7192SOL    HW133038   4.392   1.792   4.944 -0.0626 -1.5301  0.7353
 7192SOL    HW233039   4.369   1.656   4.875  1.1509  0.7432  0.0133
 7193SOL     OW33040   1.979   1.354  13.262  0.0986  0.1146  0.2024
 7193SOL    HW133041   2.001   1.423  13.201  0.2014  0.0524  0.1692
 7193SOL    HW233042   1.889   1.379  13.284  0.5123  0.6718  1.2941
 7194SOL     OW33043   4.188   4.528   5.095  0.3824 -0.1441 -0.6006
 7194SOL    HW133044   4.139   4.535   5.013 -1.2501  0.1933  0.3857
 7194SOL    HW233045   4.184   4.621   5.120 -5.3772 -0.7246  0.7302
 7195SOL     OW33046   3.697   3.722  11.404 -0.0568 -0.0936 -0.3382
 7195SOL    HW133047   3.642   3.644  11.412  0.0800  0.0352  1.7932
 7195SOL    HW233048   3.707   3.744  11.496 -0.0601  1.5749 -0.7383
 7196SOL     OW33049   2.911   0.357  11.295 -0.0250  0.1488 -0.8815
 7196SOL    HW133050   2.913   0.450  11.271 -1.1346  0.1994 -0.7821
 7196SOL    HW233051   2.861   0.373  11.376  0.5383 -0.8269 -0.3473
 7197SOL     OW33052   1.962   4.573   3.545  0.2179 -0.9298 -0.7831
 7197SOL    HW133053   1.950   4.597   3.453  2.3930  0.1587 -0.7805
 7197SOL    HW233054   1.891   4.508   3.546 -2.1359  1.6900  0.2395
 7198SOL     OW33055   0.372   0.839  16.242  0.3187  0.1244  0.3899
 7198SOL    HW133056   0.443   0.882  16.194  0.6695 -1.3541 -0.4047
 7198SOL    HW233057   0.423   0.801  16.314 -2.3636 -0.6664  1.8807
 7199SOL     OW33058   2.207   0.869   1.278 -0.4460 -0.1162  0.4803
 7199SOL    HW133059   2.238   0.780   1.265  0.3549  0.3377 -0.7302
 7199SOL    HW233060   2.255   0.916   1.210 -1.0668  2.0089  1.4894
 7200SOL     OW33061   2.834   0.772   8.810 -0.2721  0.5791 -0.2074
 7200SOL    HW133062   2.896   0.843   8.824 -0.2708  0.1053  2.2843
 7200SOL    HW233063   2.891   0.697   8.829  0.6861  1.1550 -0.8306
 7201SOL     OW33064   2.032   3.687   2.470  1.0910  0.6193 -0.2192
 7201SOL    HW133065   2.009   3.757   2.532  1.5952 -0.4331  1.1581
 7201SOL    HW233066   1.984   3.614   2.511 -0.4541  0.7284 -1.8583
 7202SOL     OW33067   1.611   3.357  16.808  0.0857  0.2130  0.0738
 7202SOL    HW133068   1.704   3.378  16.807  0.1704 -0.1399  0.5306
 7202SOL    HW233069   1.615   3.270  16.768  0.1725 -0.2379  1.0879
 7203SOL     OW33070   1.607   1.144   2.946  0.0275  0.2503 -0.1812
 7203SOL    HW133071   1.545   1.141   2.873 -0.5254  1.4618  0.2436
 7203SOL    HW233072   1.568   1.208   3.005  1.5823 -0.5235  1.6831
 7204SOL     OW33073   1.234   2.807   1.960 -0.1557 -0.2683 -0.2228
 7204SOL    HW133074   1.149   2.792   1.918 -0.1964 -0.3241 -0.1223
 7204SOL    HW233075   1.220   2.899   1.986  0.3867 -1.4665  4.3310
 7205SOL     OW33076   4.627   0.007  14.156  0.6169  0.5998 -0.0644
 7205SOL    HW133077   4.645   0.040  14.068 -2.8665  2.6335 -0.0382
 7205SOL    HW233078   4.692   0.056  14.205  1.4766  1.0028 -1.5937
 7206SOL     OW33079   0.827   1.453   1.011 -0.0082  0.1026  0.1308
 7206SOL    HW133080   0.913   1.418   1.033  0.0074 -0.2336 -0.4729
 7206SOL    HW233081   0.845   1.496   0.927  0.8599 -0.0771  0.2182
 7207SOL     OW33082   3.122   4.119   8.073  0.8201 -0.5485  0.1161
 7207SOL    HW133083   3.179   4.049   8.041  1.1915 -0.6790  1.0522
 7207SOL    HW233084   3.165   4.144   8.155 -0.3282 -1.7757  1.0945
 7208SOL     OW33085   3.871   3.310   6.511 -0.1325 -0.0138 -0.1340
 7208SOL    HW133086   3.866   3.235   6.452  0.1836  0.9212 -1.3613
 7208SOL    HW233087   3.942   3.362   6.473 -0.6386  0.3807 -0.5314
 7209SOL     OW33088   3.160   0.567   8.153  0.4638 -0.1634  0.4753
 7209SOL    HW133089   3.243   0.566   8.201  1.6622 -3.4268 -1.6415
 7209SOL    HW233090   3.128   0.653   8.181 -1.2912 -0.1662 -1.5490
 7210SOL     OW33091   2.711   3.922   4.694  0.1127  0.1375  0.2860
 7210SOL    HW133092   2.676   3.989   4.635 -0.5088 -1.2970 -0.9544
 7210SOL    HW233093   2.717   3.977   4.773  0.2808 -0.3948  0.6448
 7211SOL     OW33094   3.748   2.635   4.645 -0.0693  0.2864 -0.0654
 7211SOL    HW133095   3.801   2.648   4.723  2.2946 -0.7782 -1.4972
 7211SOL    HW233096   3.775   2.552   4.607  0.5243  0.3359  0.2479
 7212SOL     OW33097   0.586   3.012  15.884 -0.1884 -0.3503 -0.6570
 7212SOL    HW133098   0.680   3.022  15.899 -0.7490  0.8373  2.1542
 7212SOL    HW233099   0.557   3.094  15.845 -1.5068 -0.6014 -0.2270
 7213SOL     OW33100   0.874   3.805  10.190 -0.2840 -0.1576  0.0394
 7213SOL    HW133101   0.891   3.714  10.214  2.7130  0.0184 -1.4572
 7213SOL    HW233102   0.782   3.804  10.163  0.7721 -1.5230 -3.4870
 7214SOL     OW33103   0.091   2.247   2.930  0.8211  0.6121  0.4204
 7214SOL    HW133104   0.177   2.238   2.891 -0.7936 -0.7064 -2.8104
 7214SOL    HW233105   0.102   2.306   3.004  0.8077  3.6160 -1.9677
 7215SOL     OW33106   2.189   0.940   7.892  0.1076  0.7249 -0.2251
 7215SOL    HW133107   2.122   0.993   7.935  1.1127  1.8544 -0.0670
 7215SOL    HW233108   2.192   0.862   7.948  0.0710  0.6963 -0.2631
 7216SOL     OW33109   4.522   1.395  10.611  0.1321 -0.1830  0.3068
 7216SOL    HW133110   4.573   1.360  10.537  0.8956  0.3134  0.6007
 7216SOL    HW233111   4.550   1.337  10.681  1.5668 -0.5707 -0.5848
 7217SOL     OW33112   2.504   2.141   4.370  0.1194  0.3335  0.0567
 7217SOL    HW133113   2.426   2.172   4.417 -0.2831 -0.7138  0.0651
 7217SOL    HW233114   2.576   2.151   4.432  1.9378 -3.0097 -1.5089
 7218SOL     OW33115   0.114   3.224   5.752 -0.0164  0.0638  0.5796
 7218SOL    HW133116   0.049   3.293   5.759 -1.1064 -0.8697 -0.3984
 7218SOL    HW233117   0.157   3.236   5.667 -1.0795 -1.4370 -0.1703
 7219SOL     OW33118   2.915   3.711  11.308  0.4596 -0.2349  0.8222
 7219SOL    HW133119   2.828   3.703  11.269  1.0840 -0.1129 -0.6160
 7219SOL    HW233120   2.895   3.780  11.370  1.1879  1.6813 -1.0627
 7220SOL     OW33121   2.457   1.727   3.146  0.4065  0.6543 -0.0911
 7220SOL    HW133122   2.462   1.671   3.068  2.0056  2.0233 -0.9670
 7220SOL    HW233123   2.460   1.663   3.216 -1.8470 -0.0682 -0.6418
 7221SOL     OW33124   1.623   1.145  14.719  0.3061  0.3865 -0.3951
 7221SOL    HW133125   1.577   1.141  14.803 -0.0134  2.5501 -0.4703
 7221SOL    HW233126   1.554   1.189  14.669  0.7880  1.3674 -0.1982
 7222SOL     OW33127   2.294   3.460   4.881  0.2684  0.5252 -0.4735
 7222SOL    HW133128   2.223   3.453   4.817 -0.3139  1.7947  0.0366
 7222SOL    HW233129   2.316   3.367   4.880 -1.9790 -0.0200  0.5900
 7223SOL     OW33130   3.750   1.966   7.471 -0.2319 -0.0156  0.6405
 7223SOL    HW133131   3.662   1.943   7.501 -0.7741 -0.8737 -1.6297
 7223SOL    HW233132   3.798   1.883   7.475 -0.6334 -0.2868 -0.1440
 7224SOL     OW33133   0.221   4.471  12.750  0.0899  0.7051 -0.1587
 7224SOL    HW133134   0.215   4.547  12.807  2.6114 -0.5245  1.7627
 7224SOL    HW233135   0.130   4.444  12.755  0.5346 -0.4811  1.7410
 7225SOL     OW33136   3.655   2.598   2.490  0.1314  0.7877  0.7513
 7225SOL    HW133137   3.596   2.525   2.471 -0.4743  1.3085  0.6252
 7225SOL    HW233138   3.732   2.552   2.524  0.8377  0.3872 -1.3853
 7226SOL     OW33139   4.119   3.087  10.775 -0.0842 -0.1971  0.3466
 7226SOL    HW133140   4.103   3.169  10.822 -0.9095 -0.3315  0.2973
 7226SOL    HW233141   4.047   3.034  10.808 -0.1536  1.4321  2.7795
 7227SOL     OW33142   2.274   1.188   1.702 -0.0890  0.2433  0.4070
 7227SOL    HW133143   2.307   1.132   1.632  1.2919  0.4371  0.9097
 7227SOL    HW233144   2.344   1.170   1.764 -1.1100 -1.8551  0.9601
 7228SOL     OW33145   2.041   2.807   1.681 -0.5626 -0.1764 -0.3709
 7228SOL    HW133146   2.068   2.834   1.769  2.4418  1.9663 -1.9408
 7228SOL    HW233147   2.018   2.884   1.630  1.0559 -1.0970 -2.4992
 7229SOL     OW33148   2.686   0.773   0.925  0.3394 -0.1752 -0.3846
 7229SOL    HW133149   2.718   0.852   0.882 -0.3325  2.0902  3.2869
 7229SOL    HW233150   2.700   0.804   1.014  3.0165  0.9083 -1.1969
 7230SOL     OW33151   2.234   2.404   6.940  0.6583  0.2877  0.5120
 7230SOL    HW133152   2.144   2.434   6.927  0.3088 -1.8378 -1.9109
 7230SOL    HW233153   2.225   2.311   6.917 -1.2528  0.1825  1.7305
 7231SOL     OW33154   2.225   1.061   9.747 -0.1300 -0.0180  0.0849
 7231SOL    HW133155   2.310   1.019   9.760 -1.8478 -3.1141  1.3017
 7231SOL    HW233156   2.214   1.108   9.830 -2.2857 -0.5901  0.1188
 7232SOL     OW33157   0.146   0.512   1.921  0.0161  0.1033  0.1540
 7232SOL    HW133158   0.117   0.490   1.832 -1.2047  0.1225  0.5449
 7232SOL    HW233159   0.230   0.467   1.925  0.2220  0.4515 -0.2818
 7233SOL     OW33160   1.876   4.081  14.524  0.3453  0.0763 -0.1998
 7233SOL    HW133161   1.819   4.099  14.449  1.4510 -1.3330 -1.3621
 7233SOL    HW233162   1.916   4.167  14.535 -2.3065  1.2109  0.6561
 7234SOL     OW33163   3.233   4.691   4.510 -0.1259  0.0307  0.4135
 7234SOL    HW133164   3.314   4.689   4.560 -0.3592  1.1536  0.8488
 7234SOL    HW233165   3.187   4.615   4.546 -0.6121  0.9139  1.6685
 7235SOL     OW33166   4.031   3.430   1.631  0.3291 -0.6858 -0.2755
 7235SOL    HW133167   4.075   3.440   1.716  1.2733  2.4506 -1.1102
 7235SOL    HW233168   4.013   3.337   1.640 -0.4773 -0.4876  0.1471
 7236SOL     OW33169   3.909   3.168   6.755  0.2020 -0.4707 -0.0008
 7236SOL    HW133170   4.004   3.155   6.748  0.6404  2.9618 -0.1433
 7236SOL    HW233171   3.898   3.251   6.709 -0.0776  0.3081  1.4527
 7237SOL     OW33172   1.985   0.321   9.325  0.3268  0.4851  0.1545
 7237SOL    HW133173   1.910   0.360   9.368 -1.8111 -2.1249 -1.1854
 7237SOL    HW233174   1.976   0.234   9.364 -0.3834 -1.1480 -3.6479
 7238SOL     OW33175   0.387   2.810   1.601  0.2135  0.2137 -0.2203
 7238SOL    HW133176   0.317   2.793   1.664 -1.5012  1.0613 -1.9113
 7238SOL    HW233177   0.375   2.902   1.575  2.3209 -0.1165 -2.3729
 7239SOL     OW33178   2.807   4.041   5.697 -0.1370 -0.6696 -0.8485
 7239SOL    HW133179   2.779   4.015   5.785 -0.5117  2.0320 -0.1904
 7239SOL    HW233180   2.873   3.973   5.682  0.6226 -0.1181 -0.0372
 7240SOL     OW33181   2.927   0.395   7.458 -0.2537 -0.0079 -0.4999
 7240SOL    HW133182   2.885   0.460   7.402  1.7538 -0.1490 -2.1780
 7240SOL    HW233183   2.924   0.436   7.544  1.0172  0.8611 -0.8617
 7241SOL     OW33184   4.444   1.073   6.121  0.2257  0.4840 -0.0801
 7241SOL    HW133185   4.420   0.994   6.168 -0.8156  1.7977  1.5979
 7241SOL    HW233186   4.536   1.086   6.144  0.1939 -1.6580  1.2134
 7242SOL     OW33187   2.126   2.221   3.425  0.2335 -0.4095  0.2002
 7242SOL    HW133188   2.132   2.185   3.337 -0.7141 -1.3301  0.5170
 7242SOL    HW233189   2.203   2.278   3.424 -0.0147 -0.0515  0.7535
 7243SOL     OW33190   1.759   2.649  14.868 -0.1273  0.3175  0.0302
 7243SOL    HW133191   1.718   2.567  14.897 -0.6002  0.6361  0.2629
 7243SOL    HW233192   1.835   2.620  14.818 -0.5289 -1.6236  0.5498
 7244SOL     OW33193   0.088   0.801   6.088  0.1918 -0.3418  0.3668
 7244SOL    HW133194   0.149   0.747   6.037  0.7686  0.2116  0.4630
 7244SOL    HW233195   0.125   0.890   6.089 -1.6751  0.4065  2.8223
 7245SOL     OW33196   2.999   1.187  11.592 -0.1816 -0.2455  0.3920
 7245SOL    HW133197   2.935   1.239  11.542  1.6906  1.1047 -0.6034
 7245SOL    HW233198   3.077   1.236  11.564 -0.1059 -0.7570 -0.2903
 7246SOL     OW33199   1.830   4.197   8.097 -0.3304 -0.5994  0.2676
 7246SOL    HW133200   1.742   4.228   8.076 -0.1997  0.3333  1.0698
 7246SOL    HW233201   1.877   4.281   8.091 -1.2741 -0.3003 -3.1872
 7247SOL     OW33202   2.316   1.375   0.765  0.1478 -0.1264 -0.0330
 7247SOL    HW133203   2.304   1.316   0.690  2.0234  0.0071 -0.4518
 7247SOL    HW233204   2.411   1.389   0.767  0.1144  0.0772  0.0623
 7248SOL     OW33205   4.373   3.176   5.031  0.0230  0.0387  0.4583
 7248SOL    HW133206   4.367   3.086   4.998  2.1475 -0.3023  1.0083
 7248SOL    HW233207   4.459   3.174   5.073  0.3225  2.9777 -0.0066
 7249SOL     OW33208   4.047   1.930   1.733  0.6189  0.3100  0.4722
 7249SOL    HW133209   4.000   1.959   1.655  0.6376  0.1853  0.4139
 7249SOL    HW233210   3.977   1.879   1.774 -0.0321  1.3199  0.6145
 7250SOL     OW33211   1.306   0.236   1.938  0.2922 -0.2306 -0.3314
 7250SOL    HW133212   1.328   0.216   2.029 -2.6596  0.7351  0.6077
 7250SOL    HW233213   1.364   0.311   1.925  0.0682  0.0803  0.4657
 7251SOL     OW33214   4.524   4.341   0.460  0.4668 -0.2921 -0.1697
 7251SOL    HW133215   4.479   4.407   0.408  0.2637 -0.1191  0.2183
 7251SOL    HW233216   4.517   4.391   0.542  0.8592 -2.0543  0.9548
 7252SOL     OW33217   4.450   1.735  16.117 -0.2306 -0.3395  0.4347
 7252SOL    HW133218   4.357   1.731  16.138 -0.1936  0.4592  0.7185
 7252SOL    HW233219   4.489   1.797  16.178 -0.1035 -1.1939  1.2309
 7253SOL     OW33220   1.429   2.530   5.536 -0.3437 -0.3365  0.3052
 7253SOL    HW133221   1.359   2.480   5.579 -0.7709 -0.2427 -0.2749
 7253SOL    HW233222   1.423   2.478   5.456 -0.8454  0.8477 -0.4210
 7254SOL     OW33223   1.349   1.036  12.035 -0.3038  0.4901  0.1990
 7254SOL    HW133224   1.395   1.118  12.053 -0.3362 -0.0300  2.6870
 7254SOL    HW233225   1.404   0.970  12.077 -1.4485 -0.0313  0.8930
 7255SOL     OW33226   0.768   3.865  16.677 -0.4942 -0.7815  0.1961
 7255SOL    HW133227   0.727   3.913  16.749  0.1114  0.5616 -0.3545
 7255SOL    HW233228   0.798   3.927  16.611 -0.4799  1.0724  1.9395
 7256SOL     OW33229   4.705   0.645   0.021 -0.6787  0.3200  0.1058
 7256SOL    HW133230   0.070   0.617  17.675 -1.1366 -1.0692  0.0771
 7256SOL    HW233231   0.011   0.722   0.072 -1.7913  0.4588  0.4818
 7257SOL     OW33232   2.262   2.012  13.553  0.5349  0.3579 -0.3016
 7257SOL    HW133233   2.353   1.988  13.536  0.0414 -1.8007  0.0978
 7257SOL    HW233234   2.236   1.932  13.599  2.5456 -1.2478 -1.9956
 7258SOL     OW33235   3.172   3.858   8.360  0.3754  0.3427 -0.3847
 7258SOL    HW133236   3.088   3.814   8.373  0.7942  0.5622  3.2688
 7258SOL    HW233237   3.154   3.951   8.349  1.3783  0.5478 -0.2469
 7259SOL     OW33238   2.839   0.108  11.764 -0.1335  0.5470  0.7580
 7259SOL    HW133239   2.931   0.131  11.751 -0.0959 -1.6092 -2.5662
 7259SOL    HW233240   2.813   0.071  11.680  0.9352  1.4814  0.0124
 7260SOL     OW33241   3.375   3.170   2.936 -0.0254 -0.3876 -0.4737
 7260SOL    HW133242   3.320   3.248   2.948 -0.1708 -0.2472 -2.0469
 7260SOL    HW233243   3.330   3.105   2.989  1.7518 -0.9219  0.3728
 7261SOL     OW33244   1.549   4.024  14.704  0.1746  0.2272 -0.0578
 7261SOL    HW133245   1.612   4.052  14.771  1.2380  0.4492 -1.1600
 7261SOL    HW233246   1.569   4.075  14.626  1.5086  0.8365  0.6886
 7262SOL     OW33247   2.065   3.969   7.639 -1.0150  0.2925 -0.0162
 7262SOL    HW133248   2.130   4.024   7.683  0.0722 -0.0787 -1.1669
 7262SOL    HW233249   2.019   4.038   7.590 -0.6221  1.5532  1.3998
 7263SOL     OW33250   4.523   4.454   1.670  0.2064  0.4588  0.3178
 7263SOL    HW133251   4.460   4.417   1.609 -0.0829  0.5681  0.5489
 7263SOL    HW233252   4.459   4.497   1.728 -1.2914  0.4872 -1.3549
 7264SOL     OW33253   0.681   2.302   8.656  0.0185  0.1485  0.1745
 7264SOL    HW133254   0.587   2.314   8.650 -0.3445 -2.4834  0.5928
 7264SOL    HW233255   0.681   2.209   8.634  0.7281 -0.2182  1.6879
 7265SOL     OW33256   3.430   0.880   8.312  0.6750  0.4330  0.0971
 7265SOL    HW133257   3.510   0.854   8.358  0.1078 -0.0024  0.8336
 7265SOL    HW233258   3.366   0.822   8.352 -1.1070  0.7553 -2.2861
 7266SOL     OW33259   3.044   3.552   3.972  0.1174 -0.4510  0.1913
 7266SOL    HW133260   3.071   3.536   4.062 -0.9838 -0.8740  0.4399
 7266SOL    HW233261   3.035   3.646   3.987 -0.7480 -0.4371 -0.4603
 7267SOL     OW33262   2.182   0.763  14.890 -0.2730  0.7844  0.7205
 7267SOL    HW133263   2.156   0.774  14.798 -0.5680 -1.3680  0.5356
 7267SOL    HW233264   2.104   0.718  14.923 -1.4138 -0.0691 -3.1634
 7268SOL     OW33265   2.912   1.630  12.123  0.5792  0.1677 -0.0086
 7268SOL    HW133266   2.893   1.569  12.193 -1.1049  0.4909 -0.1823
 7268SOL    HW233267   2.863   1.594  12.049 -1.0748 -0.0994  1.2082
 7269SOL     OW33268   4.301   2.371   2.719 -0.6724 -0.1083 -0.1821
 7269SOL    HW133269   4.387   2.334   2.737 -0.4494  1.0162  1.0141
 7269SOL    HW233270   4.246   2.294   2.709  0.6261 -0.6451 -3.5155
 7270SOL     OW33271   0.234   3.940   8.984 -0.2219 -0.3521  0.0363
 7270SOL    HW133272   0.276   3.975   8.905 -0.8122 -0.6144 -0.3986
 7270SOL    HW233273   0.278   3.997   9.047 -2.1150  0.8603  0.2914
 7271SOL     OW33274   3.885   3.752   3.002  0.3700 -0.0155  0.1095
 7271SOL    HW133275   3.841   3.670   2.980  2.0470 -0.2397 -2.4755
 7271SOL    HW233276   3.966   3.712   3.033 -0.0968 -1.8482 -1.0173
 7272SOL     OW33277   3.588   0.572   7.407 -0.4173 -0.3306  0.2679
 7272SOL    HW133278   3.534   0.557   7.330 -2.0146  2.8861  0.7760
 7272SOL    HW233279   3.570   0.492   7.457 -2.2957 -1.3256 -2.0003
 7273SOL     OW33280   4.682   0.848   4.718 -0.3308 -0.0196 -0.3409
 7273SOL    HW133281   4.716   0.759   4.730 -0.5952 -0.2594 -1.3891
 7273SOL    HW233282   0.039   0.897   4.743 -0.1845 -1.9211  2.9669
 7274SOL     OW33283   4.119   1.102   4.131 -0.4149 -0.0732  0.2752
 7274SOL    HW133284   4.091   1.190   4.109 -1.8750 -0.9216 -1.2710
 7274SOL    HW233285   4.078   1.047   4.064  0.6956 -0.8805  0.2430
 7275SOL     OW33286   3.487   2.069   3.566  0.2490  0.2729  0.0405
 7275SOL    HW133287   3.429   1.993   3.559  0.3741  0.0144  1.9688
 7275SOL    HW233288   3.525   2.058   3.479  0.0469  2.1401 -0.2827
 7276SOL     OW33289   2.159   0.979  15.912  0.5468  0.0001  0.5182
 7276SOL    HW133290   2.173   1.062  15.868 -1.1635 -0.7351 -1.3967
 7276SOL    HW233291   2.246   0.942  15.900  0.3039 -0.1745 -0.6630
 7277SOL     OW33292   0.697   1.545   3.528  0.7638  0.1305  0.3920
 7277SOL    HW133293   0.652   1.552   3.444  2.8103 -1.1474 -0.8038
 7277SOL    HW233294   0.785   1.582   3.515  0.4222  0.6040 -0.5233
 7278SOL     OW33295   3.439   0.417   8.691 -0.8826 -0.0003  0.4074
 7278SOL    HW133296   3.474   0.335   8.656  1.1188  0.8973  0.3125
 7278SOL    HW233297   3.348   0.388   8.700 -0.8024 -0.5630 -0.5267
 7279SOL     OW33298   3.642   2.390   1.595 -0.3608  0.4515  0.4725
 7279SOL    HW133299   3.570   2.452   1.597 -0.5766  0.3333 -3.6549
 7279SOL    HW233300   3.597   2.309   1.618  0.0960 -0.0751 -0.5323
 7280SOL     OW33301   1.345   1.651  15.439 -0.3528 -0.1552 -0.4531
 7280SOL    HW133302   1.287   1.612  15.373 -0.3100 -1.0144  0.0132
 7280SOL    HW233303   1.401   1.576  15.457  0.3398  0.5844  0.4839
 7281SOL     OW33304   3.034   4.344  15.118  0.4480 -0.3372 -0.5335
 7281SOL    HW133305   3.095   4.417  15.126  0.1713 -0.3137  1.4441
 7281SOL    HW233306   2.955   4.394  15.100  1.3334  1.8823  1.6182
 7282SOL     OW33307   3.335   1.322   5.078  0.0015 -0.3034 -0.2328
 7282SOL    HW133308   3.331   1.327   5.173 -4.6045 -2.9484 -0.3090
 7282SOL    HW233309   3.270   1.390   5.058 -2.5315 -2.2145  1.5418
 7283SOL     OW33310   0.915   0.615   0.423 -0.3626 -0.2589 -0.1037
 7283SOL    HW133311   0.963   0.582   0.499 -3.2624 -4.2886 -0.0382
 7283SOL    HW233312   0.855   0.542   0.406  0.2125 -0.7304 -0.1131
 7284SOL     OW33313   0.277   4.483   0.376 -0.2368 -0.3191 -0.0194
 7284SOL    HW133314   0.301   4.449   0.289  0.7210  0.7477 -0.1698
 7284SOL    HW233315   0.358   4.468   0.425 -1.0075 -0.4012  1.2047
 7285SOL     OW33316   3.699   0.631  10.842 -0.1535 -0.3540 -0.0153
 7285SOL    HW133317   3.744   0.583  10.912 -1.4470 -2.9386 -0.9615
 7285SOL    HW233318   3.614   0.590  10.857 -0.7354  1.9587  3.2231
 7286SOL     OW33319   0.437   1.750   5.692  0.3450 -0.1805  0.7311
 7286SOL    HW133320   0.359   1.699   5.714 -0.4903  0.5965 -0.3861
 7286SOL    HW233321   0.401   1.804   5.621  2.6155  0.7133  0.2633
 7287SOL     OW33322   1.507   1.212   7.954 -0.2655 -0.5099 -0.4600
 7287SOL    HW133323   1.417   1.180   7.962 -0.7837  1.3593  1.2943
 7287SOL    HW233324   1.497   1.264   7.875 -1.1757 -1.8083 -1.1934
 7288SOL     OW33325   3.086   0.096  11.672 -0.2525 -0.3247 -0.0989
 7288SOL    HW133326   3.170   0.128  11.707 -0.3082 -1.1613  0.7789
 7288SOL    HW233327   3.110   0.053  11.590 -1.1493  1.9010 -1.5265
 7289SOL     OW33328   3.697   1.114   6.860 -0.2253  0.0984  0.0675
 7289SOL    HW133329   3.693   1.026   6.897 -0.3380 -0.2183 -0.6975
 7289SOL    HW233330   3.743   1.157   6.932 -0.6434  2.9868 -1.4101
 7290SOL     OW33331   4.383   3.186   2.612  0.2649  0.2191 -0.2810
 7290SOL    HW133332   4.334   3.129   2.553  0.7086 -0.1366 -0.3091
 7290SOL    HW233333   4.342   3.268   2.583 -0.1197  0.2763  0.4361
 7291SOL     OW33334   2.166   2.198  16.893 -0.2904  0.2517 -0.5325
 7291SOL    HW133335   2.077   2.214  16.862 -0.0263  0.4819 -1.1653
 7291SOL    HW233336   2.192   2.146  16.817  0.5214 -0.0610 -0.0387
 7292SOL     OW33337   4.023   1.934  13.000 -0.0226 -0.0185 -0.1520
 7292SOL    HW133338   4.028   1.841  12.981  0.5458  0.4780 -2.4448
 7292SOL    HW233339   3.989   1.971  12.918 -1.9232 -0.6340  0.3595
 7293SOL     OW33340   0.586   4.339   7.974  0.7237  0.2786 -0.9492
 7293SOL    HW133341   0.627   4.277   8.035 -2.7524 -1.1236 -0.0484
 7293SOL    HW233342   0.592   4.287   7.895 -2.5313  0.1178 -1.0870
 7294SOL     OW33343   4.049   2.807   5.228 -0.0612 -0.0056  0.3512
 7294SOL    HW133344   4.076   2.851   5.147  2.2979 -2.1351 -0.0450
 7294SOL    HW233345   3.992   2.740   5.191  1.7389 -0.4571 -1.6734
 7295SOL     OW33346   0.049   2.960  12.755 -0.2101 -0.1496  0.4396
 7295SOL    HW133347   0.041   3.046  12.796 -1.0933 -0.1024  0.1630
 7295SOL    HW233348   4.705   2.911  12.806 -0.8451  0.8421  0.5759
 7296SOL     OW33349   3.535   4.698   1.236 -0.0375  0.3395 -0.1516
 7296SOL    HW133350   3.482   4.664   1.164  0.7550  0.5678 -0.8460
 7296SOL    HW233351   3.618   0.007   1.199 -0.8879 -0.9957 -3.1534
 7297SOL     OW33352   1.369   2.795   5.623  0.4905 -0.0631  0.0948
 7297SOL    HW133353   1.345   2.705   5.603 -1.2977  0.3528  0.4065
 7297SOL    HW233354   1.461   2.793   5.595  0.1586  0.6281 -1.0289
 7298SOL     OW33355   4.275   0.507  15.785  0.1420 -0.4936 -0.0673
 7298SOL    HW133356   4.240   0.554  15.861  0.2549  1.3315 -1.1369
 7298SOL    HW233357   4.349   0.563  15.760 -0.6824  0.2625 -0.8265
 7299SOL     OW33358   2.998   1.371   4.251  0.2482  0.5495 -0.0027
 7299SOL    HW133359   3.039   1.322   4.322  1.4239  0.5357 -0.6973
 7299SOL    HW233360   3.013   1.459   4.284 -2.1478  0.7266  0.5933
 7300SOL     OW33361   3.567   1.564   8.013  0.2153  0.0515  0.4116
 7300SOL    HW133362   3.516   1.508   8.073  0.7048 -1.0302 -0.1830
 7300SOL    HW233363   3.616   1.628   8.065 -0.7457  1.1457 -0.0321
 7301SOL     OW33364   0.283   1.752   8.442  0.1025 -0.0954  1.0654
 7301SOL    HW133365   0.280   1.803   8.361 -0.5634  0.3521  1.3750
 7301SOL    HW233366   0.373   1.721   8.434 -0.2128  0.2198 -3.6800
 7302SOL     OW33367   1.964   3.762  17.036 -0.0492 -0.3393 -0.2254
 7302SOL    HW133368   1.897   3.777  17.102  0.6035  0.0155  0.3483
 7302SOL    HW233369   1.908   3.743  16.960 -2.8189  0.4804  1.6088
 7303SOL     OW33370   3.727   0.113   6.933  0.3020 -0.0523  0.5146
 7303SOL    HW133371   3.693   0.174   6.868 -0.5865 -1.8021 -0.6616
 7303SOL    HW233372   3.755   0.179   6.997 -0.7291  0.7900  0.0923
 7304SOL     OW33373   2.893   3.294   6.071 -0.2718  0.2082 -0.2979
 7304SOL    HW133374   2.982   3.262   6.057  0.4455  2.5488 -0.9281
 7304SOL    HW233375   2.849   3.288   5.986 -0.3377 -0.1752 -0.2400
 7305SOL     OW33376   4.364   1.534   3.611 -0.5859  0.3120  0.4207
 7305SOL    HW133377   4.314   1.480   3.550 -2.2020 -1.8381  3.6287
 7305SOL    HW233378   4.451   1.511   3.579 -0.8112  0.9004 -0.6162
 7306SOL     OW33379   3.122   4.244  10.084  0.1816 -0.3541  0.1239
 7306SOL    HW133380   3.193   4.187  10.054  0.7797  0.4525 -0.0104
 7306SOL    HW233381   3.159   4.272  10.168 -1.6710 -0.1748  0.8750
 7307SOL     OW33382   2.363   1.375   8.460  0.2894 -0.0371  0.4915
 7307SOL    HW133383   2.389   1.306   8.399 -1.3227 -0.1080 -0.1124
 7307SOL    HW233384   2.408   1.348   8.540 -1.5061  0.7573  1.7859
 7308SOL     OW33385   3.239   4.460   6.642  0.6353  0.1037 -0.6639
 7308SOL    HW133386   3.183   4.396   6.598  0.6734 -0.8924  0.7466
 7308SOL    HW233387   3.328   4.432   6.620 -0.2526 -1.9201 -1.6675
 7309SOL     OW33388   4.448   4.384   2.938  0.0137 -0.6503  0.4949
 7309SOL    HW133389   4.529   4.356   2.980 -0.2560  0.2298  1.6113
 7309SOL    HW233390   4.453   4.479   2.935  1.6216 -0.8010 -0.8862
 7310SOL     OW33391   0.845   1.595   1.291 -0.0827  0.1610 -0.2197
 7310SOL    HW133392   0.929   1.573   1.330 -0.4043  1.0081  0.9592
 7310SOL    HW233393   0.870   1.600   1.198 -3.3079  0.6559 -1.0640
 7311SOL     OW33394   3.200   2.264   8.286  0.2630 -0.4295 -1.2034
 7311SOL    HW133395   3.162   2.352   8.288  0.8534 -0.1825 -1.0325
 7311SOL    HW233396   3.138   2.227   8.349  0.3447 -0.9345 -1.4197
 7312SOL     OW33397   1.723   4.701   9.958  0.4241 -0.0455 -0.7797
 7312SOL    HW133398   1.671   0.054   9.989 -1.9225 -1.7933 -0.5468
 7312SOL    HW233399   1.801   4.719  10.011 -1.1265 -1.0128  1.8738
 7313SOL     OW33400   4.525   2.169   7.652  0.5377 -0.4751 -0.7259
 7313SOL    HW133401   4.575   2.224   7.711  1.7490 -0.8991 -1.3685
 7313SOL    HW233402   4.433   2.172   7.679  0.3883 -0.3999 -1.2552
 7314SOL     OW33403   0.827   2.490   5.730 -0.3072 -0.3574 -0.0582
 7314SOL    HW133404   0.790   2.455   5.649 -1.1222  2.3385 -0.8675
 7314SOL    HW233405   0.762   2.461   5.794  0.9761 -0.8742  0.9920
 7315SOL     OW33406   1.950   0.370  13.769  0.1057  0.3584 -0.4421
 7315SOL    HW133407   1.953   0.461  13.798  0.5485 -0.6385  2.5958
 7315SOL    HW233408   2.018   0.347  13.832 -0.8181  1.1085  0.8123
 7316SOL     OW33409   1.581   2.787   2.931 -0.2719  0.0461  0.3910
 7316SOL    HW133410   1.515   2.725   2.962 -1.0800  0.9114  0.3913
 7316SOL    HW233411   1.542   2.821   2.850  2.3247 -0.4660 -1.0876
 7317SOL     OW33412   2.507   1.772   8.822  0.1813 -0.0739  0.0889
 7317SOL    HW133413   2.420   1.799   8.850 -0.4915 -0.4359 -1.6695
 7317SOL    HW233414   2.545   1.855   8.851  0.5305  0.2676 -1.3291
 7318SOL     OW33415   0.002   3.629  17.277 -0.0952 -0.2349  0.3060
 7318SOL    HW133416   0.050   3.554  17.311  3.4701  1.2889 -1.3634
 7318SOL    HW233417   4.661   3.639  17.349 -0.0988 -0.7886  0.3823
 7319SOL     OW33418   3.595   3.658   1.390  0.3315  0.2755 -0.0679
 7319SOL    HW133419   3.640   3.582   1.429 -1.0618 -0.5006  0.0202
 7319SOL    HW233420   3.515   3.622   1.353  0.5877  1.0797 -1.3762
 7320SOL     OW33421   4.244   3.959   2.324 -0.2697  0.0980 -0.3289
 7320SOL    HW133422   4.290   3.883   2.361  0.1864 -0.2224 -1.5663
 7320SOL    HW233423   4.155   3.925   2.321 -1.3791  3.0936 -0.9040
 7321SOL     OW33424   0.906   1.787   1.081  0.2746 -0.0810 -0.2269
 7321SOL    HW133425   0.924   1.847   1.008  0.6379 -0.2320 -0.2652
 7321SOL    HW233426   0.811   1.775   1.080  0.2574  0.1158 -1.0233
 7322SOL     OW33427   1.917   1.709   6.864  0.6793 -0.1809  0.3932
 7322SOL    HW133428   1.983   1.738   6.927  1.6768 -0.4814 -0.4967
 7322SOL    HW233429   1.940   1.755   6.783 -3.4813  1.6302  0.2811
 7323SOL     OW33430   1.822   4.055   5.473 -0.0689 -0.5387  0.3945
 7323SOL    HW133431   1.914   4.032   5.482 -0.1224 -1.0833 -0.5142
 7323SOL    HW233432   1.775   3.973   5.460 -2.2858  0.5523  1.4623
 7324SOL     OW33433   0.067   1.739   8.604  0.3216  0.4009 -0.4077
 7324SOL    HW133434   0.148   1.770   8.563 -0.1770  3.2350  0.7443
 7324SOL    HW233435   0.001   1.737   8.536  0.9952 -0.0858 -1.0421
 7325SOL     OW33436   2.650   3.279  11.208 -0.3689  0.0387  0.6276
 7325SOL    HW133437   2.595   3.356  11.215 -2.1485 -1.1298 -0.4102
 7325SOL    HW233438   2.633   3.233  11.290  0.2356 -1.8022 -0.2715
 7326SOL     OW33439   4.173   2.180   1.770 -0.9648 -0.1536 -0.8125
 7326SOL    HW133440   4.148   2.098   1.727 -0.2705 -0.3042 -0.9372
 7326SOL    HW233441   4.165   2.239   1.696 -2.4118 -0.5284 -0.9440
 7327SOL     OW33442   0.614   2.457  16.410  0.0975  0.2260  0.0802
 7327SOL    HW133443   0.656   2.496  16.333  1.1961  2.3741  1.7540
 7327SOL    HW233444   0.532   2.505  16.421  1.0930  1.2628  2.9841
 7328SOL     OW33445   4.704   3.974   0.239 -0.4320  0.1858  0.2701
 7328SOL    HW133446   4.691   4.044   0.175  0.0943 -0.1192 -0.1675
 7328SOL    HW233447   4.653   3.901   0.206  0.8042 -0.2144 -0.7255
 7329SOL     OW33448   1.912   1.190   3.634  0.2920  0.4115 -0.2511
 7329SOL    HW133449   1.947   1.101   3.632 -2.1182 -0.5229 -0.9659
 7329SOL    HW233450   1.990   1.236   3.603  0.0333  1.5005  0.7210
 7330SOL     OW33451   1.455   4.591   4.022 -0.2619  0.2783  0.1696
 7330SOL    HW133452   1.402   4.557   3.950 -0.0556  3.2508 -1.3912
 7330SOL    HW233453   1.473   4.513   4.074 -1.2015  0.6903  1.0938
 7331SOL     OW33454   0.060   3.757   9.917 -0.4650 -0.8870  0.1293
 7331SOL    HW133455   4.701   3.765   9.864  0.6714 -1.5218 -1.6815
 7331SOL    HW233456   0.044   3.834   9.972 -0.2769 -0.0526 -0.9612
 7332SOL     OW33457   0.186   1.808  17.110 -0.2856  0.0496 -0.5038
 7332SOL    HW133458   0.258   1.788  17.169  0.3365  3.7769  0.0432
 7332SOL    HW233459   0.108   1.785  17.161 -0.6125  2.0539 -0.0719
 7333SOL     OW33460   0.375   1.357   0.681 -0.3200 -0.2121  0.4811
 7333SOL    HW133461   0.422   1.373   0.763 -1.0130  2.2438  0.4047
 7333SOL    HW233462   0.298   1.413   0.692  1.2598  1.3900  3.1773
 7334SOL     OW33463   2.150   3.078   1.800  0.1780  0.0996  0.2579
 7334SOL    HW133464   2.119   3.056   1.713  1.1565  0.3352 -0.1545
 7334SOL    HW233465   2.152   2.993   1.845 -3.9616 -1.3542 -2.3528
 7335SOL     OW33466   0.894   1.321  17.441  0.1746 -0.1459  0.3266
 7335SOL    HW133467   0.987   1.336  17.459 -0.0638  0.0695  1.3412
 7335SOL    HW233468   0.869   1.300  17.531  0.0224  1.2505  0.6000
 7336SOL     OW33469   1.314   2.278  17.573  0.2333  0.5996  0.3952
 7336SOL    HW133470   1.319   2.214  17.644  2.4555 -1.3377 -1.5283
 7336SOL    HW233471   1.223   2.306  17.583 -0.0078  0.1566 -0.6036
 7337SOL     OW33472   1.315   3.695   7.188  0.6603 -0.4581  0.1213
 7337SOL    HW133473   1.358   3.754   7.251 -0.5834  0.4249  0.1501
 7337SOL    HW233474   1.267   3.764   7.142 -0.1240  0.4065  2.2214
 7338SOL     OW33475   2.532   2.373   9.193 -0.3628  0.1673 -0.0732
 7338SOL    HW133476   2.445   2.391   9.158  0.1890  1.3211 -0.8567
 7338SOL    HW233477   2.529   2.371   9.289  2.1644 -1.3957 -0.0169
 7339SOL     OW33478   1.175   3.253   0.511  0.2398 -0.3396  0.5346
 7339SOL    HW133479   1.145   3.332   0.554 -1.2326 -0.1812 -0.7810
 7339SOL    HW233480   1.096   3.225   0.465 -0.1002  0.8777  0.3991
 7340SOL     OW33481   0.225   3.280  11.980 -0.1931 -0.2146 -0.4385
 7340SOL    HW133482   0.223   3.369  12.014  0.3331 -0.0514 -0.8339
 7340SOL    HW233483   0.302   3.253  12.030  0.8650  0.9637 -1.4465
 7341SOL     OW33484   0.862   3.876   3.196  0.3359  0.2448  0.6910
 7341SOL    HW133485   0.785   3.932   3.194  2.4005  3.0021 -0.2945
 7341SOL    HW233486   0.844   3.808   3.262  0.3836  0.2468  0.7063
 7342SOL     OW33487   4.375   0.404  15.394  0.0278 -0.1170 -0.6483
 7342SOL    HW133488   4.341   0.368  15.312 -1.8454 -2.7726  1.3192
 7342SOL    HW233489   4.319   0.359  15.456  2.5496 -1.7481  0.4236
 7343SOL     OW33490   2.482   1.239   3.504 -0.5538 -0.0789  0.2041
 7343SOL    HW133491   2.388   1.258   3.508 -0.4900  0.8769 -2.6158
 7343SOL    HW233492   2.494   1.150   3.537 -1.7831 -0.0353  0.7555
 7344SOL     OW33493   2.363   1.739   3.641  0.4905 -0.2141  0.8438
 7344SOL    HW133494   2.372   1.727   3.547  1.5492 -0.5486  0.9927
 7344SOL    HW233495   2.305   1.665   3.658 -0.7098  0.1025 -1.8200
 7345SOL     OW33496   4.448   0.359   8.663 -0.5956  0.1114  0.1496
 7345SOL    HW133497   4.357   0.338   8.686 -0.0990  1.0140  2.9183
 7345SOL    HW233498   4.459   0.413   8.741 -1.2155 -0.0382  0.3472
 7346SOL     OW33499   0.618   0.212   8.874  0.4392  0.1573  0.2770
 7346SOL    HW133500   0.563   0.247   8.944 -2.0083 -1.3003 -0.9432
 7346SOL    HW233501   0.604   0.264   8.795  0.5769 -1.2835 -0.6882
 7347SOL     OW33502   2.691   3.669   1.989 -0.4088  0.0975 -0.2784
 7347SOL    HW133503   2.755   3.711   1.931  1.0167 -0.5815  0.8043
 7347SOL    HW233504   2.614   3.670   1.932 -1.0337  1.6893  0.5920
 7348SOL     OW33505   3.488   2.928   5.701  0.5185 -0.2080 -0.2883
 7348SOL    HW133506   3.516   2.837   5.694  0.8838 -0.1721  0.7347
 7348SOL    HW233507   3.571   2.977   5.704 -0.0565  0.6670  1.2469
 7349SOL     OW33508   2.575   2.188   3.686 -0.5546 -0.0480 -0.1812
 7349SOL    HW133509   2.507   2.136   3.642 -0.9996  0.6282 -0.2913
 7349SOL    HW233510   2.609   2.230   3.606  1.6949 -4.3396 -1.4707
 7350SOL     OW33511   0.798   2.432   5.030  0.1258 -0.3717  0.0975
 7350SOL    HW133512   0.875   2.487   5.020 -0.8112  1.3383  2.2153
 7350SOL    HW233513   0.742   2.490   5.082  1.8737 -0.2254  1.8215
 7351SOL     OW33514   3.412   0.836   4.424 -0.2534  0.4725  0.2493
 7351SOL    HW133515   3.366   0.916   4.449 -2.7042 -0.3528 -1.6497
 7351SOL    HW233516   3.450   0.805   4.506  1.0604  1.4719  0.0126
 7352SOL     OW33517   4.461   1.341   5.820  0.2687 -0.0352 -0.6591
 7352SOL    HW133518   4.415   1.422   5.801 -2.0975 -0.6396  2.4822
 7352SOL    HW233519   4.541   1.379   5.857  1.3374 -2.4421 -0.4740
 7353SOL     OW33520   1.284   0.490   3.382  0.6335 -0.2481  0.8930
 7353SOL    HW133521   1.270   0.474   3.475 -1.7084 -2.2265  0.1999
 7353SOL    HW233522   1.351   0.559   3.382  1.4442 -1.0154 -2.9511
 7354SOL     OW33523   3.441   4.268  15.610  0.2260 -0.7007 -1.0491
 7354SOL    HW133524   3.415   4.236  15.697  3.8554 -2.2041 -0.5400
 7354SOL    HW233525   3.358   4.291  15.569 -0.2373  1.0350  0.8250
 7355SOL     OW33526   3.745   4.700  16.481 -0.2408  0.7448  0.0104
 7355SOL    HW133527   3.780   4.626  16.531  0.0687  1.3468  0.6931
 7355SOL    HW233528   3.748   0.049  16.547 -0.7689 -2.2330  3.2216
 7356SOL     OW33529   4.669   2.311   6.174  0.3855  0.3135 -0.3074
 7356SOL    HW133530   4.699   2.381   6.116 -0.0332  2.4461  2.0252
 7356SOL    HW233531   4.644   2.362   6.251 -1.0425 -0.0098 -0.5441
 7357SOL     OW33532   3.558   3.798   2.153  0.4330  0.0037  0.3438
 7357SOL    HW133533   3.609   3.781   2.232  0.6394 -0.5352  0.0910
 7357SOL    HW233534   3.608   3.868   2.109 -2.1601  1.2455 -0.6510
 7358SOL     OW33535   3.281   0.242   3.337 -0.5421 -0.0092  0.0991
 7358SOL    HW133536   3.245   0.156   3.316  0.3338  0.1769 -2.2520
 7358SOL    HW233537   3.244   0.290   3.262 -0.5569 -0.6672 -0.3170
 7359SOL     OW33538   0.823   0.398   1.740 -0.0581  0.0621  0.3181
 7359SOL    HW133539   0.896   0.422   1.798  0.4311  1.1889 -0.7587
 7359SOL    HW233540   0.755   0.457   1.773 -1.7426 -2.2075  0.8593
 7360SOL     OW33541   0.150   2.858   7.130 -0.5403  0.4286 -0.1025
 7360SOL    HW133542   0.057   2.865   7.151 -0.6316  0.7571 -0.6106
 7360SOL    HW233543   0.197   2.857   7.213 -3.4715  1.5448  1.5629
 7361SOL     OW33544   0.711   4.476   6.370  0.4903  0.5277  0.6767
 7361SOL    HW133545   0.669   4.532   6.435 -0.4439  2.8568 -1.9232
 7361SOL    HW233546   0.653   4.470   6.294  3.2580 -1.4320 -1.3226
 7362SOL     OW33547   2.207   0.166  13.623 -0.2649 -0.7915 -0.4020
 7362SOL    HW133548   2.142   0.207  13.681 -0.2946 -1.5444  0.0907
 7362SOL    HW233549   2.171   0.077  13.626  0.3430 -0.9696  1.5618
 7363SOL     OW33550   2.507   2.442   4.255  0.4521  0.1928  0.0627
 7363SOL    HW133551   2.449   2.487   4.195 -0.0255 -0.7411 -0.1839
 7363SOL    HW233552   2.547   2.386   4.188 -0.5454 -0.5675  0.1037
 7364SOL     OW33553   1.855   0.143  12.721 -0.2843  0.2282 -0.0269
 7364SOL    HW133554   1.896   0.075  12.667 -1.8633 -1.4109  0.8261
 7364SOL    HW233555   1.790   0.179  12.660 -1.9568 -0.1724  1.5200
 7365SOL     OW33556   0.239   2.838   5.121 -0.4179  0.2801  0.3285
 7365SOL    HW133557   0.193   2.884   5.051  2.0438  0.5136 -1.1067
 7365SOL    HW233558   0.174   2.786   5.168 -0.5751  1.5480  1.5503
 7366SOL     OW33559   2.942   3.719  15.295 -0.8372 -0.1438 -0.0722
 7366SOL    HW133560   2.984   3.663  15.230  1.1262 -1.8936  2.6881
 7366SOL    HW233561   2.858   3.710  15.249  0.0650  0.9589 -1.9016
 7367SOL     OW33562   4.652   0.875   1.405 -0.0763 -0.1241  0.1403
 7367SOL    HW133563   4.636   0.969   1.410 -1.6132 -0.2817 -1.9346
 7367SOL    HW233564   4.618   0.854   1.318 -0.9614  0.9790  0.2202
 7368SOL     OW33565   4.415   1.590   8.727  1.1469  0.5930  0.0800
 7368SOL    HW133566   4.427   1.562   8.636 -0.2906  0.7479 -0.1493
 7368SOL    HW233567   4.484   1.541   8.771  0.2602  1.6601  2.6682
 7369SOL     OW33568   2.371   3.989   4.725  0.2564 -0.1584 -0.0066
 7369SOL    HW133569   2.386   4.032   4.641 -0.3443 -0.6504 -0.3642
 7369SOL    HW233570   2.285   3.952   4.704  0.3110 -0.9200  1.1267
 7370SOL     OW33571   2.131   0.821   2.943 -0.1705 -0.4437  0.4776
 7370SOL    HW133572   2.121   0.738   2.898  0.5755 -0.3427  0.1214
 7370SOL    HW233573   2.166   0.799   3.029  1.7532  3.4626  0.7105
 7371SOL     OW33574   0.341   3.916   7.608  0.1385  0.0599  0.2019
 7371SOL    HW133575   0.430   3.925   7.574  0.6804  2.6355  2.2449
 7371SOL    HW233576   0.363   3.882   7.694 -0.8082 -1.9951 -0.3728
 7372SOL     OW33577   0.726   4.590   7.508  0.0037 -0.1931  0.0525
 7372SOL    HW133578   0.796   4.563   7.448 -0.6189 -1.2704 -0.1885
 7372SOL    HW233579   0.648   4.548   7.473 -0.2689  0.9379 -0.7011
 7373SOL     OW33580   1.509   1.443   5.726 -0.1054  0.1173  0.1499
 7373SOL    HW133581   1.423   1.484   5.715 -0.1204 -0.4266 -1.6857
 7373SOL    HW233582   1.510   1.432   5.821 -1.2722  2.3464  0.4313
 7374SOL     OW33583   4.662   3.871   6.846 -0.2205 -0.1912  0.7907
 7374SOL    HW133584   4.576   3.914   6.845 -0.8803 -1.5241 -1.1928
 7374SOL    HW233585   4.646   3.815   6.921  0.9693 -1.7424 -0.1047
 7375SOL     OW33586   1.547   2.735   0.701 -0.7162  0.8180  0.1273
 7375SOL    HW133587   1.490   2.773   0.635 -1.0317  1.3410  0.6976
 7375SOL    HW233588   1.516   2.645   0.697 -0.3889  0.7360 -0.5244
 7376SOL     OW33589   3.233   2.997   5.862  0.2892 -0.1904  0.4665
 7376SOL    HW133590   3.320   2.983   5.824 -0.2495  0.7427 -1.0856
 7376SOL    HW233591   3.237   2.937   5.937  0.6844 -0.0852  0.5289
 7377SOL     OW33592   2.300   0.656   5.542  0.0531 -0.3649  0.5153
 7377SOL    HW133593   2.368   0.705   5.587  0.3410  0.6290 -1.0074
 7377SOL    HW233594   2.358   0.611   5.481 -0.3268  1.0605 -0.8945
 7378SOL     OW33595   4.325   1.598   3.873 -0.2048  1.1772  0.0386
 7378SOL    HW133596   4.338   1.582   3.779 -0.1639 -0.9391  0.4172
 7378SOL    HW233597   4.354   1.513   3.904 -0.3154  1.4086  0.7807
 7379SOL     OW33598   3.277   0.557  15.408  0.2012  0.4819  0.0587
 7379SOL    HW133599   3.201   0.605  15.440 -0.3294 -0.9855  0.9948
 7379SOL    HW233600   3.256   0.466  15.428 -0.6391  0.5928 -0.3440
 7380SOL     OW33601   3.321   2.218   0.200 -0.2221  0.8455  1.2635
 7380SOL    HW133602   3.324   2.179   0.288  1.1861  1.5682  1.5284
 7380SOL    HW233603   3.391   2.171   0.156 -0.2970  0.8260  1.1637
 7381SOL     OW33604   2.278   0.353   2.431 -0.0852 -0.0165  0.6420
 7381SOL    HW133605   2.220   0.296   2.380  0.1594  0.3115 -0.0027
 7381SOL    HW233606   2.222   0.370   2.507  0.1704  0.7366  0.6688
 7382SOL     OW33607   4.063   1.962  11.496 -0.2192 -0.5603  0.7273
 7382SOL    HW133608   3.983   1.954  11.443  0.3591  4.0307 -0.8005
 7382SOL    HW233609   4.130   1.962  11.427 -0.1420 -1.3693  0.8017
 7383SOL     OW33610   2.393   3.683   4.206  0.2706 -0.1522 -0.4123
 7383SOL    HW133611   2.362   3.596   4.178 -3.3145  1.2508 -0.8149
 7383SOL    HW233612   2.406   3.672   4.300 -1.0778 -2.9532 -0.5320
 7384SOL     OW33613   1.811   2.789  14.528 -0.6614 -0.3383 -0.3909
 7384SOL    HW133614   1.833   2.856  14.463 -0.2364 -0.7174 -0.6385
 7384SOL    HW233615   1.779   2.715  14.477 -2.0426  0.4608 -0.6766
 7385SOL     OW33616   4.245   0.401   6.451  0.1857  0.7077 -0.6621
 7385SOL    HW133617   4.249   0.496   6.442 -0.3999  0.7853 -0.1153
 7385SOL    HW233618   4.315   0.394   6.516 -1.1496  0.8889  0.8046
 7386SOL     OW33619   2.546   1.126   8.298  0.4322  0.0328  0.1090
 7386SOL    HW133620   2.507   1.147   8.213 -0.0353  0.5588  0.4549
 7386SOL    HW233621   2.633   1.088   8.282  1.9218  2.9898  1.2635
 7387SOL     OW33622   4.543   2.499   7.921  0.0658  0.4951  0.5948
 7387SOL    HW133623   4.581   2.412   7.932 -0.7848 -0.0388 -0.6984
 7387SOL    HW233624   4.450   2.476   7.922  0.5243 -1.6234 -2.3145
 7388SOL     OW33625   4.671   1.360   7.765 -0.4480 -0.0411  0.1685
 7388SOL    HW133626   4.658   1.291   7.831 -0.9387 -0.1150 -0.0033
 7388SOL    HW233627   4.667   1.308   7.685 -1.5316 -0.3849  0.4312
 7389SOL     OW33628   4.678   3.779   2.508 -0.1358 -0.2697 -0.0525
 7389SOL    HW133629   0.033   3.728   2.538  1.6277  1.1433 -2.1519
 7389SOL    HW233630   4.678   3.850   2.573 -3.4788  1.2101 -1.6677
 7390SOL     OW33631   1.025   4.049  15.004  0.2321  0.2731 -0.1842
 7390SOL    HW133632   1.119   4.049  14.985  0.1610  0.4526 -0.5426
 7390SOL    HW233633   1.018   3.956  15.022  0.0665  0.3438  0.1104
 7391SOL     OW33634   0.584   2.612  14.770 -0.9810  0.3319  0.3685
 7391SOL    HW133635   0.497   2.600  14.732 -0.0683 -0.9796 -1.2804
 7391SOL    HW233636   0.576   2.559  14.849  3.0990 -0.3525  0.2694
 7392SOL     OW33637   2.578   3.035   3.527 -0.4627 -0.0036  0.2644
 7392SOL    HW133638   2.626   2.979   3.588 -0.2046  0.0084  0.0701
 7392SOL    HW233639   2.592   2.987   3.446  2.2798  0.1816  0.6272
 7393SOL     OW33640   3.007   1.413   2.060 -0.3969 -0.1127 -0.0408
 7393SOL    HW133641   2.974   1.497   2.030  0.4121  0.4486  0.6270
 7393SOL    HW233642   3.051   1.452   2.136  0.3505  1.4502 -1.2938
 7394SOL     OW33643   4.716   2.543   8.513  0.1479  0.2899  0.4600
 7394SOL    HW133644   4.659   2.479   8.471 -0.2688  0.6570  0.4682
 7394SOL    HW233645   4.703   2.626   8.466 -0.0824 -1.0898 -1.8942
 7395SOL     OW33646   2.991   3.427   8.350 -0.5270  0.2059  0.2927
 7395SOL    HW133647   2.985   3.432   8.446  4.9291 -0.0612  0.6422
 7395SOL    HW233648   2.987   3.332   8.344 -0.4380  0.1440  1.1069
 7396SOL     OW33649   3.191   0.336   8.758  0.8102  0.0627 -0.1161
 7396SOL    HW133650   3.166   0.293   8.840 -2.3715  1.7381 -0.2023
 7396SOL    HW233651   3.116   0.326   8.699  0.7791 -1.6831  0.2048
 7397SOL     OW33652   2.003   4.510  11.195  0.0896  0.1993  0.0316
 7397SOL    HW133653   1.918   4.554  11.193 -0.1922 -0.4144 -2.4417
 7397SOL    HW233654   2.055   4.565  11.136  0.0196  0.1611 -0.0655
 7398SOL     OW33655   2.115   3.763  10.848 -0.6747 -0.6499 -0.0640
 7398SOL    HW133656   2.041   3.733  10.795 -1.9406  0.0732  1.3063
 7398SOL    HW233657   2.183   3.707  10.811 -0.2119 -0.8409  1.0590
 7399SOL     OW33658   2.589   2.015   8.920 -0.1488 -0.0018  0.4220
 7399SOL    HW133659   2.606   2.029   9.014 -2.9226  1.0716  0.7655
 7399SOL    HW233660   2.571   2.102   8.884 -1.0627  0.0711  1.0748
 7400SOL     OW33661   2.037   4.227  15.072 -0.0705  0.2217 -0.2285
 7400SOL    HW133662   2.062   4.150  15.123  0.7520 -0.3715 -1.5276
 7400SOL    HW233663   1.942   4.232  15.083 -0.2558 -2.0355 -0.8247
 7401SOL     OW33664   3.373   3.593   2.081 -0.1025 -0.5841  0.0506
 7401SOL    HW133665   3.324   3.607   2.161  3.3127 -2.6032  2.5259
 7401SOL    HW233666   3.424   3.674   2.092 -0.6258 -0.2220 -0.1924
 7402SOL     OW33667   2.744   2.478   2.878  0.1650 -0.0763 -0.1213
 7402SOL    HW133668   2.785   2.496   2.963 -1.9031 -3.6239  1.6410
 7402SOL    HW233669   2.779   2.554   2.832  0.8747  0.6870  1.6572
 7403SOL     OW33670   2.446   4.349   7.107  0.1615  0.2417 -0.1895
 7403SOL    HW133671   2.370   4.342   7.049  0.9090  1.0596 -1.2525
 7403SOL    HW233672   2.488   4.428   7.074  0.7806  0.2413  0.6013
 7404SOL     OW33673   1.817   1.172   4.848 -0.3021  0.1261  0.0371
 7404SOL    HW133674   1.818   1.164   4.752  2.8230 -1.9367  0.2267
 7404SOL    HW233675   1.751   1.237   4.872  1.6612  2.6029 -1.1686
 7405SOL     OW33676   0.122   4.248   6.451  0.6534  0.5983  0.1087
 7405SOL    HW133677   0.144   4.155   6.443  2.2499  0.8130  1.9389
 7405SOL    HW233678   0.058   4.251   6.521  1.2676 -1.0720  0.7346
 7406SOL     OW33679   0.666   4.561   5.476  0.1546  0.0597  0.0225
 7406SOL    HW133680   0.720   4.604   5.542  1.4995 -0.1006 -0.9745
 7406SOL    HW233681   0.670   4.469   5.503 -4.1971  0.2884  1.4633
 7407SOL     OW33682   3.180   3.924   7.559 -0.0854 -0.3389 -0.1109
 7407SOL    HW133683   3.155   3.845   7.511  0.2725 -0.7430  0.3709
 7407SOL    HW233684   3.270   3.915   7.527 -0.2545 -1.3197 -0.3095
 7408SOL     OW33685   0.659   2.217   4.977  0.0938 -0.2928 -0.1262
 7408SOL    HW133686   0.716   2.152   4.936  0.3759  1.3852 -2.3793
 7408SOL    HW233687   0.724   2.282   5.002 -1.1496  0.8696  0.0747
 7409SOL     OW33688   4.623   2.324   2.556 -0.2790  0.0780 -0.2791
 7409SOL    HW133689   4.548   2.364   2.512 -1.1844  0.0808  1.2537
 7409SOL    HW233690   4.592   2.321   2.647  1.0619  0.5125  0.1851
 7410SOL     OW33691   4.301   0.487   5.226 -0.0149 -0.5487  0.4292
 7410SOL    HW133692   4.299   0.554   5.158  2.1259  0.4702  1.3830
 7410SOL    HW233693   4.346   0.527   5.300  0.2129  3.2069 -1.7586
 7411SOL     OW33694   4.395   0.926  14.032  0.2029  0.1147  0.0445
 7411SOL    HW133695   4.398   1.016  14.064 -0.9647  0.5488 -1.0560
 7411SOL    HW233696   4.399   0.877  14.114  0.1397 -0.6567 -0.4119
 7412SOL     OW33697   3.785   2.472   6.320  0.0455 -0.1235 -0.0985
 7412SOL    HW133698   3.876   2.500   6.329  0.0051  0.3569 -1.2881
 7412SOL    HW233699   3.739   2.535   6.376 -1.1424 -0.1398 -1.0638
 7413SOL     OW33700   1.621   3.546   6.132  0.3223 -0.3075  0.7580
 7413SOL    HW133701   1.674   3.512   6.204  1.0725  1.5797  1.1124
 7413SOL    HW233702   1.553   3.591   6.181  0.7349  0.4745  0.6107
 7414SOL     OW33703   1.056   4.663  12.518  0.1015  0.4546  0.7361
 7414SOL    HW133704   0.969   4.655  12.558  1.8107 -0.3507  4.3227
 7414SOL    HW233705   1.050   0.026  12.472  1.3741 -0.8033 -1.7098
 7415SOL     OW33706   2.284   2.831  10.279 -0.4549  0.0999  0.2126
 7415SOL    HW133707   2.268   2.763  10.214  1.1214  0.0693 -0.1435
 7415SOL    HW233708   2.234   2.788  10.348  1.2185 -0.7245  0.8914
 7416SOL     OW33709   2.658   4.587   7.041  0.4925  0.0013 -0.3938
 7416SOL    HW133710   2.712   4.612   7.116 -0.0337 -0.6910  0.2193
 7416SOL    HW233711   2.718   4.545   6.979 -1.6975 -2.2198 -1.0386
 7417SOL     OW33712   3.748   1.386   2.218 -0.0326  0.1281 -0.9757
 7417SOL    HW133713   3.752   1.406   2.125 -1.2750 -0.9450 -1.2604
 7417SOL    HW233714   3.767   1.293   2.206 -0.1570  0.1710 -1.4820
 7418SOL     OW33715   4.209   1.437  15.085 -0.3028 -0.1299  0.0460
 7418SOL    HW133716   4.256   1.354  15.085  1.2409  0.7508 -1.5690
 7418SOL    HW233717   4.121   1.404  15.064  0.5544 -2.7988  0.6115
 7419SOL     OW33718   1.395   1.363   9.172  0.5058  0.3090  0.2412
 7419SOL    HW133719   1.314   1.396   9.132  0.2951 -0.5144 -0.0055
 7419SOL    HW233720   1.389   1.415   9.253 -1.2138 -1.4677  1.2593
 7420SOL     OW33721   3.115   2.109   4.126  0.0492  0.6241 -0.0451
 7420SOL    HW133722   3.174   2.034   4.118 -0.9599 -0.1919  0.2195
 7420SOL    HW233723   3.051   2.101   4.056 -1.3052  2.9971  0.9027
 7421SOL     OW33724   0.691   1.244   1.095 -0.5016 -0.0565 -0.6338
 7421SOL    HW133725   0.712   1.168   1.040  4.6715  0.6016  0.3962
 7421SOL    HW233726   0.744   1.309   1.049  0.4560  0.0826  0.6742
 7422SOL     OW33727   2.857   2.738   4.731 -0.7810  0.2381  0.4468
 7422SOL    HW133728   2.905   2.797   4.673  0.4553 -1.4365 -0.2166
 7422SOL    HW233729   2.776   2.790   4.730 -0.4410  0.7148 -3.5784
 7423SOL     OW33730   1.960   3.016   7.935  0.3459  0.3108 -0.1664
 7423SOL    HW133731   2.044   2.994   7.895 -0.3380 -0.3739 -1.2298
 7423SOL    HW233732   1.986   3.034   8.025 -0.9341 -2.2756  0.7248
 7424SOL     OW33733   1.171   4.080   3.390  0.0756 -0.9845 -0.8664
 7424SOL    HW133734   1.205   3.990   3.389  0.2906 -0.9133  0.4948
 7424SOL    HW233735   1.229   4.111   3.320 -0.5647 -0.1698 -1.0268
 7425SOL     OW33736   3.038   3.077   7.742  0.5031  0.5374  0.1132
 7425SOL    HW133737   3.121   3.031   7.729  0.5496  0.3069  1.2780
 7425SOL    HW233738   3.056   3.160   7.698  1.3999 -0.0138 -0.5676
 7426SOL     OW33739   2.579   2.716   2.405 -0.0398 -0.3333  0.8012
 7426SOL    HW133740   2.540   2.803   2.395  0.0646 -0.1402  1.9747
 7426SOL    HW233741   2.535   2.684   2.485 -1.6073  0.1397  0.1344
 7427SOL     OW33742   0.474   2.733   3.317  0.2132 -0.0600 -0.2953
 7427SOL    HW133743   0.442   2.705   3.231  0.6699 -1.3623 -0.0350
 7427SOL    HW233744   0.478   2.829   3.310 -1.9451 -0.2661 -4.4239
 7428SOL     OW33745   4.199   3.259  15.178  0.0496 -0.4680  0.1741
 7428SOL    HW133746   4.270   3.196  15.169  0.4639  0.2232 -1.4808
 7428SOL    HW233747   4.166   3.245  15.267 -0.0668 -0.8742  0.0653
 7429SOL     OW33748   3.654   1.788   2.355 -0.0719 -0.6483 -0.1064
 7429SOL    HW133749   3.577   1.745   2.392 -1.2108  1.4901 -0.0102
 7429SOL    HW233750   3.640   1.760   2.264 -1.4770  0.7242 -0.3008
 7430SOL     OW33751   3.964   1.564   7.383  0.0356  0.2675  0.4146
 7430SOL    HW133752   4.014   1.547   7.303 -0.1371 -0.2918  0.4268
 7430SOL    HW233753   3.873   1.578   7.356  0.5133 -0.5135 -1.6739
 7431SOL     OW33754   3.874   2.098   1.315  0.3619 -0.1977 -0.0037
 7431SOL    HW133755   3.855   2.191   1.332  0.4436 -0.1476 -0.1854
 7431SOL    HW233756   3.955   2.091   1.266  0.4881  0.3872  0.1237
 7432SOL     OW33757   0.693   4.018   6.151  0.4217  0.3427 -0.1278
 7432SOL    HW133758   0.711   4.063   6.234  1.2144 -0.3653  0.0945
 7432SOL    HW233759   0.724   4.081   6.086 -0.0098 -0.6949 -1.3332
 7433SOL     OW33760   3.615   0.050   1.546  0.0406 -0.4045 -0.6842
 7433SOL    HW133761   3.708   0.069   1.555 -0.0447  0.5886 -1.9147
 7433SOL    HW233762   3.615   4.679   1.519  0.1670 -0.4463 -0.5367
 7434SOL     OW33763   2.191   0.654   3.173 -0.1279  0.4180 -0.1775
 7434SOL    HW133764   2.108   0.607   3.161  0.5462 -0.6288 -0.7689
 7434SOL    HW233765   2.264   0.592   3.168 -1.1555 -0.5753 -2.8237
 7435SOL     OW33766   4.149   1.813   8.490 -0.0413  0.6148  0.3767
 7435SOL    HW133767   4.199   1.820   8.572 -0.0799  1.5178  0.3243
 7435SOL    HW233768   4.222   1.828   8.430 -0.1016 -0.0842  0.1337
 7436SOL     OW33769   1.273   3.926   8.661 -0.9750  0.2957 -0.3270
 7436SOL    HW133770   1.357   3.942   8.704 -1.0106  0.3429 -0.2753
 7436SOL    HW233771   1.255   4.000   8.603 -2.1688  1.0696  1.0370
 7437SOL     OW33772   3.944   4.079   7.603  0.2789  0.2595  0.1042
 7437SOL    HW133773   3.864   4.119   7.568  1.2591  0.1620 -2.2581
 7437SOL    HW233774   4.001   4.090   7.527 -0.1025 -1.4007 -0.4368
 7438SOL     OW33775   4.203   0.157   0.579 -0.3137 -0.1139 -0.0556
 7438SOL    HW133776   4.238   0.246   0.581 -1.0189  0.1517  0.4040
 7438SOL    HW233777   4.284   0.110   0.600  0.4654  0.8816 -0.8532
 7439SOL     OW33778   1.370   3.157   7.893 -0.2468  0.3417  0.4314
 7439SOL    HW133779   1.357   3.118   7.807 -0.3994 -1.0390  1.0889
 7439SOL    HW233780   1.333   3.082   7.939 -1.7762 -0.1048 -1.4948
 7440SOL     OW33781   3.166   1.465   2.320  0.1029 -0.2166  0.5768
 7440SOL    HW133782   3.141   1.547   2.361 -0.2422 -1.1307  2.2060
 7440SOL    HW233783   3.184   1.417   2.400  1.3484 -2.0960 -0.8242
 7441SOL     OW33784   1.038   4.592   8.733  0.2157  0.1278  0.3118
 7441SOL    HW133785   1.124   4.621   8.704 -0.3851 -1.2105 -2.7986
 7441SOL    HW233786   1.017   4.642   8.812  0.5928  0.3802  0.2514
 7442SOL     OW33787   0.702   4.354  11.797  0.5026  0.3500  0.2651
 7442SOL    HW133788   0.769   4.396  11.852  1.3897 -1.8908  0.8774
 7442SOL    HW233789   0.755   4.303  11.735  2.5814  1.4820  1.1164
 7443SOL     OW33790   1.709   4.045   7.212 -0.3745  0.2497  0.0924
 7443SOL    HW133791   1.762   4.118   7.245  0.7026 -0.5070  0.0368
 7443SOL    HW233792   1.626   4.081   7.242  0.8644  2.1173  1.2737
 7444SOL     OW33793   4.562   2.967   4.836  0.3420  0.0871  0.5696
 7444SOL    HW133794   4.481   2.917   4.850  0.9514 -1.4919 -1.4500
 7444SOL    HW233795   4.586   2.942   4.746 -4.0461 -1.0921 -0.2550
 7445SOL     OW33796   1.157   2.853  16.812  0.0754  0.1715  0.5242
 7445SOL    HW133797   1.164   2.824  16.721 -3.5977 -0.8692  0.5920
 7445SOL    HW233798   1.087   2.795  16.841 -0.6156  0.0713 -1.3840
 7446SOL     OW33799   1.814   0.087   6.054 -0.1737  0.1309 -0.3077
 7446SOL    HW133800   1.813   0.181   6.067  0.0021 -0.1060  1.3378
 7446SOL    HW233801   1.884   0.057   6.112 -1.0833 -0.1566  0.6396
 7447SOL     OW33802   1.060   4.225  17.126 -0.5071  0.1866 -0.8629
 7447SOL    HW133803   1.116   4.239  17.202  0.7958  2.1024 -2.1723
 7447SOL    HW233804   1.117   4.253  17.055 -1.2126 -1.6618 -2.1568
 7448SOL     OW33805   1.173   2.773   7.863 -0.5763  0.0029  0.2686
 7448SOL    HW133806   1.247   2.719   7.834 -1.8389 -0.5232 -1.9495
 7448SOL    HW233807   1.115   2.706   7.899 -2.0143  0.0785 -1.9688
 7449SOL     OW33808   2.457   1.011   3.000  0.2184 -0.1175 -0.0210
 7449SOL    HW133809   2.484   1.095   2.962 -1.4599  1.0096  1.2748
 7449SOL    HW233810   2.532   0.977   3.049  0.0040 -0.8083 -0.1780
 7450SOL     OW33811   3.952   0.406   8.875  0.3210  0.1193  0.3716
 7450SOL    HW133812   3.944   0.417   8.970  2.1345  0.3385  0.5028
 7450SOL    HW233813   3.946   0.495   8.844 -3.2381 -0.6888 -1.1475
 7451SOL     OW33814   0.591   4.464   8.303 -0.5323 -0.4194 -0.0559
 7451SOL    HW133815   0.681   4.485   8.279  0.2172 -0.1217  2.9370
 7451SOL    HW233816   0.546   4.549   8.306 -1.5395 -1.0121  1.7144
 7452SOL     OW33817   4.409   4.032   9.584 -0.3013  0.0041 -0.0270
 7452SOL    HW133818   4.444   4.119   9.566 -1.8884  0.5271 -0.6431
 7452SOL    HW233819   4.387   4.037   9.678  1.1182 -1.2608  0.3724
 7453SOL     OW33820   3.131   0.088  15.985 -0.2964 -0.8406 -1.0264
 7453SOL    HW133821   3.121   0.172  16.030  1.3295 -1.3458  0.2529
 7453SOL    HW233822   3.115   0.111  15.893 -2.6544  1.8269  0.0265
 7454SOL     OW33823   4.214   1.692   9.662  0.0455 -0.2124 -0.2141
 7454SOL    HW133824   4.257   1.646   9.590  0.7546  0.3619 -0.1647
 7454SOL    HW233825   4.282   1.695   9.730  0.8873 -0.0830 -1.0599
 7455SOL     OW33826   2.178   2.754   4.635 -0.0165 -0.2667 -0.1100
 7455SOL    HW133827   2.227   2.698   4.696  1.1985 -1.0119 -1.7620
 7455SOL    HW233828   2.244   2.764   4.566 -0.2347 -0.5741 -0.3633
 7456SOL     OW33829   4.053   2.398   1.358 -0.6447  0.2343  0.6854
 7456SOL    HW133830   4.080   2.356   1.276 -0.2726 -0.1993  1.0285
 7456SOL    HW233831   3.962   2.418   1.339 -0.8377 -0.8617  0.4446
 7457SOL     OW33832   0.021   0.215   8.927  0.0809 -0.4416 -0.0446
 7457SOL    HW133833   0.110   0.250   8.928 -0.3449  0.6201  1.2309
 7457SOL    HW233834   4.688   0.284   8.967  0.9170  1.2744 -1.8598
 7458SOL     OW33835   0.622   1.197   2.175  0.6476  0.4263 -0.4170
 7458SOL    HW133836   0.539   1.151   2.183  1.2306 -0.1811  2.3119
 7458SOL    HW233837   0.613   1.235   2.088  1.7124 -0.4613 -0.9205
 7459SOL     OW33838   2.976   3.551   4.723 -0.2724  0.1210  0.7405
 7459SOL    HW133839   3.046   3.508   4.771 -1.1979 -1.8791  0.3038
 7459SOL    HW233840   2.911   3.557   4.793 -0.8081  0.8000  0.1874
 7460SOL     OW33841   3.243   0.893   7.316  0.2079 -0.4627  0.2432
 7460SOL    HW133842   3.223   0.983   7.344 -2.0463  0.0461 -3.0433
 7460SOL    HW233843   3.177   0.847   7.368  0.1023  1.6727  1.9989
 7461SOL     OW33844   1.230   4.639  14.241  0.0248  0.0896  0.1109
 7461SOL    HW133845   1.297   4.577  14.270  0.2149  0.8839  1.4055
 7461SOL    HW233846   1.155   4.580  14.240  0.8896 -1.0135 -0.2819
 7462SOL     OW33847   0.259   3.424  11.322  0.2347  0.2677  0.1560
 7462SOL    HW133848   0.252   3.337  11.283  2.1774 -0.5337  1.6139
 7462SOL    HW233849   0.166   3.445  11.318 -0.0743 -0.7049  2.5307
 7463SOL     OW33850   4.358   3.335   1.529 -0.1249 -0.1292  0.2424
 7463SOL    HW133851   4.393   3.401   1.468 -1.3914 -0.2035 -0.5627
 7463SOL    HW233852   4.275   3.316   1.485 -0.6036  0.6659  0.7999
 7464SOL     OW33853   1.229   1.795   9.380 -0.3337 -0.6645 -0.4696
 7464SOL    HW133854   1.240   1.872   9.435 -1.6142 -2.5333  2.4195
 7464SOL    HW233855   1.304   1.808   9.323 -1.7701  1.2612 -1.9220
 7465SOL     OW33856   3.062   0.999   4.185 -0.2422  0.1367 -0.0043
 7465SOL    HW133857   3.098   0.935   4.245  1.2038  0.5790 -0.4043
 7465SOL    HW233858   2.984   1.021   4.236 -2.2045 -0.3481 -2.8387
 7466SOL     OW33859   2.715   1.734   4.898  0.5018  0.2538  0.8586
 7466SOL    HW133860   2.685   1.666   4.959  3.1452 -0.3793  1.4714
 7466SOL    HW233861   2.676   1.811   4.938  2.0682  1.6517 -0.3000
 7467SOL     OW33862   1.069   3.094  10.997  0.1259 -0.1533 -0.2035
 7467SOL    HW133863   1.020   3.051  10.927 -2.1569 -0.2468  1.4674
 7467SOL    HW233864   1.123   3.157  10.948 -2.2040  1.2851 -0.8935
 7468SOL     OW33865   1.821   1.704   6.064 -0.1901 -0.0269  0.0321
 7468SOL    HW133866   1.793   1.702   6.155 -0.7321 -0.0372 -0.1343
 7468SOL    HW233867   1.904   1.749   6.083 -1.1575  0.7055  2.5080
 7469SOL     OW33868   4.269   0.758   5.136 -0.3418  0.0059  0.5418
 7469SOL    HW133869   4.344   0.778   5.081  1.4352 -2.9862  1.8721
 7469SOL    HW233870   4.203   0.823   5.112  0.5912  0.5635 -0.4943
 7470SOL     OW33871   1.705   3.236  10.002 -0.0586 -0.7793 -0.9344
 7470SOL    HW133872   1.789   3.208  10.039  0.4134  0.4039 -1.1076
 7470SOL    HW233873   1.684   3.322  10.039  2.8387  0.0798 -1.2537
 7471SOL     OW33874   3.949   4.410   4.250 -0.6392  0.3737 -0.4637
 7471SOL    HW133875   4.007   4.365   4.189 -1.1531  0.0943 -0.7390
 7471SOL    HW233876   4.000   4.478   4.295 -1.0240 -0.4867  1.2418
 7472SOL     OW33877   3.360   3.132   1.441  0.3381  0.5521  0.3928
 7472SOL    HW133878   3.304   3.132   1.363  0.8053  1.8396  0.0561
 7472SOL    HW233879   3.410   3.052   1.425 -0.4942  0.2063 -0.4953
 7473SOL     OW33880   4.040   2.668   6.936 -0.6133  0.4957 -0.0341
 7473SOL    HW133881   3.955   2.668   6.892 -0.5192 -2.6631 -0.2652
 7473SOL    HW233882   4.042   2.576   6.963  0.1932  0.8434  1.0929
 7474SOL     OW33883   2.578   0.360   9.178 -0.4207 -0.3380  0.1716
 7474SOL    HW133884   2.563   0.341   9.270 -0.0774  0.3751  0.3781
 7474SOL    HW233885   2.634   0.285   9.157 -1.2344  0.0029 -3.2240
 7475SOL     OW33886   2.353   2.595   5.475 -0.4914  0.0222 -0.0875
 7475SOL    HW133887   2.377   2.559   5.561 -2.6887 -1.6235 -0.1805
 7475SOL    HW233888   2.258   2.603   5.482 -0.5278 -0.8652  0.3405
 7476SOL     OW33889   3.297   2.213   8.887 -0.1067 -0.1439  0.0761
 7476SOL    HW133890   3.271   2.304   8.876  1.5712  0.3486  0.1859
 7476SOL    HW233891   3.361   2.216   8.959  1.0560  0.3210 -0.9740
 7477SOL     OW33892   4.079   0.815   5.625 -0.1877 -0.4255  0.4796
 7477SOL    HW133893   4.174   0.830   5.624 -0.4553  1.2590  0.3278
 7477SOL    HW233894   4.072   0.720   5.640 -1.1785 -0.8244 -2.4321
 7478SOL     OW33895   0.099   3.387   1.824 -0.3249  0.1857 -0.2960
 7478SOL    HW133896   0.047   3.340   1.759  0.8357 -1.4758 -0.0499
 7478SOL    HW233897   0.036   3.447   1.863 -1.0938  0.3112 -1.7313
 7479SOL     OW33898   3.717   4.300   3.737 -0.3184  0.6546  0.6453
 7479SOL    HW133899   3.752   4.389   3.734 -0.8123  0.7644 -2.1714
 7479SOL    HW233900   3.786   4.259   3.789  0.3441  1.0014  0.0444
 7480SOL     OW33901   1.605   1.687   5.643 -0.1431 -0.1481 -0.4235
 7480SOL    HW133902   1.595   1.593   5.657  1.0608  0.1958  2.6772
 7480SOL    HW233903   1.517   1.720   5.629  0.4278  1.1221 -1.0651
 7481SOL     OW33904   4.571   0.409   1.488  0.1928  0.2082 -0.4558
 7481SOL    HW133905   4.575   0.386   1.396 -1.6817  1.2459 -0.7922
 7481SOL    HW233906   4.509   0.482   1.493  1.3076  1.2311 -1.4832
 7482SOL     OW33907   3.713   1.332   2.605 -0.5158  0.2136 -0.4277
 7482SOL    HW133908   3.726   1.397   2.674 -1.6967  1.9994 -1.8823
 7482SOL    HW233909   3.638   1.292   2.650 -0.3548  1.0801  0.6049
 7483SOL     OW33910   3.676   1.879  16.338 -0.1638 -0.8079 -0.2293
 7483SOL    HW133911   3.733   1.905  16.265 -1.3392  0.3667 -0.7274
 7483SOL    HW233912   3.739   1.857  16.407  0.1378  3.2707  0.7768
 7484SOL     OW33913   4.702   3.727   0.695  0.0609  0.0060  0.1779
 7484SOL    HW133914   4.627   3.750   0.640  0.3301  0.7584  0.1263
 7484SOL    HW233915   4.665   3.656   0.748 -1.1304  0.6041  0.1508
 7485SOL     OW33916   3.212   4.446   0.602  0.3269 -0.0873 -0.0943
 7485SOL    HW133917   3.286   4.385   0.597 -0.9000 -1.7571  1.8472
 7485SOL    HW233918   3.151   4.386   0.646 -0.2469  1.4600  1.2256
 7486SOL     OW33919   1.444   1.880   4.144  0.0817  0.3342 -0.7431
 7486SOL    HW133920   1.505   1.922   4.084 -0.3222 -0.5378 -1.7552
 7486SOL    HW233921   1.474   1.791   4.159 -0.4882  0.3921  0.7263
 7487SOL     OW33922   2.080   2.735   9.088 -0.1413 -0.4887 -0.6219
 7487SOL    HW133923   2.112   2.825   9.080 -1.8487  0.3703  2.3593
 7487SOL    HW233924   2.028   2.715   9.010 -2.0296  0.5125  0.3715
 7488SOL     OW33925   0.987   3.412   4.851  0.4756  0.0728 -0.0808
 7488SOL    HW133926   0.901   3.381   4.879  0.5189  0.9283  0.9921
 7488SOL    HW233927   0.978   3.426   4.757  1.7394  2.1111  0.1023
 7489SOL     OW33928   0.929   1.531   4.654 -0.4496 -0.2830  0.1381
 7489SOL    HW133929   0.838   1.531   4.682 -1.1850 -0.3957 -2.2457
 7489SOL    HW233930   0.942   1.615   4.610  1.2256 -1.0177 -0.7768
 7490SOL     OW33931   2.862   3.636   2.695  0.5335  0.2461  0.2635
 7490SOL    HW133932   2.883   3.676   2.779  1.0994  0.5363 -0.0098
 7490SOL    HW233933   2.863   3.544   2.723  3.0057 -0.1860 -1.2132
 7491SOL     OW33934   4.516   0.847   0.909 -0.0861  0.0997  0.0108
 7491SOL    HW133935   4.451   0.855   0.978 -0.1993  1.3774 -0.2367
 7491SOL    HW233936   4.539   0.938   0.889  2.2200 -0.3052  0.8831
 7492SOL     OW33937   3.365   2.503   8.731  0.0326  0.1598  0.5042
 7492SOL    HW133938   3.426   2.565   8.770  1.7833 -1.6475  0.6341
 7492SOL    HW233939   3.406   2.481   8.647  1.6438 -0.0465  1.3340
 7493SOL     OW33940   1.293   1.343   6.289 -0.1282 -0.1738 -0.4355
 7493SOL    HW133941   1.204   1.370   6.269 -0.3756 -2.4484 -2.3525
 7493SOL    HW233942   1.326   1.431   6.308 -1.7939  0.6492 -1.4493
 7494SOL     OW33943   3.755   3.410   7.497  0.0487  0.2111 -0.7339
 7494SOL    HW133944   3.734   3.417   7.590  2.0012 -0.2561 -0.2742
 7494SOL    HW233945   3.832   3.355   7.512 -0.5975 -0.5503 -0.2041
 7495SOL     OW33946   1.950   0.329   9.020  0.3859 -0.0115 -0.3450
 7495SOL    HW133947   1.948   0.343   9.115  0.7387 -1.1814 -0.1711
 7495SOL    HW233948   2.037   0.363   9.000  0.1304 -0.4650 -2.1779
 7496SOL     OW33949   0.663   3.340  13.601  0.0614  0.3948 -0.0791
 7496SOL    HW133950   0.713   3.378  13.673 -0.9505 -0.1274  0.8895
 7496SOL    HW233951   0.712   3.257  13.596  1.8150  1.3817  0.8242
 7497SOL     OW33952   4.665   2.725  13.694  0.3048 -0.1210 -0.1814
 7497SOL    HW133953   4.582   2.691  13.727  0.4562 -0.3054  0.0129
 7497SOL    HW233954   4.694   2.658  13.632 -0.4787 -0.5420 -0.0850
 7498SOL     OW33955   3.499   3.398  10.182 -0.3528 -0.6181  0.6653
 7498SOL    HW133956   3.423   3.367  10.231 -1.3227  0.3450 -0.1966
 7498SOL    HW233957   3.557   3.323  10.176 -0.7502 -1.0326  2.1782
 7499SOL     OW33958   4.676   0.228   6.979  0.3318  0.2507 -0.1286
 7499SOL    HW133959   0.006   0.268   7.050 -0.1940 -0.0133  0.4009
 7499SOL    HW233960   0.029   0.186   6.934 -1.0942 -2.6352  0.1941
 7500SOL     OW33961   3.815   2.027   7.794  0.3933 -0.0769  0.3591
 7500SOL    HW133962   3.721   2.008   7.783  0.0449  0.6391  2.1233
 7500SOL    HW233963   3.859   1.948   7.762  1.8729  0.9125 -0.0032
 7501SOL     OW33964   3.508   2.334   7.334  0.6090 -0.7091 -0.5027
 7501SOL    HW133965   3.512   2.336   7.429  0.0814 -2.4608 -0.4523
 7501SOL    HW233966   3.594   2.302   7.306  0.7902 -2.1452  1.7191
 7502SOL     OW33967   1.677   0.821   2.038  0.4512  0.4731  0.2563
 7502SOL    HW133968   1.666   0.849   1.947  0.6627  3.2675  1.0822
 7502SOL    HW233969   1.732   0.895   2.066  0.5806  0.5023 -0.0773
 7503SOL     OW33970   0.583   2.350   9.793  0.4936  0.0357 -0.3188
 7503SOL    HW133971   0.566   2.427   9.848 -1.6646 -0.8921  0.3461
 7503SOL    HW233972   0.501   2.300   9.799  0.4492  0.0029 -1.2342
 7504SOL     OW33973   1.107   0.131  13.679  0.2374 -0.0706 -0.1657
 7504SOL    HW133974   1.082   0.050  13.634  1.3247 -0.6454  0.2705
 7504SOL    HW233975   1.020   0.163  13.705 -0.4597 -2.4560  0.4377
 7505SOL     OW33976   1.955   1.179   2.531 -0.3128  0.0376  0.0909
 7505SOL    HW133977   1.976   1.157   2.621  0.8395  1.0276  0.0646
 7505SOL    HW233978   1.947   1.274   2.538 -1.2402  0.0473 -1.1961
 7506SOL     OW33979   2.684   2.857   9.586  0.0263  0.2675 -0.2026
 7506SOL    HW133980   2.684   2.801   9.664  3.0666 -0.1074 -0.4970
 7506SOL    HW233981   2.647   2.932   9.634  1.0787  0.8221 -0.2470
 7507SOL     OW33982   0.345   0.794   7.104 -0.5670 -0.0501  0.1390
 7507SOL    HW133983   0.380   0.859   7.166  1.7857 -2.3782  1.2667
 7507SOL    HW233984   0.293   0.854   7.051  0.4494  2.2985  1.7741
 7508SOL     OW33985   4.248   0.239   4.580 -0.2259  0.0123  0.2010
 7508SOL    HW133986   4.163   0.273   4.550  0.0064 -0.4944 -1.0189
 7508SOL    HW233987   4.256   0.155   4.535  0.0393  0.7912 -1.2069
 7509SOL     OW33988   2.151   3.005   9.127 -0.3712 -0.7973 -0.3929
 7509SOL    HW133989   2.081   2.991   9.191 -0.8881 -2.8524 -1.3975
 7509SOL    HW233990   2.223   3.031   9.184 -0.5016  1.9093 -1.4661
 7510SOL     OW33991   4.251   2.352   2.237 -0.4400  0.0641 -0.3941
 7510SOL    HW133992   4.336   2.377   2.271  0.0068 -1.3858 -0.4228
 7510SOL    HW233993   4.282   2.283   2.177  2.2534  2.5705 -1.8801
 7511SOL     OW33994   4.198   3.362   9.226  0.1203  0.1847 -0.0981
 7511SOL    HW133995   4.210   3.456   9.217  0.3760  0.0732 -0.9098
 7511SOL    HW233996   4.243   3.331   9.304 -0.8629  0.5183  0.6128
 7512SOL     OW33997   2.850   2.852   1.566  0.0357 -0.6995 -0.8487
 7512SOL    HW133998   2.803   2.913   1.509 -0.2332  0.7656  0.9368
 7512SOL    HW233999   2.845   2.764   1.529  1.9107 -1.4857  0.8120
 7513SOL     OW34000   0.540   4.465  12.171 -0.0408  0.5027  0.1446
 7513SOL    HW134001   0.610   4.495  12.113 -0.4235  0.3349 -0.4122
 7513SOL    HW234002   0.565   4.500  12.256 -0.2143 -1.7781  1.1112
 7514SOL     OW34003   0.344   3.326   8.239  0.2081 -0.0672 -0.1257
 7514SOL    HW134004   0.356   3.305   8.331 -0.8822  0.1992  0.0767
 7514SOL    HW234005   0.435   3.347   8.218 -0.0703 -0.7928 -2.0931
 7515SOL     OW34006   4.483   0.428  16.510 -0.3648 -0.9676 -0.4070
 7515SOL    HW134007   4.485   0.389  16.423 -0.7068 -0.7578 -0.5080
 7515SOL    HW234008   4.560   0.383  16.546 -0.0552 -1.5834 -1.8759
 7516SOL     OW34009   2.071   3.979   5.486 -0.0214 -0.4437 -0.4795
 7516SOL    HW134010   2.146   4.028   5.454  1.0686 -1.0043  1.2191
 7516SOL    HW234011   2.077   3.905   5.425  0.3300 -0.0296 -0.9498
 7517SOL     OW34012   1.256   0.253  14.918 -0.3595  0.2166  0.2470
 7517SOL    HW134013   1.295   0.291  14.839  0.9976 -1.9873 -0.1469
 7517SOL    HW234014   1.317   0.288  14.983  1.3501 -2.4153  0.0700
 7518SOL     OW34015   0.419   2.855   4.453  0.6173  0.4933 -0.4572
 7518SOL    HW134016   0.396   2.947   4.437 -0.5341  0.4298  0.7647
 7518SOL    HW234017   0.393   2.820   4.368  0.6881 -0.9789  0.1373
 7519SOL     OW34018   3.463   1.691   7.385  0.0237  0.6024 -0.7168
 7519SOL    HW134019   3.418   1.710   7.467 -1.0989  0.1972 -1.2469
 7519SOL    HW234020   3.538   1.643   7.422 -0.9836  0.4599  1.1117
 7520SOL     OW34021   1.202   1.570   4.278 -0.3069  0.4272 -0.0070
 7520SOL    HW134022   1.186   1.511   4.352 -2.1357  3.3220  1.8839
 7520SOL    HW234023   1.243   1.506   4.219 -0.7367 -0.3570  0.5539
 7521SOL     OW34024   0.100   3.917  14.099  0.1653  0.0991 -0.0923
 7521SOL    HW134025   0.026   3.943  14.043 -0.5524  0.3860  0.9891
 7521SOL    HW234026   0.085   3.974  14.174  0.5067  0.9979 -0.7199
 7522SOL     OW34027   4.702   0.356   5.026 -0.6672 -0.1157  0.0563
 7522SOL    HW134028   0.046   0.291   5.000 -0.0345 -0.1514  1.7378
 7522SOL    HW234029   4.671   0.379   4.938  0.0760 -3.5783 -1.0887
 7523SOL     OW34030   1.855   0.963   4.222  0.6256 -0.8228  0.0372
 7523SOL    HW134031   1.764   0.972   4.249  0.1087 -0.0138 -1.9377
 7523SOL    HW234032   1.843   0.909   4.144  1.8101 -0.4867 -0.3844
 7524SOL     OW34033   0.031   1.113   8.660 -0.6376  0.2379  0.2451
 7524SOL    HW134034   0.061   1.041   8.715 -1.1754 -0.5552 -0.5001
 7524SOL    HW234035   0.037   1.188   8.719 -0.1137  0.1594  0.2952
 7525SOL     OW34036   1.428   4.128   7.637  0.0076 -0.0814  0.6168
 7525SOL    HW134037   1.484   4.093   7.568  0.2106  3.3397 -0.9658
 7525SOL    HW234038   1.475   4.080   7.706 -0.8307 -0.1548  1.1370
 7526SOL     OW34039   1.195   3.069   1.987 -0.3219 -0.1825 -0.7823
 7526SOL    HW134040   1.148   3.121   1.922 -0.5153 -0.7381 -1.0888
 7526SOL    HW234041   1.141   3.083   2.065 -0.2508 -1.5455 -0.4786
 7527SOL     OW34042   2.190   0.808   4.084 -0.2809  0.9483  0.4545
 7527SOL    HW134043   2.142   0.743   4.032 -0.3964 -0.8587  2.8222
 7527SOL    HW234044   2.261   0.815   4.021 -0.8489  1.8812 -0.0775
 7528SOL     OW34045   3.431   4.067   8.983 -0.4367 -0.4000 -0.3209
 7528SOL    HW134046   3.391   4.111   9.058 -0.0996  1.0210 -0.9705
 7528SOL    HW234047   3.348   4.040   8.945 -0.9363  0.3942  0.2089
 7529SOL     OW34048   1.029   0.738   9.100  0.0567  0.1964 -0.1707
 7529SOL    HW134049   0.998   0.815   9.147 -1.0915 -1.2541  1.4515
 7529SOL    HW234050   1.000   0.668   9.159 -2.4232  1.4723  0.1035
 7530SOL     OW34051   2.707   2.754   6.540  1.1361  0.3925  0.1225
 7530SOL    HW134052   2.770   2.758   6.612  3.3220 -1.4600 -1.6816
 7530SOL    HW234053   2.748   2.714   6.464 -0.0607 -1.3042  0.3532
 7531SOL     OW34054   1.534   2.104   9.400 -0.2858 -0.1515 -0.2204
 7531SOL    HW134055   1.587   2.178   9.432 -3.5555  2.4211 -0.7159
 7531SOL    HW234056   1.602   2.038   9.410  0.1570  0.0434 -2.1404
 7532SOL     OW34057   2.611   0.096  14.675 -0.6231 -0.0550  0.0628
 7532SOL    HW134058   2.549   0.159  14.640  0.5469  0.2492 -1.4451
 7532SOL    HW234059   2.685   0.147  14.707  0.3362  1.0579 -3.8996
 7533SOL     OW34060   1.252   4.382   1.497 -0.0883 -0.1200  0.0794
 7533SOL    HW134061   1.221   4.434   1.571 -1.2327 -0.0268 -0.4697
 7533SOL    HW234062   1.182   4.317   1.503  0.1991 -0.4206  0.2188
 7534SOL     OW34063   2.767   0.782   3.503  0.5883 -0.6096 -0.4460
 7534SOL    HW134064   2.803   0.714   3.560  2.3941 -0.1629 -1.0447
 7534SOL    HW234065   2.682   0.745   3.480 -0.5641  1.6918  0.1819
 7535SOL     OW34066   2.139   1.465   2.683  0.4836  0.3321 -0.4748
 7535SOL    HW134067   2.075   1.449   2.614 -0.2528 -0.0711  0.2913
 7535SOL    HW234068   2.082   1.428   2.751  0.7742  2.2726  0.8220
 7536SOL     OW34069   2.331   3.581  12.935 -0.7354 -0.0813 -0.1431
 7536SOL    HW134070   2.392   3.560  12.864  0.6449 -0.0619  1.0425
 7536SOL    HW234071   2.312   3.493  12.967  0.1975 -0.5991 -0.9827
 7537SOL     OW34072   2.135   2.862   7.203  0.2142  0.7294 -0.7748
 7537SOL    HW134073   2.202   2.926   7.227 -0.2951  0.8316  0.3771
 7537SOL    HW234074   2.158   2.847   7.111  1.1850  0.3740 -0.4782
 7538SOL     OW34075   4.566   0.363   3.951  0.0903  0.2910 -0.0358
 7538SOL    HW134076   4.527   0.275   3.953  2.4209 -0.7216  1.2787
 7538SOL    HW234077   4.555   0.374   4.046 -1.6495  3.3004 -0.5841
 7539SOL     OW34078   1.535   4.124   1.708 -0.5745  0.0852  0.2821
 7539SOL    HW134079   1.475   4.049   1.704 -1.2395  0.6030  0.6394
 7539SOL    HW234080   1.558   4.144   1.799  0.3054  0.5077 -0.0350
 7540SOL     OW34081   1.005   3.874   4.581 -0.1658 -0.0654  0.1577
 7540SOL    HW134082   0.950   3.945   4.614  0.4541  0.3321  0.3496
 7540SOL    HW234083   0.953   3.829   4.514  1.0772 -0.5869 -0.4511
 7541SOL     OW34084   1.679   2.532   2.694  0.6218  0.2639 -0.0301
 7541SOL    HW134085   1.703   2.512   2.603 -0.9049  0.5093 -0.5008
 7541SOL    HW234086   1.616   2.603   2.678  0.2585 -0.4812 -1.9031
 7542SOL     OW34087   3.581   3.327   6.857  0.0131 -0.4172  0.1550
 7542SOL    HW134088   3.543   3.240   6.875 -0.3305  0.1755  2.3537
 7542SOL    HW234089   3.615   3.330   6.768 -0.1577  1.5625  0.1683
 7543SOL     OW34090   2.040   4.493   5.714 -0.2113 -0.0331  0.7403
 7543SOL    HW134091   1.987   4.419   5.746 -0.9038  0.5499  0.9460
 7543SOL    HW234092   2.024   4.485   5.620  2.3188  0.4503  0.2885
 7544SOL     OW34093   2.806   0.427  11.543 -0.0720 -0.1363  0.7713
 7544SOL    HW134094   2.856   0.426  11.625  1.6092 -0.3899 -0.2406
 7544SOL    HW234095   2.726   0.379  11.562  0.4708 -0.8617  1.2326
 7545SOL     OW34096   3.589   1.105  15.426 -0.2266 -0.0136 -0.2111
 7545SOL    HW134097   3.518   1.042  15.435  0.1793 -0.2786  1.1108
 7545SOL    HW234098   3.658   1.046  15.458  0.7792  1.5322  0.5305
 7546SOL     OW34099   1.235   0.523  14.074 -0.5068 -0.4146  0.4168
 7546SOL    HW134100   1.179   0.552  14.147 -1.6280  1.5821 -1.2316
 7546SOL    HW234101   1.297   0.473  14.128 -1.4750 -1.6546  0.3692
 7547SOL     OW34102   0.883   3.517   1.843  0.3775 -0.6343  0.4685
 7547SOL    HW134103   0.848   3.562   1.921 -0.3888  2.4660 -1.6722
 7547SOL    HW234104   0.930   3.588   1.799 -1.4460  0.4760  0.3301
 7548SOL     OW34105   3.315   2.593   2.096  0.0399 -0.3199 -0.4733
 7548SOL    HW134106   3.222   2.611   2.080  0.2229 -0.4287 -1.6052
 7548SOL    HW234107   3.324   2.500   2.077 -1.3605 -1.0089  2.2547
 7549SOL     OW34108   4.681   4.393  12.771 -0.5630 -0.2173 -0.1394
 7549SOL    HW134109   4.629   4.395  12.691 -0.9026 -1.1976  0.0572
 7549SOL    HW234110   4.670   4.304  12.802  1.1263 -0.7937 -1.1988
 7550SOL     OW34111   3.840   3.604   6.499 -0.4733  0.3482 -0.1097
 7550SOL    HW134112   3.806   3.567   6.581 -1.9187 -1.2623 -1.4543
 7550SOL    HW234113   3.871   3.689   6.532 -1.2467  1.3406 -1.9232
 7551SOL     OW34114   3.402   3.639   7.698  0.1908 -0.0723  0.4150
 7551SOL    HW134115   3.419   3.715   7.642  0.9232 -0.1432  0.5519
 7551SOL    HW234116   3.324   3.661   7.750 -0.2998 -0.3500 -0.1936
 7552SOL     OW34117   2.931   1.052   9.308 -0.1832  0.1631  0.6573
 7552SOL    HW134118   2.947   0.959   9.319 -3.8627 -0.3259  1.6831
 7552SOL    HW234119   3.002   1.101   9.350  0.7467 -0.7882  0.1829
 7553SOL     OW34120   4.706   4.375   6.028 -0.0170  0.3687 -0.6741
 7553SOL    HW134121   0.023   4.424   6.101  2.0914 -0.9453 -0.8843
 7553SOL    HW234122   4.701   4.449   5.967 -1.1315  1.0817  0.2956
 7554SOL     OW34123   1.866   3.622   7.010  0.3542 -0.4756  0.5668
 7554SOL    HW134124   1.854   3.716   7.026 -2.3448 -0.8200  0.4744
 7554SOL    HW234125   1.960   3.618   6.992  0.5525 -1.5042  1.7844
 7555SOL     OW34126   3.274   3.859   3.523 -0.2854  0.1253 -1.1830
 7555SOL    HW134127   3.207   3.871   3.590  1.4576  1.9585  0.2109
 7555SOL    HW234128   3.346   3.817   3.569 -0.5758 -0.1958 -1.0203
 7556SOL     OW34129   2.620   0.209   9.412  0.0229 -0.8371  0.7581
 7556SOL    HW134130   2.619   0.119   9.445  0.8978 -1.6110 -1.3112
 7556SOL    HW234131   2.532   0.240   9.434  0.9117  0.8797  1.8490
 7557SOL     OW34132   3.283   3.194   4.568 -0.1780  0.2084 -0.5189
 7557SOL    HW134133   3.336   3.188   4.648  0.1365  1.1957 -0.6516
 7557SOL    HW234134   3.336   3.258   4.521  0.9585  1.3745  2.3267
 7558SOL     OW34135   4.705   1.006   7.595  0.6746  0.2834 -0.0714
 7558SOL    HW134136   4.707   1.087   7.544  0.4123 -0.0667 -0.6481
 7558SOL    HW234137   4.642   0.957   7.542  1.5172 -1.0309  0.1339
 7559SOL     OW34138   2.386   3.395   8.618  0.1704 -0.1237 -0.0350
 7559SOL    HW134139   2.341   3.315   8.648 -1.4214  0.5796 -0.5446
 7559SOL    HW234140   2.312   3.436   8.573  0.1428  0.4252  0.5083
 7560SOL     OW34141   3.134   4.450  11.501  0.4129  0.2752  0.1931
 7560SOL    HW134142   3.107   4.541  11.491 -0.7710 -0.1630 -0.6590
 7560SOL    HW234143   3.211   4.440  11.444  0.4347  0.4709  0.1881
 7561SOL     OW34144   1.581   0.607  16.938  0.6121  0.1007 -0.9834
 7561SOL    HW134145   1.541   0.609  16.851  1.6786  3.9942 -1.3803
 7561SOL    HW234146   1.602   0.700  16.942  1.3039 -0.0650 -0.8008
 7562SOL     OW34147   0.048   4.556   4.850 -0.4230 -0.1737  0.0470
 7562SOL    HW134148   4.706   4.542   4.920  0.2191  0.6843  0.7872
 7562SOL    HW234149   0.005   4.503   4.782 -2.5575 -0.4465  1.6246
 7563SOL     OW34150   0.708   0.432  12.382  0.1700 -0.3161  0.0574
 7563SOL    HW134151   0.679   0.452  12.293 -1.2270  3.3685  1.3273
 7563SOL    HW234152   0.641   0.478  12.432 -0.6907  2.4910 -3.6407
 7564SOL     OW34153   0.714   3.972   8.354 -0.9217  0.0755  0.0348
 7564SOL    HW134154   0.754   3.887   8.339 -0.2227  0.6099 -1.1444
 7564SOL    HW234155   0.790   4.026   8.377 -1.1665 -0.3942  1.9051
 7565SOL     OW34156   4.072   2.994   8.776  0.0391 -0.2767 -0.2167
 7565SOL    HW134157   4.091   3.072   8.722 -0.4420  2.1691  3.1697
 7565SOL    HW234158   3.977   2.989   8.773  0.1618 -3.0544  0.8711
 7566SOL     OW34159   1.720   0.376   1.494  0.9453  0.3812  0.1131
 7566SOL    HW134160   1.788   0.428   1.450  1.0136  1.0796  1.0326
 7566SOL    HW234161   1.692   0.320   1.422 -0.2726  0.3314  0.6248
 7567SOL     OW34162   2.030   1.135   5.831 -0.3753 -0.0841  0.0224
 7567SOL    HW134163   1.983   1.180   5.901  1.8002  1.0728  0.7602
 7567SOL    HW234164   1.956   1.077   5.816 -1.3303  0.9419  0.7388
 7568SOL     OW34165   3.925   0.872  10.626 -0.3264  0.5507 -0.1592
 7568SOL    HW134166   3.984   0.947  10.630 -0.4610  0.7746 -2.0700
 7568SOL    HW234167   3.988   0.800  10.629  0.5099  1.2260 -1.3796
 7569SOL     OW34168   0.476   0.434   0.109  0.3685 -0.1819  0.5476
 7569SOL    HW134169   0.514   0.503   0.055  1.2718 -0.7248  0.4939
 7569SOL    HW234170   0.389   0.473   0.109  1.0003  1.2047 -1.3140
 7570SOL     OW34171   0.499   2.778   2.980  0.1315  0.0694 -0.1894
 7570SOL    HW134172   0.473   2.702   2.927  1.6667 -1.7072  1.6515
 7570SOL    HW234173   0.589   2.745   2.985  0.8359  2.3036  1.2813
 7571SOL     OW34174   0.488   1.254   8.778 -0.1555 -0.3924  0.2833
 7571SOL    HW134175   0.435   1.321   8.734  1.1286 -0.6367 -1.6504
 7571SOL    HW234176   0.504   1.307   8.856  0.6089  0.4643 -0.4515
 7572SOL     OW34177   3.763   2.866   6.220 -0.5011  0.2291  0.1700
 7572SOL    HW134178   3.839   2.823   6.179  0.3540  1.0094  0.9309
 7572SOL    HW234179   3.721   2.904   6.143  0.5847  2.5590  0.7249
 7573SOL     OW34180   2.675   2.033  14.042  0.3597  0.1185  0.2491
 7573SOL    HW134181   2.616   2.060  13.971 -1.9456  1.1323  2.5395
 7573SOL    HW234182   2.617   1.999  14.110  0.6931 -3.4297 -1.2619
 7574SOL     OW34183   4.298   4.514   9.967  0.3599  0.0063  0.5427
 7574SOL    HW134184   4.230   4.451   9.944 -0.1861  1.1187 -0.9032
 7574SOL    HW234185   4.259   4.541  10.051  0.7552 -1.1425  1.0904
 7575SOL     OW34186   2.206   3.439   7.913 -0.2149 -0.2308  0.1353
 7575SOL    HW134187   2.228   3.347   7.925 -1.3420 -0.6166 -0.8087
 7575SOL    HW234188   2.230   3.468   7.825  3.0470 -1.0922  0.7498
 7576SOL     OW34189   1.627   1.048  14.233 -0.2183 -0.3879 -0.3907
 7576SOL    HW134190   1.680   1.033  14.154 -1.0872 -3.6906 -0.3470
 7576SOL    HW234191   1.558   0.985  14.214 -0.4189 -0.6041  1.0503
 7577SOL     OW34192   3.111   4.041   5.579  0.1716 -0.4584  0.0557
 7577SOL    HW134193   3.059   4.089   5.514  0.4723 -0.8364 -0.4722
 7577SOL    HW234194   3.130   4.111   5.641 -1.8123 -1.5982  1.9420
 7578SOL     OW34195   3.956   0.045   2.323 -0.4476 -0.6992 -0.1384
 7578SOL    HW134196   4.013   0.121   2.334 -0.6081 -0.5565 -0.2961
 7578SOL    HW234197   4.017   4.708   2.368  2.0637 -0.6872 -3.5800
 7579SOL     OW34198   2.516   0.495   5.447 -0.2765  0.0699 -0.5533
 7579SOL    HW134199   2.603   0.532   5.430  0.1644 -0.0349  1.5209
 7579SOL    HW234200   2.539   0.402   5.450  2.3945  0.7000 -1.7134
 7580SOL     OW34201   2.945   3.836   6.862 -0.1063  0.2119  0.5429
 7580SOL    HW134202   2.919   3.755   6.906 -0.4072 -0.7043 -1.3106
 7580SOL    HW234203   2.974   3.889   6.935 -0.1680  0.3289  0.4818
 7581SOL     OW34204   4.493   0.574   5.443 -0.0557  0.2037 -0.1333
 7581SOL    HW134205   4.582   0.548   5.419  0.8812  1.2163  2.2988
 7581SOL    HW234206   4.504   0.669   5.432  2.2323 -0.0472 -0.0928
 7582SOL     OW34207   2.365   2.987   4.711 -0.1892 -0.4565 -0.0856
 7582SOL    HW134208   2.426   2.973   4.639 -0.1448 -0.3305 -0.0722
 7582SOL    HW234209   2.387   2.916   4.771  0.5700 -1.1224 -1.1499
 7583SOL     OW34210   4.609   0.832   2.590  0.0113  0.3007  0.2774
 7583SOL    HW134211   4.617   0.766   2.660  2.3347 -0.3670 -0.6125
 7583SOL    HW234212   4.546   0.797   2.527 -0.2323  0.2680  0.5404
 7584SOL     OW34213   4.030   0.811   3.747  0.3102  0.7935 -0.3770
 7584SOL    HW134214   4.118   0.842   3.767  0.6580  0.2718 -1.0729
 7584SOL    HW234215   4.012   0.870   3.673  0.7811  2.0156  0.4784
 7585SOL     OW34216   4.080   1.646   1.997 -0.4733 -0.4048  0.1403
 7585SOL    HW134217   3.998   1.675   1.958  1.0088  1.1351 -1.8461
 7585SOL    HW234218   4.083   1.555   1.968  2.4202 -0.5130  0.7963
 7586SOL     OW34219   2.829   1.294   9.459  1.0634 -0.3286  0.5511
 7586SOL    HW134220   2.834   1.370   9.517  1.2150  0.7723 -0.8975
 7586SOL    HW234221   2.917   1.262   9.442  0.8984  0.3225 -1.5126
 7587SOL     OW34222   2.343   0.287  12.366 -0.5830  0.1964  0.5090
 7587SOL    HW134223   2.278   0.277  12.296  1.2116 -0.6356 -1.0348
 7587SOL    HW234224   2.421   0.283  12.310  0.1131 -1.4511  1.6066
 7588SOL     OW34225   1.119   2.770   6.431  0.3247  0.0521  0.4050
 7588SOL    HW134226   1.041   2.802   6.385 -0.7333  1.1174  2.9413
 7588SOL    HW234227   1.077   2.767   6.517  2.2084  1.4560  1.3759
 7589SOL     OW34228   0.871   1.018   2.298  0.4775  0.2232  0.3846
 7589SOL    HW134229   0.823   0.989   2.221  2.5608  1.1081 -1.2401
 7589SOL    HW234230   0.834   1.104   2.321 -1.7251 -0.8490  0.8795
 7590SOL     OW34231   0.801   2.706   6.988  0.1107 -0.0008  0.3337
 7590SOL    HW134232   0.815   2.800   6.979  1.6286 -0.4498 -2.1328
 7590SOL    HW234233   0.718   2.703   7.036  0.6187  0.0457  1.2044
 7591SOL     OW34234   0.692   3.790   8.818 -0.2311  0.7624 -0.1129
 7591SOL    HW134235   0.613   3.768   8.866 -0.0241  2.7059  1.1356
 7591SOL    HW234236   0.651   3.844   8.750 -0.4158 -2.3755 -2.4960
 7592SOL     OW34237   1.382   1.223   4.374  0.5867 -0.1556  0.2154
 7592SOL    HW134238   1.438   1.269   4.312 -0.1864  0.6885  0.1561
 7592SOL    HW234239   1.451   1.159   4.395 -1.3441 -2.7546 -1.4165
 7593SOL     OW34240   2.193   1.684   2.823  0.4022  0.4143 -0.3723
 7593SOL    HW134241   2.195   1.751   2.754 -0.4530  1.0015  0.1631
 7593SOL    HW234242   2.185   1.608   2.766  2.2753  0.3160 -0.4913
 7594SOL     OW34243   1.857   3.710   4.867  0.4351  0.2232 -0.4281
 7594SOL    HW134244   1.948   3.690   4.889  0.1049  0.3445  1.1054
 7594SOL    HW234245   1.800   3.688   4.941 -1.7204  0.5458 -2.0118
 7595SOL     OW34246   2.458   0.799   5.720 -0.4164 -0.1659  0.0710
 7595SOL    HW134247   2.403   0.860   5.769 -0.8639 -0.6388  0.1522
 7595SOL    HW234248   2.537   0.853   5.724 -0.6055  0.1444 -0.4441
 7596SOL     OW34249   4.278   0.256   5.960 -0.2514 -0.2171 -0.1133
 7596SOL    HW134250   4.195   0.302   5.954  1.0256  1.9517 -1.0902
 7596SOL    HW234251   4.302   0.277   6.051 -3.0195  1.7150  0.1498
 7597SOL     OW34252   1.357   0.537   0.779  0.1054 -0.0440 -0.0484
 7597SOL    HW134253   1.443   0.568   0.808  1.0435 -2.0581 -0.6881
 7597SOL    HW234254   1.382   0.462   0.724 -0.5869  1.5894 -2.6098
 7598SOL     OW34255   1.846   1.360   4.520 -0.4345  0.1787  0.1007
 7598SOL    HW134256   1.861   1.320   4.435  0.4351 -1.3521  0.9807
 7598SOL    HW234257   1.886   1.298   4.581 -0.2920  0.3628  0.1965
 7599SOL     OW34258   0.350   1.902   4.114 -0.3639 -0.0821 -0.3132
 7599SOL    HW134259   0.276   1.875   4.060  0.5714  0.0026 -1.6221
 7599SOL    HW234260   0.344   1.995   4.094 -3.1182 -0.1229  0.2849
 7600SOL     OW34261   2.816   4.118   4.313  0.4687  0.7165 -0.4078
 7600SOL    HW134262   2.845   4.208   4.327  3.4195 -0.2991  0.1526
 7600SOL    HW234263   2.731   4.114   4.355 -0.7283 -0.3240 -2.9256
 7601SOL     OW34264   0.685   3.787  17.497  0.6391  0.0511 -1.0506
 7601SOL    HW134265   0.631   3.827  17.429  0.5571  0.2176 -0.8869
 7601SOL    HW234266   0.763   3.759  17.448 -1.0110 -2.2427 -2.3823
 7602SOL     OW34267   2.894   2.005  10.234 -0.6541 -0.3341 -0.3762
 7602SOL    HW134268   2.926   2.092  10.259 -0.7142 -0.7943  1.3182
 7602SOL    HW234269   2.960   1.948  10.272 -2.2064 -2.3818 -0.7691
 7603SOL     OW34270   2.238   4.441   7.660 -0.0208 -0.5534 -0.5571
 7603SOL    HW134271   2.219   4.353   7.692 -0.6738  0.5954  2.2471
 7603SOL    HW234272   2.324   4.472   7.689 -0.4126  0.3191 -0.3283
 7604SOL     OW34273   1.255   1.875   3.458  0.3055  0.7411 -0.2424
 7604SOL    HW134274   1.209   1.905   3.537 -0.6056  0.4392 -0.6530
 7604SOL    HW234275   1.178   1.855   3.404  1.0764  0.3195 -1.1788
 7605SOL     OW34276   1.540   2.845   7.989  0.9025 -0.1040  0.1913
 7605SOL    HW134277   1.570   2.754   7.985  3.9386  0.8962  0.0767
 7605SOL    HW234278   1.505   2.865   7.903  3.7090 -0.1813 -0.9510
 7606SOL     OW34279   1.678   3.780  15.844 -0.3156  0.4586 -0.6961
 7606SOL    HW134280   1.674   3.859  15.789 -0.7192  1.3978  0.6671
 7606SOL    HW234281   1.749   3.741  15.794 -1.0749 -0.5921 -0.9561
 7607SOL     OW34282   3.282   4.248   3.906  0.0498 -0.6055 -0.1239
 7607SOL    HW134283   3.322   4.167   3.875 -0.6214 -1.2549  0.7063
 7607SOL    HW234284   3.359   4.301   3.931 -0.6034  0.2888  0.0083
 7608SOL     OW34285   0.586   0.968   0.312 -0.3429  1.1845 -0.2046
 7608SOL    HW134286   0.676   0.943   0.332 -0.4337  2.8026  2.1899
 7608SOL    HW234287   0.556   1.010   0.393 -0.3828  2.3910 -0.8545
 7609SOL     OW34288   0.223   1.278   5.910 -0.0610  0.3412  1.2917
 7609SOL    HW134289   0.267   1.212   5.964  3.0541 -0.1359 -1.8095
 7609SOL    HW234290   0.246   1.251   5.821  1.2391 -0.5291  1.8958
 7610SOL     OW34291   1.709   0.341   0.989  0.1003 -0.4947  0.3467
 7610SOL    HW134292   1.777   0.408   0.994 -0.4759  0.0474  0.8862
 7610SOL    HW234293   1.746   0.290   0.916 -1.7340 -0.7592 -0.3857
 7611SOL     OW34294   0.859   0.558   3.779 -0.3335  0.3069  0.2513
 7611SOL    HW134295   0.777   0.518   3.751  1.5100 -2.3492 -1.3221
 7611SOL    HW234296   0.828   0.612   3.851 -2.2713  0.6636 -0.8608
 7612SOL     OW34297   0.977   0.983   2.744  0.2719 -0.0006 -0.0266
 7612SOL    HW134298   0.985   0.989   2.649 -2.0342  0.5857 -0.1909
 7612SOL    HW234299   0.986   1.076   2.765  1.8894  0.1007 -1.1637
 7613SOL     OW34300   1.974   1.206  14.133 -0.4845  0.4231 -0.5358
 7613SOL    HW134301   2.005   1.136  14.191 -0.9835 -1.2646 -2.3004
 7613SOL    HW234302   1.888   1.170  14.113  0.0746 -0.1429 -1.9267
 7614SOL     OW34303   3.855   4.040  12.933  0.1908  0.4892 -0.8495
 7614SOL    HW134304   3.810   4.109  12.982 -0.8290  0.5285 -1.8477
 7614SOL    HW234305   3.928   4.087  12.893  1.1065  1.4321  1.9088
 7615SOL     OW34306   2.938   0.587   6.913 -0.4358  0.2886  0.5319
 7615SOL    HW134307   2.985   0.618   6.835  0.0205 -1.0983  0.2506
 7615SOL    HW234308   2.946   0.661   6.973  1.3446  0.6469 -0.1339
 7616SOL     OW34309   4.646   3.402   2.171  0.0512  0.1424  0.4234
 7616SOL    HW134310   4.623   3.344   2.099  3.0618 -0.3740 -0.0835
 7616SOL    HW234311   0.016   3.381   2.191 -0.6673 -0.9866  2.4666
 7617SOL     OW34312   4.100   3.094  11.206 -0.8542 -0.2353  0.5213
 7617SOL    HW134313   4.111   3.116  11.113 -1.2556 -0.5115  0.4069
 7617SOL    HW234314   4.011   3.127  11.213 -0.6992  0.3274 -0.1914
 7618SOL     OW34315   3.704   0.605   1.395 -0.0519  0.2899  0.0820
 7618SOL    HW134316   3.650   0.682   1.416  0.0917 -0.1879  2.2390
 7618SOL    HW234317   3.788   0.650   1.389 -0.2849  1.0666  2.7934
 7619SOL     OW34318   3.965   1.374  12.919 -0.2595 -0.7254 -0.0561
 7619SOL    HW134319   4.014   1.309  12.867 -1.0636 -0.8511 -0.6602
 7619SOL    HW234320   3.915   1.311  12.971 -1.2101  1.9946  2.3132
 7620SOL     OW34321   3.425   1.698   6.291 -0.2355  0.1515  0.6500
 7620SOL    HW134322   3.464   1.705   6.378  1.1947 -1.5182  0.1516
 7620SOL    HW234323   3.391   1.785   6.271  0.8749  0.2254 -0.9285
 7621SOL     OW34324   3.976   3.512   7.903  0.9446 -0.0805  0.2136
 7621SOL    HW134325   3.929   3.507   7.820 -0.2255 -0.1579  0.8720
 7621SOL    HW234326   3.908   3.540   7.965 -0.8196 -1.3562 -1.1553
 7622SOL     OW34327   0.070   0.085   1.468 -0.0407 -0.2909 -0.0199
 7622SOL    HW134328   0.062   4.715   1.496 -0.5019 -0.3189 -0.2462
 7622SOL    HW234329   0.097   0.122   1.552 -0.2660  0.1529 -0.1419
 7623SOL     OW34330   1.113   1.081   7.204  0.7321  0.2251 -0.1737
 7623SOL    HW134331   1.018   1.073   7.216  0.6695  1.0153 -0.1420
 7623SOL    HW234332   1.119   1.176   7.214  2.3028  0.1743 -0.5781
 7624SOL     OW34333   1.905   1.022   7.991  0.1444  0.3627 -0.2274
 7624SOL    HW134334   1.830   1.057   7.944  0.1420  1.5985  0.6738
 7624SOL    HW234335   1.870   0.945   8.036 -0.9596  1.6821  1.1832
 7625SOL     OW34336   4.389   3.294  12.739  0.0193  0.2001  0.3089
 7625SOL    HW134337   4.433   3.367  12.783  2.5714  0.3599 -2.4886
 7625SOL    HW234338   4.372   3.329  12.651 -1.5948 -0.7638  0.2340
 7626SOL     OW34339   4.611   4.355  16.294 -0.0154 -0.6387 -0.0034
 7626SOL    HW134340   4.696   4.391  16.322 -0.0961 -0.3699 -0.1052
 7626SOL    HW234341   4.559   4.355  16.375 -0.8854 -3.1710 -0.5723
 7627SOL     OW34342   2.986   1.460  11.806  0.0431  0.2536  0.3265
 7627SOL    HW134343   2.973   1.367  11.789  0.0595  0.3534 -0.2423
 7627SOL    HW234344   2.913   1.487  11.862 -1.0142  0.3241 -1.0791
 7628SOL     OW34345   4.612   2.768  13.231 -0.0546  0.3621 -0.2603
 7628SOL    HW134346   4.615   2.811  13.316 -2.1398  1.3954 -0.6964
 7628SOL    HW234347   4.639   2.679  13.253 -0.6944 -0.1673 -1.5851
 7629SOL     OW34348   3.671   3.611   6.039 -0.5144  0.0269  0.0561
 7629SOL    HW134349   3.717   3.563   6.108  1.3760  0.5352 -0.8273
 7629SOL    HW234350   3.582   3.594   6.068 -0.9618  1.8373 -0.2341
 7630SOL     OW34351   1.571   3.731   5.916 -0.3416  0.2047  0.3664
 7630SOL    HW134352   1.594   3.683   5.996 -2.5659 -0.2297  0.7455
 7630SOL    HW234353   1.659   3.746   5.881 -1.3354 -0.0757 -2.2228
 7631SOL     OW34354   1.822   0.882  10.111 -0.5114 -0.1609 -0.3295
 7631SOL    HW134355   1.909   0.859  10.077 -0.2532  1.2873 -0.6498
 7631SOL    HW234356   1.832   0.887  10.206 -0.6345 -0.7530 -0.2891
 7632SOL     OW34357   4.467   3.459  16.771  0.4421  0.4650 -0.1439
 7632SOL    HW134358   4.491   3.527  16.834 -3.0043 -0.4347  2.0822
 7632SOL    HW234359   4.417   3.519  16.715  2.1293  0.5193 -1.6074
 7633SOL     OW34360   4.161   3.236   8.239  0.1533 -0.3478 -0.4890
 7633SOL    HW134361   4.081   3.285   8.255 -0.2048 -0.6781 -1.3058
 7633SOL    HW234362   4.211   3.249   8.320  0.0051  1.7714 -0.7236
 7634SOL     OW34363   4.245   3.752   9.519  0.0393 -0.1679 -0.1444
 7634SOL    HW134364   4.152   3.743   9.498  0.7501 -0.2657 -3.3262
 7634SOL    HW234365   4.234   3.772   9.612 -0.3761  2.0600 -0.6881
 7635SOL     OW34366   3.742   0.921   5.264 -0.1157  0.4380 -0.1085
 7635SOL    HW134367   3.730   1.015   5.251  1.5908  0.9157  1.6886
 7635SOL    HW234368   3.823   0.913   5.314 -0.1765 -2.8693 -0.5735
 7636SOL     OW34369   0.848   4.039   4.693  0.2649 -0.5459  0.4362
 7636SOL    HW134370   0.916   4.103   4.674  0.2836 -1.4463 -2.5663
 7636SOL    HW234371   0.855   4.046   4.788 -2.7146 -0.0151  0.6245
 7637SOL     OW34372   4.078   2.815   6.643 -0.0814  0.0936 -0.1004
 7637SOL    HW134373   4.045   2.817   6.733 -0.0873 -2.6189 -0.0467
 7637SOL    HW234374   4.170   2.795   6.657  0.4235  2.0986 -0.5741
 7638SOL     OW34375   0.870   3.937   5.247  0.1131 -0.0528  0.3629
 7638SOL    HW134376   0.843   4.028   5.253 -1.4953 -0.4055 -1.7552
 7638SOL    HW234377   0.964   3.942   5.268  0.4834 -1.2515 -0.9886
 7639SOL     OW34378   2.534   3.584  11.232 -1.1781  0.4431 -0.1837
 7639SOL    HW134379   2.460   3.638  11.259 -0.5775  0.6493  1.0243
 7639SOL    HW234380   2.559   3.543  11.315  3.1858  1.9712 -0.7348
 7640SOL     OW34381   4.231   3.332  16.489  0.3386 -0.0559 -0.2588
 7640SOL    HW134382   4.321   3.346  16.460  1.2263  0.9231  2.9984
 7640SOL    HW234383   4.251   3.288  16.571  0.8601  2.5986  1.0193
 7641SOL     OW34384   2.168   0.164   7.896  0.4752 -0.5767  0.4118
 7641SOL    HW134385   2.154   0.082   7.849 -0.1089  0.3727 -1.0513
 7641SOL    HW234386   2.232   0.140   7.963  1.4219 -0.5913 -0.4930
 7642SOL     OW34387   4.131   3.094  12.881 -0.1806  0.4433 -0.3067
 7642SOL    HW134388   4.147   3.164  12.818 -2.0869 -0.5668 -1.9185
 7642SOL    HW234389   4.049   3.063  12.840 -1.0296  2.4074 -0.1004
 7643SOL     OW34390   3.568   0.551   5.838 -0.7992  0.5247  0.1317
 7643SOL    HW134391   3.529   0.631   5.874 -1.0596  0.9238 -1.0480
 7643SOL    HW234392   3.661   0.572   5.828 -0.9799  1.6138  0.8280
 7644SOL     OW34393   0.993   2.297   6.563  0.6177 -0.3745  0.6308
 7644SOL    HW134394   1.072   2.270   6.517 -1.1840 -1.9960 -1.5009
 7644SOL    HW234395   0.964   2.215   6.603  1.7760 -0.3295  1.5502
 7645SOL     OW34396   0.908   3.345   7.052 -0.1248  0.4041 -0.4160
 7645SOL    HW134397   0.920   3.422   7.107  0.5221  0.7634 -1.0591
 7645SOL    HW234398   0.981   3.292   7.086  0.6185  0.0877 -2.5455
 7646SOL     OW34399   2.542   0.389   6.614 -0.4856  0.7744  0.2082
 7646SOL    HW134400   2.488   0.311   6.612  2.5978 -1.2216 -3.7893
 7646SOL    HW234401   2.597   0.364   6.688 -0.4840 -0.1140 -0.0920
 7647SOL     OW34402   4.587   3.425   6.401  0.4496 -0.0544 -0.3938
 7647SOL    HW134403   4.521   3.471   6.452 -0.4338 -0.2316 -1.3613
 7647SOL    HW234404   4.548   3.434   6.314  0.3165 -0.8429 -0.4209
 7648SOL     OW34405   2.084   3.104   4.172  0.0650 -0.1258 -0.0383
 7648SOL    HW134406   2.137   3.092   4.094 -0.7843 -1.1987 -0.4457
 7648SOL    HW234407   2.037   3.185   4.153 -0.7638 -0.5708  0.0977
 7649SOL     OW34408   1.588   4.330   1.534 -0.5667  0.1264  0.5675
 7649SOL    HW134409   1.542   4.328   1.449 -0.1065  0.8446  0.3035
 7649SOL    HW234410   1.545   4.259   1.581 -2.5977  1.3531  0.5781
 7650SOL     OW34411   1.519   2.794   6.529  0.0694 -0.5121 -0.2526
 7650SOL    HW134412   1.525   2.863   6.596  1.2602 -1.9396  1.0947
 7650SOL    HW234413   1.478   2.844   6.458  0.3351  0.1597  0.0685
 7651SOL     OW34414   4.014   4.603   3.208 -1.1874 -0.2778  0.1694
 7651SOL    HW134415   3.955   4.528   3.216 -0.0213 -1.2012  0.1926
 7651SOL    HW234416   4.065   4.569   3.281 -1.4631 -1.7872 -0.3249
 7652SOL     OW34417   4.126   2.886   4.944  0.1135 -0.4529  0.4678
 7652SOL    HW134418   4.094   2.821   4.881  0.6912  1.6038 -1.9652
 7652SOL    HW234419   4.061   2.956   4.929  2.2654  2.2274  3.6076
 7653SOL     OW34420   2.465   4.578   6.575 -0.4272  0.0787 -0.2084
 7653SOL    HW134421   2.550   4.555   6.538  0.1135  1.3343  0.2491
 7653SOL    HW234422   2.441   4.506   6.633 -0.4710 -1.8422 -2.5981
 7654SOL     OW34423   2.631   2.595   1.678  0.4983 -0.5731 -0.5364
 7654SOL    HW134424   2.634   2.649   1.757 -0.4984  1.3720 -1.8564
 7654SOL    HW234425   2.678   2.517   1.709 -0.6315 -0.4670  1.4123
 7655SOL     OW34426   4.433   4.102   8.186  0.3767 -0.7468  0.1729
 7655SOL    HW134427   4.348   4.057   8.186 -0.2980  0.5451  2.1261
 7655SOL    HW234428   4.489   4.025   8.194  0.0671 -0.7500  2.3314
 7656SOL     OW34429   0.776   4.487   0.914 -0.1712 -0.1930 -0.4857
 7656SOL    HW134430   0.845   4.469   0.978 -1.4383 -0.8350  0.6969
 7656SOL    HW234431   0.773   4.579   0.941  0.3134 -0.2847 -0.1267
 7657SOL     OW34432   1.211   3.418   5.119 -0.0894  0.1575  0.5360
 7657SOL    HW134433   1.173   3.466   5.045 -0.7197  1.6495  1.8390
 7657SOL    HW234434   1.155   3.441   5.193 -0.2518 -0.5592  0.6289
 7658SOL     OW34435   0.057   0.046   8.261 -0.5464  0.0715  0.2801
 7658SOL    HW134436   0.143   0.044   8.302 -0.0266 -1.9825 -0.8952
 7658SOL    HW234437   0.042   4.672   8.261  0.1565 -0.0634  4.0656
 7659SOL     OW34438   1.164   4.501   7.385 -0.2577 -0.1298 -0.0950
 7659SOL    HW134439   1.106   4.500   7.308  0.1519 -2.8424 -0.3713
 7659SOL    HW234440   1.112   4.450   7.447  0.0361  0.2722  0.4855
 7660SOL     OW34441   2.063   4.235  17.015  0.1604 -0.2675 -0.2775
 7660SOL    HW134442   2.010   4.260  16.939 -0.4677 -0.5288  0.0702
 7660SOL    HW234443   2.100   4.149  16.995  2.2428  1.1217 -2.3489
 7661SOL     OW34444   1.970   4.437   8.146 -0.1055  0.7776 -0.2917
 7661SOL    HW134445   2.026   4.514   8.142  1.5761 -0.6253 -3.5061
 7661SOL    HW234446   1.902   4.459   8.210 -0.3106 -2.0938  0.4642
 7662SOL     OW34447   3.840   3.279  10.784 -0.1940 -0.1401  0.4569
 7662SOL    HW134448   3.865   3.259  10.694 -1.3009 -0.6444  0.2644
 7662SOL    HW234449   3.760   3.328  10.765 -0.8042 -1.2752  0.1515
 7663SOL     OW34450   3.515   0.846   8.895  0.7852  0.1955  0.5040
 7663SOL    HW134451   3.495   0.934   8.865  1.8692  0.4494  0.5228
 7663SOL    HW234452   3.443   0.828   8.955  1.8028 -3.0652  0.7603
 7664SOL     OW34453   0.469   3.549   4.376 -0.1875  0.1082 -0.0803
 7664SOL    HW134454   0.481   3.640   4.399 -0.1808  0.0209  0.2546
 7664SOL    HW234455   0.494   3.555   4.284 -1.9468  1.0737 -0.5038
 7665SOL     OW34456   1.377   0.669   7.926  0.0740 -0.3155 -0.3209
 7665SOL    HW134457   1.414   0.639   7.843  0.8491 -0.5353  0.1040
 7665SOL    HW234458   1.283   0.654   7.909  0.4531 -0.1958 -2.5603
 7666SOL     OW34459   1.489   4.117   6.954  0.2439 -0.0173  0.4665
 7666SOL    HW134460   1.395   4.133   6.946  0.3522  0.7380  0.6902
 7666SOL    HW234461   1.475   4.023   6.953  0.1287  0.0024  0.1967
 7667SOL     OW34462   3.436   3.733   5.055  0.0548  0.1646  0.5639
 7667SOL    HW134463   3.398   3.816   5.024 -1.7941 -0.4409  1.1992
 7667SOL    HW234464   3.522   3.732   5.013  1.1697 -0.1229  2.8464
 7668SOL     OW34465   2.211   2.812   3.455 -0.0279  0.1731 -0.4392
 7668SOL    HW134466   2.243   2.896   3.489  0.5982  0.2284 -1.1671
 7668SOL    HW234467   2.182   2.773   3.537  2.0488 -0.2123  0.1137
 7669SOL     OW34468   1.047   4.250   4.674  0.8180  0.1329 -0.4345
 7669SOL    HW134469   1.130   4.204   4.674  0.1727 -1.0392  0.9344
 7669SOL    HW234470   1.070   4.330   4.721  0.3014 -0.3596  0.6531
 7670SOL     OW34471   2.784   3.169  11.480 -0.0488  0.2618  0.3476
 7670SOL    HW134472   2.874   3.141  11.464 -0.0611  1.5294 -1.8817
 7670SOL    HW234473   2.775   3.160  11.575 -2.6560  1.0490  0.1923
 7671SOL     OW34474   1.346   1.824  15.144 -0.0855  0.0904  0.6253
 7671SOL    HW134475   1.266   1.852  15.190  0.0283 -2.0593  2.0896
 7671SOL    HW234476   1.333   1.734  15.116  0.3693 -0.1312  1.1361
 7672SOL     OW34477   1.888   2.977  14.747  0.0342  0.6063 -0.0358
 7672SOL    HW134478   1.976   2.940  14.746 -1.0145 -1.9171  1.9711
 7672SOL    HW234479   1.861   2.913  14.680 -0.7302 -0.4559  1.2891
 7673SOL     OW34480   3.487   1.873  13.286 -0.2075  0.2214  0.7554
 7673SOL    HW134481   3.401   1.840  13.258  0.1740  0.3416 -0.5597
 7673SOL    HW234482   3.483   1.897  13.378 -3.3443 -0.3251  0.7484
 7674SOL     OW34483   0.012   1.555   8.936  0.6267  0.3991 -0.6765
 7674SOL    HW134484   4.663   1.584   8.995  0.4870 -1.4674  0.0687
 7674SOL    HW234485   0.034   1.634   8.888  2.0271  1.1028  1.1072
 7675SOL     OW34486   2.749   0.948   6.426 -0.2279 -0.1703 -0.7100
 7675SOL    HW134487   2.665   0.931   6.382 -0.6613 -0.5657  0.2610
 7675SOL    HW234488   2.798   0.873   6.394 -1.2745 -1.0773 -0.1832
 7676SOL     OW34489   0.543   1.569   2.175 -0.2536  0.0336  0.0146
 7676SOL    HW134490   0.582   1.535   2.255 -1.0404  0.8893  0.7731
 7676SOL    HW234491   0.611   1.631   2.148 -0.1044  0.5336  1.5325
 7677SOL     OW34492   4.403   3.456  17.114 -0.9768  0.2111  0.1000
 7677SOL    HW134493   4.324   3.493  17.076 -0.7495 -1.7289 -2.2828
 7677SOL    HW234494   4.373   3.434  17.202  0.7791  0.6110  0.8028
 7678SOL     OW34495   2.070   4.314   1.945  0.0452  0.1156 -0.2171
 7678SOL    HW134496   1.995   4.276   1.900 -1.3536  0.0790  2.1340
 7678SOL    HW234497   2.088   4.368   1.868  0.0615  0.7289  0.2120
 7679SOL     OW34498   4.654   4.692   3.935 -0.2102  0.4119  0.1611
 7679SOL    HW134499   4.713   4.634   3.885  0.0697  0.3727  0.5375
 7679SOL    HW234500   4.692   4.685   4.022 -2.7147 -0.7266  1.1623
 7680SOL     OW34501   2.085   0.782   2.120  0.0108 -0.4676 -0.4660
 7680SOL    HW134502   2.144   0.827   2.060 -0.3988 -1.1362 -1.3768
 7680SOL    HW234503   2.076   0.857   2.179  1.8277 -0.6413  0.0163
 7681SOL     OW34504   3.068   4.479   6.120 -0.1293 -0.3535  0.3536
 7681SOL    HW134505   3.160   4.504   6.130  0.1903 -0.9864 -1.0128
 7681SOL    HW234506   3.039   4.564   6.087 -0.8213 -0.8961 -0.4594
 7682SOL     OW34507   1.523   4.466   3.643  0.2510 -0.3026 -0.0280
 7682SOL    HW134508   1.532   4.550   3.597  0.3700 -0.7071 -0.7433
 7682SOL    HW234509   1.491   4.488   3.730 -1.5334 -0.7150 -0.5865
 7683SOL     OW34510   0.722   3.554   7.921 -0.1651  0.0924 -0.2155
 7683SOL    HW134511   0.768   3.608   7.985  0.7484 -1.7140  0.6416
 7683SOL    HW234512   0.770   3.472   7.918 -2.5541 -1.2402 -2.5220
 7684SOL     OW34513   0.755   2.081   5.462 -0.0816 -0.0506  0.2825
 7684SOL    HW134514   0.725   2.028   5.388  1.2957 -0.2364 -0.1420
 7684SOL    HW234515   0.698   2.052   5.533  0.6972 -3.9312 -0.6303
 7685SOL     OW34516   2.785   0.460  12.753  0.3010  0.3279  0.0377
 7685SOL    HW134517   2.794   0.538  12.808  0.7559 -0.9482  1.7727
 7685SOL    HW234518   2.692   0.448  12.774  0.4997  0.0808  0.7658
 7686SOL     OW34519   3.773   2.904   6.957 -0.5129  0.3487  0.4651
 7686SOL    HW134520   3.798   2.829   6.904 -0.4661 -0.1643  1.2121
 7686SOL    HW234521   3.719   2.957   6.899 -0.6154  1.2569  1.3792
 7687SOL     OW34522   1.183   0.597   3.134  0.0789 -0.4331 -0.1287
 7687SOL    HW134523   1.203   0.630   3.047  0.0216  0.4630  0.1955
 7687SOL    HW234524   1.258   0.538   3.143  1.3826  0.8184 -2.6273
 7688SOL     OW34525   4.645   2.157   3.489  0.1917  0.5685 -0.5007
 7688SOL    HW134526   4.558   2.148   3.529  0.9111  3.4059  1.6838
 7688SOL    HW234527   4.682   2.198   3.567  2.5377  1.0285 -1.8693
 7689SOL     OW34528   3.269   1.394   2.847 -0.1333  0.0472 -0.1395
 7689SOL    HW134529   3.204   1.362   2.910  0.6563  0.4448  0.8720
 7689SOL    HW234530   3.228   1.467   2.801  0.9805  1.7211  1.5160
 7690SOL     OW34531   0.196   1.153  11.044 -0.2000  0.8586 -0.6946
 7690SOL    HW134532   0.161   1.237  11.075 -0.7902  0.2357  0.3328
 7690SOL    HW234533   0.142   1.089  11.091  0.8322 -0.0092 -0.6961
 7691SOL     OW34534   3.888   4.287   6.292  0.2868 -0.4678  0.2912
 7691SOL    HW134535   3.821   4.227   6.257  1.6318 -1.4031 -0.6564
 7691SOL    HW234536   3.850   4.300   6.379 -0.8558  1.6710 -0.5073
 7692SOL     OW34537   0.511   3.791   3.924 -0.1224 -0.5845 -0.8297
 7692SOL    HW134538   0.461   3.712   3.943  0.0063 -0.6844 -0.9115
 7692SOL    HW234539   0.522   3.799   3.829 -0.3262  1.5000 -0.6907
 7693SOL     OW34540   1.897   2.278   9.543 -0.3108 -0.2525 -0.0541
 7693SOL    HW134541   1.809   2.266   9.579 -0.3350  0.9216  0.2696
 7693SOL    HW234542   1.945   2.207   9.584 -1.2904 -1.7584 -1.5077
 7694SOL     OW34543   1.086   0.441   4.249 -0.2584 -0.3850  0.3140
 7694SOL    HW134544   1.031   0.517   4.270 -0.6158 -0.2193 -1.2024
 7694SOL    HW234545   1.026   0.386   4.200  0.1184 -0.3127 -0.2327
 7695SOL     OW34546   0.099   3.854   7.545  0.7070  0.3202  0.4408
 7695SOL    HW134547   0.102   3.760   7.558  0.1341  0.4365  1.3799
 7695SOL    HW234548   0.189   3.875   7.570  0.9944 -1.3734  0.7802
 7696SOL     OW34549   4.204   2.348  11.464  0.2258  0.4959 -0.0710
 7696SOL    HW134550   4.226   2.320  11.375  0.8289  1.8128 -0.3354
 7696SOL    HW234551   4.226   2.440  11.448 -0.3036  0.5804 -0.3167
 7697SOL     OW34552   2.135   4.671   0.079 -0.1734 -0.0494  0.9006
 7697SOL    HW134553   2.101   4.685   0.167  0.9949 -0.1405  1.3613
 7697SOL    HW234554   2.171   0.038   0.062  1.6860 -0.4875  2.5274
 7698SOL     OW34555   4.597   1.305   2.971  0.6483 -0.3219  0.1370
 7698SOL    HW134556   4.542   1.273   3.042 -0.1397  0.0125 -0.3139
 7698SOL    HW234557   4.672   1.248   2.986 -0.4111 -1.7314  0.0451
 7699SOL     OW34558   0.079   2.798  15.822  0.3443 -0.4510  0.7465
 7699SOL    HW134559   0.066   2.745  15.743 -1.4861  0.6071  0.3295
 7699SOL    HW234560   0.172   2.820  15.817  0.6436 -1.7047  0.8802
 7700SOL     OW34561   3.909   3.249   5.134 -0.1793  0.5624 -0.8538
 7700SOL    HW134562   3.988   3.275   5.086  1.2078 -1.2240  0.4488
 7700SOL    HW234563   3.890   3.330   5.181  2.5322  0.6050  0.1505
 7701SOL     OW34564   3.691   2.719   3.415  0.0823  0.2733  0.2083
 7701SOL    HW134565   3.773   2.721   3.365 -0.4622  2.4715 -0.6237
 7701SOL    HW234566   3.637   2.667   3.357  2.4351 -0.5299 -1.2801
 7702SOL     OW34567   2.915   3.319  11.172  0.3304 -0.4201 -0.2942
 7702SOL    HW134568   2.926   3.224  11.178 -2.0250 -0.5781  1.6772
 7702SOL    HW234569   2.825   3.319  11.204  0.2457 -1.1570 -0.5374
 7703SOL     OW34570   2.518   2.348   6.608 -0.1591  0.6143  0.5253
 7703SOL    HW134571   2.533   2.349   6.703  0.6692 -1.4233  0.4166
 7703SOL    HW234572   2.597   2.299   6.584 -0.1323 -0.6456  3.1872
 7704SOL     OW34573   1.565   1.740   3.526 -0.6704 -0.1782  0.2417
 7704SOL    HW134574   1.500   1.674   3.552 -0.3719 -0.4322  0.3342
 7704SOL    HW234575   1.632   1.726   3.593 -2.1810 -0.9009  1.6226
 7705SOL     OW34576   4.647   2.347   6.622 -0.2803  0.1997 -0.4646
 7705SOL    HW134577   0.005   2.400   6.610 -1.4405  2.0871  0.3150
 7705SOL    HW234578   4.603   2.397   6.691  1.0212  0.4446  0.1810
 7706SOL     OW34579   2.244   2.727   9.540 -0.0084 -0.2991 -0.4730
 7706SOL    HW134580   2.239   2.704   9.633  0.6781 -0.2690 -0.4323
 7706SOL    HW234581   2.176   2.660   9.530 -1.3968  0.9457  0.4392
 7707SOL     OW34582   1.995   1.905   2.649  0.4263  0.4916 -0.0447
 7707SOL    HW134583   1.959   1.825   2.687  1.4036  0.2759  0.4412
 7707SOL    HW234584   2.007   1.874   2.560  2.7875  1.2296  0.0039
 7708SOL     OW34585   2.782   2.556   8.710 -0.0869 -0.2053 -0.9213
 7708SOL    HW134586   2.718   2.612   8.755  2.6973  2.2454 -0.0613
 7708SOL    HW234587   2.838   2.520   8.779  1.9250 -0.6440 -2.8215
 7709SOL     OW34588   0.702   3.024   4.159 -0.3761  0.1965  0.0727
 7709SOL    HW134589   0.779   3.048   4.107 -0.0001  1.2314  1.0911
 7709SOL    HW234590   0.738   2.971   4.231 -0.8994  0.4268  0.5075
 7710SOL     OW34591   4.037   4.471   3.677  0.1355  0.0913  0.2163
 7710SOL    HW134592   3.948   4.502   3.662  0.0662  0.1443  0.7326
 7710SOL    HW234593   4.048   4.498   3.769  3.5161  0.8470 -0.4150
 7711SOL     OW34594   2.993   1.160   8.182  0.0191  0.0208  0.3635
 7711SOL    HW134595   2.898   1.165   8.177 -0.1630 -1.0517  2.5588
 7711SOL    HW234596   3.024   1.250   8.170 -1.1006  0.6775  2.3570
 7712SOL     OW34597   0.979   0.749  11.908  0.2269  0.6164 -0.2144
 7712SOL    HW134598   0.910   0.760  11.973 -0.3563  1.9464 -1.0721
 7712SOL    HW234599   1.059   0.745  11.962 -0.3199  0.6268  0.5993
 7713SOL     OW34600   2.813   2.955   8.884  0.2246  0.6538  0.0727
 7713SOL    HW134601   2.793   2.863   8.868  1.3022  0.1522  1.7252
 7713SOL    HW234602   2.722   2.986   8.893 -0.3969 -1.6345  1.5991
 7714SOL     OW34603   0.139   3.356   2.375  0.3411 -0.4904 -0.0911
 7714SOL    HW134604   0.221   3.373   2.423  0.2002  1.1513 -0.4270
 7714SOL    HW234605   0.071   3.352   2.443  0.7476 -2.1049  0.2303
 7715SOL     OW34606   1.979   3.835   0.025 -0.1289 -0.4781 -0.5007
 7715SOL    HW134607   1.981   3.842   0.121  0.3164 -1.7942 -0.4111
 7715SOL    HW234608   1.911   3.901   0.012 -0.0918 -0.3847 -0.2198
 7716SOL     OW34609   2.333   1.971   9.951  0.3638 -0.0576  0.2357
 7716SOL    HW134610   2.243   1.945   9.970 -0.0996  1.2060 -0.2306
 7716SOL    HW234611   2.378   1.888   9.967 -1.5009 -1.2632 -0.7989
 7717SOL     OW34612   3.007   1.328   4.756 -0.3503 -0.1291  0.1049
 7717SOL    HW134613   3.010   1.273   4.834  0.4921  0.5092  0.5212
 7717SOL    HW234614   2.927   1.376   4.777  0.9691  1.5069  1.3708
 7718SOL     OW34615   1.974   1.555   0.355 -0.0353 -0.0437  0.1969
 7718SOL    HW134616   1.969   1.589   0.266 -0.2898 -0.9683 -0.1486
 7718SOL    HW234617   2.022   1.623   0.401 -1.4143  0.2206  1.2725
 7719SOL     OW34618   2.691   0.447   0.476  0.2997 -0.1880  0.2786
 7719SOL    HW134619   2.708   0.531   0.519 -3.0600  0.5998  0.0409
 7719SOL    HW234620   2.685   0.475   0.385  2.6208  1.3138  0.5712
 7720SOL     OW34621   4.151   3.597   4.926 -0.4460  0.4395  0.0283
 7720SOL    HW134622   4.095   3.662   4.970 -0.2046 -0.4090  1.5865
 7720SOL    HW234623   4.136   3.622   4.835  2.1441 -0.0354 -0.5318
 7721SOL     OW34624   4.601   2.780   2.998  0.1653 -0.2856 -0.0642
 7721SOL    HW134625   4.662   2.770   2.924  0.3985  2.1994 -0.2242
 7721SOL    HW234626   4.516   2.780   2.954  0.8856  2.5674 -1.4554
 7722SOL     OW34627   4.525   1.172  15.789 -0.2475  0.2232  0.4008
 7722SOL    HW134628   4.594   1.111  15.763 -0.0090  1.0324 -0.8942
 7722SOL    HW234629   4.536   1.185  15.883 -1.1926  1.1604  0.3804
 7723SOL     OW34630   1.034   0.597   7.582  0.1004  0.0875  0.0522
 7723SOL    HW134631   1.081   0.514   7.579 -0.9985 -0.5868  1.4521
 7723SOL    HW234632   0.957   0.579   7.636 -0.0748  0.0648 -0.2013
 7724SOL     OW34633   3.762   3.800   8.659  0.3806 -0.0176  0.0688
 7724SOL    HW134634   3.811   3.800   8.742  4.7139  0.2119 -2.4874
 7724SOL    HW234635   3.707   3.878   8.672 -2.7185 -1.8696 -2.1508
 7725SOL     OW34636   0.701   1.858   5.013 -0.4680 -0.0499  0.1832
 7725SOL    HW134637   0.742   1.771   5.014 -1.2232 -0.4063  0.7281
 7725SOL    HW234638   0.751   1.910   4.950 -1.4532  1.6300  0.7917
 7726SOL     OW34639   1.443   0.078  13.860 -1.1335  0.0937 -0.3348
 7726SOL    HW134640   1.437   4.708  13.833  0.6221  0.6418 -2.5900
 7726SOL    HW234641   1.500   0.072  13.937 -1.2440 -0.7589 -0.3218
 7727SOL     OW34642   3.189   1.606  13.844 -0.3053  0.1619  0.4845
 7727SOL    HW134643   3.185   1.672  13.913  0.8218  2.3609 -1.5492
 7727SOL    HW234644   3.197   1.663  13.768 -0.4812 -1.1572 -0.5244
 7728SOL     OW34645   3.258   1.032   4.491  0.3463  0.1780 -0.3869
 7728SOL    HW134646   3.212   1.103   4.447  2.6242  0.5638 -2.1101
 7728SOL    HW234647   3.219   1.040   4.578  1.6021 -1.0394  0.2792
 7729SOL     OW34648   4.016   0.344   6.799  0.4723 -0.6121  0.0573
 7729SOL    HW134649   4.014   0.277   6.868  0.5803 -2.4612 -1.7465
 7729SOL    HW234650   3.958   0.413   6.832 -1.6642 -1.9738 -0.8168
 7730SOL     OW34651   1.032   3.569  11.009 -0.9013  0.3885  0.1603
 7730SOL    HW134652   0.948   3.614  11.001 -0.6931  0.8824  0.7938
 7730SOL    HW234653   1.019   3.492  10.952 -0.3340  2.6926 -3.0807
 7731SOL     OW34654   4.084   4.125   2.806 -0.2914 -0.0566 -0.4502
 7731SOL    HW134655   4.033   4.078   2.872 -0.6820 -0.3366 -0.9571
 7731SOL    HW234656   4.159   4.151   2.859 -1.2939  1.1517  0.3774
 7732SOL     OW34657   0.683   1.542   7.748  0.5250 -0.2231 -0.2321
 7732SOL    HW134658   0.603   1.594   7.760  0.2819 -0.8805  0.9542
 7732SOL    HW234659   0.666   1.497   7.665  2.2556 -1.5213  0.1230
 7733SOL     OW34660   2.093   2.825   5.076 -0.4457 -0.0637  0.1880
 7733SOL    HW134661   2.053   2.792   4.996 -0.3099  0.2524 -0.0121
 7733SOL    HW234662   2.142   2.759   5.125 -1.3784 -0.5003  0.5390
 7734SOL     OW34663   0.722   0.618   0.819 -0.4263 -0.4669 -0.4294
 7734SOL    HW134664   0.682   0.572   0.892 -1.1900 -0.8803 -1.1083
 7734SOL    HW234665   0.665   0.586   0.749 -1.3254  1.8125 -0.7256
 7735SOL     OW34666   0.306   1.338   4.899 -0.8713 -0.1909  0.1177
 7735SOL    HW134667   0.382   1.396   4.911 -0.7480  0.0528 -1.8254
 7735SOL    HW234668   0.292   1.323   4.992 -2.8511  1.1660  0.0338
 7736SOL     OW34669   4.685   3.273  16.720 -0.1139 -0.0417  0.1521
 7736SOL    HW134670   4.602   3.321  16.712  1.1640  1.9750 -1.0054
 7736SOL    HW234671   0.008   3.348  16.759 -3.2817  1.4692  0.8208
 7737SOL     OW34672   1.115   3.485   7.698 -0.0965  0.6551 -0.6072
 7737SOL    HW134673   1.075   3.446   7.621 -1.2221  1.8371 -0.6171
 7737SOL    HW234674   1.165   3.549   7.647  0.4718  1.1138  0.5195
 7738SOL     OW34675   3.077   2.191   1.991  0.1270  0.3999  0.1773
 7738SOL    HW134676   2.989   2.162   2.011  0.5122 -0.0396  1.1892
 7738SOL    HW234677   3.124   2.121   2.036 -0.5064  1.5806  2.6472
 7739SOL     OW34678   0.980   2.079   4.626  0.8495 -0.4187 -0.2305
 7739SOL    HW134679   0.952   2.170   4.630  1.6251 -0.0845 -2.4829
 7739SOL    HW234680   1.072   2.087   4.650  0.9583 -2.0302 -0.0670
 7740SOL     OW34681   3.076   4.152   6.770  0.7220 -0.2781 -0.2126
 7740SOL    HW134682   3.131   4.089   6.723 -1.5798 -3.1728  0.9712
 7740SOL    HW234683   3.068   4.100   6.850 -1.5989  0.4946  0.0462
 7741SOL     OW34684   2.259   2.933   7.577  0.4267  0.4775  0.1624
 7741SOL    HW134685   2.306   2.855   7.606 -0.9953 -0.5663 -0.3699
 7741SOL    HW234686   2.318   3.008   7.585  1.4462  0.0271 -3.0161
 7742SOL     OW34687   2.101   2.577  12.372  0.0101 -0.2906  0.5907
 7742SOL    HW134688   2.136   2.490  12.355  1.9194  0.6043  0.0296
 7742SOL    HW234689   2.011   2.564  12.402  0.0423 -1.8691 -0.0068
 7743SOL     OW34690   3.374   1.719   2.343 -0.4904 -0.8989 -0.1574
 7743SOL    HW134691   3.387   1.634   2.384 -3.7703 -1.2279  0.2204
 7743SOL    HW234692   3.352   1.695   2.253 -0.8602 -0.6877 -0.1231
 7744SOL     OW34693   3.882   0.221   7.849 -0.0251  0.2305  0.4168
 7744SOL    HW134694   3.884   0.147   7.788 -0.7670  1.3385 -0.9460
 7744SOL    HW234695   3.972   0.252   7.842  0.4311 -1.5729 -1.4770
 7745SOL     OW34696   1.883   3.992  14.785  0.0988 -0.2975  0.4658
 7745SOL    HW134697   1.893   4.040  14.703  2.3105 -0.2506  0.7651
 7745SOL    HW234698   1.809   4.038  14.825  0.8277  1.5946 -0.3461
 7746SOL     OW34699   3.181   2.056   3.081 -0.5347  0.8141 -0.2571
 7746SOL    HW134700   3.187   2.078   3.174  2.2117 -1.3623  0.0717
 7746SOL    HW234701   3.253   2.109   3.047  0.4220  0.8252  1.7416
 7747SOL     OW34702   0.491   3.561   1.661 -0.0632 -0.4817 -0.6459
 7747SOL    HW134703   0.433   3.584   1.733  0.4506 -2.3750  0.3651
 7747SOL    HW234704   0.578   3.594   1.685  0.0938 -0.8542 -0.6975
 7748SOL     OW34705   4.012   2.150   9.107 -0.1246 -0.1512 -0.4301
 7748SOL    HW134706   4.031   2.064   9.143  0.6235  1.6943  3.5857
 7748SOL    HW234707   4.099   2.183   9.085 -0.2521 -0.9132 -2.0578
 7749SOL     OW34708   3.140   4.713   8.091 -0.1507  0.3510  0.5797
 7749SOL    HW134709   3.155   4.635   8.144 -1.3443 -0.4385 -0.2441
 7749SOL    HW234710   3.085   4.693   8.015  2.4394 -0.4203 -1.1118
 7750SOL     OW34711   4.186   1.362   3.436 -0.1730  0.5051 -0.3497
 7750SOL    HW134712   4.106   1.408   3.460 -1.9594 -1.8415 -1.7288
 7750SOL    HW234713   4.180   1.274   3.474  1.2970  0.3936 -0.3699
 7751SOL     OW34714   2.306   3.328  17.539  0.2671 -0.7512  0.2779
 7751SOL    HW134715   2.222   3.285  17.520  0.2551 -0.7197  0.2585
 7751SOL    HW234716   2.285   3.379  17.618 -0.5928 -0.8150  0.0964
 7752SOL     OW34717   2.286   0.631   8.368 -0.3293 -0.3549 -0.0393
 7752SOL    HW134718   2.381   0.633   8.380 -0.7816  0.9756  3.3652
 7752SOL    HW234719   2.265   0.654   8.458 -0.3320  0.0993 -0.1558
 7753SOL     OW34720   1.417   1.453  10.309  0.2617  0.2204  0.5911
 7753SOL    HW134721   1.336   1.439  10.260  1.0476  0.9194 -0.9106
 7753SOL    HW234722   1.436   1.369  10.350  0.7351 -0.0806 -0.2289
 7754SOL     OW34723   0.019   4.675   6.548  0.0945  0.0359 -0.1058
 7754SOL    HW134724   0.101   4.670   6.596 -0.4806 -1.8372  0.7018
 7754SOL    HW234725   0.044   4.657   6.457  0.4105  0.8834 -0.1812
 7755SOL     OW34726   0.569   3.052   8.363 -0.4982 -0.6847  0.0770
 7755SOL    HW134727   0.483   3.060   8.323 -0.8147 -1.9635  0.5074
 7755SOL    HW234728   0.570   3.134   8.412 -1.3511 -1.3158  1.1500
 7756SOL     OW34729   3.038   0.387  15.937 -0.1754 -0.2980 -0.1058
 7756SOL    HW134730   3.041   0.482  15.922  0.0122 -0.3063 -0.1236
 7756SOL    HW234731   3.065   0.354  15.851  0.0428 -0.1976 -0.0749
 7757SOL     OW34732   2.278   1.334   7.250 -0.5800  0.1041  0.3059
 7757SOL    HW134733   2.323   1.367   7.328 -0.1948 -1.8298  0.9158
 7757SOL    HW234734   2.198   1.298   7.289 -0.3140  2.0014  2.6467
 7758SOL     OW34735   0.289   2.154   1.066 -0.9253 -0.2163 -0.0736
 7758SOL    HW134736   0.285   2.236   1.116 -1.8720 -0.4042  0.1619
 7758SOL    HW234737   0.199   2.152   1.032 -1.1671 -1.7049  0.6117
 7759SOL     OW34738   4.695   2.237   0.946  0.6536  0.1122  0.7124
 7759SOL    HW134739   0.029   2.161   0.928  2.2800  1.6117 -0.6460
 7759SOL    HW234740   4.634   2.205   1.013  1.9662 -0.8348  1.4655
 7760SOL     OW34741   3.734   3.012   5.105 -0.6646  0.8335 -0.0012
 7760SOL    HW134742   3.795   3.085   5.113 -1.9747  2.0258 -0.7726
 7760SOL    HW234743   3.675   3.027   5.179 -0.2697  0.2069  0.4338
 7761SOL     OW34744   2.444   4.654   6.087 -0.3974 -0.0389 -0.4957
 7761SOL    HW134745   2.367   4.604   6.060 -0.2524 -0.4537 -0.1423
 7761SOL    HW234746   2.476   4.578   6.137  3.4558  0.6797 -1.8430
 7762SOL     OW34747   3.644   1.021   2.386 -0.1296  0.0741 -0.0831
 7762SOL    HW134748   3.640   0.979   2.300 -0.7810 -0.2172  0.0868
 7762SOL    HW234749   3.607   1.106   2.362 -0.3541  0.5775  2.0418
 7763SOL     OW34750   3.365   2.218   5.558 -0.3125  0.9412 -1.0246
 7763SOL    HW134751   3.310   2.220   5.637 -0.3398  3.4720 -1.1184
 7763SOL    HW234752   3.433   2.272   5.598 -1.4082  2.4897 -1.2645
 7764SOL     OW34753   2.518   3.991   5.707  0.4166 -0.2122 -0.0536
 7764SOL    HW134754   2.496   3.905   5.671 -0.9286  0.3114 -0.4966
 7764SOL    HW234755   2.600   4.000   5.659 -0.3800 -3.1326 -1.9846
 7765SOL     OW34756   0.961   2.808   4.099  0.1250 -0.1847  0.4373
 7765SOL    HW134757   0.941   2.758   4.178 -0.8597 -0.1126  0.2320
 7765SOL    HW234758   1.004   2.734   4.055  0.4282  0.1010  0.2548
 7766SOL     OW34759   3.826   1.167   2.090  0.6487  0.2449  0.1085
 7766SOL    HW134760   3.882   1.119   2.150 -0.1383 -1.8136 -0.7968
 7766SOL    HW234761   3.869   1.149   2.007  1.4691  0.9287  0.3871
 7767SOL     OW34762   0.459   3.688   7.248 -0.3019  0.4669  0.5992
 7767SOL    HW134763   0.438   3.662   7.338  2.0792  1.5482  1.4622
 7767SOL    HW234764   0.369   3.691   7.216  0.1036  0.1553 -0.5609
 7768SOL     OW34765   3.650   3.703   4.400 -0.6080  0.4246 -0.1819
 7768SOL    HW134766   3.709   3.632   4.426 -0.0859  1.0247  0.2617
 7768SOL    HW234767   3.676   3.773   4.459  0.2836 -1.9725  2.2477
 7769SOL     OW34768   0.414   3.989   4.173 -0.2311  0.3795 -0.3674
 7769SOL    HW134769   0.493   4.038   4.194 -0.7870  1.0544  0.1482
 7769SOL    HW234770   0.416   3.996   4.078  1.9863  2.2247 -0.1772
 7770SOL     OW34771   1.088   3.436   5.356 -0.0967 -0.7125 -0.3920
 7770SOL    HW134772   1.139   3.377   5.412  0.2139  2.0647  2.2276
 7770SOL    HW234773   1.122   3.523   5.376 -0.6931 -0.6870  0.4987
 7771SOL     OW34774   4.162   0.580   6.738 -0.5275  0.3874 -0.4728
 7771SOL    HW134775   4.253   0.584   6.766  0.4302 -0.5249 -3.5074
 7771SOL    HW234776   4.131   0.497   6.774 -1.7890  0.5654 -1.1307
 7772SOL     OW34777   0.224   0.646   1.502  0.7220 -0.4451  0.0003
 7772SOL    HW134778   0.203   0.653   1.409  1.3284 -1.4437 -0.2100
 7772SOL    HW234779   0.173   0.718   1.540  0.0525 -1.0683  0.2688
 7773SOL     OW34780   2.332   3.965   0.910 -0.1770  0.4423  0.3131
 7773SOL    HW134781   2.264   3.972   0.843  0.8103  1.1052 -0.6223
 7773SOL    HW234782   2.314   3.896   0.974 -0.7970 -0.3740 -0.7547
 7774SOL     OW34783   0.612   4.666   8.078 -0.4657 -0.8653 -0.2700
 7774SOL    HW134784   0.680   4.679   8.013  0.1523 -0.5726  0.4344
 7774SOL    HW234785   0.651   4.707   8.155  0.5109  0.6531 -1.5634
 7775SOL     OW34786   4.346   4.144   3.013  0.5183  0.1627  0.5990
 7775SOL    HW134787   4.327   4.175   3.101  0.9068  1.1081  0.3540
 7775SOL    HW234788   4.380   4.227   2.981  2.0561 -1.0844 -1.0508
 7776SOL     OW34789   1.460   1.325   6.609 -0.2784  0.2379  0.2786
 7776SOL    HW134790   1.438   1.417   6.627  2.1554  1.1199 -1.2445
 7776SOL    HW234791   1.418   1.289   6.687 -0.1049  0.5829  0.5323
 7777SOL     OW34792   2.059   1.806   6.148  0.8468  0.0218  0.8703
 7777SOL    HW134793   2.094   1.790   6.060  0.6410  1.1967  0.5818
 7777SOL    HW234794   2.137   1.797   6.204  1.7595 -1.4336 -0.6378
 7778SOL     OW34795   3.606   2.787  12.925 -0.7931 -0.0091 -0.0390
 7778SOL    HW134796   3.655   2.859  12.965 -0.5692 -0.4269  0.4296
 7778SOL    HW234797   3.543   2.823  12.862  1.3838  0.6854 -1.8018
 7779SOL     OW34798   0.905   1.436   6.543 -0.1399  0.3044  0.1673
 7779SOL    HW134799   0.966   1.372   6.581 -1.0992 -1.5670 -1.4655
 7779SOL    HW234800   0.961   1.459   6.469 -0.7660  0.2165 -0.3372
 7780SOL     OW34801   2.835   4.650  11.487  0.2283  0.4478  0.5510
 7780SOL    HW134802   2.810   4.558  11.477  0.5263  0.3158  0.9906
 7780SOL    HW234803   2.807   4.696  11.408  1.1507 -0.9703 -0.6123
 7781SOL     OW34804   0.561   1.064   0.571 -0.5384 -0.0974 -0.0616
 7781SOL    HW134805   0.524   1.027   0.651 -0.8303  0.6198  0.1309
 7781SOL    HW234806   0.606   1.135   0.617  0.8674 -1.5286  0.8129
 7782SOL     OW34807   4.353   2.540  11.637  0.0743 -0.3112  0.8162
 7782SOL    HW134808   4.343   2.572  11.548  1.5642  1.5322  1.3270
 7782SOL    HW234809   4.420   2.602  11.664 -0.0511 -0.0785  0.5848
 7783SOL     OW34810   2.893   4.349   5.985  0.6678 -0.3770  0.0072
 7783SOL    HW134811   2.950   4.405   6.039 -1.3837  0.2887  1.4653
 7783SOL    HW234812   2.953   4.275   5.970 -1.2525 -1.5160 -1.9666
 7784SOL     OW34813   4.015   2.144  16.395  0.7845 -0.9185 -0.3703
 7784SOL    HW134814   4.068   2.082  16.344  3.9098  0.8253  0.7463
 7784SOL    HW234815   4.033   2.226  16.349 -0.5261  0.6030  1.8514
 7785SOL     OW34816   2.753   4.134   7.819  0.2459  0.1987  0.1392
 7785SOL    HW134817   2.831   4.081   7.804  0.8449  1.0232  0.3700
 7785SOL    HW234818   2.745   4.182   7.737 -2.0068 -1.6512 -0.7474
 7786SOL     OW34819   4.039   2.384  16.272 -0.6606 -0.1985 -0.3838
 7786SOL    HW134820   4.004   2.399  16.184 -0.3297  1.2658 -0.2704
 7786SOL    HW234821   4.047   2.474  16.303 -2.1987  0.0977 -0.8355
 7787SOL     OW34822   2.545   3.857   6.694  0.1130  0.3057 -0.5917
 7787SOL    HW134823   2.547   3.953   6.695 -1.0013  0.3114  0.9440
 7787SOL    HW234824   2.463   3.839   6.649 -1.5676  0.0591  2.5566
 7788SOL     OW34825   0.343   0.808   2.757  0.2171 -0.2377 -0.1950
 7788SOL    HW134826   0.334   0.886   2.702 -0.4556 -1.0205 -1.2179
 7788SOL    HW234827   0.394   0.844   2.829  1.0085 -1.5319 -0.1131
 7789SOL     OW34828   3.749   4.036  16.773  0.1596  0.6792  0.1569
 7789SOL    HW134829   3.678   4.025  16.709  1.3707 -0.3131 -1.0356
 7789SOL    HW234830   3.724   3.965  16.832 -0.9811  0.2872 -0.7836
 7790SOL     OW34831   2.520   2.868   1.184  0.6869  0.2316  0.3009
 7790SOL    HW134832   2.577   2.943   1.169  1.1224 -0.2562 -0.4744
 7790SOL    HW234833   2.590   2.816   1.224  0.3750  0.5176  1.2186
 7791SOL     OW34834   2.678   2.832   8.077  0.3745 -0.2409  0.2242
 7791SOL    HW134835   2.712   2.921   8.085  1.1331 -0.6170  1.1709
 7791SOL    HW234836   2.585   2.839   8.100  0.3525 -0.3415  0.1651
 7792SOL     OW34837   2.508   1.317   4.329 -0.2016  0.1586 -0.1695
 7792SOL    HW134838   2.576   1.382   4.306 -0.8531  0.9720  0.2044
 7792SOL    HW234839   2.475   1.342   4.415 -1.4200 -0.4913 -0.4600
 7793SOL     OW34840   2.107   1.476  10.614  0.2776  0.0349  0.1226
 7793SOL    HW134841   2.147   1.545  10.561  2.4166 -2.3562 -1.4036
 7793SOL    HW234842   2.172   1.471  10.685  1.7084 -2.0435 -1.3307
 7794SOL     OW34843   0.262   1.157   1.873 -0.4223  0.1312  0.3287
 7794SOL    HW134844   0.189   1.132   1.929 -1.5116 -0.0017 -1.1421
 7794SOL    HW234845   0.309   1.073   1.870 -0.5499  0.0475  0.7130
 7795SOL     OW34846   3.167   2.499   6.107 -0.2964  0.5311  0.0364
 7795SOL    HW134847   3.164   2.407   6.080  0.1466  0.5142  0.0366
 7795SOL    HW234848   3.199   2.494   6.197 -0.4694 -2.6035 -0.0851
 7796SOL     OW34849   0.912   3.473   6.064  0.8795 -0.6078 -0.5419
 7796SOL    HW134850   0.892   3.415   5.990  0.3320 -2.5135  1.1104
 7796SOL    HW234851   0.995   3.515   6.043  0.9114 -0.6192 -0.4359
 7797SOL     OW34852   0.994   4.489   2.897 -0.3242  0.0972 -0.2129
 7797SOL    HW134853   1.002   4.559   2.962  0.7321 -0.6306  0.4434
 7797SOL    HW234854   0.947   4.424   2.949 -0.9949  1.2101  0.5703
 7798SOL     OW34855   4.519   1.257   8.473  0.0627  0.2686  0.7525
 7798SOL    HW134856   4.445   1.291   8.524  0.6511  1.2585  0.9523
 7798SOL    HW234857   4.578   1.231   8.543 -0.6058 -3.7785 -0.1994
 7799SOL     OW34858   0.747   3.758  15.071 -0.5158  0.1015  0.8302
 7799SOL    HW134859   0.695   3.838  15.081 -0.0784  0.5109 -0.1190
 7799SOL    HW234860   0.793   3.777  14.989  0.5921 -0.9487  1.2090
 7800SOL     OW34861   3.884   3.055   8.416 -0.0566  0.3891  0.5851
 7800SOL    HW134862   3.875   3.147   8.394  0.4300 -0.2343 -2.1383
 7800SOL    HW234863   3.814   3.010   8.370  0.4359 -0.0743  0.2844
 7801SOL     OW34864   3.839   0.832   9.958 -0.0214  0.4946 -0.3491
 7801SOL    HW134865   3.869   0.890  10.028  1.9964  0.3972 -1.1417
 7801SOL    HW234866   3.810   0.886   9.884 -0.1476 -0.3931 -0.9587
 7802SOL     OW34867   3.561   4.345   7.268 -0.1240 -0.3322 -0.1584
 7802SOL    HW134868   3.474   4.384   7.262  0.5105  0.8486 -1.8572
 7802SOL    HW234869   3.587   4.359   7.177  2.3612 -0.7729  0.4807
 7803SOL     OW34870   0.793   0.184   5.944  0.3350  0.1131  0.2063
 7803SOL    HW134871   0.777   0.277   5.933 -0.6369 -0.1720 -0.7455
 7803SOL    HW234872   0.881   0.178   5.981  0.1530  0.0765  0.6361
 7804SOL     OW34873   2.344   2.805  13.563 -0.5066  0.0530  0.0200
 7804SOL    HW134874   2.377   2.840  13.480 -1.8666 -0.5931 -0.8091
 7804SOL    HW234875   2.378   2.873  13.620 -1.6707  0.2845  0.4256
 7805SOL     OW34876   3.535   4.348   3.942  0.5877  0.0969 -0.0444
 7805SOL    HW134877   3.587   4.307   4.012 -0.0767 -0.9987 -0.1979
 7805SOL    HW234878   3.589   4.332   3.865  0.7963  1.3273 -0.1464
 7806SOL     OW34879   2.505   1.625   2.620 -0.4759 -0.3831  0.3669
 7806SOL    HW134880   2.576   1.564   2.636 -0.5950 -1.0543 -1.6878
 7806SOL    HW234881   2.499   1.674   2.703 -0.9189 -0.7431  0.5522
 7807SOL     OW34882   1.053   0.454   1.501  0.2822  0.1700  0.0860
 7807SOL    HW134883   1.001   0.533   1.517  0.0740 -0.0422  0.4759
 7807SOL    HW234884   1.071   0.437   1.594  1.6342 -0.9323 -0.3897
 7808SOL     OW34885   3.176   2.753   4.996  0.5233 -0.2178 -0.0871
 7808SOL    HW134886   3.169   2.763   5.091  0.9041  0.0806 -0.0891
 7808SOL    HW234887   3.094   2.709   4.974  0.2622 -0.1606  0.7443
 7809SOL     OW34888   1.139   3.122  17.341 -0.1340 -0.0944 -0.2862
 7809SOL    HW134889   1.104   3.208  17.364 -0.2842 -0.3300  0.3665
 7809SOL    HW234890   1.190   3.090  17.415  0.0138  1.0237  0.1042
 7810SOL     OW34891   0.189   0.440   5.994  0.0720  0.2773  0.6213
 7810SOL    HW134892   0.248   0.374   5.957 -0.3625  0.4284 -0.3417
 7810SOL    HW234893   0.220   0.433   6.085  0.5946 -1.6534  0.3003
 7811SOL     OW34894   1.020   0.235   6.369 -0.2646  0.4630  0.2485
 7811SOL    HW134895   0.976   0.163   6.414 -1.2244  1.5452  1.0340
 7811SOL    HW234896   0.950   0.300   6.377 -0.2346  0.6392 -0.8930
 7812SOL     OW34897   0.280   4.214   9.044 -0.1818 -0.2893 -0.9868
 7812SOL    HW134898   0.374   4.208   9.061 -0.2625 -1.6106 -0.9900
 7812SOL    HW234899   0.275   4.307   9.021  1.0013  0.5887  2.2917
 7813SOL     OW34900   2.430   0.875   9.787 -0.1585  0.2694  0.3021
 7813SOL    HW134901   2.506   0.833   9.749  1.2229  1.4903  1.7231
 7813SOL    HW234902   2.366   0.806   9.805  0.3229 -0.5104 -1.0104
 7814SOL     OW34903   3.897   4.255  10.389 -0.2284 -0.1134  0.3321
 7814SOL    HW134904   3.915   4.300  10.472  1.4216 -3.7436  1.9491
 7814SOL    HW234905   3.897   4.165  10.421 -0.4462 -0.5394 -0.8943
 7815SOL     OW34906   4.235   0.881   8.143 -0.0515 -0.3158  0.0779
 7815SOL    HW134907   4.306   0.939   8.170 -0.7718  0.6635 -0.1289
 7815SOL    HW234908   4.252   0.813   8.208  0.4563  0.9885  1.3180
 7816SOL     OW34909   2.479   4.187  14.682 -0.5940  0.8323 -1.1999
 7816SOL    HW134910   2.395   4.147  14.707  0.3420 -1.4146 -1.6067
 7816SOL    HW234911   2.454   4.226  14.598  1.0944  2.5805 -0.8679
 7817SOL     OW34912   1.024   1.791   8.703  0.2316  0.5766 -0.3563
 7817SOL    HW134913   0.960   1.859   8.724  0.4876  0.3699  1.0527
 7817SOL    HW234914   1.015   1.725   8.772  0.1567  0.3196 -0.6100
 7818SOL     OW34915   3.745   0.089   3.447 -0.4151 -0.2345  0.1939
 7818SOL    HW134916   3.840   0.078   3.454 -0.2378  1.4254  0.4782
 7818SOL    HW234917   3.745   0.127   3.359 -0.5141 -2.0312 -0.5762
 7819SOL     OW34918   3.537   0.305   7.467  0.2531 -0.2353 -0.4164
 7819SOL    HW134919   3.513   0.299   7.374  1.1613 -2.2408 -0.5172
 7819SOL    HW234920   3.524   0.218   7.505  0.5016 -0.3971 -0.7100
 7820SOL     OW34921   1.425   2.531  12.461  0.6427 -0.4110  0.6881
 7820SOL    HW134922   1.386   2.561  12.379 -0.7793 -1.8375  0.8173
 7820SOL    HW234923   1.345   2.500  12.505  0.3208  2.1879  1.8883
 7821SOL     OW34924   3.150   0.822   8.261  0.3377 -0.0015  0.0711
 7821SOL    HW134925   3.155   0.912   8.292  2.2772 -0.9336  2.5770
 7821SOL    HW234926   3.168   0.777   8.344 -2.0817 -1.1721 -0.0577
 7822SOL     OW34927   3.075   0.192  15.710 -0.0376  0.6014  0.3418
 7822SOL    HW134928   3.074   0.103  15.675 -0.9439  1.0650 -0.7975
 7822SOL    HW234929   3.111   0.245  15.639  1.0868 -1.1603 -0.4221
 7823SOL     OW34930   2.865   0.385  13.294 -0.0906  0.1181 -0.1987
 7823SOL    HW134931   2.832   0.303  13.257  1.4732 -0.6593  0.1382
 7823SOL    HW234932   2.956   0.365  13.316 -0.2567 -0.5129 -0.0765
 7824SOL     OW34933   4.536   2.645  12.232  0.0577  0.0922 -0.9016
 7824SOL    HW134934   4.603   2.582  12.258 -0.4147 -0.1461 -0.2835
 7824SOL    HW234935   4.468   2.617  12.292 -1.6089  2.4783 -1.6782
 7825SOL     OW34936   2.190   0.748  13.809  0.0473  0.0072 -0.2405
 7825SOL    HW134937   2.118   0.707  13.762 -0.0664 -1.6637  1.3817
 7825SOL    HW234938   2.179   0.835  13.771 -0.6501  0.1492  0.2831
 7826SOL     OW34939   3.800   1.849  13.987  0.0505 -0.3899  0.2522
 7826SOL    HW134940   3.780   1.924  13.931  2.9162 -1.6694 -2.4817
 7826SOL    HW234941   3.890   1.864  14.016 -0.1012  0.7143  0.1406
 7827SOL     OW34942   4.243   1.191   4.752  0.3745 -0.3942 -0.2625
 7827SOL    HW134943   4.219   1.275   4.714 -1.2866  0.1317  1.9278
 7827SOL    HW234944   4.181   1.126   4.717  2.2513 -1.6115 -1.3262
 7828SOL     OW34945   3.162   0.176   7.678 -0.2089  0.0731  0.2952
 7828SOL    HW134946   3.076   0.191   7.718 -0.7551 -0.0415 -0.8355
 7828SOL    HW234947   3.218   0.159   7.754 -0.4431  0.7001  0.6040
 7829SOL     OW34948   1.318   1.177   2.020  0.2907 -0.1060 -0.0675
 7829SOL    HW134949   1.364   1.132   1.949 -0.2113 -4.3228  2.2851
 7829SOL    HW234950   1.395   1.221   2.056  0.3702  0.1575 -0.5568
 7830SOL     OW34951   1.891   3.524   2.210 -0.0172  0.0212  0.4928
 7830SOL    HW134952   1.811   3.509   2.260  1.9406 -3.2021  2.7011
 7830SOL    HW234953   1.865   3.606   2.168 -0.1382  0.4818  1.4722
 7831SOL     OW34954   4.271   0.881   2.702 -0.0857 -1.1196  0.2565
 7831SOL    HW134955   4.317   0.937   2.765 -4.4929  1.6704  0.9695
 7831SOL    HW234956   4.319   0.906   2.623 -0.0011  0.8127  0.9192
 7832SOL     OW34957   0.775   2.573   6.284 -0.4472 -0.0434 -0.4783
 7832SOL    HW134958   0.761   2.659   6.324 -1.3053  0.5911 -2.1057
 7832SOL    HW234959   0.703   2.570   6.221 -1.2814  2.6340  0.3245
 7833SOL     OW34960   2.269   3.242   7.499 -0.3823  0.2636  0.0793
 7833SOL    HW134961   2.345   3.296   7.522 -0.1021  0.2751 -0.8936
 7833SOL    HW234962   2.222   3.314   7.458  0.7751  0.7263 -0.4402
 7834SOL     OW34963   1.177   2.134  15.684 -0.8942  0.3154 -0.7259
 7834SOL    HW134964   1.232   2.187  15.625 -0.4989  1.1356  0.3856
 7834SOL    HW234965   1.104   2.104  15.630 -0.3643 -3.4023  0.6345
 7835SOL     OW34966   0.791   1.301   3.767  0.0753  0.6185 -0.4228
 7835SOL    HW134967   0.711   1.354   3.771  0.3225  0.9751 -0.2069
 7835SOL    HW234968   0.770   1.239   3.698  0.7557  1.0747 -1.0425
 7836SOL     OW34969   0.928   4.551   4.131  0.1989  0.0912 -0.1649
 7836SOL    HW134970   0.837   4.549   4.160 -0.2572  1.9700 -1.5064
 7836SOL    HW234971   0.969   4.487   4.189 -1.7705  0.9374  2.1399
 7837SOL     OW34972   0.341   0.662   8.504 -0.4343  0.2113  0.5020
 7837SOL    HW134973   0.435   0.645   8.489 -0.4902  2.5311 -2.5634
 7837SOL    HW234974   0.325   0.604   8.578 -1.8531 -1.4617 -1.1256
 7838SOL     OW34975   0.961   3.989   8.451  0.3189  0.1303 -0.3631
 7838SOL    HW134976   0.974   3.951   8.538 -3.1905  0.1931  0.2070
 7838SOL    HW234977   1.013   3.935   8.392  0.2128 -2.3703  1.8518
 7839SOL     OW34978   0.229   2.286   4.273 -0.2640  0.1302  0.1413
 7839SOL    HW134979   0.260   2.281   4.183  1.5826 -0.8622  0.8460
 7839SOL    HW234980   0.160   2.220   4.281  0.7801 -1.1009 -1.1183
 7840SOL     OW34981   4.238   2.336   5.028 -0.2266 -0.9818  0.0771
 7840SOL    HW134982   4.243   2.249   5.068 -0.3444 -0.4513  1.2515
 7840SOL    HW234983   4.172   2.332   4.959 -1.0721 -0.0644  0.8244
 7841SOL     OW34984   2.174   2.684   6.084  0.3350  0.6517 -0.2704
 7841SOL    HW134985   2.201   2.608   6.135 -0.2751  0.8585  0.3656
 7841SOL    HW234986   2.079   2.685   6.094  0.4990  2.1737  1.1118
 7842SOL     OW34987   3.499   0.324   7.942 -0.2885 -0.1005  0.1428
 7842SOL    HW134988   3.406   0.317   7.964 -0.5812  1.7765 -0.4979
 7842SOL    HW234989   3.500   0.416   7.914 -0.7122  0.4933  2.0766
 7843SOL     OW34990   2.697   1.307   7.122  0.4085  0.4765 -0.2168
 7843SOL    HW134991   2.723   1.283   7.033  0.5260 -0.0130 -0.0515
 7843SOL    HW234992   2.685   1.400   7.105 -2.8209  0.2519  0.8257
 7844SOL     OW34993   3.873   3.234  11.222  0.0342  0.2141  0.0563
 7844SOL    HW134994   3.822   3.254  11.144 -1.2197 -1.6446  0.3814
 7844SOL    HW234995   3.894   3.315  11.269  0.4924  0.2651 -0.2415
 7845SOL     OW34996   0.112   2.583   2.096 -0.7855 -0.0882  0.2878
 7845SOL    HW134997   0.106   2.639   2.173  0.8439 -1.0302  1.1060
 7845SOL    HW234998   0.043   2.517   2.104 -1.7372  0.7481 -0.9980
 7846SOL     OW34999   4.467   2.166   0.109 -0.2710  0.0358 -0.2623
 7846SOL    HW135000   4.384   2.126   0.136 -0.4190  1.2888  1.1580
 7846SOL    HW235001   4.523   2.089   0.100  0.5984  0.9979 -3.0825
 7847SOL     OW35002   3.886   1.707   9.434 -0.5172  0.3687  0.0601
 7847SOL    HW135003   3.822   1.724   9.365  0.8030  1.2910 -0.9347
 7847SOL    HW235004   3.864   1.773   9.499 -2.3478  0.9571 -1.1404
 7848SOL     OW35005   1.341   2.240  14.803 -0.3728 -0.0708  0.0342
 7848SOL    HW135006   1.373   2.233  14.713 -0.8411 -0.2206 -0.1224
 7848SOL    HW235007   1.248   2.248  14.781 -0.4668  1.2514  0.9411
 7849SOL     OW35008   3.474   0.485  12.309 -0.0034  0.1379 -0.1397
 7849SOL    HW135009   3.430   0.471  12.392  2.3586 -2.2892  0.7141
 7849SOL    HW235010   3.561   0.520  12.328  0.9024 -2.7341  0.9440
 7850SOL     OW35011   2.778   0.938   8.277 -0.1382 -0.4479 -0.0566
 7850SOL    HW135012   2.785   0.863   8.335  0.5801 -0.5024 -0.2097
 7850SOL    HW235013   2.866   0.955   8.243 -0.4255  3.1264  1.0004
 7851SOL     OW35014   0.845   1.320   9.361 -0.3736 -0.0454  0.5433
 7851SOL    HW135015   0.927   1.369   9.369 -0.2484 -0.3106  0.8815
 7851SOL    HW235016   0.816   1.355   9.277  3.3730  0.0600 -0.6920
 7852SOL     OW35017   3.367   1.778  11.474  0.0863 -0.2178  0.0917
 7852SOL    HW135018   3.427   1.840  11.516 -2.3598  1.3976  1.2738
 7852SOL    HW235019   3.399   1.771  11.385 -0.3394 -1.1383  0.0141
 7853SOL     OW35020   0.330   2.958  16.627  0.1537 -0.3780  0.1147
 7853SOL    HW135021   0.245   3.001  16.625 -0.0811 -0.9118 -1.1469
 7853SOL    HW235022   0.388   3.030  16.651 -1.1284  0.2174  1.4059
 7854SOL     OW35023   4.353   3.708   7.579 -0.0054 -0.5089 -0.0159
 7854SOL    HW135024   4.300   3.725   7.657 -0.3305 -0.9809 -0.1335
 7854SOL    HW235025   4.355   3.798   7.544 -1.0033 -0.3442  0.3452
 7855SOL     OW35026   3.795   0.059  11.731 -0.1306  0.7270  0.6742
 7855SOL    HW135027   3.816   0.088  11.642 -4.2760 -0.3239 -0.6509
 7855SOL    HW235028   3.874   0.088  11.776 -0.0297 -0.8556  1.4912
 7856SOL     OW35029   4.048   2.918  10.344 -0.2297 -0.0459 -0.2025
 7856SOL    HW135030   3.976   2.923  10.406  0.3372 -1.5664  0.5659
 7856SOL    HW235031   4.115   2.893  10.407 -1.7638  0.9535  1.7968
 7857SOL     OW35032   3.344   4.573   6.146  0.0681 -0.1097 -0.1194
 7857SOL    HW135033   3.425   4.537   6.182 -0.5566 -1.7085 -0.2794
 7857SOL    HW235034   3.375   4.615   6.067 -0.0552 -0.7767 -0.5259
 7858SOL     OW35035   4.232   2.610  10.239  0.0948  0.0285  0.7845
 7858SOL    HW135036   4.150   2.580  10.279 -0.4686  0.2306 -0.2152
 7858SOL    HW235037   4.263   2.531  10.195 -2.0812 -0.5417  0.2697
 7859SOL     OW35038   1.894   0.071   9.084 -0.6746  0.3630 -0.4659
 7859SOL    HW135039   1.834   0.051   9.156  2.5449 -0.9284  1.8700
 7859SOL    HW235040   1.883   0.165   9.069  0.4375  0.5951  0.1547
 7860SOL     OW35041   4.120   3.784   9.010  0.1285  0.2720  0.3988
 7860SOL    HW135042   4.166   3.708   8.974 -0.3829  0.5717 -0.8523
 7860SOL    HW235043   4.064   3.746   9.078 -0.4907 -0.3120 -0.4470
 7861SOL     OW35044   3.469   3.433   4.775 -0.3163  0.1029  0.4015
 7861SOL    HW135045   3.539   3.369   4.787  1.7010  2.1953 -0.2396
 7861SOL    HW235046   3.430   3.435   4.863  3.3042 -1.7998  2.0484
 7862SOL     OW35047   3.153   4.259  14.828  0.1401  0.3425  0.4026
 7862SOL    HW135048   3.211   4.320  14.782  0.7318 -0.3599  0.2083
 7862SOL    HW235049   3.207   4.246  14.906 -0.0208 -0.4876  0.3737
 7863SOL     OW35050   2.676   0.563   6.439 -0.3179  0.3419  0.3806
 7863SOL    HW135051   2.621   0.516   6.501  1.3268 -0.1005  1.5069
 7863SOL    HW235052   2.660   0.525   6.353 -1.6629  2.5152 -0.3471
 7864SOL     OW35053   2.261   3.431  11.333 -0.9396 -0.1422 -0.2270
 7864SOL    HW135054   2.328   3.434  11.401  0.3311  0.0379 -1.4994
 7864SOL    HW235055   2.213   3.512  11.347 -0.2699 -0.2847  2.9371
 7865SOL     OW35056   2.720   0.887   7.600 -0.2540  0.4233  0.1026
 7865SOL    HW135057   2.690   0.976   7.618 -0.8288 -0.0023  1.2782
 7865SOL    HW235058   2.790   0.866   7.662  1.2775  1.7800 -1.1468
 7866SOL     OW35059   1.173   0.914   6.430  0.2436 -0.4871  0.1942
 7866SOL    HW135060   1.095   0.967   6.412  0.4650 -0.3744 -0.4480
 7866SOL    HW235061   1.242   0.978   6.446 -2.4754  2.6016 -0.4211
 7867SOL     OW35062   3.028   0.579  15.526 -0.0099  0.7659  0.1413
 7867SOL    HW135063   2.959   0.624  15.477  0.3478  0.3259 -0.7500
 7867SOL    HW235064   3.002   0.611  15.612  1.4935 -0.9163  1.2209
 7868SOL     OW35065   4.100   4.081  15.434  0.1395  0.2773  0.5850
 7868SOL    HW135066   4.045   4.028  15.491 -0.7820  0.6716  0.0651
 7868SOL    HW235067   4.043   4.147  15.395  1.3112  1.5489  0.9878
 7869SOL     OW35068   2.976   4.545   1.219 -0.0621 -0.3854  0.0516
 7869SOL    HW135069   2.943   4.633   1.200 -2.2619 -1.0603  0.6958
 7869SOL    HW235070   3.071   4.555   1.219 -0.2281  1.0780 -0.9619
 7870SOL     OW35071   2.652   3.077   4.423 -0.1905 -0.0491  0.0197
 7870SOL    HW135072   2.699   3.160   4.435 -1.6601  0.6576  0.8600
 7870SOL    HW235073   2.686   3.045   4.340 -0.2096  1.1715 -0.4567
 7871SOL     OW35074   1.147   1.413   1.884  0.2007 -0.1362  0.0644
 7871SOL    HW135075   1.138   1.490   1.828  0.6986 -0.2182 -0.1294
 7871SOL    HW235076   1.239   1.386   1.878  0.7358  1.8931 -0.9611
 7872SOL     OW35077   0.915   0.078   1.401  0.7989  0.3732 -0.0525
 7872SOL    HW135078   0.938   0.078   1.308 -1.1215  2.0772 -0.5261
 7872SOL    HW235079   0.827   0.042   1.412  0.6158 -0.1382 -3.1686
 7873SOL     OW35080   2.485   0.391   6.320 -0.4588 -0.5501 -0.0312
 7873SOL    HW135081   2.534   0.405   6.240  0.8964  2.0536  1.2750
 7873SOL    HW235082   2.534   0.318   6.359  2.6170  1.4225 -0.2704
 7874SOL     OW35083   4.700   0.742  12.928  0.1631  0.2691  0.1989
 7874SOL    HW135084   0.044   0.797  12.973 -0.1118  1.1217 -0.4554
 7874SOL    HW235085   0.010   0.653  12.949 -0.8893 -0.5996 -1.9623
 7875SOL     OW35086   4.691   2.564   3.517  0.3168  0.7380 -0.0358
 7875SOL    HW135087   0.033   2.513   3.466 -1.0342  0.1865 -1.1426
 7875SOL    HW235088   4.661   2.623   3.448  1.6714 -0.6404 -1.7914
 7876SOL     OW35089   2.256   2.964  15.335  0.1016 -0.8327  0.0756
 7876SOL    HW135090   2.198   2.908  15.282 -1.9592 -1.1643  2.7249
 7876SOL    HW235091   2.254   3.050  15.294  0.1135 -1.7180 -1.8061
 7877SOL     OW35092   3.719   4.273   4.642 -0.5711 -0.2628  0.2832
 7877SOL    HW135093   3.697   4.331   4.569  1.9555  0.1400 -0.1825
 7877SOL    HW235094   3.793   4.224   4.605 -0.4701 -0.3424  0.5880
 7878SOL     OW35095   0.449   2.673   6.719 -0.2555  0.1340  0.2074
 7878SOL    HW135096   0.508   2.599   6.705 -0.9425 -0.4162  0.2484
 7878SOL    HW235097   0.377   2.634   6.770 -0.1151 -3.9039 -2.6707
 7879SOL     OW35098   4.640   1.500   1.266 -0.1011  0.3857 -0.5066
 7879SOL    HW135099   0.003   1.455   1.280 -1.7150 -2.7621 -1.0385
 7879SOL    HW235100   4.608   1.496   1.356 -1.8425 -1.4564 -1.2171
 7880SOL     OW35101   3.107   0.584  14.509  0.0029 -0.3225  0.0103
 7880SOL    HW135102   3.133   0.651  14.446  2.5734 -2.1457 -0.8658
 7880SOL    HW235103   3.080   0.641  14.581 -1.6832 -1.4911  0.3191
 7881SOL     OW35104   0.259   3.280  16.360 -0.6211  0.1220 -0.0401
 7881SOL    HW135105   0.281   3.331  16.438  0.3783 -2.0824  1.1320
 7881SOL    HW235106   0.245   3.198  16.407 -2.2919 -1.1232 -2.7575
 7882SOL     OW35107   3.316   1.409  15.698  0.0356  0.3417 -0.3923
 7882SOL    HW135108   3.310   1.429  15.791 -1.5888  1.2773 -0.6881
 7882SOL    HW235109   3.227   1.428  15.667 -0.7462 -2.9087 -0.0555
 7883SOL     OW35110   2.943   1.400  16.889 -0.2103  0.1629 -0.2474
 7883SOL    HW135111   2.949   1.316  16.843  1.0637 -0.0314  0.2865
 7883SOL    HW235112   2.956   1.370  16.979  2.2363 -1.2382 -1.0609
 7884SOL     OW35113   4.719   4.240   5.311 -0.8325 -0.5008 -0.0187
 7884SOL    HW135114   4.643   4.285   5.274 -0.7528 -0.5506 -0.2396
 7884SOL    HW235115   0.052   4.301   5.360  1.0069 -2.9789  1.0300
 7885SOL     OW35116   3.908   3.462   7.155  0.1661  0.3287  0.1986
 7885SOL    HW135117   3.892   3.378   7.113  0.5608 -0.3637  1.4296
 7885SOL    HW235118   3.934   3.514   7.079 -0.4031 -0.5923 -0.6094
 7886SOL     OW35119   4.353   3.655   4.113 -0.0185  0.4333 -0.5009
 7886SOL    HW135120   4.433   3.626   4.070  0.2563  0.2919  0.0993
 7886SOL    HW235121   4.395   3.700   4.186 -1.9385 -1.2256  1.6433
 7887SOL     OW35122   3.722   4.094   6.510 -0.2406 -0.2669  0.1450
 7887SOL    HW135123   3.670   4.054   6.580  0.0336 -1.4040 -0.2902
 7887SOL    HW235124   3.760   4.164   6.563  2.7731 -2.3949  0.7959
 7888SOL     OW35125   2.001   0.199   1.292  0.6487  0.6573  0.2753
 7888SOL    HW135126   2.018   0.174   1.383  2.4273 -0.9029 -0.4812
 7888SOL    HW235127   1.908   0.181   1.280  0.8081 -0.6798  0.9484
 7889SOL     OW35128   2.645   0.786   9.594  0.0980  0.0554  0.1952
 7889SOL    HW135129   2.728   0.834   9.596  0.1334 -0.0013  0.0019
 7889SOL    HW235130   2.590   0.849   9.547 -1.5203 -0.9222  0.7707
 7890SOL     OW35131   1.633   0.789   1.502 -0.0289 -0.1761  0.2360
 7890SOL    HW135132   1.611   0.879   1.477  0.9020  0.3699  1.3873
 7890SOL    HW235133   1.568   0.752   1.442  0.5586 -1.4843  0.4024
 7891SOL     OW35134   2.003   2.965   9.977 -0.4927 -0.0409 -0.1179
 7891SOL    HW135135   2.060   2.999  10.045 -3.1425  1.6164  1.2669
 7891SOL    HW235136   2.048   3.004   9.902 -0.7301  0.9509  0.2639
 7892SOL     OW35137   4.356   0.986   2.452  0.2164  0.4369  0.3480
 7892SOL    HW135138   4.276   1.031   2.423 -0.1057 -1.8003 -2.2273
 7892SOL    HW235139   4.416   1.045   2.408  1.7708 -1.6526 -0.3124
 7893SOL     OW35140   2.223   4.469   9.174  0.5479  0.1676 -0.9921
 7893SOL    HW135141   2.172   4.501   9.099  0.9243 -1.9255 -2.1483
 7893SOL    HW235142   2.163   4.402   9.206 -2.0821  3.0480  0.0675
 7894SOL     OW35143   0.261   3.939   2.357  0.3221 -0.0369  0.0174
 7894SOL    HW135144   0.279   3.854   2.398 -0.4864 -1.3880 -2.4374
 7894SOL    HW235145   0.333   3.949   2.296 -0.5480 -3.0063 -1.5060
 7895SOL     OW35146   0.157   4.105   4.202  0.7621 -0.2110 -0.7016
 7895SOL    HW135147   0.209   4.027   4.220  1.2389  0.0256 -1.0309
 7895SOL    HW235148   0.174   4.162   4.277  1.5572 -1.6343  0.2034
 7896SOL     OW35149   1.297   2.450   3.603  0.0483 -0.1653  0.6978
 7896SOL    HW135150   1.351   2.397   3.661  2.1033  0.4001 -0.6861
 7896SOL    HW235151   1.211   2.419   3.631 -1.2937  3.6357  0.8114
 7897SOL     OW35152   4.108   3.264  12.633  0.2945 -0.3070 -0.3344
 7897SOL    HW135153   4.125   3.194  12.569 -2.1961  1.1386 -2.5907
 7897SOL    HW235154   4.160   3.336  12.598  0.5707 -1.3108 -1.9975
 7898SOL     OW35155   1.131   0.072   5.752  0.2517 -0.1600  0.1757
 7898SOL    HW135156   1.185   0.117   5.687  0.7629  0.2444  0.8915
 7898SOL    HW235157   1.080   0.021   5.689  0.6059  2.0809 -1.9173
 7899SOL     OW35158   2.889   0.958   0.850 -0.2887  0.1061 -0.8913
 7899SOL    HW135159   2.884   1.052   0.866 -2.1808  0.2226 -2.1737
 7899SOL    HW235160   2.927   0.956   0.762 -2.2099 -0.2322 -1.7255
 7900SOL     OW35161   1.662   3.204   8.554  0.2569  0.1730  0.2476
 7900SOL    HW135162   1.721   3.208   8.479  0.2262  3.1897  0.3782
 7900SOL    HW235163   1.694   3.128   8.602 -1.9176  0.2052  1.7505
 7901SOL     OW35164   3.249   2.551  15.942  0.3521 -0.3198 -0.3290
 7901SOL    HW135165   3.210   2.523  16.024  2.1261 -2.3363 -0.1559
 7901SOL    HW235166   3.293   2.468  15.922 -0.2168 -0.1179 -2.4715
 7902SOL     OW35167   0.830   4.465  14.669  0.2777 -0.6214 -0.2275
 7902SOL    HW135168   0.737   4.487  14.660  0.0883 -1.5059 -0.4608
 7902SOL    HW235169   0.855   4.536  14.727  2.6736 -1.1996 -0.5533
 7903SOL     OW35170   3.798   0.043   1.188  0.0837 -0.1062 -0.3567
 7903SOL    HW135171   3.882   0.005   1.214 -0.3605 -1.6659 -1.2136
 7903SOL    HW235172   3.808   0.060   1.094 -0.0460  1.6584 -0.0650
 7904SOL     OW35173   4.609   3.096   6.267  0.6264 -0.0577 -0.2402
 7904SOL    HW135174   4.665   3.172   6.279 -1.2231  1.2677  0.0579
 7904SOL    HW235175   4.523   3.139   6.258 -0.1532 -1.3762  0.8386
 7905SOL     OW35176   1.454   4.509  15.543  0.0618  0.6688 -0.4185
 7905SOL    HW135177   1.455   4.416  15.520 -0.4842  0.8110 -1.0197
 7905SOL    HW235178   1.537   4.541  15.509  1.6250 -1.5848  1.2583
 7906SOL     OW35179   4.119   3.117   1.036 -0.2769 -0.1716 -0.2961
 7906SOL    HW135180   4.137   3.102   0.944  0.1904 -0.0380 -0.2249
 7906SOL    HW235181   4.173   3.195   1.048 -0.0978 -0.0668 -1.8458
 7907SOL     OW35182   0.824   2.980   0.489  0.3624  0.2499  0.6419
 7907SOL    HW135183   0.750   2.941   0.442  0.7232  0.4878 -0.1177
 7907SOL    HW235184   0.839   2.918   0.561  0.9020  0.6182  0.8494
 7908SOL     OW35185   1.232   4.256  16.412  0.1150  0.1252  0.1038
 7908SOL    HW135186   1.326   4.239  16.408 -0.3336 -2.6825  1.7030
 7908SOL    HW235187   1.224   4.350  16.393  2.2377  0.1694 -0.5345
 7909SOL     OW35188   3.250   2.863   1.312 -0.0214  0.1038  0.3159
 7909SOL    HW135189   3.213   2.937   1.265 -0.4709  0.0844  0.6380
 7909SOL    HW235190   3.191   2.848   1.386 -2.4031 -0.2024 -1.6456
 7910SOL     OW35191   3.700   1.690  16.685 -0.1062 -0.2281  0.4963
 7910SOL    HW135192   3.610   1.701  16.715 -0.0189  0.0931  0.6448
 7910SOL    HW235193   3.743   1.632  16.747  0.1032 -1.1602 -0.5196
 7911SOL     OW35194   1.442   1.010   0.573 -0.1611  0.5896  0.1108
 7911SOL    HW135195   1.517   0.965   0.536  0.6759  1.4343  0.7879
 7911SOL    HW235196   1.478   1.080   0.627  0.2417  0.4594  0.0046
 7912SOL     OW35197   0.400   0.961   7.802 -0.0491  0.0925 -0.0337
 7912SOL    HW135198   0.362   1.048   7.805  1.2782  0.7175 -1.4886
 7912SOL    HW235199   0.318   0.911   7.808  0.2081 -0.2557  0.6726
 7913SOL     OW35200   2.493   3.844   3.008  0.3219 -0.8592  0.4210
 7913SOL    HW135201   2.509   3.937   2.989 -0.3204 -0.5221  1.5161
 7913SOL    HW235202   2.539   3.801   2.936 -1.2878 -3.3603  0.8886
 7914SOL     OW35203   3.700   4.431   4.400 -0.0833  0.0214 -0.0028
 7914SOL    HW135204   3.666   4.515   4.368  0.6909  0.4181  0.2209
 7914SOL    HW235205   3.795   4.440   4.392 -0.4859  4.7402  0.3992
 7915SOL     OW35206   1.746   4.380   3.545  0.0018 -0.0523  0.3761
 7915SOL    HW135207   1.681   4.418   3.604  0.9465  0.9974  0.7366
 7915SOL    HW235208   1.742   4.294   3.586 -0.3990 -0.8244 -1.3033
 7916SOL     OW35209   1.049   4.293   8.624  0.5182 -0.1769  0.1461
 7916SOL    HW135210   1.079   4.245   8.701  0.4036 -0.0166  0.2908
 7916SOL    HW235211   1.057   4.381   8.660 -0.1689  0.1628 -0.5251
 7917SOL     OW35212   1.405   1.395   1.796 -0.3278  0.3168 -0.1759
 7917SOL    HW135213   1.435   1.467   1.739  0.7649 -0.2289 -0.2928
 7917SOL    HW235214   1.481   1.338   1.796 -1.0824 -0.6802 -2.5723
 7918SOL     OW35215   3.960   0.828  15.818  0.5265 -0.4989 -0.2920
 7918SOL    HW135216   3.964   0.914  15.776 -2.8392  0.0272  0.5013
 7918SOL    HW235217   4.013   0.770  15.762  1.4753 -1.6367  1.7650
 7919SOL     OW35218   1.058   2.458   5.424 -0.0905 -0.2607  0.0096
 7919SOL    HW135219   0.971   2.418   5.428  0.5961 -1.7845 -0.3040
 7919SOL    HW235220   1.100   2.443   5.509  1.8301 -1.1296 -1.1220
 7920SOL     OW35221   4.475   3.082   7.899  0.2385  0.4985 -0.0702
 7920SOL    HW135222   4.512   3.170   7.883  0.3192  0.5417  0.3336
 7920SOL    HW235223   4.554   3.040   7.864  0.4017  0.2589  0.5834
 7921SOL     OW35224   2.046   2.965   3.313 -0.0373  0.2700  0.0121
 7921SOL    HW135225   2.075   2.896   3.372 -0.9394 -0.2412 -0.1432
 7921SOL    HW235226   2.124   2.970   3.258  0.5009  0.9315  0.8514
 7922SOL     OW35227   0.757   4.427   0.603 -0.1369 -0.1674  0.3462
 7922SOL    HW135228   0.781   4.347   0.554  1.0642  0.5134 -0.1752
 7922SOL    HW235229   0.822   4.418   0.673  2.4565  2.1312 -1.7317
 7923SOL     OW35230   1.339   1.356   5.403  0.3124  0.6666  0.0407
 7923SOL    HW135231   1.311   1.339   5.313 -3.4721 -1.0276  1.5421
 7923SOL    HW235232   1.378   1.272   5.426 -0.1303  0.3509 -0.3650
 7924SOL     OW35233   2.136   2.294   6.363  0.4266  0.2027 -0.3578
 7924SOL    HW135234   2.197   2.238   6.412 -1.5872 -0.2522  1.6237
 7924SOL    HW235235   2.148   2.377   6.410  0.2927 -0.3038  0.5639
 7925SOL     OW35236   0.546   4.682   0.180 -0.2891 -0.3273  0.0020
 7925SOL    HW135237   0.570   0.050   0.153 -1.9266  0.1282  0.0435
 7925SOL    HW235238   0.461   4.667   0.140 -0.7992  2.0103  0.2184
 7926SOL     OW35239   0.489   0.272   7.228 -0.0418  0.0478 -0.4864
 7926SOL    HW135240   0.539   0.352   7.244 -0.7825  0.3586  0.3315
 7926SOL    HW235241   0.407   0.278   7.278 -1.0986  0.1628 -2.2409
 7927SOL     OW35242   3.772   2.172   5.443  0.7053  0.1264 -0.2051
 7927SOL    HW135243   3.744   2.172   5.535 -1.6224  2.7761 -0.9087
 7927SOL    HW235244   3.698   2.132   5.397 -0.8815  2.0288  0.6769
 7928SOL     OW35245   4.312   3.939  15.491  0.1226  0.2972 -0.5666
 7928SOL    HW135246   4.244   4.005  15.500 -0.7409 -0.9815  2.1624
 7928SOL    HW235247   4.290   3.903  15.406  1.3173  0.0593 -0.7756
 7929SOL     OW35248   0.036   1.425   4.645 -0.2869 -0.8107  0.0320
 7929SOL    HW135249   4.701   1.354   4.613 -1.0184 -0.2712  0.1102
 7929SOL    HW235250   0.034   1.402   4.738  2.8563  0.0741  0.3173
 7930SOL     OW35251   1.239   1.002   4.535  0.1080 -0.8349  0.0561
 7930SOL    HW135252   1.272   1.089   4.513 -1.4232  0.0646  1.2929
 7930SOL    HW235253   1.147   1.028   4.536  0.1313 -0.7349 -1.3862
 7931SOL     OW35254   2.476   0.224  16.986  0.0898  0.3181 -0.6214
 7931SOL    HW135255   2.386   0.256  16.986 -0.2417 -0.6110 -0.0006
 7931SOL    HW235256   2.462   0.133  16.958 -0.5068  0.3280 -0.3544
 7932SOL     OW35257   2.104   2.020   5.884 -0.5652  0.0438 -0.0082
 7932SOL    HW135258   2.146   1.944   5.843  0.1622  0.3716  0.1205
 7932SOL    HW235259   2.175   2.053   5.939 -0.0026  1.8715 -1.8308
 7933SOL     OW35260   2.138   2.644   3.254  0.9228 -0.6198  0.2202
 7933SOL    HW135261   2.170   2.701   3.324  1.1732  2.8083 -2.7075
 7933SOL    HW235262   2.061   2.601   3.292 -0.2789  1.1849 -0.1627
 7934SOL     OW35263   1.310   1.150   8.468 -0.5258 -0.2695  0.0414
 7934SOL    HW135264   1.299   1.208   8.543 -2.0378  0.4502 -0.7430
 7934SOL    HW235265   1.382   1.096   8.502 -0.2998  1.9549  3.1383
 7935SOL     OW35266   1.815   1.637   4.558  0.1692  0.2429 -0.1284
 7935SOL    HW135267   1.792   1.669   4.471 -2.5640  1.4155  1.0173
 7935SOL    HW235268   1.857   1.553   4.541 -1.7517 -0.8331  0.4356
 7936SOL     OW35269   3.557   4.100   6.892  0.2288  0.1068  0.0144
 7936SOL    HW135270   3.636   4.143   6.924  0.6739  0.7006 -1.8817
 7936SOL    HW235271   3.498   4.103   6.967 -0.3264 -1.4814 -0.3510
 7937SOL     OW35272   1.809   4.212   2.124 -0.8057 -0.2221  0.1021
 7937SOL    HW135273   1.812   4.301   2.160 -2.0524 -0.1304 -0.0159
 7937SOL    HW235274   1.826   4.154   2.198 -0.6480  0.1491  0.3569
 7938SOL     OW35275   0.407   0.043   3.643 -0.3871 -0.2290  0.6402
 7938SOL    HW135276   0.396   4.669   3.651 -2.0316 -0.0872  0.1378
 7938SOL    HW235277   0.406   0.052   3.548 -1.0391  1.1176  0.7833
 7939SOL     OW35278   4.284   3.678  15.584 -0.2072 -0.0219 -0.2692
 7939SOL    HW135279   4.219   3.682  15.514  1.1242 -0.9656 -1.5402
 7939SOL    HW235280   4.322   3.766  15.585 -0.5235  0.1081  0.8358
 7940SOL     OW35281   2.631   1.899   8.186  0.6005  0.3190 -0.4696
 7940SOL    HW135282   2.690   1.947   8.127  0.9635 -0.8041 -1.0130
 7940SOL    HW235283   2.626   1.813   8.146  3.1334  0.0264 -0.1786
 7941SOL     OW35284   0.134   4.204   4.475 -0.1353  0.0451  0.1168
 7941SOL    HW135285   0.062   4.170   4.528  2.0792 -0.1745  2.9575
 7941SOL    HW235286   0.184   4.258   4.536 -1.5767  1.8011 -0.2870
 7942SOL     OW35287   0.708   1.663  12.178  0.5597 -0.6076 -0.2337
 7942SOL    HW135288   0.635   1.642  12.236 -0.0060 -1.5786 -1.2989
 7942SOL    HW235289   0.712   1.581  12.129 -0.0594  0.4536 -2.0512
 7943SOL     OW35290   4.223   1.902   3.456  0.0189  0.2505  0.0328
 7943SOL    HW135291   4.169   1.927   3.531  0.6075  1.8575 -0.0978
 7943SOL    HW235292   4.308   1.909   3.498  0.0910 -1.0432  0.1095
 7944SOL     OW35293   1.902   0.620   1.525 -0.2178 -0.2637  0.2457
 7944SOL    HW135294   1.841   0.690   1.550  1.8746  1.2205  1.2262
 7944SOL    HW235295   1.885   0.621   1.431  0.0593 -1.3110  0.1845
 7945SOL     OW35296   2.902   1.913  14.022 -0.3210  0.4553 -0.3799
 7945SOL    HW135297   2.948   1.978  13.969  1.1186 -0.6871 -0.5250
 7945SOL    HW235298   2.817   1.955  14.038 -0.5874  0.1318 -0.9553
 7946SOL     OW35299   4.415   0.161  11.442  0.2121  0.8528 -0.2630
 7946SOL    HW135300   4.364   0.232  11.404 -2.5248  0.0547  1.8606
 7946SOL    HW235301   4.373   0.159  11.528  0.4211 -1.1745 -0.1907
 7947SOL     OW35302   2.750   3.411   2.113  0.0787  0.3382  0.2750
 7947SOL    HW135303   2.768   3.491   2.065 -2.1765  0.3436 -0.5591
 7947SOL    HW235304   2.760   3.336   2.054 -2.9069  0.3870 -0.2892
 7948SOL     OW35305   1.513   4.044   9.987  0.1121 -0.1766 -0.1850
 7948SOL    HW135306   1.508   4.139   9.991  1.9484 -0.0347 -1.0481
 7948SOL    HW235307   1.425   4.010   9.975 -0.5818  0.7763  2.3369
 7949SOL     OW35308   2.377   3.015  13.786 -0.2984  0.1153  0.4247
 7949SOL    HW135309   2.301   3.055  13.828 -1.1342  0.5180 -1.4711
 7949SOL    HW235310   2.439   3.044  13.853  1.3230 -0.3528 -0.8654
 7950SOL     OW35311   4.318   2.877   7.709 -0.2283  0.5786 -0.5087
 7950SOL    HW135312   4.270   2.959   7.722 -0.8352  0.1947 -0.3721
 7950SOL    HW235313   4.262   2.808   7.743 -0.1658  0.2538 -1.0764
 7951SOL     OW35314   0.139   4.277   3.968 -0.1913  0.5582 -0.1876
 7951SOL    HW135315   0.099   4.234   3.893  1.6993  0.3667 -1.0688
 7951SOL    HW235316   0.145   4.208   4.035 -2.8023  0.8945  0.4135
 7952SOL     OW35317   1.883   3.479   2.539 -0.1953  0.1923 -0.0608
 7952SOL    HW135318   1.787   3.474   2.540 -0.1066 -0.9755  1.3889
 7952SOL    HW235319   1.908   3.412   2.476  0.8842 -0.5697  1.1860
 7953SOL     OW35320   4.584   3.008   0.219  0.5219 -0.1070  0.2784
 7953SOL    HW135321   4.656   2.960   0.177  0.3723  0.5474 -0.7162
 7953SOL    HW235322   4.603   3.098   0.194 -0.2367  0.3845  1.4380
 7954SOL     OW35323   3.951   1.146   1.860  0.1628  0.1110 -0.1241
 7954SOL    HW135324   4.004   1.072   1.832 -1.3807 -0.5631 -1.3021
 7954SOL    HW235325   3.906   1.165   1.778  0.1057  0.4267 -0.0211
 7955SOL     OW35326   2.007   0.058   4.251  0.0719  0.2065 -0.3327
 7955SOL    HW135327   1.961   0.112   4.187 -1.2442 -0.9139 -0.3114
 7955SOL    HW235328   2.019   4.698   4.202 -0.9368  0.7995 -1.5175
 7956SOL     OW35329   0.973   2.762  14.762 -0.1562  0.3947 -0.0698
 7956SOL    HW135330   0.944   2.727  14.846  2.1748 -0.2616  0.4522
 7956SOL    HW235331   0.888   2.784  14.724 -0.5063  1.0802  1.0983
 7957SOL     OW35332   3.476   3.400   4.500  0.4369 -0.3816 -0.3927
 7957SOL    HW135333   3.531   3.347   4.443  2.2439 -0.0819  1.0486
 7957SOL    HW235334   3.543   3.451   4.546  1.0707 -1.7318  0.1767
 7958SOL     OW35335   3.162   0.977   2.241 -0.2251 -0.1443 -0.1916
 7958SOL    HW135336   3.209   1.033   2.181 -0.1198  1.5721  1.4936
 7958SOL    HW235337   3.190   1.002   2.329 -0.7264  0.7669 -0.2949
 7959SOL     OW35338   0.616   3.026   3.086  0.4885 -0.3187 -0.0200
 7959SOL    HW135339   0.538   3.040   3.139  0.7091 -0.8373  0.4421
 7959SOL    HW235340   0.584   2.949   3.038  1.2716 -1.2555  0.9747
 7960SOL     OW35341   3.720   4.644   2.674  0.2411 -0.3282 -0.0673
 7960SOL    HW135342   3.672   4.695   2.608  3.0104 -0.7111 -2.3622
 7960SOL    HW235343   3.761   4.573   2.625 -1.6744  0.1750 -2.3926
 7961SOL     OW35344   3.047   1.924  16.790 -0.6201 -0.3562 -0.2104
 7961SOL    HW135345   3.081   1.963  16.709 -1.5657  1.1404  0.0987
 7961SOL    HW235346   2.989   1.857  16.754 -1.6147  1.3695 -1.8725
 7962SOL     OW35347   1.939   4.487   0.496  0.6345  0.1327 -0.0983
 7962SOL    HW135348   2.022   4.511   0.454  1.1484  0.7988  1.2758
 7962SOL    HW235349   1.881   4.530   0.434 -0.4724 -2.0187 -0.5712
 7963SOL     OW35350   2.650   1.129   7.454  0.3588  0.3820  0.5327
 7963SOL    HW135351   2.560   1.098   7.440  0.9475 -0.5969 -1.1250
 7963SOL    HW235352   2.698   1.090   7.381  2.3070  1.5659  1.1712
 7964SOL     OW35353   0.414   3.291  13.490  0.4715 -0.1802  0.3605
 7964SOL    HW135354   0.504   3.298  13.520  0.8301  2.6932 -1.3689
 7964SOL    HW235355   0.390   3.211  13.535  1.2262  0.2732  1.5633
 7965SOL     OW35356   2.197   2.047   2.825  0.0350 -0.3683 -0.0828
 7965SOL    HW135357   2.215   2.092   2.742  0.9050 -1.2405 -0.3801
 7965SOL    HW235358   2.121   1.996   2.796 -0.6962 -0.3754  1.9109
 7966SOL     OW35359   4.623   3.863   8.262  0.4769 -0.4937  0.7163
 7966SOL    HW135360   4.666   3.789   8.304 -2.9018 -3.9233 -1.8760
 7966SOL    HW235361   4.649   3.845   8.172 -2.1163 -0.5873 -0.0277
 7967SOL     OW35362   1.363   1.602   6.193 -0.2617  0.6286 -0.1451
 7967SOL    HW135363   1.344   1.657   6.116 -1.3092  1.3347  0.6130
 7967SOL    HW235364   1.449   1.569   6.169 -1.1980 -1.0949 -1.1128
 7968SOL     OW35365   3.948   4.161   3.490  0.0999 -0.0888 -0.2280
 7968SOL    HW135366   3.872   4.108   3.462 -0.2702  0.6344 -0.6124
 7968SOL    HW235367   3.952   4.218   3.412  1.2654 -2.3964 -1.8515
 7969SOL     OW35368   2.130   0.301   4.343  0.2128 -0.1556 -0.2964
 7969SOL    HW135369   2.105   0.213   4.316 -2.7447  0.3350  0.8597
 7969SOL    HW235370   2.204   0.283   4.402 -0.7010 -0.0106  0.8973
 7970SOL     OW35371   2.749   4.244   6.683 -0.1783  0.0181 -0.1826
 7970SOL    HW135372   2.739   4.161   6.731  1.0507  0.0794  0.1905
 7970SOL    HW235373   2.688   4.229   6.611  1.1222 -2.8202 -0.6966
 7971SOL     OW35374   1.163   3.143  11.751 -0.5373  0.3026 -0.2608
 7971SOL    HW135375   1.102   3.185  11.811  0.4845  0.3309  0.7633
 7971SOL    HW235376   1.215   3.220  11.730  1.9934 -0.9909  1.2539
 7972SOL     OW35377   3.712   3.778  11.025  0.1958  0.2330  0.4882
 7972SOL    HW135378   3.718   3.730  10.943 -0.3336 -0.0500  0.6115
 7972SOL    HW235379   3.798   3.818  11.033  1.4774 -2.2145 -1.1539
 7973SOL     OW35380   1.088   2.334   3.736 -0.1560 -0.3274 -0.4965
 7973SOL    HW135381   1.022   2.391   3.696 -1.0079 -0.3785  0.7963
 7973SOL    HW235382   1.044   2.328   3.821  1.1462  0.4052  0.2258
 7974SOL     OW35383   4.315   2.653   9.856  0.2092  0.0152  0.3254
 7974SOL    HW135384   4.410   2.666   9.862  0.0274  0.8572  1.3102
 7974SOL    HW235385   4.287   2.734   9.813  1.2324  0.9681  1.4692
 7975SOL     OW35386   1.158   4.510  16.106 -0.2409  0.0935 -0.5598
 7975SOL    HW135387   1.124   4.565  16.177  0.9329 -1.6673  1.3820
 7975SOL    HW235388   1.251   4.512  16.132 -0.2620  0.9997 -0.5474
 7976SOL     OW35389   0.141   3.999   3.421 -0.5741  0.3848  0.2061
 7976SOL    HW135390   0.200   4.067   3.454 -2.8643  2.7386 -0.5845
 7976SOL    HW235391   0.056   4.038   3.437 -1.3238 -1.3083  0.2789
 7977SOL     OW35392   0.273   0.658   4.920  0.2672 -0.1666 -0.4668
 7977SOL    HW135393   0.216   0.622   4.853 -1.2189  2.0537 -0.3860
 7977SOL    HW235394   0.262   0.591   4.989 -2.5918  1.1093  0.3100
 7978SOL     OW35395   0.910   3.884   6.496 -0.4763 -0.3392 -0.3096
 7978SOL    HW135396   0.932   3.896   6.589 -0.3495  1.9768 -0.6383
 7978SOL    HW235397   0.987   3.840   6.459 -2.0462 -2.3591 -1.1934
 7979SOL     OW35398   2.735   4.322   6.355 -0.3781  0.6397 -0.0134
 7979SOL    HW135399   2.696   4.239   6.329 -0.2318  0.3557  0.6507
 7979SOL    HW235400   2.826   4.314   6.326 -0.0627 -0.8399  1.3880
 7980SOL     OW35401   2.843   2.951   5.690 -0.0174  0.0213 -0.4517
 7980SOL    HW135402   2.755   2.986   5.675  0.6109  0.7965 -2.3000
 7980SOL    HW235403   2.847   2.941   5.785 -2.6893  0.8108 -0.2662
 7981SOL     OW35404   0.623   0.937  16.620 -0.2323 -0.0736  0.1924
 7981SOL    HW135405   0.671   0.857  16.639 -0.4665 -0.2428  0.0739
 7981SOL    HW235406   0.598   0.910  16.532  1.0685 -0.5133 -0.0303
 7982SOL     OW35407   2.233   0.281   2.710 -0.6688  0.3972 -0.0301
 7982SOL    HW135408   2.142   0.269   2.685 -0.4851 -0.9800 -0.0488
 7982SOL    HW235409   2.277   0.198   2.693 -0.6451  0.2790  0.6276
 7983SOL     OW35410   0.684   0.318   4.507 -0.2130 -0.7729  0.1648
 7983SOL    HW135411   0.707   0.233   4.469 -0.2646 -0.7739  0.1349
 7983SOL    HW235412   0.594   0.326   4.474  0.1667 -0.4928 -0.7918
 7984SOL     OW35413   1.735   0.426   4.582 -0.0393  0.1691 -1.0347
 7984SOL    HW135414   1.650   0.443   4.540 -0.4160  1.1536  0.1395
 7984SOL    HW235415   1.792   0.418   4.505  0.2174  1.1558 -0.9480
 7985SOL     OW35416   4.708   0.159  17.457  0.0471  0.2141  0.1430
 7985SOL    HW135417   4.696   0.248  17.490 -0.3810  0.1478  0.1617
 7985SOL    HW235418   0.013   0.178  17.367 -0.1347  0.2780  0.1049
 7986SOL     OW35419   2.346   3.384  11.861 -0.4285  0.5758  0.0679
 7986SOL    HW135420   2.398   3.406  11.938  1.2429  1.6329 -1.3727
 7986SOL    HW235421   2.347   3.288  11.859 -0.1276  0.5232  2.1198
 7987SOL     OW35422   2.343   1.535  16.544 -0.3112  0.4004 -0.0528
 7987SOL    HW135423   2.315   1.591  16.616  1.1556 -2.1591  2.5009
 7987SOL    HW235424   2.281   1.560  16.475 -1.0431 -0.3372  0.3364
 7988SOL     OW35425   3.894   4.075   5.138  0.7447 -0.5156 -0.1742
 7988SOL    HW135426   3.897   4.141   5.068 -0.5277  0.6386  0.8743
 7988SOL    HW235427   3.878   4.130   5.214 -1.2094  1.0377 -1.6909
 7989SOL     OW35428   0.940   3.395  10.818 -0.0954 -0.3566  0.2581
 7989SOL    HW135429   1.025   3.355  10.841 -1.5459 -3.7035 -0.1944
 7989SOL    HW235430   0.886   3.316  10.824  1.2538 -1.5233 -3.1597
 7990SOL     OW35431   1.862   2.426   1.917  0.7643  0.2524 -0.2983
 7990SOL    HW135432   1.873   2.436   2.012 -1.6422  0.4904 -0.0647
 7990SOL    HW235433   1.773   2.393   1.908 -0.1501  2.2855  1.2654
 7991SOL     OW35434   4.173   3.015   3.381 -0.2258  0.1096 -0.7092
 7991SOL    HW135435   4.177   3.108   3.360 -0.8152 -0.0011 -1.3183
 7991SOL    HW235436   4.266   2.995   3.392 -0.2491 -0.1798 -1.0238
 7992SOL     OW35437   4.476   4.456   3.685 -0.4146  0.7707  0.4058
 7992SOL    HW135438   4.464   4.427   3.595  0.1884 -0.8356  0.8386
 7992SOL    HW235439   4.560   4.501   3.679 -0.3517  0.3794 -1.4756
 7993SOL     OW35440   2.919   2.639  11.702 -0.0537 -0.3561 -0.2167
 7993SOL    HW135441   2.953   2.681  11.781  0.4851 -0.8574 -0.1838
 7993SOL    HW235442   2.968   2.557  11.703  0.1731 -0.1756  2.2043
 7994SOL     OW35443   3.457   0.208   2.568  0.3869 -0.4816  0.5457
 7994SOL    HW135444   3.422   0.144   2.631 -0.6250  0.5419  1.0174
 7994SOL    HW235445   3.381   0.264   2.557  0.7436 -0.0149  0.4751
 7995SOL     OW35446   3.074   4.271  15.835 -0.1610 -0.1361  0.0574
 7995SOL    HW135447   3.047   4.321  15.912  0.0746  1.0642 -0.6335
 7995SOL    HW235448   3.056   4.182  15.864  0.9452 -0.6208 -0.7348
 7996SOL     OW35449   0.549   0.508  12.628  0.2575  0.0357 -0.2792
 7996SOL    HW135450   0.513   0.538  12.711  1.7593  2.6550 -0.6002
 7996SOL    HW235451   0.481   0.526  12.563  1.5363 -0.3871 -1.7279
 7997SOL     OW35452   0.463   1.083   5.072  0.0947  0.5361 -0.5512
 7997SOL    HW135453   0.464   1.177   5.051  0.9900  0.7573  0.4667
 7997SOL    HW235454   0.466   1.093   5.167 -0.8431 -2.8077 -0.1637
 7998SOL     OW35455   0.104   1.417   2.731 -0.0734  0.2299  0.4657
 7998SOL    HW135456   0.119   1.334   2.777 -0.0119  0.5079  0.9490
 7998SOL    HW235457   0.012   1.416   2.702  0.4832  0.1681 -1.3078
 7999SOL     OW35458   1.111   2.635  15.775 -0.5624 -0.5944 -0.1476
 7999SOL    HW135459   1.198   2.599  15.790  0.1572  0.8730 -0.8366
 7999SOL    HW235460   1.049   2.566  15.798 -2.3224  1.0119 -0.0734
 8000SOL     OW35461   3.390   3.988   6.216  0.0004  0.4377 -0.2476
 8000SOL    HW135462   3.326   3.960   6.282 -1.1252  0.8083 -1.1886
 8000SOL    HW235463   3.440   3.906   6.211  1.4860  1.1723  2.4382
 8001SOL     OW35464   4.641   3.757   3.714  0.5024  0.0658 -0.1014
 8001SOL    HW135465   4.662   3.724   3.626  2.7355 -0.1236  0.5042
 8001SOL    HW235466   4.574   3.824   3.698 -2.8836 -2.8364  2.1130
 8002SOL     OW35467   2.761   1.773   6.949 -0.1062  0.7015 -0.1789
 8002SOL    HW135468   2.806   1.855   6.928  0.7091  0.3313  0.1581
 8002SOL    HW235469   2.801   1.713   6.887 -0.5747 -0.4241  0.5989
 8003SOL     OW35470   1.475   3.265   8.776  0.9881 -0.3019 -0.2069
 8003SOL    HW135471   1.459   3.352   8.811  0.6284 -0.3809 -0.1733
 8003SOL    HW235472   1.540   3.292   8.711  0.1776  0.9810 -0.4730
 8004SOL     OW35473   1.925   3.320  15.020  0.3617 -0.1067  0.3176
 8004SOL    HW135474   1.951   3.357  14.936 -2.3599  0.2982 -0.3681
 8004SOL    HW235475   1.888   3.233  15.005 -0.0482 -0.3618  2.8348
 8005SOL     OW35476   1.345   2.557   7.972  0.0870 -1.5558 -0.1987
 8005SOL    HW135477   1.288   2.481   7.980 -0.0306 -1.6076 -1.5478
 8005SOL    HW235478   1.330   2.594   8.059  2.1724  0.7836 -0.8059
 8006SOL     OW35479   2.027   2.175   7.088 -0.8300  0.1109  0.4837
 8006SOL    HW135480   1.973   2.153   7.012 -0.7112  2.5528 -0.3114
 8006SOL    HW235481   2.113   2.140   7.065 -0.4735 -0.6849  2.9717
 8007SOL     OW35482   1.231   0.104   6.471  0.3175  0.1593  0.1447
 8007SOL    HW135483   1.171   0.178   6.460  0.8631  0.2932 -1.8029
 8007SOL    HW235484   1.230   0.042   6.398  1.6013 -0.5255  0.7139
 8008SOL     OW35485   2.350   1.213   0.326 -0.0385 -0.2312 -0.4011
 8008SOL    HW135486   2.302   1.296   0.319 -1.4318 -0.9860  0.2953
 8008SOL    HW235487   2.352   1.191   0.419  0.1163 -0.5706 -0.4839
 8009SOL     OW35488   2.387   1.040   7.414 -0.0958 -0.0238 -0.6171
 8009SOL    HW135489   2.354   1.057   7.502  1.7164  0.6573 -0.0606
 8009SOL    HW235490   2.394   0.945   7.408  0.0879  0.0687 -1.7976
 8010SOL     OW35491   1.675   3.454  15.003  0.9095 -0.6270 -0.2904
 8010SOL    HW135492   1.722   3.494  14.929 -0.9316 -0.1665 -1.2090
 8010SOL    HW235493   1.749   3.396  15.024  0.5089 -0.5990  1.1941
 8011SOL     OW35494   4.437   2.134   0.844  0.4188  0.5206 -0.8388
 8011SOL    HW135495   4.512   2.187   0.816  1.2749 -0.3147 -0.1120
 8011SOL    HW235496   4.399   2.203   0.898 -1.7917 -0.5408 -1.0208
 8012SOL     OW35497   4.558   1.863  11.292  0.2098  0.0179  0.1981
 8012SOL    HW135498   4.604   1.904  11.364 -0.5611  1.0195  0.1282
 8012SOL    HW235499   4.622   1.877  11.222 -1.1176 -1.8989 -1.4441
 8013SOL     OW35500   0.324   2.720  10.387 -0.0724  0.4081  0.3463
 8013SOL    HW135501   0.242   2.678  10.415  0.5791 -0.3061  1.2010
 8013SOL    HW235502   0.327   2.776  10.464 -1.1028  1.9027 -0.6902
 8014SOL     OW35503   1.860   1.872  17.450  0.3480  0.1383  0.1056
 8014SOL    HW135504   1.927   1.937  17.424 -0.2740 -0.2685 -2.4529
 8014SOL    HW235505   1.798   1.940  17.475  0.0745  0.4871 -1.5493
 8015SOL     OW35506   0.152   2.710   9.862 -0.1856 -0.2916 -0.2464
 8015SOL    HW135507   0.056   2.714   9.871 -0.2589 -0.0539 -1.1055
 8015SOL    HW235508   0.171   2.620   9.835  0.1956  0.1184 -1.3726
 8016SOL     OW35509   4.702   1.590   6.829  0.3990 -0.3576  0.0958
 8016SOL    HW135510   4.661   1.512   6.866 -0.5853  0.9219  1.6622
 8016SOL    HW235511   4.635   1.658   6.834 -0.5861 -1.2353 -1.1499
 8017SOL     OW35512   2.329   3.526   0.517  0.3290 -1.0609  0.5019
 8017SOL    HW135513   2.341   3.589   0.589 -0.1697 -0.8969  0.4397
 8017SOL    HW235514   2.379   3.448   0.541  2.1661  0.0985  0.4401
 8018SOL     OW35515   3.158   4.226   4.297 -0.3873  0.1064  0.1542
 8018SOL    HW135516   3.189   4.233   4.387  0.4906  0.0486 -0.1380
 8018SOL    HW235517   3.103   4.148   4.302 -0.5753  0.2662  0.5706
 8019SOL     OW35518   2.406   2.072   8.238  0.4711 -0.6479 -0.0994
 8019SOL    HW135519   2.431   2.163   8.220  0.0644 -0.7521 -1.1801
 8019SOL    HW235520   2.477   2.028   8.191  2.5217  0.7930  1.6514
 8020SOL     OW35521   0.231   2.004   4.465  0.5864  0.5071 -0.1738
 8020SOL    HW135522   0.160   2.040   4.412  0.4812 -1.0771 -1.1431
 8020SOL    HW235523   0.178   1.938   4.511  0.3901  0.5354 -0.3596
 8021SOL     OW35524   2.448   3.652  17.492  0.7406 -0.1379  0.2783
 8021SOL    HW135525   2.508   3.637  17.419  0.8550  1.4203  0.0650
 8021SOL    HW235526   2.389   3.577  17.497  0.7812 -0.3496 -2.5820
 8022SOL     OW35527   3.857   4.384  16.720  0.0346  0.2230  0.0198
 8022SOL    HW135528   3.927   4.321  16.706  1.8487  1.8494  1.7759
 8022SOL    HW235529   3.909   4.465  16.722  0.6575 -0.2191  1.6951
 8023SOL     OW35530   0.644   4.114   9.480  0.2335 -0.3689 -0.1623
 8023SOL    HW135531   0.737   4.137   9.485  0.4380 -1.1951 -0.1574
 8023SOL    HW235532   0.644   4.018   9.482  1.0823 -0.3291  2.4716
 8024SOL     OW35533   3.535   0.929   4.201 -0.8560  0.3633 -0.2695
 8024SOL    HW135534   3.499   0.886   4.123 -0.3978 -1.1309  0.3393
 8024SOL    HW235535   3.477   0.895   4.269 -0.3397 -0.1443 -0.0829
 8025SOL     OW35536   0.857   1.555  13.706  0.1212  0.0815 -0.5112
 8025SOL    HW135537   0.922   1.587  13.769 -1.5132 -2.5102  2.5358
 8025SOL    HW235538   0.777   1.600  13.732 -0.2402 -0.9491  0.1522
 8026SOL     OW35539   1.422   1.485   1.244 -0.6138 -0.2324  0.0036
 8026SOL    HW135540   1.447   1.539   1.169  0.2832 -0.5805  0.0488
 8026SOL    HW235541   1.373   1.535   1.308  0.5173 -1.6949  2.0113
 8027SOL     OW35542   2.525   4.588   8.181  0.2354  0.0541  0.0200
 8027SOL    HW135543   2.546   4.531   8.254  0.3068 -0.2793 -0.2632
 8027SOL    HW235544   2.612   4.613   8.151  0.0561  0.6627 -0.0051
 8028SOL     OW35545   3.076   1.111  14.202  0.3495  0.8667 -0.0897
 8028SOL    HW135546   3.117   1.190  14.166  0.8190  0.2334 -0.9471
 8028SOL    HW235547   3.151   1.088  14.258  0.7218 -0.7499 -1.2763
 8029SOL     OW35548   0.946   3.673  13.122 -0.8241  0.2933 -0.0134
 8029SOL    HW135549   0.936   3.605  13.189  1.1062  2.4209  2.4242
 8029SOL    HW235550   0.865   3.721  13.137 -0.7951  0.2407  0.3060
 8030SOL     OW35551   2.107   3.872  12.280  0.5792 -0.2850  0.0128
 8030SOL    HW135552   2.085   3.939  12.345 -1.7906 -1.6051  0.5640
 8030SOL    HW235553   2.203   3.880  12.279  0.5783 -0.0357  1.1100
 8031SOL     OW35554   4.688   4.191   8.721 -0.5026 -0.2615  0.5304
 8031SOL    HW135555   4.685   4.138   8.642  2.7007 -0.6192  0.6570
 8031SOL    HW235556   4.612   4.168   8.775  0.2654 -1.8541  0.9438
 8032SOL     OW35557   1.715   1.395   3.078  0.0130  0.2207  0.2902
 8032SOL    HW135558   1.692   1.383   2.986  0.5956  3.3070 -0.2632
 8032SOL    HW235559   1.720   1.490   3.088 -0.5932  0.5233 -2.3779
 8033SOL     OW35560   4.300   4.369   8.375 -0.0461  0.5630 -0.7654
 8033SOL    HW135561   4.230   4.309   8.401 -0.1329  1.6980  1.5742
 8033SOL    HW235562   4.258   4.413   8.301 -0.7348 -2.1927 -2.0294
 8034SOL     OW35563   2.552   3.022  16.483 -0.3333  0.2672 -0.1043
 8034SOL    HW135564   2.576   3.018  16.576 -1.0374 -1.7696 -0.0109
 8034SOL    HW235565   2.640   3.027  16.446 -0.3416 -0.0957 -0.1734
 8035SOL     OW35566   4.586   0.681   6.499 -0.6438  0.2588 -0.0075
 8035SOL    HW135567   4.607   0.723   6.582  1.7494 -1.8402  0.4572
 8035SOL    HW235568   4.491   0.676   6.507 -0.5098 -2.2335 -0.0140
 8036SOL     OW35569   1.980   2.063   6.319  0.0480  0.1521 -0.4131
 8036SOL    HW135570   2.015   2.145   6.355 -0.5656  0.0533  0.4152
 8036SOL    HW235571   2.059   2.029   6.277  0.9262  0.4905  0.9304
 8037SOL     OW35572   1.300   2.389   6.741 -0.7164  0.4199  0.0802
 8037SOL    HW135573   1.313   2.294   6.734 -0.8381  0.3983  0.1445
 8037SOL    HW235574   1.208   2.407   6.761 -0.8660  1.4055 -1.5269
 8038SOL     OW35575   3.156   0.751   9.229 -0.2352  0.2473  0.5042
 8038SOL    HW135576   3.240   0.705   9.230  1.5339  3.3780 -2.1900
 8038SOL    HW235577   3.100   0.674   9.239  0.2786 -0.5691 -2.9518
 8039SOL     OW35578   4.175   4.274  10.531  0.0118  0.0082 -0.5386
 8039SOL    HW135579   4.088   4.312  10.545 -0.1226 -0.3607 -0.3648
 8039SOL    HW235580   4.172   4.276  10.436 -0.8257 -1.4220 -0.5452
 8040SOL     OW35581   2.802   3.296   4.482 -0.0413  0.4127  0.4331
 8040SOL    HW135582   2.877   3.276   4.539  0.0808 -0.1332  0.0777
 8040SOL    HW235583   2.752   3.350   4.544  0.7395  0.0792  1.3419
 8041SOL     OW35584   4.647   0.953  17.001  0.3405 -0.2455 -0.0351
 8041SOL    HW135585   4.639   0.883  17.065  0.0256  1.3827  1.6818
 8041SOL    HW235586   4.552   0.964  16.992  0.4134  0.0957 -0.3813
 8042SOL     OW35587   2.350   1.682   1.232  0.5946 -0.0280 -0.1496
 8042SOL    HW135588   2.282   1.615   1.230  0.0508  0.5649 -1.3813
 8042SOL    HW235589   2.426   1.626   1.251 -0.8257 -2.0575 -0.4937
 8043SOL     OW35590   2.745   0.911  13.033 -0.1997  0.5568 -0.2506
 8043SOL    HW135591   2.657   0.912  13.071  1.1063 -1.2765  2.8126
 8043SOL    HW235592   2.722   0.934  12.943 -0.7043  1.4519  0.1067
 8044SOL     OW35593   3.503   4.452   2.469 -0.4761  0.1608 -0.1324
 8044SOL    HW135594   3.411   4.428   2.456  0.0952 -1.7443 -0.7015
 8044SOL    HW235595   3.522   4.509   2.395 -0.7024 -0.6664 -0.8304
 8045SOL     OW35596   2.779   3.191   3.830  0.1176 -0.2119  0.0511
 8045SOL    HW135597   2.786   3.282   3.857  0.0744 -0.1506 -0.1455
 8045SOL    HW235598   2.704   3.191   3.770  1.6248 -1.6243 -1.8736
 8046SOL     OW35599   3.566   4.287   5.521 -0.0882  0.3310  0.0567
 8046SOL    HW135600   3.596   4.228   5.591 -1.9120 -1.2944 -0.5469
 8046SOL    HW235601   3.644   4.342   5.509  1.1574 -1.4772 -0.1323
 8047SOL     OW35602   2.871   2.966   7.253  0.3352 -0.1979  0.2078
 8047SOL    HW135603   2.923   2.890   7.280  0.2270 -0.1368  0.5845
 8047SOL    HW235604   2.787   2.920   7.245  1.3287 -1.8359 -0.7817
 8048SOL     OW35605   2.914   4.713   0.148 -0.7150 -0.2477  0.5918
 8048SOL    HW135606   2.938   4.653   0.078  1.7663  1.1581  0.2527
 8048SOL    HW235607   3.004   0.017   0.166 -0.9376  0.7171  0.3295
 8049SOL     OW35608   1.453   2.939   9.142 -0.1336 -0.3208  0.0030
 8049SOL    HW135609   1.501   2.985   9.073 -0.1042  0.9593  0.8881
 8049SOL    HW235610   1.479   2.988   9.220  1.7329 -0.5353 -0.4711
 8050SOL     OW35611   3.456   4.176   8.400 -0.0843  0.9063 -0.2872
 8050SOL    HW135612   3.530   4.216   8.446  0.5490  1.0938 -1.4831
 8050SOL    HW235613   3.481   4.191   8.309  3.0590  0.8725  0.5549
 8051SOL     OW35614   3.799   3.742  16.168 -0.5524  0.0413 -0.1251
 8051SOL    HW135615   3.725   3.692  16.135  0.8128 -2.2071  0.1954
 8051SOL    HW235616   3.868   3.688  16.129 -1.2341  0.1223 -1.4465
 8052SOL     OW35617   1.180   3.382   2.879 -0.3425 -0.1290 -0.2561
 8052SOL    HW135618   1.264   3.381   2.924  0.7736 -2.9589 -2.3943
 8052SOL    HW235619   1.128   3.342   2.949 -0.8131  1.9581  0.5682
 8053SOL     OW35620   0.298   1.136  16.115 -0.6927 -0.8585 -0.0725
 8053SOL    HW135621   0.253   1.065  16.070  0.6713 -0.3305 -2.2464
 8053SOL    HW235622   0.236   1.207  16.101  0.1793  0.5908  3.2691
 8054SOL     OW35623   0.749   4.083   2.890  0.5513  0.4830 -0.0098
 8054SOL    HW135624   0.750   4.175   2.919  0.7979 -0.0079  1.5360
 8054SOL    HW235625   0.837   4.056   2.919  0.2631 -0.1081  0.3149
 8055SOL     OW35626   2.976   1.076   5.979 -0.0577  0.7341 -0.6508
 8055SOL    HW135627   2.900   1.115   6.022  0.1030  0.2107  0.1240
 8055SOL    HW235628   2.951   1.082   5.887  0.8028  1.3778 -0.8480
 8056SOL     OW35629   4.115   2.470  13.729  0.2331 -1.0418 -0.4152
 8056SOL    HW135630   4.040   2.528  13.739 -0.6647 -2.0287 -1.4439
 8056SOL    HW235631   4.078   2.382  13.721 -1.2792 -0.2830 -1.6960
 8057SOL     OW35632   1.172   0.467   1.740 -0.7046 -0.6298 -0.0719
 8057SOL    HW135633   1.259   0.486   1.705 -0.4715 -0.0259  0.8348
 8057SOL    HW235634   1.192   0.403   1.808 -0.9070 -0.3681  0.2340
 8058SOL     OW35635   2.917   0.905   4.840 -0.2798  0.3937  0.3792
 8058SOL    HW135636   2.954   0.939   4.921 -0.2422  0.2814  0.4097
 8058SOL    HW235637   2.826   0.934   4.847 -0.4045  0.4650 -1.6157
 8059SOL     OW35638   0.615   2.371   2.333 -0.3564  0.4037  0.2025
 8059SOL    HW135639   0.669   2.448   2.350  2.0125 -0.8996 -1.4217
 8059SOL    HW235640   0.620   2.368   2.237 -0.5514 -2.4606  0.2880
 8060SOL     OW35641   4.156   3.476  12.985  0.1224 -0.8236  0.5139
 8060SOL    HW135642   4.098   3.471  12.909  1.5089 -0.1184 -0.5817
 8060SOL    HW235643   4.165   3.569  13.003 -0.9459 -0.1064 -2.5880
 8061SOL     OW35644   3.393   3.668  12.988 -0.6932 -0.1124  0.5990
 8061SOL    HW135645   3.465   3.617  13.025  0.2700  1.4032  0.8357
 8061SOL    HW235646   3.449   3.736  12.950 -0.7098  1.3032  3.0900
 8062SOL     OW35647   0.024   0.398   1.686  0.3827 -0.3984 -0.5728
 8062SOL    HW135648   4.686   0.414   1.613 -3.5415 -0.6442  2.5246
 8062SOL    HW235649   0.091   0.338   1.654  1.1246  1.1926 -1.9941
 8063SOL     OW35650   0.905   2.332   6.969  0.0959 -0.2188 -0.3381
 8063SOL    HW135651   0.893   2.340   7.063  0.9775  1.8106 -0.4195
 8063SOL    HW235652   0.820   2.298   6.941 -1.0861  2.0558  0.5210
 8064SOL     OW35653   2.310   3.734   2.351  0.6665 -0.0294 -0.5658
 8064SOL    HW135654   2.358   3.690   2.421  0.9981  0.5708 -0.4226
 8064SOL    HW235655   2.223   3.707   2.380  1.2555 -0.3502  0.8591
 8065SOL     OW35656   0.421   3.076  11.799  0.4796 -0.7005 -0.6990
 8065SOL    HW135657   0.449   2.992  11.761  0.0700 -0.8441 -0.6771
 8065SOL    HW235658   0.394   3.054  11.888  2.7964  1.4152  0.5219
 8066SOL     OW35659   0.487   3.876  11.261  0.5337  0.1080  0.4934
 8066SOL    HW135660   0.424   3.903  11.327 -1.0861  1.5667 -1.6299
 8066SOL    HW235661   0.462   3.786  11.240 -0.0220  0.2009  0.7783
 8067SOL     OW35662   4.027   1.525   0.678 -0.1169 -0.0912  0.2998
 8067SOL    HW135663   3.977   1.588   0.730  1.0109  0.0269  1.2480
 8067SOL    HW235664   4.041   1.456   0.743 -0.1379  0.1575  0.5701
 8068SOL     OW35665   3.933   2.476   1.905  0.5710  0.3966  0.2068
 8068SOL    HW135666   3.855   2.511   1.948 -0.0979 -0.9542  0.0863
 8068SOL    HW235667   4.003   2.501   1.966  1.7874  0.0133 -1.0227
 8069SOL     OW35668   4.025   4.678   5.346 -0.6299 -0.4963 -0.3596
 8069SOL    HW135669   4.051   4.712   5.260 -1.9686 -0.6763 -0.8309
 8069SOL    HW235670   3.965   0.022   5.383  0.2821  0.7666 -1.1014
 8070SOL     OW35671   2.541   3.967   8.514 -0.2660 -0.5367 -0.2788
 8070SOL    HW135672   2.633   3.942   8.523 -0.5845 -1.5930  0.1381
 8070SOL    HW235673   2.506   3.878   8.523 -0.5563 -0.1314  2.6093
 8071SOL     OW35674   4.464   4.602   5.419  0.3001 -0.4225 -0.0806
 8071SOL    HW135675   4.377   4.610   5.458  0.5737  0.5868  0.3251
 8071SOL    HW235676   4.510   4.563   5.493 -1.3516 -0.1738  1.0856
 8072SOL     OW35677   0.768   0.140   5.585 -0.1229  0.8653 -0.1451
 8072SOL    HW135678   0.834   0.151   5.653 -0.6798 -0.4800  0.6210
 8072SOL    HW235679   0.818   0.074   5.536  0.4269  1.3225 -0.1976
 8073SOL     OW35680   1.755   4.506  15.682 -0.3425  0.2850  0.4027
 8073SOL    HW135681   1.850   4.513  15.674 -0.3136 -0.6094 -0.0513
 8073SOL    HW235682   1.728   4.593  15.713 -0.5367  0.7826 -1.1685
 8074SOL     OW35683   1.192   1.957   5.638  0.8567 -0.5900 -0.2327
 8074SOL    HW135684   1.109   1.911   5.650 -0.3047  1.2842 -1.1376
 8074SOL    HW235685   1.158   2.035   5.594 -0.0453 -1.5872 -1.2926
 8075SOL     OW35686   2.969   4.717   7.871  0.4670 -0.0340  0.1448
 8075SOL    HW135687   2.950   0.082   7.834 -0.1624  0.6660  2.1242
 8075SOL    HW235688   2.982   4.677   7.785 -1.0745  0.8845 -0.5330
 8076SOL     OW35689   4.176   4.642  11.761  0.2654 -1.0171  0.1622
 8076SOL    HW135690   4.262   4.665  11.726  0.2171 -1.5625 -0.3233
 8076SOL    HW235691   4.213   4.582  11.826  0.4894  2.1670  2.9075
 8077SOL     OW35692   0.297   1.420   8.654  0.5227 -0.3354 -0.2298
 8077SOL    HW135693   0.244   1.487   8.612  1.1270 -0.6761 -1.5331
 8077SOL    HW235694   0.275   1.345   8.598 -3.1059 -0.2803  1.1039
 8078SOL     OW35695   2.912   4.351   1.440  0.0312 -0.7036  0.0796
 8078SOL    HW135696   2.833   4.388   1.480  0.1928  0.6002 -0.7814
 8078SOL    HW235697   2.944   4.424   1.386  1.9226 -1.6462 -0.0813
 8079SOL     OW35698   4.257   3.867   4.301  0.2688 -0.2502 -0.6410
 8079SOL    HW135699   4.245   3.785   4.349 -1.2525  0.8148  0.8376
 8079SOL    HW235700   4.207   3.856   4.221  0.3479 -1.4782 -0.5250
 8080SOL     OW35701   2.370   3.585   3.853 -0.5623 -0.7836  0.3459
 8080SOL    HW135702   2.360   3.665   3.906  2.1709  0.2033 -0.6153
 8080SOL    HW235703   2.463   3.590   3.833 -0.8139  0.0463 -0.6016
 8081SOL     OW35704   3.642   2.655   5.635  0.3545  0.0272  0.0810
 8081SOL    HW135705   3.651   2.660   5.540  1.6502  0.6721  0.2299
 8081SOL    HW235706   3.728   2.641   5.676  1.1894  0.1452 -1.6638
 8082SOL     OW35707   1.064   1.919   5.055 -0.1420  0.1133  0.1012
 8082SOL    HW135708   1.028   1.841   5.013 -0.7708  0.2452  0.4010
 8082SOL    HW235709   1.126   1.884   5.118 -0.6256 -0.1673  0.4143
 8083SOL     OW35710   0.564   3.285  15.864 -0.2912 -0.3172  0.0677
 8083SOL    HW135711   0.632   3.273  15.930 -1.0565 -0.5717  0.7954
 8083SOL    HW235712   0.482   3.318  15.899 -0.0472 -0.9156  1.1737
 8084SOL     OW35713   4.430   0.126   3.982  0.4918 -0.2543 -0.1211
 8084SOL    HW135714   4.505   0.067   3.976 -1.1594 -2.6242  2.7184
 8084SOL    HW235715   4.371   0.105   3.910  1.1669 -0.1613 -0.7064
 8085SOL     OW35716   4.191   0.456   9.744  0.4216  0.1113  0.1991
 8085SOL    HW135717   4.231   0.542   9.729 -2.6453  1.4595 -0.3321
 8085SOL    HW235718   4.120   0.483   9.802 -0.5342 -2.8029  0.4019
 8086SOL     OW35719   0.258   4.413  16.835  0.0371  0.1056  0.2027
 8086SOL    HW135720   0.265   4.384  16.926 -0.0341 -1.5792 -0.3176
 8086SOL    HW235721   0.287   4.335  16.787 -1.1479 -0.3364  0.2064
 8087SOL     OW35722   3.947   3.928   7.262  0.4805 -0.3195  0.6121
 8087SOL    HW135723   3.860   3.964   7.282  0.6654 -0.3905  1.5460
 8087SOL    HW235724   3.947   3.924   7.166  0.3722 -0.8509  0.6327
 8088SOL     OW35725   2.569   2.023   0.463  0.1477 -0.1012  0.5340
 8088SOL    HW135726   2.590   1.992   0.375 -0.6438  0.7737  0.0297
 8088SOL    HW235727   2.646   1.999   0.514  0.0476  0.3877  0.9232
 8089SOL     OW35728   3.319   2.646  14.019 -0.3360 -0.0153  0.3068
 8089SOL    HW135729   3.257   2.573  14.010  0.9416 -1.1372  0.5500
 8089SOL    HW235730   3.295   2.712  13.954  2.3139  0.5793 -0.0382
 8090SOL     OW35731   0.022   2.055   9.053  0.0560  0.8821  0.0111
 8090SOL    HW135732   4.668   2.107   9.080 -1.0339 -1.9308  2.4881
 8090SOL    HW235733   0.074   2.111   8.996  0.8404  0.4618  0.3127
 8091SOL     OW35734   3.732   1.237   4.721 -0.1933  0.6703  0.5025
 8091SOL    HW135735   3.650   1.207   4.683 -0.9658  2.5118  0.7296
 8091SOL    HW235736   3.717   1.213   4.813 -0.4309  0.3081  0.3712
 8092SOL     OW35737   3.549   2.390  17.119  0.0279  0.8724  0.3076
 8092SOL    HW135738   3.499   2.437  17.187 -1.3684  2.5732 -1.9076
 8092SOL    HW235739   3.544   2.454  17.048  0.3872  1.7657  1.0792
 8093SOL     OW35740   4.463   4.355   3.422 -0.5058  0.3258 -0.2401
 8093SOL    HW135741   4.519   4.407   3.364  0.2566 -2.2901 -1.8968
 8093SOL    HW235742   4.419   4.305   3.354 -0.1690  0.6904 -0.7259
 8094SOL     OW35743   3.001   1.578   3.627  0.3668 -0.1166 -0.1867
 8094SOL    HW135744   3.040   1.551   3.710  0.3473  0.2898 -0.0502
 8094SOL    HW235745   2.968   1.496   3.589 -3.4842 -0.0120  3.0023
 8095SOL     OW35746   0.287   1.176  12.816  0.2116  0.1215 -0.0873
 8095SOL    HW135747   0.336   1.232  12.876  1.5936 -0.0626 -1.0345
 8095SOL    HW235748   0.200   1.215  12.819 -0.1360 -0.5447 -1.5968
 8096SOL     OW35749   4.378   4.371   4.783 -0.8087  0.2374  0.1073
 8096SOL    HW135750   4.300   4.368   4.727  0.0443 -0.8431 -1.0205
 8096SOL    HW235751   4.362   4.296   4.840 -1.7260 -0.3928 -0.9711
 8097SOL     OW35752   4.565   3.701   2.039 -0.5528 -0.3316 -0.2280
 8097SOL    HW135753   4.615   3.754   2.101 -1.7633 -1.1191  1.4383
 8097SOL    HW235754   4.483   3.750   2.045 -1.1436 -1.2729 -0.4960
 8098SOL     OW35755   3.019   3.616   6.651 -0.1793 -0.4010 -0.9220
 8098SOL    HW135756   2.980   3.543   6.603 -0.4418  0.1312 -1.5265
 8098SOL    HW235757   2.963   3.686   6.616 -0.0027 -0.4298 -1.2639
 8099SOL     OW35758   1.160   2.337   4.709  0.2574  0.0724  0.4110
 8099SOL    HW135759   1.234   2.289   4.672 -0.0589 -0.4194  0.4225
 8099SOL    HW235760   1.151   2.285   4.789  0.3529  0.4165  0.6473
 8100SOL     OW35761   1.507   3.894   7.820  0.3218  0.0805  0.0000
 8100SOL    HW135762   1.557   3.879   7.900  0.4107  0.1483 -0.0420
 8100SOL    HW235763   1.544   3.842   7.749  1.7104  0.2303  0.6127
 8101SOL     OW35764   3.226   4.663   6.381 -0.5505 -0.3268  0.1910
 8101SOL    HW135765   3.288   4.701   6.443  1.3227 -1.7564 -0.8177
 8101SOL    HW235766   3.293   4.645   6.315  1.5094 -3.0252  3.0770
 8102SOL     OW35767   3.999   3.733   5.106  0.0726  0.7041  0.4364
 8102SOL    HW135768   3.994   3.744   5.201  0.5094  1.1187  0.4087
 8102SOL    HW235769   3.936   3.662   5.094  0.8386  0.2118 -0.7016
 8103SOL     OW35770   4.118   3.894   6.806 -0.0799 -0.4275  0.3714
 8103SOL    HW135771   4.050   3.875   6.742  0.8535 -0.7373 -0.5306
 8103SOL    HW235772   4.167   3.969   6.771 -0.1034 -0.6584 -0.1663
 8104SOL     OW35773   1.982   4.552   8.948  0.4241 -0.6517 -0.1606
 8104SOL    HW135774   1.926   4.548   8.871  0.1887  0.5528 -0.0523
 8104SOL    HW235775   1.961   4.643   8.971 -3.2338 -2.2737  2.9901
 8105SOL     OW35776   3.836   3.258   6.988 -0.1317 -0.2488 -0.0713
 8105SOL    HW135777   3.863   3.182   6.937 -0.7260 -0.7364  0.3464
 8105SOL    HW235778   3.766   3.295   6.935 -0.2170 -1.2038 -0.6226
 8106SOL     OW35779   0.118   0.867   3.342 -0.2086  0.9002  0.5182
 8106SOL    HW135780   0.093   0.908   3.425  0.8895  1.9670  0.3116
 8106SOL    HW235781   0.037   0.876   3.291 -1.2497 -0.6563  1.8610
 8107SOL     OW35782   0.835   2.505   8.490  0.3425  0.4498 -0.1418
 8107SOL    HW135783   0.818   2.426   8.541 -1.1632 -0.8833 -2.7372
 8107SOL    HW235784   0.918   2.535   8.525  0.0140 -0.4162  1.3617
 8108SOL     OW35785   0.952   1.005   7.591 -0.6821 -0.3587  0.0658
 8108SOL    HW135786   0.864   1.007   7.554 -0.8557 -0.7622  0.4685
 8108SOL    HW235787   0.923   0.967   7.673 -1.6721  2.5078  1.0344
 8109SOL     OW35788   2.752   2.585   6.827 -0.5280 -0.2990  0.5894
 8109SOL    HW135789   2.700   2.507   6.845 -0.9547 -0.5766 -1.8630
 8109SOL    HW235790   2.789   2.609   6.912 -0.5522  1.5620  0.0785
 8110SOL     OW35791   2.359   0.189   9.411 -0.5731  0.5256  0.0904
 8110SOL    HW135792   2.321   0.111   9.371  1.6231 -0.6283  0.2341
 8110SOL    HW235793   2.333   0.175   9.502 -0.5960 -0.6256 -0.1005
 8111SOL     OW35794   1.564   1.793   8.599 -0.0055  0.2427 -0.9722
 8111SOL    HW135795   1.651   1.819   8.629 -0.2777 -1.0559  0.9514
 8111SOL    HW235796   1.576   1.713   8.548  2.0270 -1.2843  1.8961
 8112SOL     OW35797   3.853   0.611   0.563  0.0376 -0.3990 -0.2014
 8112SOL    HW135798   3.849   0.608   0.658  0.5914 -1.9177 -0.2292
 8112SOL    HW235799   3.924   0.549   0.546 -1.2837 -1.5605 -1.4048
 8113SOL     OW35800   3.828   0.162   7.286 -0.2260 -0.3901 -0.1888
 8113SOL    HW135801   3.808   0.232   7.224 -0.5166 -0.8476 -0.6070
 8113SOL    HW235802   3.854   0.225   7.353 -0.7619 -0.4515  0.0791
 8114SOL     OW35803   4.130   0.050   7.506  0.0233  0.1585  0.1240
 8114SOL    HW135804   4.148   0.143   7.494  0.8419  0.0163  0.2216
 8114SOL    HW235805   4.048   0.054   7.554  0.2538  2.7994  0.2770
 8115SOL     OW35806   0.964   4.127   3.750 -0.1059  0.8518  0.3207
 8115SOL    HW135807   0.879   4.091   3.775 -0.3782  0.0950 -1.6917
 8115SOL    HW235808   1.004   4.135   3.836 -0.6225  0.0825  0.6317
 8116SOL     OW35809   0.161   0.669   5.863  0.4680  0.8411  0.1236
 8116SOL    HW135810   0.161   0.586   5.910  0.5747 -0.1858 -1.6614
 8116SOL    HW235811   0.139   0.641   5.774  0.9871 -0.2595  0.3396
 8117SOL     OW35812   1.516   0.087  10.236  0.1177  0.0323 -0.0637
 8117SOL    HW135813   1.573   0.117  10.165 -0.2124  0.4391 -0.1631
 8117SOL    HW235814   1.538   4.715  10.240 -1.6959 -0.3821  0.4371
 8118SOL     OW35815   2.020   0.467   1.706 -0.1983 -0.2471  0.0372
 8118SOL    HW135816   2.005   0.545   1.759  0.6957 -1.5412  2.2182
 8118SOL    HW235817   1.986   0.503   1.624  3.0083 -0.8024 -1.5652
 8119SOL     OW35818   2.098   3.329   8.819  0.0699  0.0057  0.1161
 8119SOL    HW135819   2.191   3.339   8.836 -0.1889 -0.4992  1.7780
 8119SOL    HW235820   2.098   3.294   8.730  0.1321  0.9499 -0.2607
 8120SOL     OW35821   0.806   0.345   4.118  0.3466  0.3396  0.1715
 8120SOL    HW135822   0.776   0.260   4.149 -1.7458  0.9592 -0.1209
 8120SOL    HW235823   0.861   0.316   4.044  0.4151 -1.0887  0.7754
 8121SOL     OW35824   0.281   0.493  15.314 -0.0826  0.0950 -0.4792
 8121SOL    HW135825   0.331   0.529  15.388 -2.6215  2.2042  0.2179
 8121SOL    HW235826   0.220   0.432  15.356  0.1458 -1.8865 -3.0437
 8122SOL     OW35827   0.726   0.120   1.732  0.0933 -0.0358  1.2266
 8122SOL    HW135828   0.782   0.197   1.722 -0.5970  0.0322 -2.2054
 8122SOL    HW235829   0.774   0.070   1.798  0.3737 -3.5728 -1.6130
 8123SOL     OW35830   4.682   1.509   3.902  0.3062  0.4686  0.1648
 8123SOL    HW135831   0.041   1.549   3.934  2.0176 -0.5881 -2.7792
 8123SOL    HW235832   4.707   1.474   3.816 -1.0606  2.1063 -0.9136
 8124SOL     OW35833   1.265   2.622   6.942  0.0883 -0.1045  0.7144
 8124SOL    HW135834   1.179   2.636   6.982 -0.5954  2.2921 -1.6031
 8124SOL    HW235835   1.246   2.547   6.887 -0.0482  0.4308  0.0342
 8125SOL     OW35836   1.910   2.044   6.796  0.0695  0.7842 -0.0071
 8125SOL    HW135837   1.891   1.993   6.717  4.5738 -1.7558  0.5710
 8125SOL    HW235838   1.851   2.005   6.860  2.3996 -0.4313  1.3920
 8126SOL     OW35839   3.825   4.132   8.788  0.2459 -0.1413 -0.0725
 8126SOL    HW135840   3.912   4.141   8.747  1.3657 -3.1882  1.6137
 8126SOL    HW235841   3.839   4.046   8.827 -1.0561 -1.2913 -2.1106
 8127SOL     OW35842   1.167   1.254   3.041  0.2617 -0.1143 -0.7292
 8127SOL    HW135843   1.100   1.300   3.092  0.7641 -2.4114  1.9946
 8127SOL    HW235844   1.222   1.215   3.109 -1.0217 -0.3601  0.1774
 8128SOL     OW35845   0.809   0.909  10.742  0.2944  0.6073 -0.3363
 8128SOL    HW135846   0.783   0.894  10.833  2.3353  1.1278  0.3486
 8128SOL    HW235847   0.885   0.851  10.731 -0.1717 -0.1173  0.2648
 8129SOL     OW35848   1.064   2.143   5.488 -0.0455 -0.1679 -0.4322
 8129SOL    HW135849   1.060   2.226   5.440 -2.0858  0.7053  1.2519
 8129SOL    HW235850   0.982   2.100   5.464 -0.1481  0.7212 -1.7091
 8130SOL     OW35851   1.957   1.361   2.837 -0.4819  0.5983  0.1356
 8130SOL    HW135852   1.868   1.358   2.802 -1.5955 -0.2294  3.0662
 8130SOL    HW235853   1.930   1.336   2.925 -1.8447 -2.6072 -1.1879
 8131SOL     OW35854   1.005   3.530   4.253 -0.6480  0.1915 -0.5718
 8131SOL    HW135855   1.068   3.460   4.237  1.8748  2.2474  0.3296
 8131SOL    HW235856   0.969   3.545   4.165  1.8067  1.9354 -1.2871
 8132SOL     OW35857   4.585   4.601  14.385  0.4551 -0.2372 -0.1720
 8132SOL    HW135858   4.586   4.626  14.293 -3.4630  2.3738  0.4977
 8132SOL    HW235859   4.513   4.653  14.421  1.9012  1.1410  0.7520
 8133SOL     OW35860   3.458   0.477   1.230  0.2660 -0.9714  0.2436
 8133SOL    HW135861   3.394   0.517   1.171  0.8959 -1.0996 -0.5416
 8133SOL    HW235862   3.407   0.403   1.261 -0.0937 -0.3829  1.0592
 8134SOL     OW35863   3.721   4.718   5.118 -0.5794 -0.0027  0.0333
 8134SOL    HW135864   3.667   4.694   5.043  0.6225  0.2550 -0.9074
 8134SOL    HW235865   3.771   4.637   5.124 -1.0036 -0.3184 -0.6378
 8135SOL     OW35866   4.549   4.142   6.878  0.3854 -0.2194  0.2799
 8135SOL    HW135867   4.576   4.163   6.967 -1.9766 -1.0538  1.2023
 8135SOL    HW235868   4.486   4.072   6.898 -0.3434  0.6205  0.9234
 8136SOL     OW35869   4.553   0.362   4.238 -0.3304 -0.0976 -0.0748
 8136SOL    HW135870   4.617   0.297   4.265  0.5833 -0.1415 -2.3923
 8136SOL    HW235871   4.466   0.326   4.259  0.0320 -0.5793  0.5959
 8137SOL     OW35872   1.929   3.540  10.161  0.3096  0.0736  0.4839
 8137SOL    HW135873   1.849   3.495  10.132  0.8717  0.7235 -2.0939
 8137SOL    HW235874   1.964   3.488  10.233  1.4238  0.6232  0.3409
 8138SOL     OW35875   0.090   0.826   6.374  0.0539  0.3020 -0.2015
 8138SOL    HW135876   0.089   0.805   6.281  0.0954  1.9827 -0.5794
 8138SOL    HW235877   0.036   0.754   6.407 -1.3072  2.1624  1.6455
 8139SOL     OW35878   2.215   4.404   6.459  0.2370  0.2069 -0.0682
 8139SOL    HW135879   2.165   4.392   6.539 -0.8503 -1.1414 -0.9433
 8139SOL    HW235880   2.280   4.462   6.499 -0.6787  1.1872  0.0001
 8140SOL     OW35881   2.636   3.668   8.405  0.6006  0.5195  0.7990
 8140SOL    HW135882   2.608   3.576   8.402  0.3493  0.6489 -1.0719
 8140SOL    HW235883   2.599   3.694   8.321  0.1580 -0.8768  0.5664
 8141SOL     OW35884   1.120   4.231   7.784  0.3370 -0.0442  0.6576
 8141SOL    HW135885   1.083   4.297   7.726 -2.2903 -0.6795  1.6097
 8141SOL    HW235886   1.035   4.201   7.817 -1.1050  2.7463 -0.4534
 8142SOL     OW35887   2.025   2.562   5.479 -0.2631  0.1643  0.0558
 8142SOL    HW135888   1.990   2.590   5.395 -0.9143  3.6208  1.4570
 8142SOL    HW235889   1.950   2.505   5.495 -2.3008  2.6289 -0.8109
 8143SOL     OW35890   4.117   4.095  14.766  0.1961  0.2544 -0.6748
 8143SOL    HW135891   4.074   4.145  14.835  1.4577  0.2270  0.1209
 8143SOL    HW235892   4.051   4.049  14.714 -0.9851  1.5538 -0.3081
 8144SOL     OW35893   2.415   4.709  14.932  0.4094  0.4937 -0.3969
 8144SOL    HW135894   2.429   0.082  14.947 -1.5821  0.6677  0.4593
 8144SOL    HW235895   2.323   4.691  14.952  0.0475  1.2094 -1.4340
 8145SOL     OW35896   2.670   0.295   6.018  0.0672  0.2864 -0.0974
 8145SOL    HW135897   2.715   0.245   6.085 -0.6936 -0.0419  0.1735
 8145SOL    HW235898   2.650   0.376   6.066 -0.5591 -0.0136  0.1511
 8146SOL     OW35899   0.302   0.496  13.884 -0.1761  0.2469  0.3992
 8146SOL    HW135900   0.206   0.492  13.891 -0.2881 -1.2740 -1.8762
 8146SOL    HW235901   0.328   0.455  13.966  0.2423  1.4661  0.8675
 8147SOL     OW35902   0.438   3.622   7.513 -0.6878 -0.6182  0.1899
 8147SOL    HW135903   0.360   3.634   7.566 -0.3158  1.9294  0.1961
 8147SOL    HW235904   0.496   3.586   7.580 -2.8602 -1.6799  1.4805
 8148SOL     OW35905   0.429   2.990   3.293 -0.4542 -0.0397  0.0518
 8148SOL    HW135906   0.475   3.004   3.376 -0.2823  1.5082 -0.2944
 8148SOL    HW235907   0.393   3.077   3.274 -0.0526  0.0222 -0.4185
 8149SOL     OW35908   0.681   0.687  16.709  0.3125 -0.1479 -0.5018
 8149SOL    HW135909   0.760   0.675  16.762  1.4230 -1.7829 -2.5005
 8149SOL    HW235910   0.644   0.599  16.714 -0.5999  0.2431 -0.3813
 8150SOL     OW35911   0.308   0.031   1.326 -0.1331  0.0582 -0.5556
 8150SOL    HW135912   0.235   0.064   1.378 -1.1783  1.1752 -2.7561
 8150SOL    HW235913   0.359   4.704   1.391  0.8283  2.0770  0.1789
 8151SOL     OW35914   3.210   0.130  16.357 -0.0924 -0.6732  1.1159
 8151SOL    HW135915   3.294   0.101  16.322 -0.5556  0.8635 -1.2742
 8151SOL    HW235916   3.164   0.046  16.354 -1.9849  0.3800  0.1525
 8152SOL     OW35917   1.558   1.052   4.501 -0.5297 -0.4378 -0.4068
 8152SOL    HW135918   1.543   1.000   4.580  2.6066 -1.2757 -0.3404
 8152SOL    HW235919   1.590   0.988   4.437 -1.5125 -0.1801 -1.1547
 8153SOL     OW35920   0.998   3.457  14.494  0.2444 -0.2433  0.3955
 8153SOL    HW135921   1.045   3.374  14.506 -1.7469 -1.1357  1.8991
 8153SOL    HW235922   0.911   3.419  14.498 -0.4877  1.5381  1.1032
 8154SOL     OW35923   0.796   3.452  11.753 -0.8938 -0.1559  0.1704
 8154SOL    HW135924   0.884   3.413  11.749 -0.2954  1.2605 -0.3284
 8154SOL    HW235925   0.767   3.415  11.670 -1.9208 -1.4948  1.1175
 8155SOL     OW35926   1.130   1.480   2.754  0.1980 -0.6039  0.0586
 8155SOL    HW135927   1.119   1.474   2.849 -0.1446  2.0565  0.1945
 8155SOL    HW235928   1.141   1.575   2.759 -0.6471 -0.5967  1.8779
 8156SOL     OW35929   2.087   0.187   6.132 -0.2244 -0.1128  0.3054
 8156SOL    HW135930   2.115   0.230   6.051 -2.5353  0.3303 -0.2701
 8156SOL    HW235931   2.097   0.253   6.200 -1.0766  2.5365 -2.1207
 8157SOL     OW35932   0.150   0.300   5.554 -0.3466  0.1682  0.2005
 8157SOL    HW135933   0.232   0.283   5.509 -1.2146 -0.2577 -1.2386
 8157SOL    HW235934   0.087   0.282   5.484  0.3281 -1.5828  0.0539
 8158SOL     OW35935   3.261   3.958  16.072  0.3235  0.6283 -0.0452
 8158SOL    HW135936   3.185   3.910  16.106  0.4232 -0.6497 -1.6155
 8158SOL    HW235937   3.227   4.042  16.101  1.2845  1.5236 -1.5167
 8159SOL     OW35938   4.157   0.277  15.842 -0.7322  0.4284  0.2147
 8159SOL    HW135939   4.201   0.359  15.823 -0.4299  0.5080  1.2923
 8159SOL    HW235940   4.189   0.257  15.930 -1.7201 -1.5765  0.1333
 8160SOL     OW35941   3.477   4.296   7.868  0.5331 -0.1290  0.1138
 8160SOL    HW135942   3.472   4.212   7.821 -0.1287 -0.0880  0.1047
 8160SOL    HW235943   3.570   4.307   7.888  0.0513 -0.2910  2.3958
 8161SOL     OW35944   0.825   2.329   4.646  0.2010  0.1952 -0.0269
 8161SOL    HW135945   0.771   2.284   4.582  1.2519 -2.4763  0.9493
 8161SOL    HW235946   0.772   2.398   4.684  1.8447  1.8245 -0.7069
 8162SOL     OW35947   1.199   1.035  11.193  0.0869 -0.1218  0.2076
 8162SOL    HW135948   1.281   1.061  11.235  0.4160 -0.9403  0.0703
 8162SOL    HW235949   1.200   0.939  11.198 -1.1085 -0.1913 -0.7728
 8163SOL     OW35950   1.639   0.910   6.597 -0.1310 -0.1946 -0.0124
 8163SOL    HW135951   1.579   0.836   6.609 -2.3811  1.3889 -1.4803
 8163SOL    HW235952   1.669   0.934   6.685  0.2725  2.6477 -0.9088
 8164SOL     OW35953   0.338   3.751   8.532  0.1109  0.4193 -0.0143
 8164SOL    HW135954   0.254   3.792   8.511 -0.5189  0.2496  2.2009
 8164SOL    HW235955   0.367   3.734   8.442  2.9049  2.1315  0.5469
 8165SOL     OW35956   4.468   0.484  14.235  0.1832  0.3442 -0.4323
 8165SOL    HW135957   4.532   0.554  14.224 -0.5715  1.3755  1.6732
 8165SOL    HW235958   4.464   0.477  14.331 -0.0543  0.4108 -0.4382
 8166SOL     OW35959   4.247   1.543   4.179  0.4195  0.0731  0.1900
 8166SOL    HW135960   4.167   1.550   4.230  1.3809  0.3599  1.6498
 8166SOL    HW235961   4.230   1.458   4.139  0.7631 -0.7168  1.7328
 8167SOL     OW35962   1.197   4.286  17.364 -0.1398  0.3862 -0.1232
 8167SOL    HW135963   1.263   4.216  17.363 -1.4569 -0.8632 -0.0580
 8167SOL    HW235964   1.250   4.352  17.408  0.4396 -0.1071 -0.0786
 8168SOL     OW35965   2.237   0.412   0.591  0.1834 -0.8318 -0.7491
 8168SOL    HW135966   2.256   0.371   0.506 -0.1508  0.4427 -1.4419
 8168SOL    HW235967   2.326   0.412   0.626 -0.0713 -1.6260 -0.0869
 8169SOL     OW35968   3.804   1.744   5.685  0.6822  0.0752 -0.2369
 8169SOL    HW135969   3.709   1.746   5.700  1.2401  1.1483  3.1889
 8169SOL    HW235970   3.834   1.757   5.775  0.1764  0.7112 -0.1615
 8170SOL     OW35971   0.182   3.989  14.811  0.3046 -0.3665 -0.1296
 8170SOL    HW135972   0.225   4.008  14.728 -0.3267  0.1960 -0.3228
 8170SOL    HW235973   0.187   4.072  14.859 -1.3488 -0.4984  0.2613
 8171SOL     OW35974   3.422   4.395  12.312  0.1098 -0.1900 -0.1285
 8171SOL    HW135975   3.367   4.474  12.309 -0.5418 -0.5810  1.3517
 8171SOL    HW235976   3.374   4.346  12.379 -1.0129 -0.4792 -1.1381
 8172SOL     OW35977   0.380   0.785   9.634 -0.5277 -0.2310 -0.3165
 8172SOL    HW135978   0.469   0.764   9.607 -0.3502 -2.3836  1.9602
 8172SOL    HW235979   0.345   0.810   9.549 -3.2913  0.3280  0.9863
 8173SOL     OW35980   4.199   0.036   8.070 -0.5402  0.0538 -0.3642
 8173SOL    HW135981   4.294   0.030   8.078 -0.3255  0.9877 -2.1482
 8173SOL    HW235982   4.185   0.089   7.992 -0.7218 -0.1633 -0.4792
 8174SOL     OW35983   4.467   1.794   7.585  0.2768 -0.4899 -0.0532
 8174SOL    HW135984   4.505   1.727   7.529 -0.3499 -1.8054  1.0979
 8174SOL    HW235985   4.478   1.876   7.536  1.4012 -1.1016 -0.8122
 8175SOL     OW35986   3.233   0.641   8.797  0.1507 -0.3687  0.1336
 8175SOL    HW135987   3.169   0.570   8.804 -1.0124  0.8312  1.6220
 8175SOL    HW235988   3.303   0.586   8.761 -1.1836 -1.6377 -0.5363
 8176SOL     OW35989   0.265   4.541   6.254  0.4688 -0.0907 -0.3665
 8176SOL    HW135990   0.175   4.510   6.255 -0.0759  1.4895 -0.1347
 8176SOL    HW235991   0.256   4.634   6.232 -1.0557 -0.3072 -0.6590
 8177SOL     OW35992   1.511   3.293   1.925  0.0426  0.2027 -0.1790
 8177SOL    HW135993   1.568   3.253   1.860 -0.5641 -3.0978  1.3600
 8177SOL    HW235994   1.570   3.298   2.001 -0.2965 -0.7470  0.1375
 8178SOL     OW35995   1.226   1.527   5.554 -0.1403  0.0772  0.6743
 8178SOL    HW135996   1.144   1.539   5.507  0.1290 -4.0466 -0.9272
 8178SOL    HW235997   1.275   1.474   5.491 -0.2215 -0.7483  1.2977
 8179SOL     OW35998   0.416   1.284   4.638  0.4098 -0.1012  0.0216
 8179SOL    HW135999   0.349   1.244   4.582  1.0590 -0.8665 -0.2046
 8179SOL    HW236000   0.376   1.273   4.725  0.9452  0.9488  0.4057
 8180SOL     OW36001   1.887   1.850   0.079 -0.1562 -0.2474  0.1966
 8180SOL    HW136002   1.824   1.913   0.045  0.5634  0.7112  0.6108
 8180SOL    HW236003   1.913   1.897   0.158  2.2594 -0.6783 -0.3185
 8181SOL     OW36004   1.653   3.534   7.172 -0.3819  0.0640 -0.3264
 8181SOL    HW136005   1.641   3.622   7.207  0.6226 -0.1439  0.5409
 8181SOL    HW236006   1.719   3.558   7.107  0.7192 -0.9224  0.4115
 8182SOL     OW36007   4.212   1.864   7.313  0.6750 -0.5027  0.2457
 8182SOL    HW136008   4.278   1.878   7.381  0.1970  0.9063  0.4155
 8182SOL    HW236009   4.139   1.870   7.375  0.5288 -0.2160  0.0468
 8183SOL     OW36010   4.352   0.315  17.615 -0.9665  0.1141  0.0899
 8183SOL    HW136011   4.304   0.363  17.683 -1.0187  1.0797 -0.6346
 8183SOL    HW236012   4.301   0.338  17.537 -1.5888  0.1015  0.4871
 8184SOL     OW36013   4.690   3.074   7.130 -0.3260 -0.0359  0.3652
 8184SOL    HW136014   0.001   3.080   7.220  1.0059 -2.5650  0.0526
 8184SOL    HW236015   4.688   3.168   7.108 -1.8774  0.1828  1.3933
 8185SOL     OW36016   2.736   1.379   9.199 -0.1738 -0.4515  0.9971
 8185SOL    HW136017   2.805   1.433   9.160 -1.8120  0.6971 -0.3240
 8185SOL    HW236018   2.765   1.372   9.290  0.0943 -1.4026  0.8406
 8186SOL     OW36019   0.522   0.881   1.029 -0.0499 -0.0481  0.5652
 8186SOL    HW136020   0.593   0.916   0.975  0.8713 -1.0765  1.0878
 8186SOL    HW236021   0.447   0.867   0.972  0.3035  1.7516 -0.3508
 8187SOL     OW36022   3.195   2.325   1.737  0.0109  0.4053 -0.0061
 8187SOL    HW136023   3.142   2.386   1.685  1.4482  2.0227  0.4146
 8187SOL    HW236024   3.125   2.287   1.790 -0.1761 -3.5082 -3.0507
 8188SOL     OW36025   0.356   0.442  11.255 -0.1050 -0.5033  0.2204
 8188SOL    HW136026   0.392   0.382  11.190 -0.8634 -0.4362 -0.2637
 8188SOL    HW236027   0.396   0.402  11.332  0.0695  0.2725  0.5309
 8189SOL     OW36028   1.070   3.772   3.748 -0.8725  0.0255 -0.0665
 8189SOL    HW136029   0.975   3.780   3.749 -0.8822  0.1780 -3.2368
 8189SOL    HW236030   1.102   3.819   3.671  0.8003  0.1330  0.6911
 8190SOL     OW36031   4.628   3.283   4.297  0.0685 -0.6125 -0.1513
 8190SOL    HW136032   4.700   3.292   4.360  0.7182  1.6309 -1.2065
 8190SOL    HW236033   4.560   3.342   4.331 -0.0055  0.6647 -2.5125
 8191SOL     OW36034   2.574   1.448   6.119  0.2640 -0.0423  0.4130
 8191SOL    HW136035   2.546   1.367   6.076  0.8203 -0.0552  0.0824
 8191SOL    HW236036   2.518   1.454   6.197 -1.9170 -1.9941 -1.0087
 8192SOL     OW36037   1.904   0.900   7.154  0.0414  0.0017  0.7144
 8192SOL    HW136038   1.982   0.922   7.205  1.9807 -0.9647 -1.8718
 8192SOL    HW236039   1.834   0.893   7.219 -1.0572  0.1886 -0.4690
 8193SOL     OW36040   1.341   2.461   8.504 -0.1345  0.2575 -0.3173
 8193SOL    HW136041   1.258   2.495   8.471  0.4916  0.8261 -1.3146
 8193SOL    HW236042   1.331   2.368   8.482  1.3045 -0.2920  1.3251
 8194SOL     OW36043   3.649   2.662   5.302  0.3043 -0.1864  0.7565
 8194SOL    HW136044   3.601   2.686   5.222  0.6354  0.8290  0.8633
 8194SOL    HW236045   3.740   2.672   5.274  0.1199  0.1647  0.2765
 8195SOL     OW36046   2.627   2.355   2.339  0.1541 -0.4822 -0.6793
 8195SOL    HW136047   2.691   2.393   2.400 -0.7076  0.9768 -0.6785
 8195SOL    HW236048   2.649   2.262   2.344  1.6487 -0.0087  1.6537
 8196SOL     OW36049   2.549   1.892   5.137 -0.2712  0.4574 -0.1157
 8196SOL    HW136050   2.512   1.806   5.117  0.7517  0.2879 -1.2670
 8196SOL    HW236051   2.512   1.906   5.224  0.8057 -1.1633  0.6028
 8197SOL     OW36052   0.700   1.046  14.644  0.3231  0.6724 -0.2711
 8197SOL    HW136053   0.707   1.037  14.549 -0.5972 -0.5376 -0.2201
 8197SOL    HW236054   0.763   0.979  14.670 -2.1327 -0.7032  2.0980
 8198SOL     OW36055   0.064   4.690   0.950 -0.0400  0.2362  0.1089
 8198SOL    HW136056   0.124   4.635   0.999  0.8416  0.5955 -0.5744
 8198SOL    HW236057   0.014   4.615   0.915 -0.9443  0.0909  1.7141
 8199SOL     OW36058   2.366   0.973   1.081 -0.2181  0.4919 -0.1071
 8199SOL    HW136059   2.379   1.035   1.009 -1.9514  0.4719 -0.4189
 8199SOL    HW236060   2.455   0.942   1.101 -0.3036 -0.6095 -1.4897
 8200SOL     OW36061   3.974   0.334   5.207  0.3020 -0.2911 -0.9457
 8200SOL    HW136062   3.882   0.323   5.181  0.5722  1.0852 -2.5188
 8200SOL    HW236063   3.986   0.429   5.198 -0.6050 -0.0392  0.4647
 8201SOL     OW36064   1.259   2.553   6.178  0.0710  0.1330  0.0356
 8201SOL    HW136065   1.201   2.524   6.248 -0.7461 -0.8458 -1.0630
 8201SOL    HW236066   1.282   2.477   6.125  0.4571 -1.0742  1.8990
 8202SOL     OW36067   1.933   2.439   7.051 -0.2697 -0.0183 -0.0461
 8202SOL    HW136068   1.957   2.348   7.069  1.6419  0.3784 -0.4951
 8202SOL    HW236069   1.856   2.422   6.996 -1.2444  1.5367  0.8606
 8203SOL     OW36070   1.032   0.010  16.217  0.9316 -0.0530 -0.0544
 8203SOL    HW136071   0.951   0.052  16.244  0.8060 -0.9561  0.9328
 8203SOL    HW236072   1.092   0.081  16.194  2.1888 -1.4563 -1.1288
 8204SOL     OW36073   4.228   3.674  17.060 -0.2360  0.6253  1.3130
 8204SOL    HW136074   4.218   3.769  17.063  0.3970  0.7657 -1.1342
 8204SOL    HW236075   4.165   3.649  16.993  1.5213 -0.6191  0.1262
 8205SOL     OW36076   1.726   1.477  15.615  0.6747 -0.1789  0.1595
 8205SOL    HW136077   1.657   1.502  15.677  0.7108 -2.1070  0.9872
 8205SOL    HW236078   1.781   1.555  15.618 -1.0186  0.9758  1.4433
 8206SOL     OW36079   0.084   4.013   7.308 -0.0281 -0.2805  0.1793
 8206SOL    HW136080   0.059   3.949   7.375 -0.9035 -0.2302 -0.1007
 8206SOL    HW236081   0.176   3.991   7.297 -0.3884 -3.0432  2.3970
 8207SOL     OW36082   0.298   0.752   8.942 -0.0274  0.0010 -0.5399
 8207SOL    HW136083   0.351   0.674   8.962  0.1358  0.4091  0.6020
 8207SOL    HW236084   0.352   0.817   8.897  0.6749  0.1567  0.5473
 8208SOL     OW36085   1.858   4.719   4.460  0.2219  0.4327  0.1674
 8208SOL    HW136086   1.926   0.011   4.393 -1.3811  0.1259 -1.5261
 8208SOL    HW236087   1.864   4.624   4.455  0.7528  0.5009 -0.5417
 8209SOL     OW36088   2.767   3.059   1.388  0.1856  0.0956 -0.3313
 8209SOL    HW136089   2.782   3.068   1.294  1.1945 -2.6368 -0.4089
 8209SOL    HW236090   2.717   3.138   1.408 -0.6044 -0.5681  0.2733
 8210SOL     OW36091   2.221   3.792  13.074  0.8242 -0.2891  0.1395
 8210SOL    HW136092   2.185   3.725  13.133 -0.1477 -0.1332 -0.2771
 8210SOL    HW236093   2.275   3.727  13.029 -1.3666 -2.0155  0.0081
 8211SOL     OW36094   1.126   4.442   9.556 -0.0605  0.0654 -0.0152
 8211SOL    HW136095   1.151   4.369   9.613  0.5442  0.3766  0.1167
 8211SOL    HW236096   1.205   4.450   9.504  1.0956 -1.2401  1.5512
 8212SOL     OW36097   0.647   3.062   1.821  0.5262  0.4080  0.0620
 8212SOL    HW136098   0.680   3.150   1.802 -1.4393  0.7701 -1.6583
 8212SOL    HW236099   0.676   3.046   1.911  0.5736  2.2865  0.3701
 8213SOL     OW36100   0.734   1.435   8.871  0.2607  0.5114 -0.3723
 8213SOL    HW136101   0.801   1.498   8.845  1.1143 -0.4601 -0.5329
 8213SOL    HW236102   0.670   1.449   8.802  0.0434 -1.0771 -0.5030
 8214SOL     OW36103   2.510   0.374   4.854  0.0456  0.0358 -0.0058
 8214SOL    HW136104   2.565   0.307   4.812  1.4027  1.3850 -0.3584
 8214SOL    HW236105   2.578   0.402   4.915 -1.3286  0.6850  1.2089
 8215SOL     OW36106   2.720   2.236   0.152 -0.1093 -0.3124 -0.3432
 8215SOL    HW136107   2.755   2.148   0.138 -0.6869 -0.5970  0.0296
 8215SOL    HW236108   2.681   2.258   0.067  0.0054  1.0587 -0.0516
 8216SOL     OW36109   4.250   3.860   5.079  0.6119  0.3280  0.8764
 8216SOL    HW136110   4.243   3.766   5.092 -0.6278  0.4641  1.2276
 8216SOL    HW236111   4.155   3.864   5.064  0.4330 -2.7805  1.2113
 8217SOL     OW36112   4.160   1.745   5.674 -0.0821  0.1442 -0.2271
 8217SOL    HW136113   4.154   1.811   5.743  0.6242 -0.9905  0.9189
 8217SOL    HW236114   4.219   1.682   5.716  0.6760  0.6805 -0.4911
 8218SOL     OW36115   3.838   1.095   8.396 -0.2057 -0.2561  0.0275
 8218SOL    HW136116   3.851   1.037   8.471  2.8136  0.5750  0.1753
 8218SOL    HW236117   3.778   1.162   8.429 -0.4924 -1.4183  1.8434
 8219SOL     OW36118   2.207   1.379   8.064  0.2790 -0.6611  0.4142
 8219SOL    HW136119   2.217   1.462   8.017 -3.1257  0.4581  1.6365
 8219SOL    HW236120   2.111   1.377   8.056  0.1913  1.1532  0.9634
 8220SOL     OW36121   2.855   2.928   0.629 -0.0481 -0.4756  0.3966
 8220SOL    HW136122   2.760   2.927   0.638 -0.1740  0.2984 -0.7995
 8220SOL    HW236123   2.868   2.834   0.614  2.4541 -0.0428 -0.1931
 8221SOL     OW36124   2.292   2.666   2.560 -0.5226 -0.4910 -0.0522
 8221SOL    HW136125   2.284   2.742   2.618 -0.0600 -1.4455  1.2550
 8221SOL    HW236126   2.355   2.613   2.608  0.6245 -0.9752 -2.1226
 8222SOL     OW36127   1.659   1.865  14.814 -0.1168  0.0192  0.4141
 8222SOL    HW136128   1.590   1.887  14.878 -0.1771  2.8577 -0.5994
 8222SOL    HW236129   1.610   1.878  14.732  1.1904  1.8498 -0.0767
 8223SOL     OW36130   0.734   0.622   8.677  0.2769  0.1008 -0.1016
 8223SOL    HW136131   0.801   0.601   8.612 -0.9433  1.6682 -1.8857
 8223SOL    HW236132   0.785   0.652   8.752  0.9167 -0.7455 -0.2047
 8224SOL     OW36133   4.043   2.689  14.586  0.4775 -0.0728  0.0449
 8224SOL    HW136134   4.034   2.683  14.491  2.4310  2.2531 -0.2844
 8224SOL    HW236135   4.053   2.596  14.608  2.4241  0.3856  1.0443
 8225SOL     OW36136   4.297   0.744   6.184 -0.1095  0.0437 -0.4205
 8225SOL    HW136137   4.238   0.802   6.136 -0.2865 -0.2539 -0.5616
 8225SOL    HW236138   4.331   0.683   6.119 -0.5249  1.2746 -1.7953
 8226SOL     OW36139   2.054   4.618   6.101  0.2372 -0.1773  0.4265
 8226SOL    HW136140   2.112   4.596   6.028 -0.4415 -0.8656  0.0888
 8226SOL    HW236141   2.084   4.706   6.124 -0.8624 -0.5527  3.2753
 8227SOL     OW36142   2.695   2.214   8.714 -0.0928  0.0246 -0.1262
 8227SOL    HW136143   2.601   2.219   8.730 -0.1788 -0.8408 -0.4076
 8227SOL    HW236144   2.727   2.208   8.804  1.0769 -0.3386 -0.5655
 8228SOL     OW36145   2.884   4.236   9.317  0.1096  0.1643  0.0611
 8228SOL    HW136146   2.951   4.304   9.313  1.4187 -1.0616  0.8526
 8228SOL    HW236147   2.800   4.279   9.302  0.8563  1.4310 -0.4346
 8229SOL     OW36148   1.765   3.615   4.626 -0.1035 -0.7804 -0.1597
 8229SOL    HW136149   1.820   3.627   4.703 -1.5849 -2.0770  1.1161
 8229SOL    HW236150   1.700   3.553   4.660  1.4336 -1.5306  1.4343
 8230SOL     OW36151   1.230   3.488   3.549 -0.0121  0.0021 -0.4187
 8230SOL    HW136152   1.183   3.407   3.530  1.0503 -0.2154 -2.1892
 8230SOL    HW236153   1.209   3.489   3.642  0.5016  1.5274 -0.3139
 8231SOL     OW36154   4.026   0.642  11.153 -1.0064  0.2674  0.2759
 8231SOL    HW136155   3.998   0.707  11.089 -0.9904 -0.0934 -0.0997
 8231SOL    HW236156   3.974   0.672  11.228 -0.4049  2.9248 -0.3953
 8232SOL     OW36157   3.271   2.503   6.387 -0.1194 -0.1960  0.7679
 8232SOL    HW136158   3.226   2.460   6.459 -0.3500 -0.6621  0.3443
 8232SOL    HW236159   3.357   2.460   6.388  2.0167  3.9863 -3.1768
 8233SOL     OW36160   1.456   0.947   0.880 -0.0227  0.2650  0.7438
 8233SOL    HW136161   1.538   0.995   0.871 -0.9355  1.7718  0.4416
 8233SOL    HW236162   1.436   0.966   0.971  2.3433  3.1542  0.6564
 8234SOL     OW36163   0.158   0.302   2.903 -0.4396 -0.4453  0.0631
 8234SOL    HW136164   0.130   0.315   2.812  1.8127  2.6645 -0.1991
 8234SOL    HW236165   0.167   0.396   2.918 -2.0059 -0.0831 -1.1778
 8235SOL     OW36166   0.325   3.072   3.886  0.4365 -0.1960 -0.2822
 8235SOL    HW136167   0.317   2.976   3.890 -0.8465 -0.1153 -0.8434
 8235SOL    HW236168   0.339   3.105   3.975 -1.0054 -3.2329  1.0671
 8236SOL     OW36169   4.316   0.730  14.237 -0.1988  0.5332  0.1802
 8236SOL    HW136170   4.349   0.642  14.259  1.0539  1.2515  1.1420
 8236SOL    HW236171   4.373   0.795  14.277  0.4083  0.4079 -0.4730
 8237SOL     OW36172   2.369   3.023   7.942 -0.0391  0.2876 -0.0033
 8237SOL    HW136173   2.306   2.961   7.907  0.3808  0.5630 -1.2421
 8237SOL    HW236174   2.439   3.031   7.877  1.2656 -1.2928  1.2160
 8238SOL     OW36175   3.556   0.571   5.187 -0.2138  0.0116  0.2413
 8238SOL    HW136176   3.583   0.559   5.096  1.5889 -3.0317  1.1716
 8238SOL    HW236177   3.529   0.483   5.214 -1.2962 -0.1979 -1.4941
 8239SOL     OW36178   3.219   3.193  12.923 -0.2859 -0.1054  0.2149
 8239SOL    HW136179   3.224   3.289  12.918 -0.9073 -0.1470 -1.1068
 8239SOL    HW236180   3.134   3.185  12.879  0.5544 -2.3500 -0.9945
 8240SOL     OW36181   0.577   4.187  11.468  0.2380  0.4235  0.2162
 8240SOL    HW136182   0.506   4.232  11.515  0.1626  0.8064 -0.2547
 8240SOL    HW236183   0.578   4.105  11.516  2.0669  1.3209  1.7211
 8241SOL     OW36184   3.343   1.156   8.936  0.4497 -0.0490  0.6651
 8241SOL    HW136185   3.350   1.119   8.848 -0.1484 -0.8765  0.9681
 8241SOL    HW236186   3.333   1.083   8.997  2.1378 -2.9821 -2.5654
 8242SOL     OW36187   4.406   4.645   3.359 -0.8020  0.4366  0.1501
 8242SOL    HW136188   4.331   4.594   3.390 -1.4775  0.6594 -1.1361
 8242SOL    HW236189   4.392   4.632   3.265 -1.3375  1.8615  0.0276
 8243SOL     OW36190   2.939   3.702   3.193  0.3076  0.3996  0.5447
 8243SOL    HW136191   2.846   3.725   3.195  0.4128  0.7584  1.0821
 8243SOL    HW236192   2.973   3.783   3.230  2.5979 -0.6227  0.6851
 8244SOL     OW36193   0.302   1.167  12.338  0.0314 -0.4196 -0.3526
 8244SOL    HW136194   0.341   1.084  12.310  1.7620  0.0940  0.5253
 8244SOL    HW236195   0.324   1.159  12.431 -1.5443 -1.3078 -0.0675
 8245SOL     OW36196   2.805   2.367   1.727  0.3364  0.4311  0.0792
 8245SOL    HW136197   2.850   2.361   1.812  2.7998 -0.0342 -1.2538
 8245SOL    HW236198   2.756   2.285   1.719 -0.5127  0.8482  1.0394
 8246SOL     OW36199   1.952   2.234   4.265  0.9065 -0.3463 -0.0533
 8246SOL    HW136200   1.972   2.302   4.201  0.6073 -0.0157  0.2044
 8246SOL    HW236201   2.033   2.231   4.317  1.0552 -2.6706 -0.3977
 8247SOL     OW36202   4.063   3.631   4.315  0.4007 -0.0992 -0.2692
 8247SOL    HW136203   3.995   3.593   4.370 -1.1176  2.1482 -0.5917
 8247SOL    HW236204   4.092   3.554   4.266  1.0803 -0.1954  0.2815
 8248SOL     OW36205   2.838   1.984   3.514  0.1026 -0.1773  0.3235
 8248SOL    HW136206   2.813   1.893   3.503 -0.1374 -0.4203  2.8524
 8248SOL    HW236207   2.870   2.015   3.429  0.1890 -0.6917  0.1688
 8249SOL     OW36208   2.930   3.572  14.562 -0.0816  0.1499 -0.2588
 8249SOL    HW136209   2.995   3.579  14.492  1.1346 -0.9990  0.7370
 8249SOL    HW236210   2.911   3.663  14.583 -2.5248 -0.1967 -1.0669
 8250SOL     OW36211   4.530   0.818   8.681 -0.1226  0.3814 -0.4767
 8250SOL    HW136212   4.576   0.820   8.765 -1.4656 -0.7138  0.2794
 8250SOL    HW236213   4.610   0.831   8.630  0.1474  0.9073  0.0830
 8251SOL     OW36214   1.716   3.391  11.273  0.0805  0.1589 -0.0080
 8251SOL    HW136215   1.722   3.486  11.281  0.5303 -0.0278  1.9155
 8251SOL    HW236216   1.727   3.365  11.364 -1.2954 -3.6363 -0.9035
 8252SOL     OW36217   1.938   0.141   7.315  0.3360  0.2354  0.2848
 8252SOL    HW136218   1.872   0.211   7.318  0.0153 -0.1865  3.1197
 8252SOL    HW236219   1.985   0.159   7.234  1.0270 -0.6917  0.4837
 8253SOL     OW36220   0.645   2.020   5.213 -0.2872  0.1608 -0.4421
 8253SOL    HW136221   0.669   1.957   5.145  0.2585 -1.7216  1.5139
 8253SOL    HW236222   0.659   2.096   5.157  1.8850 -1.0462 -1.5340
 8254SOL     OW36223   0.134   0.150   4.978  0.0098  0.0124  0.5179
 8254SOL    HW136224   0.198   0.186   4.917 -2.0897  0.8507 -1.2067
 8254SOL    HW236225   0.183   0.082   5.024 -0.6524 -0.9761 -0.2324
 8255SOL     OW36226   0.782   0.444   4.927 -0.5351  0.5140 -0.3285
 8255SOL    HW136227   0.710   0.381   4.926 -0.3684  0.3148  0.0342
 8255SOL    HW236228   0.833   0.405   4.856  0.5841  1.0686  0.1738
 8256SOL     OW36229   1.460   3.527   2.734  0.2274 -0.1143 -0.2769
 8256SOL    HW136230   1.455   3.479   2.817  2.4793 -2.9959 -1.8190
 8256SOL    HW236231   1.551   3.517   2.706  0.2490 -0.2346 -0.1630
 8257SOL     OW36232   3.777   3.436  10.568 -0.3046 -0.1453 -0.3194
 8257SOL    HW136233   3.796   3.379  10.493  0.0674  0.0912 -0.4101
 8257SOL    HW236234   3.694   3.394  10.589 -0.2705  1.9508  3.8356
 8258SOL     OW36235   0.349   4.069   4.925 -0.0283 -0.1605  0.1490
 8258SOL    HW136236   0.319   4.015   4.852  1.7240  1.1403 -1.5428
 8258SOL    HW236237   0.280   4.046   4.987 -2.2569 -1.4380 -2.7845
 8259SOL     OW36238   4.031   1.826   2.521  0.4526  0.0675 -1.0017
 8259SOL    HW136239   3.966   1.768   2.561 -0.2832 -0.0498 -2.3628
 8259SOL    HW236240   3.980   1.853   2.444 -0.0384  2.7539  0.2921
 8260SOL     OW36241   0.547   0.905   4.887  0.1679  0.7937 -0.0359
 8260SOL    HW136242   0.530   0.985   4.937 -0.1983  0.7746 -0.1272
 8260SOL    HW236243   0.589   0.858   4.958 -1.5169 -0.4038  0.1697
 8261SOL     OW36244   3.267   2.004   5.929 -0.0408  0.7345 -0.5254
 8261SOL    HW136245   3.347   2.011   5.877 -0.5534  0.0818 -1.4013
 8261SOL    HW236246   3.291   1.926   5.978  2.1337  0.5769 -1.8553
 8262SOL     OW36247   3.311   4.420   3.580 -0.3103  0.0002 -0.0976
 8262SOL    HW136248   3.336   4.495   3.633  0.9465 -0.1074 -0.5318
 8262SOL    HW236249   3.223   4.397   3.610 -0.4896 -2.6805 -2.6552
 8263SOL     OW36250   1.691   1.943   6.945  0.8862  0.3184 -0.0387
 8263SOL    HW136251   1.632   2.019   6.946  1.1794  0.5385  0.8214
 8263SOL    HW236252   1.642   1.899   6.876  1.6341 -0.8075  0.1465
 8264SOL     OW36253   2.264   2.652  15.946 -0.0476 -0.0043  0.2552
 8264SOL    HW136254   2.171   2.655  15.923  0.6062 -1.5587 -2.6528
 8264SOL    HW236255   2.283   2.559  15.932 -2.3256 -0.7462  1.9854
 8265SOL     OW36256   2.398   0.554   2.033 -0.5114 -0.1742 -0.1888
 8265SOL    HW136257   2.303   0.538   2.036 -0.5202 -0.4371 -2.3551
 8265SOL    HW236258   2.429   0.492   2.099 -2.3588  0.0580  0.9040
 8266SOL     OW36259   0.719   2.620  13.533 -0.1892 -0.3366  0.0216
 8266SOL    HW136260   0.797   2.663  13.498 -1.4560  1.8120 -0.1747
 8266SOL    HW236261   0.750   2.530  13.536 -2.1214 -1.0970 -2.6801
 8267SOL     OW36262   2.727   0.450   3.938  0.1985 -0.2164 -0.2317
 8267SOL    HW136263   2.696   0.444   4.028 -1.6127 -2.7421 -0.9796
 8267SOL    HW236264   2.792   0.381   3.923 -1.6402 -1.9274 -0.4464
 8268SOL     OW36265   0.102   3.122   2.571  0.6162 -0.4897 -0.3182
 8268SOL    HW136266   0.191   3.132   2.603  0.1966 -0.6873  0.9122
 8268SOL    HW236267   0.113   3.116   2.476  1.2427  1.9425 -0.3836
 8269SOL     OW36268   0.857   3.168  10.451  0.2322  0.1452  0.1931
 8269SOL    HW136269   0.786   3.200  10.506 -0.7235 -0.0748 -0.8954
 8269SOL    HW236270   0.835   3.212  10.368  0.6557 -1.9908 -1.0721
 8270SOL     OW36271   2.320   3.806   8.571  0.6020 -0.2946  0.5565
 8270SOL    HW136272   2.262   3.734   8.545 -0.7849  0.8541  0.4528
 8270SOL    HW236273   2.256   3.855   8.623  0.7882 -0.4531  0.9396
 8271SOL     OW36274   2.991   1.672  13.293  0.3614 -0.5223  0.1613
 8271SOL    HW136275   3.084   1.692  13.281  0.2088 -0.3095 -0.6337
 8271SOL    HW236276   2.999   1.583  13.259  2.4533 -0.0365 -0.5951
 8272SOL     OW36277   2.051   4.054   8.478  0.5494  0.0574 -0.4428
 8272SOL    HW136278   2.007   4.137   8.460 -1.3191 -1.2562 -1.8934
 8272SOL    HW236279   1.990   3.986   8.449  1.2605  0.1010 -2.0518
 8273SOL     OW36280   4.539   0.919   3.223  0.4408 -0.4042 -0.2117
 8273SOL    HW136281   4.495   0.837   3.243  0.5637 -0.5369 -0.4915
 8273SOL    HW236282   4.467   0.981   3.210 -0.3171 -0.6988  2.6546
 8274SOL     OW36283   4.053   4.518  15.164 -0.4608 -0.4503 -0.2293
 8274SOL    HW136284   4.119   4.583  15.189 -0.4308 -0.7942  0.5547
 8274SOL    HW236285   3.993   4.573  15.113 -0.5822  0.5377  0.9960
 8275SOL     OW36286   2.487   4.220   7.760  0.0094 -0.5500 -0.0359
 8275SOL    HW136287   2.513   4.270   7.837 -1.3716  1.9489 -1.2107
 8275SOL    HW236288   2.539   4.256   7.688 -0.6512  0.9959  0.2809
 8276SOL     OW36289   0.032   3.125   9.203  0.1218  0.5071 -0.2834
 8276SOL    HW136290   4.676   3.171   9.236  0.2342  0.5598 -0.0926
 8276SOL    HW236291   0.011   3.037   9.233 -0.2943  1.1657  1.3368
 8277SOL     OW36292   1.148   3.266   5.574  0.4106  0.1855  0.1248
 8277SOL    HW136293   1.226   3.240   5.625  0.9975  2.1828  0.2313
 8277SOL    HW236294   1.103   3.184   5.554  1.0430 -0.3343  0.8230
 8278SOL     OW36295   1.249   0.732   4.545 -0.4587 -0.1719 -0.6486
 8278SOL    HW136296   1.155   0.722   4.530 -0.4747  0.3610 -0.9071
 8278SOL    HW236297   1.255   0.827   4.546 -0.5383 -0.1507 -1.6478
 8279SOL     OW36298   1.458   3.425  15.160  0.2961  0.0002 -0.0066
 8279SOL    HW136299   1.538   3.417  15.108 -1.6086  0.2932 -2.9943
 8279SOL    HW236300   1.393   3.369  15.117 -0.3792  1.6038 -1.0867
 8280SOL     OW36301   0.292   4.151   1.563 -0.4800 -0.3334  0.3016
 8280SOL    HW136302   0.374   4.102   1.555  0.1268  0.8203 -0.6091
 8280SOL    HW236303   0.226   4.087   1.589 -0.6777  0.1207  0.9081
 8281SOL     OW36304   2.116   1.620  16.932 -0.6347  0.0589 -0.1970
 8281SOL    HW136305   2.147   1.583  17.015 -0.7179  0.5875  0.0664
 8281SOL    HW236306   2.029   1.641  16.965 -2.4217 -3.7418 -2.4425
 8282SOL     OW36307   0.921   2.909  15.117 -0.0075  0.2465  0.4926
 8282SOL    HW136308   0.853   2.976  15.109  0.1187  0.2472 -0.7103
 8282SOL    HW236309   0.890   2.847  15.050  0.9814  0.1849  0.0901
 8283SOL     OW36310   2.416   2.597   7.073  0.5157  0.5409  0.2452
 8283SOL    HW136311   2.383   2.588   7.163  1.9497 -0.9759  0.6300
 8283SOL    HW236312   2.348   2.554   7.022  1.3329 -0.2756 -0.1600
 8284SOL     OW36313   4.370   0.930   6.642 -0.2983  0.0051  0.3607
 8284SOL    HW136314   4.424   0.966   6.713 -0.1460  2.6611 -1.1178
 8284SOL    HW236315   4.317   0.879   6.704  1.2699 -3.9297 -1.4737
 8285SOL     OW36316   0.695   4.369   9.095  0.0140  0.1920  0.4388
 8285SOL    HW136317   0.703   4.446   9.039 -0.4141  1.4126  2.0487
 8285SOL    HW236318   0.614   4.390   9.140  2.2789 -0.8856  4.9877
 8286SOL     OW36319   1.303   1.319   4.923  1.5329 -0.3720  0.0720
 8286SOL    HW136320   1.382   1.369   4.906  0.1408  0.8975 -2.5753
 8286SOL    HW236321   1.322   1.225   4.920  0.7122 -0.4565 -2.2514
 8287SOL     OW36322   0.921   3.168   8.448 -0.2365 -0.2308  0.4724
 8287SOL    HW136323   0.910   3.079   8.415 -0.4543 -0.2441  0.5856
 8287SOL    HW236324   0.987   3.149   8.514  1.5284 -0.4249 -1.3370
 8288SOL     OW36325   3.412   1.435  13.813  0.1792  0.3322  0.2572
 8288SOL    HW136326   3.348   1.498  13.778  0.5405  0.4982 -0.1035
 8288SOL    HW236327   3.423   1.467  13.902 -0.0668  0.9716  0.0645
 8289SOL     OW36328   2.076   1.501  13.041  0.2879 -0.9844 -0.1547
 8289SOL    HW136329   2.019   1.577  13.049  1.5060 -0.0542 -0.2658
 8289SOL    HW236330   2.042   1.461  12.961 -0.7140 -2.6959  1.1156
 8290SOL     OW36331   2.329   1.313   8.940 -0.3666 -0.1403  0.2359
 8290SOL    HW136332   2.412   1.358   8.956 -1.5195  2.6508 -1.5950
 8290SOL    HW236333   2.347   1.228   8.981  2.2484  1.0550  1.6147
 8291SOL     OW36334   3.699   0.709   6.183 -0.6574 -0.3712  0.4049
 8291SOL    HW136335   3.719   0.722   6.276 -1.6447 -0.6040  0.6536
 8291SOL    HW236336   3.687   0.801   6.158 -0.7246 -0.5602 -0.2584
 8292SOL     OW36337   3.719   2.450   3.525  0.1488  0.0801 -0.2935
 8292SOL    HW136338   3.811   2.433   3.546  0.0310  1.5137  1.3979
 8292SOL    HW236339   3.717   2.546   3.531 -0.4119  0.0861 -0.6497
 8293SOL     OW36340   1.161   4.286   3.582 -0.2801 -0.2288  0.1691
 8293SOL    HW136341   1.124   4.219   3.639 -1.0796  0.7571  0.8009
 8293SOL    HW236342   1.184   4.224   3.513 -1.0627  0.5135 -0.7658
 8294SOL     OW36343   2.435   0.149   0.801 -0.1443  0.0334  0.1150
 8294SOL    HW136344   2.514   0.100   0.777 -0.0216 -0.9433  2.4768
 8294SOL    HW236345   2.439   0.227   0.746  1.3047  0.8305  1.3366
 8295SOL     OW36346   2.023   3.306   3.746 -1.1105 -0.3112  0.4083
 8295SOL    HW136347   2.057   3.386   3.705  0.5109 -1.0154  0.4025
 8295SOL    HW236348   1.972   3.338   3.821  0.8377 -1.7228  2.3091
 8296SOL     OW36349   1.243   4.398   8.116  0.2833  0.7037  0.1739
 8296SOL    HW136350   1.267   4.305   8.112 -3.1316 -0.0368 -2.8586
 8296SOL    HW236351   1.179   4.398   8.187  2.5124  0.0646  2.1664
 8297SOL     OW36352   2.236   3.363   9.618 -0.6324 -0.5122 -0.0631
 8297SOL    HW136353   2.213   3.445   9.662  2.1537  1.3422 -2.0631
 8297SOL    HW236354   2.304   3.392   9.557 -1.0306 -0.3164 -0.4133
 8298SOL     OW36355   3.760   0.943   4.416 -0.4112  0.2212 -0.5551
 8298SOL    HW136356   3.795   1.032   4.430  0.2870 -0.0939 -0.2888
 8298SOL    HW236357   3.683   0.955   4.361  0.7859 -0.1279 -2.2894
 8299SOL     OW36358   3.083   3.855   2.148 -0.7365 -0.3596  0.4644
 8299SOL    HW136359   3.167   3.859   2.102 -0.3749  0.1170  1.1708
 8299SOL    HW236360   3.100   3.779   2.204  0.9890 -0.5531 -0.3273
 8300SOL     OW36361   0.814   0.626   7.369  0.1325  0.1680 -0.3319
 8300SOL    HW136362   0.890   0.622   7.427 -0.5467  1.4260  0.6537
 8300SOL    HW236363   0.792   0.534   7.358 -1.9251  0.4825  1.1418
 8301SOL     OW36364   1.101   0.007   0.918  0.3457  0.2403  0.4482
 8301SOL    HW136365   1.154   4.660   0.960 -0.4957  0.1111  1.3066
 8301SOL    HW236366   1.065   0.050   0.995  2.4540 -0.3069  1.7267
 8302SOL     OW36367   2.348   3.622   6.997  0.7272  0.2763 -0.1431
 8302SOL    HW136368   2.414   3.691   6.992 -0.2516  1.1676 -0.9143
 8302SOL    HW236369   2.392   3.552   7.045  0.7743  0.1649 -0.3479
 8303SOL     OW36370   4.653   3.086   4.111  0.1209  0.1393 -0.3552
 8303SOL    HW136371   4.683   3.162   4.061 -2.7184  0.2409 -1.8395
 8303SOL    HW236372   4.626   3.131   4.192 -1.9405 -3.0210  0.7248
 8304SOL     OW36373   0.938   2.004   6.391 -0.3269  0.3773 -0.0022
 8304SOL    HW136374   0.890   1.929   6.426  1.6836 -1.2752 -0.8081
 8304SOL    HW236375   0.875   2.076   6.398 -0.7289  0.0798 -0.5889
 8305SOL     OW36376   1.954   2.202   9.949  0.4184 -0.1105 -0.1194
 8305SOL    HW136377   1.871   2.249   9.957  1.0230  1.1380 -1.1582
 8305SOL    HW236378   1.915   2.117   9.966 -0.5543 -0.0173 -1.8346
 8306SOL     OW36379   3.673   2.086   2.437 -0.1091  0.2823  0.4605
 8306SOL    HW136380   3.737   2.070   2.505  0.5328 -4.5453 -1.2782
 8306SOL    HW236381   3.705   2.028   2.367  0.2288 -0.6162  1.3676
 8307SOL     OW36382   3.303   2.828   3.966 -0.9403 -0.7079 -0.3743
 8307SOL    HW136383   3.244   2.805   4.037 -0.1084  0.6340  0.7649
 8307SOL    HW236384   3.394   2.821   3.996 -1.5081  1.8828  1.9266
 8308SOL     OW36385   4.643   4.079   5.938  0.3556  0.2888 -0.6811
 8308SOL    HW136386   4.660   4.139   5.866  0.3965 -1.2910 -1.9757
 8308SOL    HW236387   0.007   4.076   5.983  0.0009 -0.2207 -0.0427
 8309SOL     OW36388   0.972   4.240   7.237 -0.1627  0.1733 -0.3645
 8309SOL    HW136389   1.066   4.247   7.225  0.0132  0.7999  1.4061
 8309SOL    HW236390   0.966   4.146   7.252  0.1816  0.5432  2.0666
 8310SOL     OW36391   1.764   3.208   5.725 -0.2617 -0.4241  0.3794
 8310SOL    HW136392   1.690   3.150   5.745 -0.3120 -0.3542  0.3940
 8310SOL    HW236393   1.763   3.270   5.798 -0.4174  0.2007 -0.1526
 8311SOL     OW36394   0.675   3.690  11.480 -0.0258 -0.5465 -0.1817
 8311SOL    HW136395   0.583   3.689  11.455  0.6327 -0.4301 -2.6504
 8311SOL    HW236396   0.675   3.776  11.522  1.4347 -0.8576  0.4592
 8312SOL     OW36397   2.087   0.007  13.337 -0.4548 -0.1384 -0.8787
 8312SOL    HW136398   2.125   4.690  13.416  0.0916  2.4658  0.0978
 8312SOL    HW236399   1.994   0.010  13.360 -0.3603 -0.1193 -0.5044
 8313SOL     OW36400   0.725   0.860   4.691  0.1632  0.2521 -0.0201
 8313SOL    HW136401   0.646   0.884   4.738  0.1750  0.2945 -0.0217
 8313SOL    HW236402   0.787   0.929   4.716  2.8011 -2.3537  0.5719
 8314SOL     OW36403   1.057   1.581   2.998 -0.5484 -0.3305 -0.5994
 8314SOL    HW136404   1.010   1.658   2.966 -1.1418 -1.2403 -1.9726
 8314SOL    HW236405   1.004   1.539   3.066  1.8377 -0.4519  1.1794
 8315SOL     OW36406   0.627   2.663   0.978  0.2027 -0.1279 -0.3510
 8315SOL    HW136407   0.567   2.734   0.955  2.1681  1.6868  0.2094
 8315SOL    HW236408   0.579   2.613   1.044  0.5875  2.3549  1.7775
 8316SOL     OW36409   2.740   0.876   6.700 -0.3357  0.4246 -0.0361
 8316SOL    HW136410   2.821   0.828   6.720 -0.4212 -0.7303 -2.5415
 8316SOL    HW236411   2.757   0.881   6.606  1.4837  0.6033  0.2949
 8317SOL     OW36412   2.836   3.885   6.193  0.2031  0.2880 -0.3082
 8317SOL    HW136413   2.855   3.791   6.186 -0.0130  0.0700  1.9171
 8317SOL    HW236414   2.915   3.919   6.235  0.5350 -0.7405 -0.0839
 8318SOL     OW36415   2.084   2.261  10.883 -0.4224  0.1599 -0.4527
 8318SOL    HW136416   1.997   2.290  10.857  0.0428 -0.2093 -2.3781
 8318SOL    HW236417   2.121   2.235  10.799  1.5993 -1.6868  0.9848
 8319SOL     OW36418   2.232   2.518  16.920 -0.1136  0.4760 -0.4292
 8319SOL    HW136419   2.158   2.555  16.970 -0.2104  1.1346 -1.0522
 8319SOL    HW236420   2.199   2.429  16.909  0.2477  0.2934 -0.0260
 8320SOL     OW36421   2.507   0.456   1.731 -0.0189 -0.4612  0.5001
 8320SOL    HW136422   2.514   0.546   1.762  1.0251 -0.8488  1.3837
 8320SOL    HW236423   2.483   0.409   1.811  0.0108  0.6831  1.1777
 8321SOL     OW36424   2.734   2.333   6.034 -0.1404 -0.5231  0.0822
 8321SOL    HW136425   2.648   2.368   6.057  0.0003 -0.9203  1.2579
 8321SOL    HW236426   2.718   2.240   6.050 -0.1989 -0.5626 -0.2241
 8322SOL     OW36427   3.321   0.348  11.116 -0.1555 -0.4289 -0.2136
 8322SOL    HW136428   3.237   0.306  11.099  1.3486 -3.4643 -0.1286
 8322SOL    HW236429   3.359   0.285  11.177  0.7185 -0.8071 -1.1568
 8323SOL     OW36430   1.071   1.202   6.586  0.3042 -0.0022 -0.6853
 8323SOL    HW136431   1.053   1.131   6.646 -0.0929  0.6730 -0.0092
 8323SOL    HW236432   1.159   1.183   6.551 -0.4113 -1.7448 -1.5640
 8324SOL     OW36433   3.330   3.426  10.769  0.6031  0.0368  0.4515
 8324SOL    HW136434   3.325   3.498  10.706 -1.5832 -1.5420 -1.1851
 8324SOL    HW236435   3.293   3.466  10.848  0.7242  0.3466  0.3513
 8325SOL     OW36436   3.773   2.356   1.362  0.2327  0.0436 -0.1783
 8325SOL    HW136437   3.699   2.331   1.308 -0.3898 -1.7467  1.5076
 8325SOL    HW236438   3.738   2.368   1.450  0.6328  0.8799 -0.1254
 8326SOL     OW36439   0.498   3.573   1.182  0.1079  0.1945 -0.0343
 8326SOL    HW136440   0.567   3.559   1.248  0.2611  0.0735 -0.2188
 8326SOL    HW236441   0.459   3.487   1.171  0.3157  0.3816 -2.1778
 8327SOL     OW36442   0.201   0.631   0.970 -0.5773  0.0978  0.8110
 8327SOL    HW136443   0.254   0.624   0.890  0.8916 -0.4656  1.8494
 8327SOL    HW236444   0.209   0.722   0.999 -1.2888 -0.1224  1.6984
 8328SOL     OW36445   1.063   0.504   6.243  0.1977  0.8645 -0.3338
 8328SOL    HW136446   1.157   0.524   6.240  0.7109 -1.9234 -3.0025
 8328SOL    HW236447   1.064   0.417   6.282 -1.6974  1.9496  2.1179
 8329SOL     OW36448   1.776   0.584  13.280 -0.2675  0.3464  0.6803
 8329SOL    HW136449   1.681   0.585  13.266 -0.2096 -0.1809  0.2933
 8329SOL    HW236450   1.808   0.670  13.253 -1.3796  0.0532 -1.5638
 8330SOL     OW36451   1.523   2.893   8.695  0.0269  0.3118 -0.1085
 8330SOL    HW136452   1.447   2.845   8.727  0.7834 -2.1562 -2.0393
 8330SOL    HW236453   1.556   2.934   8.775  0.2435  1.0020 -0.5400
 8331SOL     OW36454   3.541   1.274   5.743  0.7092  0.1110  0.4371
 8331SOL    HW136455   3.526   1.356   5.790 -0.2312 -0.8816  1.8481
 8331SOL    HW236456   3.600   1.312   5.678 -0.6266 -0.5747 -1.1809
 8332SOL     OW36457   2.394   4.362   5.556 -0.5169 -0.8719 -0.2310
 8332SOL    HW136458   2.384   4.371   5.651 -0.3446 -2.3466 -0.0745
 8332SOL    HW236459   2.357   4.438   5.510  0.8561 -0.2868 -0.3526
 8333SOL     OW36460   0.516   2.241   8.192  0.4824  0.1208  0.6311
 8333SOL    HW136461   0.532   2.252   8.099  0.8786  0.6596  0.7653
 8333SOL    HW236462   0.469   2.320   8.220  0.2454 -0.0062  0.5908
 8334SOL     OW36463   0.002   1.055   0.914  0.5134 -0.0263 -0.7808
 8334SOL    HW136464   0.069   1.123   0.910  0.8613 -0.4634 -2.4534
 8334SOL    HW236465   4.680   1.082   0.995 -0.6970 -1.5066 -0.9276
 8335SOL     OW36466   3.763   3.799   3.481 -0.3492  0.2432  0.0695
 8335SOL    HW136467   3.857   3.813   3.476 -0.5951  1.7064 -0.2557
 8335SOL    HW236468   3.736   3.889   3.468  1.2470  0.9770  1.8207
 8336SOL     OW36469   2.885   2.145  16.886 -0.5693 -0.3183  0.1718
 8336SOL    HW136470   2.831   2.070  16.913  0.9273 -1.7107 -0.6936
 8336SOL    HW236471   2.968   2.097  16.880 -0.2637  0.2498 -0.1228
 8337SOL     OW36472   3.455   0.930  17.214 -0.0490 -0.3186  0.2220
 8337SOL    HW136473   3.494   0.892  17.136 -0.0824  2.9809 -1.3947
 8337SOL    HW236474   3.525   0.993  17.231 -0.6121  0.9686 -2.3057
 8338SOL     OW36475   4.674   3.610  15.831 -0.1561 -0.3650  0.3988
 8338SOL    HW136476   4.654   3.532  15.882  0.4880 -0.5788  0.3255
 8338SOL    HW236477   4.620   3.581  15.757  2.6332  1.0508 -2.1560
 8339SOL     OW36478   0.833   4.621  12.634  0.1054 -0.0161  0.2047
 8339SOL    HW136479   0.865   4.572  12.709 -0.1333  0.9653  0.9548
 8339SOL    HW236480   0.763   4.566  12.598  0.0921  1.4044 -1.9683
 8340SOL     OW36481   2.879   0.810  17.523  0.1683 -0.2186  0.1460
 8340SOL    HW136482   2.816   0.880  17.509 -1.1650 -1.2019  1.2208
 8340SOL    HW236483   2.960   0.861  17.523 -0.0441  0.1124  0.0727
 8341SOL     OW36484   3.227   2.656  11.668  0.2245 -0.3007 -0.1933
 8341SOL    HW136485   3.180   2.589  11.717 -0.5933  1.8612  2.0060
 8341SOL    HW236486   3.318   2.632  11.688  0.2609 -0.2725 -0.3294
 8342SOL     OW36487   2.767   1.881   2.996  1.2073 -0.6881  0.6881
 8342SOL    HW136488   2.723   1.936   3.062  3.2837  2.3491 -0.4356
 8342SOL    HW236489   2.813   1.824   3.058 -0.3812 -2.3402  0.3437
 8343SOL     OW36490   4.335   3.595   8.238  0.5540  0.7879 -0.5115
 8343SOL    HW136491   4.348   3.669   8.179  0.4704 -1.3359 -3.2054
 8343SOL    HW236492   4.281   3.541   8.179 -0.5006 -0.3714  1.5215
 8344SOL     OW36493   0.753   0.588  13.408 -0.0270 -0.6247  0.5217
 8344SOL    HW136494   0.813   0.557  13.476 -0.3095  1.4995  1.7608
 8344SOL    HW236495   0.668   0.572  13.451  0.1305 -0.1251  1.0256
 8345SOL     OW36496   0.532   4.048   9.040  0.1033 -0.6328  0.0755
 8345SOL    HW136497   0.542   4.122   9.101 -2.9509  0.7253 -1.0375
 8345SOL    HW236498   0.582   3.980   9.084 -2.0688 -0.5483  2.6595
 8346SOL     OW36499   2.273   0.945   5.863 -0.0357  0.0884  0.2356
 8346SOL    HW136500   2.202   1.009   5.867 -1.6615 -1.8234  1.6868
 8346SOL    HW236501   2.269   0.901   5.948 -1.5098 -2.7409 -1.3213
 8347SOL     OW36502   1.822   2.071   8.293  0.4091  0.3756  0.0607
 8347SOL    HW136503   1.913   2.042   8.283  0.1641 -1.1312  2.1286
 8347SOL    HW236504   1.766   1.994   8.280 -0.2450  0.6423  1.2952
 8348SOL     OW36505   0.986   2.983   2.628 -0.2005 -1.4003 -0.2239
 8348SOL    HW136506   1.026   3.012   2.710 -1.6976  1.7024 -0.5603
 8348SOL    HW236507   1.049   2.918   2.598  0.8027 -0.0018 -1.1738
 8349SOL     OW36508   4.609   0.982   2.011 -0.5208 -0.2841  0.4526
 8349SOL    HW136509   4.609   0.889   2.034  0.1149 -0.7289 -1.3280
 8349SOL    HW236510   4.547   1.025   2.070 -1.2813 -0.6266 -0.0973
 8350SOL     OW36511   4.635   2.511  12.803  0.4957 -0.3590 -0.7622
 8350SOL    HW136512   4.630   2.598  12.842 -1.3248 -0.7002 -0.2252
 8350SOL    HW236513   4.652   2.461  12.883 -0.5220  1.9137  0.8843
 8351SOL     OW36514   1.361   3.896   0.153  0.0391  0.0111  0.7422
 8351SOL    HW136515   1.370   3.985   0.187  0.0154  0.7680 -1.2348
 8351SOL    HW236516   1.268   3.876   0.159 -0.3526  1.8089  0.5873
 8352SOL     OW36517   0.896   0.703  10.035 -0.1836 -0.0079  0.2787
 8352SOL    HW136518   0.811   0.708  10.078 -1.6156 -3.3427 -2.2397
 8352SOL    HW236519   0.903   0.608  10.031 -0.6683 -0.0760  1.0133
 8353SOL     OW36520   0.551   1.263  14.965 -0.1147 -0.3979 -0.9062
 8353SOL    HW136521   0.481   1.326  14.980  0.3447  0.1201 -0.9615
 8353SOL    HW236522   0.522   1.178  14.998  1.2820  0.8336  3.6204
 8354SOL     OW36523   1.253   4.248   7.158  0.1597  0.1014 -0.2544
 8354SOL    HW136524   1.230   4.334   7.121  0.4695  0.0406 -0.5800
 8354SOL    HW236525   1.234   4.192   7.083  2.0218 -1.5174  0.4877
 8355SOL     OW36526   3.655   4.145   6.252  0.1796 -0.6405 -0.1655
 8355SOL    HW136527   3.665   4.118   6.343 -1.6876 -0.7167  0.0190
 8355SOL    HW236528   3.568   4.113   6.226 -1.0444  1.7459  0.9570
 8356SOL     OW36529   1.863   2.017  13.601 -0.1754 -0.2699  0.5043
 8356SOL    HW136530   1.928   2.025  13.531  2.2794  1.8351  2.9950
 8356SOL    HW236531   1.798   1.955  13.569 -0.9531  1.0413 -0.4421
 8357SOL     OW36532   2.748   1.789  13.371 -0.5878 -0.2814  0.3192
 8357SOL    HW136533   2.825   1.736  13.353  0.9647  1.7087  1.0937
 8357SOL    HW236534   2.698   1.761  13.295 -1.1777  0.1900  0.5337
 8358SOL     OW36535   1.031   3.989   7.309  0.2662 -0.7009  0.0761
 8358SOL    HW136536   1.094   4.034   7.365 -0.9632 -0.1488  1.0067
 8358SOL    HW236537   1.032   3.909   7.362  1.0439 -0.8628 -0.1787
 8359SOL     OW36538   3.026   0.222   9.638 -0.1782  0.3449  0.1149
 8359SOL    HW136539   3.099   0.176   9.679 -1.2078 -0.6051  0.9004
 8359SOL    HW236540   3.067   0.257   9.559 -0.7760  0.2107 -0.2596
 8360SOL     OW36541   2.844   2.284   5.211  0.5605  0.4327 -0.3485
 8360SOL    HW136542   2.768   2.339   5.192  1.9003  2.0762 -0.9231
 8360SOL    HW236543   2.886   2.291   5.126  1.1393  0.9917 -0.0175
 8361SOL     OW36544   1.558   4.649  16.875  0.4192  0.2318  0.1708
 8361SOL    HW136545   1.510   4.574  16.911  2.0919 -1.6865 -1.5876
 8361SOL    HW236546   1.623   4.655  16.945  0.1893 -2.6763  0.6183
 8362SOL     OW36547   0.952   3.249  12.326 -0.4135  0.3064  0.0182
 8362SOL    HW136548   0.999   3.192  12.264  0.9371  0.3070  1.0383
 8362SOL    HW236549   1.027   3.298  12.360 -0.2441 -1.2978  1.9841
 8363SOL     OW36550   0.195   0.445   6.780  0.0073 -0.7734  0.1043
 8363SOL    HW136551   0.142   0.370   6.757  2.8600 -3.1907  1.4183
 8363SOL    HW236552   0.241   0.406   6.855  2.6614  0.3836 -0.9038
 8364SOL     OW36553   1.450   3.465   1.415  0.3975 -0.2589 -0.5170
 8364SOL    HW136554   1.408   3.386   1.380  0.7834 -1.2974  1.3498
 8364SOL    HW236555   1.409   3.459   1.501 -1.1944 -3.1845 -1.4723
 8365SOL     OW36556   2.877   1.170   3.438  0.4169 -0.1691 -0.1305
 8365SOL    HW136557   2.947   1.190   3.375  0.4629 -0.6743 -0.2406
 8365SOL    HW236558   2.916   1.104   3.495 -1.7096 -1.5596 -0.2946
 8366SOL     OW36559   3.143   0.588   6.492  0.2890  0.0746  0.0511
 8366SOL    HW136560   3.151   0.498   6.459  0.1241  0.2121 -0.3676
 8366SOL    HW236561   3.236   0.606   6.502  0.3373 -0.1735  0.0405
 8367SOL     OW36562   1.791   1.558   4.097 -0.3722 -0.3241  0.4725
 8367SOL    HW136563   1.827   1.488   4.042  1.1646 -0.9881  2.3385
 8367SOL    HW236564   1.709   1.563   4.048 -1.6251  1.3634  2.7506
 8368SOL     OW36565   2.524   3.063   0.460  0.2062 -0.0007  0.4347
 8368SOL    HW136566   2.531   2.977   0.502 -1.9298  1.3411  3.5715
 8368SOL    HW236567   2.611   3.102   0.465 -1.1272  2.7529  2.3797
 8369SOL     OW36568   2.004   1.798   9.426 -0.1730 -0.0942  0.3173
 8369SOL    HW136569   2.063   1.734   9.388  0.7491  0.9723 -0.0368
 8369SOL    HW236570   2.067   1.844   9.482  0.4673  0.9783 -1.2947
 8370SOL     OW36571   0.716   3.844  13.839  0.8975  0.2166  0.6563
 8370SOL    HW136572   0.758   3.920  13.878  1.6194  0.4406 -0.5390
 8370SOL    HW236573   0.681   3.805  13.919  0.0011 -1.9269 -0.7850
 8371SOL     OW36574   0.611   3.483   7.674 -0.2204 -0.5177 -0.1082
 8371SOL    HW136575   0.596   3.390   7.660 -2.2056  0.4266 -3.9655
 8371SOL    HW236576   0.629   3.490   7.768 -0.5569  1.0475 -0.1549
 8372SOL     OW36577   0.413   4.144   1.897 -0.1930  0.1450 -0.2326
 8372SOL    HW136578   0.434   4.052   1.881  1.1804  0.6212 -1.2246
 8372SOL    HW236579   0.323   4.140   1.867 -0.4349  2.0139  0.2383
 8373SOL     OW36580   1.982   0.958   1.334  0.1011 -0.1742 -0.5878
 8373SOL    HW136581   2.069   0.929   1.306  0.1538 -0.4691 -0.1107
 8373SOL    HW236582   1.936   0.875   1.324 -0.7314  0.1864  0.2689
 8374SOL     OW36583   3.559   3.312  10.623 -0.2809  0.4677 -0.0632
 8374SOL    HW136584   3.497   3.354  10.682 -2.0557  2.5609 -3.3564
 8374SOL    HW236585   3.502   3.257  10.570  0.7150 -0.6227 -0.0078
 8375SOL     OW36586   1.567   3.584   3.119  0.2265  0.0354  0.0307
 8375SOL    HW136587   1.661   3.566   3.118  0.8275  3.0171  1.4276
 8375SOL    HW236588   1.555   3.614   3.209  0.9393  2.0195 -0.5238
 8376SOL     OW36589   4.037   4.447   8.701 -0.3601 -0.4119  0.2233
 8376SOL    HW136590   4.089   4.522   8.730 -0.5568 -0.0069 -0.4665
 8376SOL    HW236591   4.048   4.381   8.770  2.3976 -1.3426 -1.1151
 8377SOL     OW36592   1.317   3.538   8.405  0.1893 -0.8184  0.3797
 8377SOL    HW136593   1.329   3.576   8.318 -2.4341 -0.3460  0.2259
 8377SOL    HW236594   1.373   3.461   8.391 -0.8599 -1.4581 -0.3309
 8378SOL     OW36595   1.125   3.784  10.503  0.1817 -0.5638  0.0821
 8378SOL    HW136596   1.141   3.692  10.524 -1.6123 -0.3790  2.1613
 8378SOL    HW236597   1.104   3.814  10.591 -2.2737 -0.2550 -0.6225
 8379SOL     OW36598   3.063   3.093  11.453  0.3406 -0.0987  0.2456
 8379SOL    HW136599   3.140   3.128  11.409 -0.7059  0.6904 -0.9537
 8379SOL    HW236600   3.016   3.063  11.375  0.0246 -0.8610  0.7355
 8380SOL     OW36601   4.327   2.249   3.027 -0.0171 -0.7423 -0.1489
 8380SOL    HW136602   4.390   2.202   3.081 -0.9404 -0.3061  1.3262
 8380SOL    HW236603   4.299   2.182   2.965  0.9457 -0.8076 -0.5143
 8381SOL     OW36604   2.223   3.590  12.121  0.0173 -0.0765  0.2072
 8381SOL    HW136605   2.305   3.605  12.075 -1.5444 -0.0562 -2.5957
 8381SOL    HW236606   2.223   3.662  12.184 -0.5743 -1.5657  1.9148
 8382SOL     OW36607   0.186   3.691   7.235  0.2291  0.6204  0.5319
 8382SOL    HW136608   0.100   3.704   7.273  0.4250 -0.8642  1.4960
 8382SOL    HW236609   0.198   3.596   7.231  0.4717  0.6076  1.4464
 8383SOL     OW36610   2.139   3.859   4.666  0.2663  0.0146  0.0230
 8383SOL    HW136611   2.142   3.803   4.743 -0.0064 -1.9371 -1.3822
 8383SOL    HW236612   2.049   3.886   4.685  1.1354  3.2915 -0.4477
 8384SOL     OW36613   3.768   2.262   7.326  0.3945  0.3499  0.0982
 8384SOL    HW136614   3.831   2.319   7.283 -0.0194 -1.0062 -2.2922
 8384SOL    HW236615   3.811   2.177   7.337 -1.2176 -0.5085 -0.2252
 8385SOL     OW36616   2.109   2.495  10.678  0.1124  0.2542 -0.5910
 8385SOL    HW136617   2.064   2.422  10.636  0.9174  0.4716 -1.8511
 8385SOL    HW236618   2.200   2.470  10.692 -0.4907 -2.4266 -1.5789
 8386SOL     OW36619   4.201   1.995  16.296  0.8977 -0.0758  0.5629
 8386SOL    HW136620   4.202   1.899  16.305  1.0772  0.0954  2.4308
 8386SOL    HW236621   4.209   2.007  16.201 -1.4746  0.1041  0.3664
 8387SOL     OW36622   2.051   2.941   6.728  0.9922 -0.1082  0.3811
 8387SOL    HW136623   2.055   3.035   6.706  1.9546  0.1481  1.6483
 8387SOL    HW236624   1.957   2.927   6.728  1.1287 -1.0225 -2.2448
 8388SOL     OW36625   1.673   1.123  10.007  0.0853 -0.0744  0.1886
 8388SOL    HW136626   1.685   1.028  10.012  2.1248  0.3002  2.3007
 8388SOL    HW236627   1.608   1.150  10.072  2.4293  0.8230  2.1639
 8389SOL     OW36628   1.609   0.726   1.127 -0.2351  0.3160  0.5513
 8389SOL    HW136629   1.565   0.811   1.133  0.7020  0.8043  0.6184
 8389SOL    HW236630   1.618   0.713   1.032 -2.4731  0.6010  0.2946
 8390SOL     OW36631   3.617   1.193   6.192 -0.6706 -0.9099 -0.1134
 8390SOL    HW136632   3.546   1.257   6.183  1.8526  1.7905 -0.8837
 8390SOL    HW236633   3.673   1.229   6.124  1.6813  0.4670  2.5259
 8391SOL     OW36634   1.220   2.593   4.624 -0.2221  0.1979  0.2991
 8391SOL    HW136635   1.228   2.633   4.711 -0.4093  0.0103  0.4020
 8391SOL    HW236636   1.314   2.599   4.605  0.0385  1.9870  2.1549
 8392SOL     OW36637   1.555   1.884  16.984 -0.1580  0.0497 -0.1000
 8392SOL    HW136638   1.630   1.874  16.927  0.7110  1.2391  0.8223
 8392SOL    HW236639   1.602   1.916  17.062 -0.9035  1.4642 -0.2213
 8393SOL     OW36640   4.678   4.184   7.153 -0.4787  0.3412 -0.2561
 8393SOL    HW136641   4.692   4.103   7.202 -0.5993 -1.0429 -2.4940
 8393SOL    HW236642   0.045   4.218   7.135 -0.1637 -0.7694 -0.8457
 8394SOL     OW36643   1.422   0.531   5.863  0.0510  1.2516 -0.2750
 8394SOL    HW136644   1.514   0.507   5.873 -0.1145  0.8533  0.2592
 8394SOL    HW236645   1.425   0.586   5.785 -3.1030  0.9143 -0.6297
 8395SOL     OW36646   4.217   3.821  17.454  0.6518  0.1920 -0.0683
 8395SOL    HW136647   4.241   3.912  17.434 -2.2316  0.6298 -1.6564
 8395SOL    HW236648   4.143   3.817  17.514  0.1486 -1.9076 -0.8273
 8396SOL     OW36649   4.623   0.394   4.769  0.4270  0.1177  0.0671
 8396SOL    HW136650   4.635   0.318   4.713 -0.1479  0.8066 -0.9816
 8396SOL    HW236651   4.531   0.420   4.763  0.8260  1.9857  1.9859
 8397SOL     OW36652   2.325   2.049  14.219 -0.7581  0.6627 -0.4748
 8397SOL    HW136653   2.413   2.022  14.247 -1.1364 -0.8559 -0.7590
 8397SOL    HW236654   2.282   2.074  14.301 -1.7305 -1.4812 -0.3472
 8398SOL     OW36655   4.154   4.019   5.697 -0.1123 -0.1666 -0.0835
 8398SOL    HW136656   4.105   4.089   5.741  0.8237  0.3278  0.1873
 8398SOL    HW236657   4.173   4.052   5.610  0.8214  1.3179  0.6702
 8399SOL     OW36658   2.186   1.246   5.157 -1.0238  0.0722  0.2715
 8399SOL    HW136659   2.167   1.201   5.075 -0.5663 -0.7374  0.6029
 8399SOL    HW236660   2.103   1.229   5.200 -1.3841  0.8303 -0.1309
 8400SOL     OW36661   3.995   0.846   7.226  0.0507  0.5242 -0.0103
 8400SOL    HW136662   4.036   0.928   7.252 -0.9650  0.9244  0.3064
 8400SOL    HW236663   3.908   0.855   7.263  0.4788  0.9687  0.9037
 8401SOL     OW36664   0.707   1.039  10.463  0.4944 -0.1642  0.0141
 8401SOL    HW136665   0.742   1.113  10.513  0.8909 -0.4565  0.1671
 8401SOL    HW236666   0.789   0.991  10.473 -0.9905 -2.3975  1.4518
 8402SOL     OW36667   4.434   1.502   1.044 -0.1857  0.2204 -0.4552
 8402SOL    HW136668   4.452   1.579   0.990 -0.4507  0.6179  0.0303
 8402SOL    HW236669   4.501   1.510   1.112 -1.0327  2.8576  0.0755
 8403SOL     OW36670   0.868   3.712   3.427  0.2672 -0.5629 -0.2093
 8403SOL    HW136671   0.904   3.795   3.459  1.2309  0.2866 -3.5190
 8403SOL    HW236672   0.954   3.671   3.419  1.5786  1.7499  2.1723
 8404SOL     OW36673   0.581   2.372   2.075 -0.5110  0.2632 -0.0969
 8404SOL    HW136674   0.493   2.390   2.041 -0.8715 -1.3726 -0.0707
 8404SOL    HW236675   0.633   2.414   2.006 -1.0944  0.1477 -0.6086
 8405SOL     OW36676   2.715   0.711  16.698  0.5987 -0.3530  0.2368
 8405SOL    HW136677   2.753   0.688  16.613  1.2026  0.6322  0.2431
 8405SOL    HW236678   2.632   0.665  16.703 -0.2511  1.1697  0.1822
 8406SOL     OW36679   4.391   3.907   6.916  0.1458 -0.2378 -0.0808
 8406SOL    HW136680   4.403   3.888   7.009 -1.2499 -1.4368 -0.1267
 8406SOL    HW236681   4.304   3.868   6.906 -1.3333  2.4022  2.6973
 8407SOL     OW36682   0.577   3.465   5.693 -0.2952 -0.0478 -0.2767
 8407SOL    HW136683   0.505   3.404   5.680  1.2700 -2.0176  0.4055
 8407SOL    HW236684   0.608   3.452   5.603  2.7897 -2.0249  1.0733
 8408SOL     OW36685   3.825   3.437   4.907  0.1495  0.5748  0.0512
 8408SOL    HW136686   3.820   3.464   4.998 -0.9396  0.3150  0.0658
 8408SOL    HW236687   3.778   3.353   4.903 -1.1928  1.2747  1.2571
 8409SOL     OW36688   0.535   3.403   3.716 -0.1052 -0.6677  0.9772
 8409SOL    HW136689   0.464   3.434   3.772 -1.2533  0.2189 -0.9601
 8409SOL    HW236690   0.585   3.484   3.711  0.1898 -0.8970  0.2683
 8410SOL     OW36691   4.183   0.066   2.132  0.6525 -0.1475 -0.2288
 8410SOL    HW136692   4.109   0.092   2.076  0.4562 -0.6777 -0.2154
 8410SOL    HW236693   4.168   0.133   2.200 -1.0947 -0.7434 -0.0145
 8411SOL     OW36694   1.672   2.139   0.328 -0.9119 -0.3280 -0.8883
 8411SOL    HW136695   1.653   2.049   0.355  0.6677  0.1650  1.8252
 8411SOL    HW236696   1.673   2.183   0.413  1.1364 -0.2285 -0.9562
 8412SOL     OW36697   2.724   2.871   3.709  0.0997  0.3825 -0.0029
 8412SOL    HW136698   2.776   2.894   3.786 -1.1533 -0.3721  1.0632
 8412SOL    HW236699   2.787   2.830   3.651 -0.8816  0.9865 -1.5134
 8413SOL     OW36700   2.037   4.689  12.587 -0.2978  0.0520 -0.4742
 8413SOL    HW136701   2.028   4.682  12.492 -2.6928  0.2615 -0.2649
 8413SOL    HW236702   2.121   0.014  12.588 -2.0608  3.2613  0.6790
 8414SOL     OW36703   0.368   3.996   8.347  0.0360 -0.5834  0.4982
 8414SOL    HW136704   0.412   4.034   8.423  3.2101 -0.3695 -1.4574
 8414SOL    HW236705   0.436   4.004   8.280  1.2140  1.2471  1.9064
 8415SOL     OW36706   4.003   1.442   1.848  0.2034 -0.2851  0.3540
 8415SOL    HW136707   4.065   1.466   1.780 -0.5913  2.2386  0.5277
 8415SOL    HW236708   3.988   1.348   1.845  1.8000 -0.6471  2.9877
 8416SOL     OW36709   0.223   3.180   2.016 -0.3299 -0.7146 -0.0242
 8416SOL    HW136710   0.257   3.257   2.063 -0.3838 -1.4229  1.1892
 8416SOL    HW236711   0.195   3.237   1.945 -0.5902  1.2030  1.6338
 8417SOL     OW36712   2.203   0.046   6.400  0.2136  0.8113 -0.5414
 8417SOL    HW136713   2.210   4.674   6.380  0.8994  0.2067  2.4188
 8417SOL    HW236714   2.293   0.078   6.404  0.8209 -1.2182  2.4240
 8418SOL     OW36715   0.268   3.832  16.871  0.0499 -0.4112 -0.1012
 8418SOL    HW136716   0.206   3.793  16.932  0.3577  0.2339  0.6212
 8418SOL    HW236717   0.334   3.876  16.924  0.3686  1.0895 -1.7166
 8419SOL     OW36718   4.352   0.242   5.097  0.2439 -0.1686 -0.2265
 8419SOL    HW136719   4.315   0.308   5.156 -1.4496 -0.2297 -1.2019
 8419SOL    HW236720   4.275   0.185   5.100  0.8211 -0.9059  0.4508
 8420SOL     OW36721   2.368   2.177   5.039 -0.4012  0.8889  0.2392
 8420SOL    HW136722   2.290   2.223   5.007 -0.1770 -0.0310 -1.6374
 8420SOL    HW236723   2.319   2.117   5.095 -1.0572  0.8309 -0.3994
 8421SOL     OW36724   1.356   1.915   7.821 -0.1820  0.4611  0.2908
 8421SOL    HW136725   1.321   1.827   7.809 -1.0272  0.9580 -0.8752
 8421SOL    HW236726   1.304   1.948   7.748  0.1729 -2.9222 -1.4582
 8422SOL     OW36727   1.535   2.839  12.781  0.2720 -0.1732 -0.0928
 8422SOL    HW136728   1.539   2.856  12.875  0.8652 -1.8632  0.1841
 8422SOL    HW236729   1.484   2.917  12.761  0.7536 -0.1771 -1.3584
 8423SOL     OW36730   3.634   1.872   1.147  0.4463  0.4483  0.8412
 8423SOL    HW136731   3.578   1.891   1.222  0.0040  0.8879  0.4024
 8423SOL    HW236732   3.718   1.903   1.179  1.4724 -1.0234 -0.3894
 8424SOL     OW36733   3.120   0.886   2.745  0.3166 -0.3076  0.3401
 8424SOL    HW136734   3.158   0.947   2.682 -0.4821 -1.8229 -1.5791
 8424SOL    HW236735   3.035   0.927   2.760  1.1628  1.5309  0.0377
 8425SOL     OW36736   1.298   0.683   8.828 -0.1686 -0.0179  0.5090
 8425SOL    HW136737   1.276   0.705   8.918  1.4723  1.7879  0.4808
 8425SOL    HW236738   1.330   0.593   8.832  0.7441  0.1481 -2.7326
 8426SOL     OW36739   0.813   2.353   5.473  0.3347  0.5226  0.2564
 8426SOL    HW136740   0.732   2.403   5.459  1.0658  1.4538 -0.6318
 8426SOL    HW236741   0.789   2.260   5.472  1.8866  0.1117  1.1582
 8427SOL     OW36742   4.239   0.785   0.441 -0.3151  0.0071 -0.0524
 8427SOL    HW136743   4.300   0.732   0.492 -2.4368 -0.0578  2.4187
 8427SOL    HW236744   4.290   0.866   0.440 -0.4956  0.1453  1.6980
 8428SOL     OW36745   2.283   3.129   9.349  0.0520  0.6531  0.1155
 8428SOL    HW136746   2.202   3.128   9.399 -0.7756  0.8774 -1.2405
 8428SOL    HW236747   2.345   3.071   9.395  0.1963 -0.2415 -1.2055
 8429SOL     OW36748   1.318   3.567  15.361 -0.7528 -0.0041  0.1794
 8429SOL    HW136749   1.396   3.559  15.305 -1.2449 -0.3402 -0.4610
 8429SOL    HW236750   1.278   3.483  15.338 -0.1240 -0.6666  1.5166
 8430SOL     OW36751   1.341   3.093  17.169  0.0567  0.1895 -0.6379
 8430SOL    HW136752   1.323   3.162  17.106 -0.1531  0.8117  0.1076
 8430SOL    HW236753   1.261   3.100  17.221  0.6485 -0.5000  0.3649
 8431SOL     OW36754   1.743   0.436   7.762  0.0891  0.0590  0.0978
 8431SOL    HW136755   1.836   0.456   7.755  0.1316  0.2910  1.3217
 8431SOL    HW236756   1.695   0.515   7.738  1.4788  0.2304 -2.1224
 8432SOL     OW36757   3.130   1.319   3.767 -0.1581  0.1208  0.2944
 8432SOL    HW136758   3.197   1.283   3.709 -1.3460 -0.1534 -0.9381
 8432SOL    HW236759   3.103   1.241   3.815 -3.5117  0.4176 -1.0509
 8433SOL     OW36760   2.003   1.091  13.290  0.0982  0.3263 -0.0901
 8433SOL    HW136761   1.960   1.033  13.228 -2.3096 -0.2104  2.1251
 8433SOL    HW236762   1.981   1.178  13.255  0.0734 -1.0761 -3.6253
 8434SOL     OW36763   1.760   0.716   5.640 -0.0194  0.4264  0.6065
 8434SOL    HW136764   1.805   0.643   5.597  1.5287  1.3336  0.6955
 8434SOL    HW236765   1.821   0.734   5.711  1.6483 -0.8027 -0.4984
 8435SOL     OW36766   1.637   3.494  10.058  0.3498 -0.6373 -0.4194
 8435SOL    HW136767   1.575   3.555  10.100 -1.0057 -1.4488 -1.2302
 8435SOL    HW236768   1.631   3.509   9.964 -2.7979 -0.0646 -0.1268
 8436SOL     OW36769   0.252   3.151  10.239  0.2144  0.2033  0.0203
 8436SOL    HW136770   0.184   3.214  10.215 -1.3265 -2.6195 -3.1181
 8436SOL    HW236771   0.198   3.089  10.289 -0.5513  0.4898 -0.4370
 8437SOL     OW36772   0.661   1.177   6.644 -0.7100  0.0519  0.1039
 8437SOL    HW136773   0.703   1.091   6.642  0.3969  0.6063 -0.3014
 8437SOL    HW236774   0.661   1.195   6.550 -0.7001 -2.0290 -0.2888
 8438SOL     OW36775   1.169   1.827   4.227 -0.5706 -0.2237 -0.1307
 8438SOL    HW136776   1.203   1.742   4.256  2.5759  1.0761 -0.0133
 8438SOL    HW236777   1.249   1.854   4.182 -0.2904  0.4140  0.7540
 8439SOL     OW36778   4.418   3.994  10.492  0.4912  0.3020 -0.3579
 8439SOL    HW136779   4.421   4.061  10.561  1.5630 -0.9882  0.8632
 8439SOL    HW236780   4.450   4.043  10.416  1.5034  2.0008  1.1697
 8440SOL     OW36781   4.424   1.188  14.191 -0.4805  0.4845  0.0412
 8440SOL    HW136782   4.473   1.258  14.148  0.3234 -0.2260 -0.1814
 8440SOL    HW236783   4.371   1.241  14.251  0.1717  0.0727  0.9800
 8441SOL     OW36784   0.670   1.275   2.987  0.0808 -0.1417  0.1103
 8441SOL    HW136785   0.725   1.305   2.915  0.2196 -0.4749  0.0752
 8441SOL    HW236786   0.630   1.197   2.949  1.0176 -1.2087  1.2747
 8442SOL     OW36787   2.633   1.259   6.386  0.2150  0.0081  0.1712
 8442SOL    HW136788   2.635   1.179   6.439  0.6900  0.7037  1.1984
 8442SOL    HW236789   2.543   1.291   6.377  0.8784  1.9370  0.3631
 8443SOL     OW36790   1.687   1.318   1.015  0.9118 -0.2658  0.6823
 8443SOL    HW136791   1.767   1.356   0.978  1.0665 -1.7914 -0.5134
 8443SOL    HW236792   1.726   1.238   1.050  0.2108 -0.0241  2.0250
 8444SOL     OW36793   3.833   2.669   7.187  0.1130 -0.0985  0.2721
 8444SOL    HW136794   3.894   2.702   7.253  1.0895  0.3485 -0.8573
 8444SOL    HW236795   3.888   2.696   7.113  1.9865 -1.3197  1.2403
 8445SOL     OW36796   3.582   2.333   2.232  0.5219  0.6623 -0.0983
 8445SOL    HW136797   3.645   2.343   2.160  2.2091 -1.6322  1.0794
 8445SOL    HW236798   3.593   2.245   2.268 -1.9870 -0.2641 -1.5688
 8446SOL     OW36799   0.946   4.396   5.513  0.0143  0.2958  0.4678
 8446SOL    HW136800   0.971   4.309   5.544  2.3565  0.7205 -0.2770
 8446SOL    HW236801   0.958   4.442   5.596 -2.2778  0.4246  0.7525
 8447SOL     OW36802   0.829   1.787   6.780  0.5280  0.2088  0.0777
 8447SOL    HW136803   0.821   1.725   6.707 -0.7699  0.8023 -0.2803
 8447SOL    HW236804   0.924   1.803   6.781  0.2102  1.9086  1.8986
 8448SOL     OW36805   3.932   3.144  14.027  0.1936  0.2380  0.5991
 8448SOL    HW136806   3.886   3.180  14.103 -1.0883 -1.4084  0.5942
 8448SOL    HW236807   3.900   3.204  13.959  2.7815 -0.1654 -1.0128
 8449SOL     OW36808   3.800   4.432   5.793 -0.2149  0.3163 -0.3817
 8449SOL    HW136809   3.731   4.381   5.835 -0.2958  1.2279  0.6036
 8449SOL    HW236810   3.805   4.507   5.852  1.3194  0.5980 -0.8727
 8450SOL     OW36811   1.196   4.628  12.300  0.0342  0.5297 -0.3655
 8450SOL    HW136812   1.166   4.616  12.390  0.8754  0.8641 -0.0482
 8450SOL    HW236813   1.131   4.693  12.273 -1.0450 -0.1608  0.5489
 8451SOL     OW36814   3.384   2.690   3.664  0.2122  0.1744 -0.3334
 8451SOL    HW136815   3.451   2.683   3.732 -2.5017  0.7585  2.4023
 8451SOL    HW236816   3.320   2.625   3.692  0.3285  0.8369  1.4699
 8452SOL     OW36817   2.565   4.286   2.578 -1.4950 -0.7503 -0.1952
 8452SOL    HW136818   2.527   4.305   2.492 -1.3774  0.5786  0.0504
 8452SOL    HW236819   2.519   4.205   2.598 -2.3730 -0.4720 -1.1059
 8453SOL     OW36820   1.354   2.190  17.325  0.0647 -0.3486 -0.1852
 8453SOL    HW136821   1.346   2.094  17.321  1.4509 -0.4209 -1.5014
 8453SOL    HW236822   1.356   2.220  17.415 -0.4338 -0.4663 -0.1330
 8454SOL     OW36823   4.684   4.501   8.945 -0.2419  0.1586  0.2517
 8454SOL    HW136824   4.629   4.576   8.969 -1.6333 -0.6632 -0.3473
 8454SOL    HW236825   4.645   4.427   8.991  0.9274 -0.2973  0.4995
 8455SOL     OW36826   1.374   1.183  13.293  0.8843 -0.0118  0.1274
 8455SOL    HW136827   1.448   1.240  13.315  0.8554  0.1001 -0.0667
 8455SOL    HW236828   1.303   1.217  13.347  1.2896 -2.2141  2.0429
 8456SOL     OW36829   0.166   4.326   5.563 -0.0160 -0.2392 -0.0479
 8456SOL    HW136830   0.243   4.273   5.586  0.1318 -0.6504 -1.4651
 8456SOL    HW236831   0.098   4.278   5.610  0.9322 -0.2582  1.3007
 8457SOL     OW36832   4.515   4.178   2.570 -0.0741  0.2848  0.9306
 8457SOL    HW136833   4.541   4.096   2.528 -1.6679 -0.8125  2.1048
 8457SOL    HW236834   4.526   4.242   2.500  0.8795 -0.4588  0.4041
 8458SOL     OW36835   2.556   4.304   1.203 -0.5726 -0.3613 -0.0752
 8458SOL    HW136836   2.643   4.277   1.233 -0.5681 -0.0089  0.2274
 8458SOL    HW236837   2.502   4.313   1.281 -1.2914 -1.2545 -0.4760
 8459SOL     OW36838   1.920   2.962  14.344 -0.0436  0.3445  0.4237
 8459SOL    HW136839   2.003   3.008  14.339  1.8158 -2.6630  3.4567
 8459SOL    HW236840   1.865   3.039  14.329  2.3932  2.0027  0.1253
 8460SOL     OW36841   3.654   4.336   3.445  0.3255 -0.1022  0.0234
 8460SOL    HW136842   3.608   4.418   3.428  2.0164  0.7424 -0.5133
 8460SOL    HW236843   3.672   4.331   3.539 -1.0202 -0.0723  0.2726
 8461SOL     OW36844   2.333   0.758  12.456 -0.0501 -0.2314  0.0682
 8461SOL    HW136845   2.250   0.711  12.460 -1.1657  1.6701 -0.9184
 8461SOL    HW236846   2.366   0.719  12.375 -1.0982 -0.0240 -0.4453
 8462SOL     OW36847   2.321   0.029  15.772 -0.2729  0.3940 -0.3725
 8462SOL    HW136848   2.350   4.693  15.701  1.9474  1.8359 -0.6292
 8462SOL    HW236849   2.405   0.073  15.790  0.0748  0.2114 -1.5583
 8463SOL     OW36850   0.628   1.512   2.433  0.0914 -0.1830 -0.0986
 8463SOL    HW136851   0.706   1.567   2.422 -0.7344  0.9926 -0.0519
 8463SOL    HW236852   0.610   1.527   2.526 -0.9456 -2.2969  0.0378
 8464SOL     OW36853   2.578   3.077   8.866  0.2844 -0.3094  0.0336
 8464SOL    HW136854   2.485   3.063   8.849 -0.3694  2.6865  1.2261
 8464SOL    HW236855   2.569   3.155   8.920  2.6647  0.0550 -0.1121
 8465SOL     OW36856   0.673   4.522   4.221 -0.1230 -0.1804 -0.0985
 8465SOL    HW136857   0.643   4.491   4.307  1.2703  2.0089  1.1684
 8465SOL    HW236858   0.586   4.536   4.184 -0.8713  1.0326  2.1106
 8466SOL     OW36859   4.195   1.398   0.507 -0.0216  0.3279 -0.6223
 8466SOL    HW136860   4.153   1.455   0.572  0.6680 -0.6093  0.6359
 8466SOL    HW236861   4.170   1.311   0.540 -1.4066  1.4860  1.4287
 8467SOL     OW36862   3.154   3.226   6.007  0.7050  0.5332 -0.2969
 8467SOL    HW136863   3.178   3.154   5.948  1.0891  0.8046 -0.4735
 8467SOL    HW236864   3.222   3.212   6.073 -0.4465  1.2095  1.0132
 8468SOL     OW36865   2.419   0.817   1.877  0.0137  0.6836 -0.0794
 8468SOL    HW136866   2.439   0.736   1.924  0.8792  0.7494 -0.3334
 8468SOL    HW236867   2.470   0.813   1.796  2.8427  0.3926  1.7234
 8469SOL     OW36868   4.117   2.887   7.980  0.4217 -0.6901 -0.1899
 8469SOL    HW136869   4.175   2.816   7.951 -0.5928 -1.1495 -1.1070
 8469SOL    HW236870   4.182   2.948   8.013  2.6569 -2.2635 -1.6894
 8470SOL     OW36871   1.886   3.828   3.555 -0.3009 -0.2571  0.2260
 8470SOL    HW136872   1.946   3.901   3.538 -1.7118  0.8745  0.0933
 8470SOL    HW236873   1.901   3.783   3.471 -2.8393 -1.0757  0.1987
 8471SOL     OW36874   4.568   0.811   8.242  0.2763  0.1193 -0.3045
 8471SOL    HW136875   4.633   0.806   8.312 -1.8845  0.1318  1.7372
 8471SOL    HW236876   4.512   0.884   8.269 -0.1860  1.0955 -3.8931
 8472SOL     OW36877   2.277   0.188  16.574  0.6647 -0.2325 -0.1973
 8472SOL    HW136878   2.236   0.128  16.512  0.4991  1.2082 -1.4674
 8472SOL    HW236879   2.258   0.269  16.528 -0.6858 -0.7133 -0.5121
 8473SOL     OW36880   3.614   2.529   0.393 -0.0628  0.6973  0.2348
 8473SOL    HW136881   3.556   2.507   0.320 -1.4319  0.5198  1.3809
 8473SOL    HW236882   3.552   2.532   0.466 -1.9158  0.3632 -1.3336
 8474SOL     OW36883   0.419   1.325   8.299 -0.1272  0.6203  0.1662
 8474SOL    HW136884   0.388   1.277   8.376 -0.2715  0.8502  0.2496
 8474SOL    HW236885   0.480   1.265   8.256  1.0329  1.3428  0.8091
 8475SOL     OW36886   0.123   0.521   4.730 -0.5209 -0.0841  0.5668
 8475SOL    HW136887   0.040   0.480   4.755 -1.1967  0.2999 -1.0598
 8475SOL    HW236888   0.145   0.467   4.654  0.8892  3.0753 -1.2827
 8476SOL     OW36889   2.378   1.101   7.087  0.3320 -0.4919  0.4888
 8476SOL    HW136890   2.382   1.182   7.138 -1.5787 -1.0170  1.4713
 8476SOL    HW236891   2.334   1.048   7.153  0.3087  0.0766  0.9367
 8477SOL     OW36892   4.694   3.671  11.223  0.0642 -0.1509  0.0956
 8477SOL    HW136893   0.031   3.705  11.291  1.3839 -2.0426 -0.0988
 8477SOL    HW236894   4.699   3.579  11.250 -1.6267  0.0959  1.2580
 8478SOL     OW36895   4.053   0.544   6.252  0.4475  0.1482  0.2742
 8478SOL    HW136896   4.095   0.533   6.167 -0.0862 -2.2899  0.3242
 8478SOL    HW236897   4.032   0.637   6.254 -0.7191 -0.1160  0.0423
 8479SOL     OW36898   1.554   2.329  13.919 -0.5954 -0.1058  0.4127
 8479SOL    HW136899   1.541   2.255  13.859  1.2333  0.1028 -0.2451
 8479SOL    HW236900   1.580   2.393  13.853  1.4212  0.4693  1.7569
 8480SOL     OW36901   1.043   4.277   9.864 -0.3135  0.0618  0.0042
 8480SOL    HW136902   1.099   4.233   9.800  0.9341  3.4479 -1.2175
 8480SOL    HW236903   0.971   4.215   9.852  1.9603 -2.1681 -2.0979
 8481SOL     OW36904   3.396   3.715   4.663 -0.8154  0.2192 -0.0959
 8481SOL    HW136905   3.473   3.771   4.672  0.0237 -0.9767  0.2523
 8481SOL    HW236906   3.425   3.624   4.667  0.5600  0.6327 -0.5564
 8482SOL     OW36907   4.431   0.052  17.684  0.0782 -0.0895 -0.0287
 8482SOL    HW136908   4.390   0.098   0.072 -0.7091 -3.2169  1.4637
 8482SOL    HW236909   4.440   0.130  17.630  1.6483  0.1934  0.6315
 8483SOL     OW36910   2.260   0.154  16.287 -0.0552 -0.4122  0.0476
 8483SOL    HW136911   2.284   0.238  16.249 -2.9465 -0.0836 -1.1011
 8483SOL    HW236912   2.305   0.098  16.223 -0.0862 -1.7107  1.1689
 8484SOL     OW36913   0.554   1.896   7.090 -0.0590 -0.0729 -0.0134
 8484SOL    HW136914   0.530   1.952   7.163  1.0066 -0.4436  0.6268
 8484SOL    HW236915   0.505   1.816   7.108 -0.5335  0.3825  0.7094
 8485SOL     OW36916   1.607   4.243  14.557  0.8248 -0.5668  0.2826
 8485SOL    HW136917   1.681   4.289  14.597  1.5722  0.4298 -2.2200
 8485SOL    HW236918   1.645   4.221  14.472  0.5088  0.8092 -0.2181
 8486SOL     OW36919   4.238   3.448  17.629  0.5630 -0.2565  0.1528
 8486SOL    HW136920   4.259   3.530  17.674 -2.3341  0.1881  0.6586
 8486SOL    HW236921   4.313   3.452  17.569  0.7039 -2.2659  0.1967
 8487SOL     OW36922   4.468   2.581   7.666 -0.1105  0.1871 -0.8539
 8487SOL    HW136923   4.515   2.591   7.749 -0.8514 -0.5447 -0.3480
 8487SOL    HW236924   4.427   2.667   7.670 -0.9123 -0.1484 -1.8341
 8488SOL     OW36925   4.287   4.694   7.714 -0.0549  0.3110  0.2911
 8488SOL    HW136926   4.236   0.021   7.780 -1.4560 -1.4208  0.4493
 8488SOL    HW236927   4.256   0.003   7.629  1.2756  0.4095 -0.1611
 8489SOL     OW36928   0.620   2.450   5.985 -0.5513  0.0468 -0.0182
 8489SOL    HW136929   0.569   2.528   6.006 -2.0733 -1.5452  2.1548
 8489SOL    HW236930   0.614   2.397   6.065  0.1594 -2.8135 -1.8375
 8490SOL     OW36931   3.326   1.427  15.290 -0.3606 -0.0661 -0.2620
 8490SOL    HW136932   3.305   1.334  15.302  0.7257 -0.3406 -0.4933
 8490SOL    HW236933   3.400   1.432  15.350  0.8425  0.5886 -1.8295
 8491SOL     OW36934   3.140   2.696   2.817 -0.0696  0.3853  0.0465
 8491SOL    HW136935   3.071   2.642   2.781 -0.1739  0.8616 -0.4677
 8491SOL    HW236936   3.156   2.757   2.745 -3.1315 -0.1744 -1.0714
 8492SOL     OW36937   0.344   0.258   3.212 -0.0012 -0.1635  0.1424
 8492SOL    HW136938   0.421   0.271   3.157  1.3418 -1.3974  1.7375
 8492SOL    HW236939   0.290   0.306   3.150  0.2742  0.2250  0.2041
 8493SOL     OW36940   0.198   4.526  14.955 -0.0693 -0.1058  0.3130
 8493SOL    HW136941   0.123   4.573  14.918  0.0845  0.4103  0.6651
 8493SOL    HW236942   0.253   4.596  14.992 -1.8448  1.8987 -0.8194
 8494SOL     OW36943   4.497   1.945   4.335  0.0018  0.3114  0.8161
 8494SOL    HW136944   4.501   1.852   4.312 -1.3832  0.6744 -0.8629
 8494SOL    HW236945   4.560   1.944   4.407  0.0680  3.2533  0.8012
 8495SOL     OW36946   1.672   4.612  12.909  0.1639 -0.3577 -0.4859
 8495SOL    HW136947   1.765   4.593  12.921  0.7544  2.0302 -1.3489
 8495SOL    HW236948   1.659   4.678  12.840  1.5792  0.0366 -0.3651
 8496SOL     OW36949   1.309   3.675  13.636 -0.3644  0.3210  0.0400
 8496SOL    HW136950   1.314   3.592  13.589 -1.3178 -0.5976  1.5328
 8496SOL    HW236951   1.280   3.730  13.564  1.3119  0.0280 -0.8657
 8497SOL     OW36952   2.922   0.316   4.435  0.0907 -0.2465 -0.3912
 8497SOL    HW136953   2.939   0.239   4.380  0.3858 -1.5377  1.5050
 8497SOL    HW236954   2.895   0.380   4.369 -2.7802 -0.2005  0.8378
 8498SOL     OW36955   1.923   0.016   6.432  0.4008  0.0433  0.4194
 8498SOL    HW136956   1.924   0.109   6.451  1.8600  0.4296 -1.5946
 8498SOL    HW236957   2.018   0.011   6.423  0.1690 -1.8273 -1.0060
 8499SOL     OW36958   1.577   0.542   6.545 -0.4828  0.0475 -0.0212
 8499SOL    HW136959   1.576   0.448   6.528  0.4999  0.6769 -3.5958
 8499SOL    HW236960   1.627   0.551   6.627 -1.6558  0.5106  0.6382
 8500SOL     OW36961   3.926   3.421  12.765  0.2616 -0.0346 -0.2528
 8500SOL    HW136962   3.844   3.373  12.760 -0.5911  1.2722  1.0563
 8500SOL    HW236963   3.977   3.356  12.717  0.7253  1.6237 -2.0015
 8501SOL     OW36964   2.113   4.427   7.374 -0.2188  0.0779 -0.3756
 8501SOL    HW136965   2.084   4.432   7.283 -1.4585  0.0520  0.0113
 8501SOL    HW236966   2.205   4.440   7.350 -0.3096 -0.2794 -0.9241
 8502SOL     OW36967   0.124   0.241   9.950  0.5416  0.1306  0.0700
 8502SOL    HW136968   0.068   0.268   9.877 -0.4841 -0.5031  0.6208
 8502SOL    HW236969   0.205   0.219   9.905  1.0107  1.1440  0.4019
 8503SOL     OW36970   0.100   3.547   4.361  0.3495  0.2027 -0.5991
 8503SOL    HW136971   0.191   3.567   4.341  0.0561 -0.2853 -2.4545
 8503SOL    HW236972   0.060   3.629   4.389  2.3879 -0.0628  2.9922
 8504SOL     OW36973   0.898   1.888   3.915  0.4690  0.4911  0.6103
 8504SOL    HW136974   0.913   1.955   3.981 -0.2565 -0.2183  1.4957
 8504SOL    HW236975   0.810   1.856   3.936  0.0039  0.1750 -1.8311
 8505SOL     OW36976   4.355   3.653  16.054 -0.0500 -0.0766 -0.6767
 8505SOL    HW136977   4.432   3.708  16.041 -1.3717  2.4813  2.0780
 8505SOL    HW236978   4.330   3.680  16.143  1.4959  0.6549 -0.4834
 8506SOL     OW36979   3.819   4.186   6.905  0.1187 -0.4252  0.0828
 8506SOL    HW136980   3.897   4.235   6.881  1.2075 -1.2955  1.7920
 8506SOL    HW236981   3.858   4.109   6.947 -0.8933  0.2075  2.1859
 8507SOL     OW36982   4.625   1.023   7.147  0.2187  0.2257 -0.3641
 8507SOL    HW136983   4.616   1.116   7.168 -1.2162 -0.1764  0.7870
 8507SOL    HW236984   4.592   0.981   7.227 -1.7100  0.2246 -1.1648
 8508SOL     OW36985   0.654   1.514  12.733 -0.1724 -0.4377 -0.4113
 8508SOL    HW136986   0.613   1.433  12.704  1.0704 -1.2648  0.1610
 8508SOL    HW236987   0.649   1.555  12.646 -0.2499  0.0140 -0.1952
 8509SOL     OW36988   2.828   3.201   9.242  0.2950  0.0841  0.6739
 8509SOL    HW136989   2.814   3.266   9.173  0.4946 -0.1705  0.3930
 8509SOL    HW236990   2.878   3.135   9.194 -0.9526 -1.1801  1.1577
 8510SOL     OW36991   2.161   2.563   3.905  0.4533  0.3079 -0.4974
 8510SOL    HW136992   2.090   2.569   3.840 -0.0992  1.4608  0.2181
 8510SOL    HW236993   2.187   2.471   3.894  0.3418  0.0394  1.4944
 8511SOL     OW36994   0.792   3.509  15.908  0.2528 -0.0035  0.2496
 8511SOL    HW136995   0.854   3.445  15.872 -0.7860 -0.4923 -0.6497
 8511SOL    HW236996   0.812   3.580  15.848 -1.9169  0.6386  0.3141
 8512SOL     OW36997   2.985   1.210   5.715  0.1029  0.0354 -0.4555
 8512SOL    HW136998   2.897   1.246   5.710  0.2260  0.1408 -1.8864
 8512SOL    HW236999   3.038   1.285   5.741  1.4170 -2.0075  2.7697
 8513SOL     OW37000   0.088   1.130   2.153  0.6851  0.3573 -0.1699
 8513SOL    HW137001   0.021   1.085   2.101  0.4493  2.3384 -1.5796
 8513SOL    HW237002   0.050   1.109   2.238  1.2793  0.7491  0.1872
 8514SOL     OW37003   0.272   4.366   4.680 -0.0813  0.0944 -0.1405
 8514SOL    HW137004   0.241   4.356   4.770  0.0402  0.0675 -0.1010
 8514SOL    HW237005   0.365   4.380   4.698  0.1805 -1.1367 -0.5461
 8515SOL     OW37006   3.285   3.911   8.002  0.2731 -0.0923  0.1371
 8515SOL    HW137007   3.219   3.843   7.984 -0.4849  1.1613 -1.7136
 8515SOL    HW237008   3.323   3.867   8.079  1.1687  1.3467  0.5056
 8516SOL     OW37009   0.261   4.280  10.759  0.1100 -0.0592  0.0308
 8516SOL    HW137010   0.255   4.226  10.681 -1.9019  0.5936 -0.2707
 8516SOL    HW237011   0.171   4.314  10.766 -0.4967 -2.1469  2.2635
 8517SOL     OW37012   2.347   0.757  15.314 -0.0355 -0.4102  0.7030
 8517SOL    HW137013   2.266   0.762  15.364  0.8308 -0.6553  2.1444
 8517SOL    HW237014   2.341   0.669  15.277 -1.3971 -0.2416  0.5449
 8518SOL     OW37015   3.183   1.636  16.445  0.6370  0.2113 -1.0426
 8518SOL    HW137016   3.088   1.626  16.435  0.1748  2.6155  0.8126
 8518SOL    HW237017   3.183   1.728  16.471 -0.1331  0.0601 -0.4978
 8519SOL     OW37018   2.265   2.440  14.449  0.3362  1.0652 -0.0735
 8519SOL    HW137019   2.180   2.455  14.409  0.6881 -0.7592 -1.5274
 8519SOL    HW237020   2.262   2.346  14.469 -0.9872  0.9430 -0.8744
 8520SOL     OW37021   4.522   4.347   2.340  0.1217  0.2785 -0.5325
 8520SOL    HW137022   4.556   4.376   2.256  1.1799 -1.1946 -0.5921
 8520SOL    HW237023   4.448   4.301   2.301 -1.0819  2.1710 -0.5288
 8521SOL     OW37024   4.443   3.212   7.343 -0.2535 -0.3248  0.3551
 8521SOL    HW137025   4.405   3.202   7.430 -2.0340 -1.7414 -0.5594
 8521SOL    HW237026   4.432   3.306   7.329  0.5530 -0.2252  0.4068
 8522SOL     OW37027   4.368   0.535  12.979 -0.7842  0.2411  0.0946
 8522SOL    HW137028   4.382   0.441  12.986 -0.2342  0.3111 -0.0870
 8522SOL    HW237029   4.290   0.531  12.923 -0.4533 -2.0119 -0.1915
 8523SOL     OW37030   3.505   4.308   3.007  0.0505  0.0376 -0.4268
 8523SOL    HW137031   3.492   4.378   2.943  1.0939 -1.6505 -2.4685
 8523SOL    HW237032   3.472   4.341   3.090 -0.7197 -0.0253 -0.7007
 8524SOL     OW37033   2.303   2.831   6.807 -0.1694 -0.3105 -0.2586
 8524SOL    HW137034   2.293   2.751   6.755  1.3911 -0.6841  0.0152
 8524SOL    HW237035   2.224   2.879   6.783  0.5544 -0.7522 -3.5643
 8525SOL     OW37036   2.413   2.764   8.117  0.1851 -0.0972  0.0408
 8525SOL    HW137037   2.340   2.777   8.056 -0.5147  0.1461  0.9347
 8525SOL    HW237038   2.375   2.733   8.199  0.1811  1.9954  0.8220
 8526SOL     OW37039   2.726   2.863   3.341  0.4333 -0.1859 -0.4783
 8526SOL    HW137040   2.661   2.793   3.341  0.1564  0.0742 -0.5349
 8526SOL    HW237041   2.794   2.807   3.302  0.6375 -1.2218  1.3716
 8527SOL     OW37042   3.219   0.887   8.995  0.2099  0.3275 -0.1733
 8527SOL    HW137043   3.218   0.822   8.926  1.9190 -0.6873  0.7721
 8527SOL    HW237044   3.217   0.842   9.080  1.5210 -0.5022 -0.5951
 8528SOL     OW37045   3.044   1.997   3.728  0.1442  0.0629  0.1474
 8528SOL    HW137046   3.085   2.083   3.728  0.2589  0.0070  0.9306
 8528SOL    HW237047   2.975   2.016   3.665  0.5201  0.5930 -0.0962
 8529SOL     OW37048   2.379   0.573   4.745 -0.1008  0.0312 -0.2089
 8529SOL    HW137049   2.422   0.489   4.756 -0.9205 -0.5814 -1.7069
 8529SOL    HW237050   2.394   0.606   4.834  0.9688 -0.7382 -0.1010
 8530SOL     OW37051   4.247   1.557  17.180 -0.4631 -0.1670 -0.0218
 8530SOL    HW137052   4.328   1.520  17.144 -0.4202 -0.7086  0.6236
 8530SOL    HW237053   4.269   1.649  17.197 -1.2276  0.1027 -0.5082
 8531SOL     OW37054   4.672   3.405  17.063 -0.0249  0.2530 -0.2421
 8531SOL    HW137055   0.011   3.466  17.105 -1.4006 -0.0327  2.1505
 8531SOL    HW237056   4.581   3.432  17.080  0.1176  0.2564  0.5239
 8532SOL     OW37057   2.279   0.137   4.080 -0.4589 -0.3153  0.0173
 8532SOL    HW137058   2.311   0.141   3.990 -3.8841  1.5395 -1.1214
 8532SOL    HW237059   2.230   0.219   4.082  2.1454  1.1766  1.3491
 8533SOL     OW37060   0.842   3.236   3.340 -0.0454  0.5404 -0.6252
 8533SOL    HW137061   0.901   3.291   3.392 -0.6874  0.8968 -0.2721
 8533SOL    HW237062   0.783   3.194   3.402  0.4039 -0.5224 -0.9326
 8534SOL     OW37063   3.687   4.609   5.375  0.5443 -0.1960 -0.3212
 8534SOL    HW137064   3.677   4.689   5.324 -3.9381  0.9134  2.3832
 8534SOL    HW237065   3.745   4.562   5.315 -0.4473 -1.4640 -0.2697
 8535SOL     OW37066   0.872   3.589   2.509 -0.3674  0.1553  0.3951
 8535SOL    HW137067   0.922   3.519   2.551 -0.5317  0.0201  0.3648
 8535SOL    HW237068   0.854   3.648   2.583  0.4538 -0.0407  0.7517
 8536SOL     OW37069   0.599   2.252   4.496  0.9801  0.6292 -0.0061
 8536SOL    HW137070   0.596   2.159   4.475  1.5283  0.5373  0.3058
 8536SOL    HW237071   0.598   2.294   4.410  1.3919 -1.0947 -0.8693
 8537SOL     OW37072   1.451   3.677   5.328 -0.3469  0.4534  0.3805
 8537SOL    HW137073   1.498   3.761   5.330 -0.9110  0.7641  0.4054
 8537SOL    HW237074   1.422   3.669   5.419  2.2984 -2.1447  1.0054
 8538SOL     OW37075   4.214   2.549   3.445 -0.6154  0.1943  0.0751
 8538SOL    HW137076   4.170   2.501   3.375 -1.4553 -0.3122  0.9479
 8538SOL    HW237077   4.262   2.615   3.395 -2.6779  1.1373 -0.6440
 8539SOL     OW37078   0.393   2.180   5.186 -0.0716 -0.0481 -0.7831
 8539SOL    HW137079   0.389   2.202   5.279  2.6483  2.2753 -1.2006
 8539SOL    HW237080   0.487   2.186   5.173 -0.1444  0.9226 -0.8482
 8540SOL     OW37081   2.351   0.748   7.404  0.1760 -0.0649 -1.2623
 8540SOL    HW137082   2.258   0.750   7.429  0.2323 -1.6474 -0.9480
 8540SOL    HW237083   2.387   0.717   7.487 -0.6650  0.5829 -0.6520
 8541SOL     OW37084   2.137   1.785  17.247  0.7510 -0.2334 -0.1774
 8541SOL    HW137085   2.199   1.808  17.315  3.1224 -0.6293 -2.2009
 8541SOL    HW237086   2.154   1.692  17.229  0.8033 -0.0528 -1.0870
 8542SOL     OW37087   2.020   2.987   4.709  0.5663  0.7753  0.4803
 8542SOL    HW137088   2.070   2.905   4.711 -1.5223 -0.4526  2.5853
 8542SOL    HW237089   2.065   3.023   4.632 -0.1957  1.2509  0.2604
 8543SOL     OW37090   0.624   1.710  13.877  0.1377 -0.0287  0.0188
 8543SOL    HW137091   0.640   1.671  13.963  0.9402  0.8414  0.2559
 8543SOL    HW237092   0.528   1.715  13.875  0.0331 -1.4205  1.8821
 8544SOL     OW37093   4.654   1.554   0.414  0.1854  0.1494 -0.3400
 8544SOL    HW137094   4.607   1.619   0.467  0.1695 -0.2404  0.1184
 8544SOL    HW237095   4.596   1.480   0.403  0.6817 -0.2481 -0.2797
 8545SOL     OW37096   4.336   1.626   3.086 -0.2654 -0.2687 -0.1649
 8545SOL    HW137097   4.428   1.610   3.063 -0.0111 -0.1489  0.7578
 8545SOL    HW237098   4.296   1.540   3.098 -1.7541  0.5976  1.1489
 8546SOL     OW37099   3.987   0.176   3.206 -0.3293  0.8395  0.1543
 8546SOL    HW137100   3.996   0.080   3.211 -1.4651  0.7348  0.1436
 8546SOL    HW237101   4.060   0.206   3.260 -1.3757  0.0813  2.0060
 8547SOL     OW37102   1.824   2.896   3.649  0.3591  0.0334  0.2318
 8547SOL    HW137103   1.913   2.925   3.630  1.2248 -3.7877 -1.6318
 8547SOL    HW237104   1.788   2.969   3.699 -2.4240 -1.7829  0.8689
 8548SOL     OW37105   4.652   3.118  15.026  0.4123 -0.3996 -0.3446
 8548SOL    HW137106   0.021   3.089  15.011  0.6592  0.6861 -1.0152
 8548SOL    HW237107   4.621   3.103  14.936 -0.6289  0.4081 -0.1248
 8549SOL     OW37108   3.484   2.365   3.397 -0.0998 -0.1502 -0.6193
 8549SOL    HW137109   3.573   2.380   3.429  0.7688 -2.9051 -1.7497
 8549SOL    HW237110   3.476   2.439   3.336 -1.5562  1.6621  1.8023
 8550SOL     OW37111   3.908   0.260  15.807 -0.0429 -0.2403 -0.6222
 8550SOL    HW137112   3.921   0.317  15.731  0.7802 -0.2136 -0.4566
 8550SOL    HW237113   3.986   0.289  15.854 -1.5743 -0.2110  1.8710
 8551SOL     OW37114   4.215   3.899  16.101 -0.1020 -0.0759  0.0590
 8551SOL    HW137115   4.175   3.938  16.024  0.4039 -0.1117 -0.2223
 8551SOL    HW237116   4.199   3.807  16.079  0.5698 -0.3221  0.6069
 8552SOL     OW37117   3.052   0.288   9.163 -1.0890 -0.6758 -0.2125
 8552SOL    HW137118   3.002   0.315   9.240  0.8052 -1.9805  1.4593
 8552SOL    HW237119   3.135   0.328   9.188 -0.6022 -1.9178  0.1292
 8553SOL     OW37120   2.276   4.423   8.184  0.1285  0.4512 -0.1864
 8553SOL    HW137121   2.211   4.494   8.179 -1.5488 -1.0072  0.9688
 8553SOL    HW237122   2.353   4.476   8.205  1.4000 -0.3549 -2.9105
 8554SOL     OW37123   1.099   0.092   2.192 -0.1846 -0.4039 -0.0347
 8554SOL    HW137124   1.157   0.168   2.188 -1.1849  0.3439 -0.2979
 8554SOL    HW237125   1.053   0.106   2.109  0.3635  0.5417 -0.1838
 8555SOL     OW37126   2.564   1.507   3.488  0.1726 -0.4039 -0.3897
 8555SOL    HW137127   2.507   1.529   3.414  0.8603 -1.6390 -1.2839
 8555SOL    HW237128   2.523   1.424   3.510 -1.3078  0.5697  0.5368
 8556SOL     OW37129   1.647   3.007   6.933 -0.0692 -0.5226  0.3345
 8556SOL    HW137130   1.668   3.094   6.967  0.4458 -0.9184  1.0449
 8556SOL    HW237131   1.719   2.953   6.966  1.0438  1.6071  1.4484
 8557SOL     OW37132   4.194   4.308   4.595  0.3203  0.0897  0.3918
 8557SOL    HW137133   4.107   4.294   4.557 -0.9085  2.4596  2.3522
 8557SOL    HW237134   4.234   4.224   4.573 -0.5208 -0.8253  2.2992
 8558SOL     OW37135   4.138   2.838   2.149  0.1120 -0.0955 -0.0084
 8558SOL    HW137136   4.123   2.814   2.241 -2.3244  1.7692  0.1068
 8558SOL    HW237137   4.212   2.896   2.164  1.2835 -0.7110 -3.4520
 8559SOL     OW37138   2.631   4.422   4.253 -0.4469  0.3473 -0.0860
 8559SOL    HW137139   2.724   4.402   4.258  0.2025  3.0046 -1.8095
 8559SOL    HW237140   2.636   4.490   4.186 -0.5813  2.9136  2.5398
 8560SOL     OW37141   3.184   1.340   1.182 -0.2457  0.4268 -0.0043
 8560SOL    HW137142   3.199   1.426   1.220 -1.5932  1.5904 -2.0787
 8560SOL    HW237143   3.258   1.297   1.225 -0.2869  0.0278 -0.3295
 8561SOL     OW37144   0.477   0.727   4.585 -0.4051 -0.0877  0.4784
 8561SOL    HW137145   0.468   0.687   4.671 -2.8665 -0.2375  0.1491
 8561SOL    HW237146   0.564   0.767   4.585 -0.7376  0.6684 -1.3687
 8562SOL     OW37147   3.077   2.699   2.302 -0.2133  0.9967  0.6694
 8562SOL    HW137148   3.005   2.705   2.239  1.1568 -2.0839 -1.1272
 8562SOL    HW237149   3.033   2.744   2.375 -1.9188  0.3235  0.0631
 8563SOL     OW37150   0.362   4.565   5.284 -0.0328 -0.1702  0.4422
 8563SOL    HW137151   0.287   4.543   5.339 -2.3976 -0.6819 -2.9920
 8563SOL    HW237152   0.414   4.485   5.281  1.6446  0.8369  1.7436
 8564SOL     OW37153   0.568   3.762   2.011 -0.1305 -0.0511 -0.4488
 8564SOL    HW137154   0.620   3.694   1.967  0.2116  0.8529 -1.4472
 8564SOL    HW237155   0.517   3.795   1.937 -0.9661 -0.2529  0.0449
 8565SOL     OW37156   1.478   4.249   4.778  0.2381  0.3677 -0.3012
 8565SOL    HW137157   1.565   4.289   4.774  0.8219 -0.9042  0.0207
 8565SOL    HW237158   1.434   4.330   4.805 -0.1039 -0.4962  1.6747
 8566SOL     OW37159   4.685   3.226  15.713 -0.0829 -0.5503 -0.1055
 8566SOL    HW137160   4.676   3.277  15.794  0.0070 -0.1181 -0.3667
 8566SOL    HW237161   0.056   3.249  15.697  0.0735 -1.3153 -0.3028
 8567SOL     OW37162   2.949   1.812   4.039 -0.0421 -0.3682 -0.3457
 8567SOL    HW137163   2.871   1.813   4.094  1.0477  4.0832  1.1287
 8567SOL    HW237164   2.924   1.880   3.977 -0.3680  0.2018  0.4101
 8568SOL     OW37165   3.613   4.112  14.633 -0.3786  0.2910 -0.6606
 8568SOL    HW137166   3.596   4.020  14.653 -0.6803  0.9198  1.9875
 8568SOL    HW237167   3.639   4.137  14.722 -0.9068 -0.9286 -0.1633
 8569SOL     OW37168   1.009   4.148   5.663 -0.1676  0.3217 -0.0287
 8569SOL    HW137169   0.938   4.086   5.646  0.5366 -1.0039  1.8134
 8569SOL    HW237170   1.087   4.098   5.637  0.4229  0.4010  1.5650
 8570SOL     OW37171   1.693   2.089   1.808  0.0548  0.2548 -0.3197
 8570SOL    HW137172   1.629   2.107   1.738 -2.4421  1.7440  2.3409
 8570SOL    HW237173   1.761   2.077   1.742  1.9464  1.2866  1.4633
 8571SOL     OW37174   4.011   2.290   4.867 -0.2325 -0.0635 -0.0964
 8571SOL    HW137175   3.976   2.314   4.953 -0.5399  1.9046 -0.7690
 8571SOL    HW237176   3.936   2.244   4.829  0.6822 -0.4555 -1.4126
 8572SOL     OW37177   3.196   3.864  12.509  0.0914  0.2924 -0.4222
 8572SOL    HW137178   3.110   3.841  12.543 -0.6003 -0.0727 -2.3904
 8572SOL    HW237179   3.234   3.783  12.475  0.8369  0.2688  0.4706
 8573SOL     OW37180   0.621   1.794   8.111  0.0530  0.2191 -0.2670
 8573SOL    HW137181   0.581   1.845   8.182  0.1550  0.1732 -0.1752
 8573SOL    HW237182   0.710   1.829   8.107  0.5028 -1.0363 -1.5805
 8574SOL     OW37183   3.703   1.238  15.198  0.0062  0.0912 -0.8760
 8574SOL    HW137184   3.639   1.210  15.263  2.9048  1.2183  2.4588
 8574SOL    HW237185   3.736   1.157  15.158  1.0816  0.8766 -1.5714
 8575SOL     OW37186   4.624   4.111   3.482 -0.2597 -0.6729 -0.4734
 8575SOL    HW137187   4.552   4.136   3.541 -1.2111  0.4413 -2.1296
 8575SOL    HW237188   4.629   4.190   3.429  0.4659 -0.1212  0.4160
 8576SOL     OW37189   4.478   1.285  12.361 -0.0864  0.5430 -0.2715
 8576SOL    HW137190   4.418   1.256  12.292  0.1496 -0.6302  0.0076
 8576SOL    HW237191   4.542   1.213  12.356  1.6618  2.1298 -0.7317
 8577SOL     OW37192   3.888   2.902   3.130 -0.1141 -0.4518  0.0216
 8577SOL    HW137193   3.983   2.909   3.117 -0.0280  0.4845  1.1678
 8577SOL    HW237194   3.867   2.990   3.159 -0.7839 -0.2091 -1.2101
 8578SOL     OW37195   4.095   2.057   8.605  0.0833 -0.0194 -0.2253
 8578SOL    HW137196   4.075   2.038   8.697 -0.2965 -2.1571 -0.7584
 8578SOL    HW237197   4.104   1.968   8.570  1.4063 -0.5491  1.4171
 8579SOL     OW37198   2.572   1.117   4.663  0.9701  0.1790 -0.0129
 8579SOL    HW137199   2.547   1.027   4.686 -0.6871  0.3955 -1.0084
 8579SOL    HW237200   2.666   1.109   4.649  1.3905 -0.2627  3.0239
 8580SOL     OW37201   2.696   0.446  10.010  0.0943  0.5106  0.1474
 8580SOL    HW137202   2.644   0.519   9.978  0.9163  1.0863  0.1439
 8580SOL    HW237203   2.769   0.454   9.949 -1.9481 -0.6297 -2.4710
 8581SOL     OW37204   2.566   4.360   7.980  0.9161 -0.2344 -0.0465
 8581SOL    HW137205   2.656   4.378   8.009 -0.0566  0.3944  2.5885
 8581SOL    HW237206   2.550   4.449   7.947  1.2500  0.4714  1.6877
 8582SOL     OW37207   3.158   0.032   0.214  0.2065 -0.0250  0.2599
 8582SOL    HW137208   3.248   0.059   0.234 -0.1439  0.7838  0.7482
 8582SOL    HW237209   3.147   4.658   0.219  0.4588 -0.0578  0.2198
 8583SOL     OW37210   1.243   0.237   5.073  0.6083  0.7282 -0.3286
 8583SOL    HW137211   1.168   0.245   5.132  1.9193  0.9387  1.3181
 8583SOL    HW237212   1.222   0.287   4.994 -3.7225 -1.7881 -0.7498
 8584SOL     OW37213   1.776   2.758  15.853 -0.3031 -0.0746  0.1313
 8584SOL    HW137214   1.872   2.763  15.856 -0.3929  2.4749 -1.3472
 8584SOL    HW237215   1.782   2.666  15.828  1.6969  0.0281  0.2425
 8585SOL     OW37216   2.778   2.848   2.924 -0.0386  0.9309 -0.0526
 8585SOL    HW137217   2.800   2.829   3.015  0.0421 -1.8722 -0.6558
 8585SOL    HW237218   2.686   2.873   2.927 -0.6139 -1.1167 -1.3572
 8586SOL     OW37219   2.921   1.604   7.189  0.0523 -0.5501  0.1255
 8586SOL    HW137220   2.930   1.510   7.173  0.6047 -0.6256  0.8888
 8586SOL    HW237221   2.832   1.612   7.223  0.3446 -1.4794  1.0880
 8587SOL     OW37222   4.260   1.293   2.189  0.2662  0.0397  0.0838
 8587SOL    HW137223   4.247   1.326   2.100  0.6747 -2.7209 -1.0088
 8587SOL    HW237224   4.253   1.369   2.246  0.9382 -0.0814  0.3190
 8588SOL     OW37225   3.068   1.219   0.963  0.3835  0.1832  0.1597
 8588SOL    HW137226   3.081   1.254   1.051 -3.2204  1.7913  0.0553
 8588SOL    HW237227   3.127   1.147   0.982  0.3022  0.2263  0.5782
 8589SOL     OW37228   1.041   3.907   7.959 -0.3088  0.0253  0.1115
 8589SOL    HW137229   0.968   3.957   7.921  0.3400 -1.1168 -2.6636
 8589SOL    HW237230   1.107   3.974   7.976  0.0022 -1.0650  3.1538
 8590SOL     OW37231   3.354   2.896   6.814 -0.4686 -0.3363 -0.5511
 8590SOL    HW137232   3.327   2.889   6.906  1.6098 -1.1318  0.0025
 8590SOL    HW237233   3.276   2.927   6.770 -0.8918  0.3472  0.6890
 8591SOL     OW37234   1.834   0.472   2.008 -0.1802 -0.0080  0.5842
 8591SOL    HW137235   1.836   0.423   1.925  5.0317  2.0309 -0.4686
 8591SOL    HW237236   1.802   0.555   1.974  1.7512  0.3792 -0.2645
 8592SOL     OW37237   4.506   3.192   2.318  0.2560  0.5960 -0.4328
 8592SOL    HW137238   4.461   3.202   2.402 -0.2418 -0.9780 -0.5056
 8592SOL    HW237239   4.536   3.281   2.301  1.2717  0.4396  0.5246
 8593SOL     OW37240   4.247   1.642   2.817  0.1885  0.3724 -0.2054
 8593SOL    HW137241   4.262   1.646   2.912  2.5750  0.5408 -0.5804
 8593SOL    HW237242   4.281   1.727   2.790  1.7478  0.0687  0.7444
 8594SOL     OW37243   3.250   4.045   4.483  0.4037 -0.0553 -0.0311
 8594SOL    HW137244   3.283   3.959   4.458  1.4629  1.0336 -2.3931
 8594SOL    HW237245   3.156   4.032   4.472  0.3297 -2.7347  3.9287
 8595SOL     OW37246   4.417   0.673  15.405 -0.1482  0.3671 -0.6257
 8595SOL    HW137247   4.345   0.724  15.370  1.2398  1.0485 -2.4845
 8595SOL    HW237248   4.412   0.578  15.392 -0.1541  0.4969 -1.5530
 8596SOL     OW37249   4.397   2.615   3.246 -0.3436  0.2306  0.2769
 8596SOL    HW137250   4.471   2.669   3.275  0.2674 -1.1001  1.1883
 8596SOL    HW237251   4.432   2.573   3.168 -0.6578  3.1215 -1.4325
 8597SOL     OW37252   3.416   0.197  11.436  0.1266 -0.5547  0.4612
 8597SOL    HW137253   3.408   0.101  11.441 -1.4899 -0.2898  3.3401
 8597SOL    HW237254   3.484   0.203  11.369 -1.8402  1.2979 -1.3431
 8598SOL     OW37255   3.755   2.094   9.120 -0.9374  0.1306  0.4989
 8598SOL    HW137256   3.751   2.059   9.209 -1.5834 -1.4516 -0.1597
 8598SOL    HW237257   3.836   2.144   9.130  0.1407 -1.3723 -0.9052
 8599SOL     OW37258   1.797   3.646   5.586  0.3740  0.9164  0.0235
 8599SOL    HW137259   1.823   3.644   5.678 -0.4008 -0.1102  0.2120
 8599SOL    HW237260   1.797   3.553   5.564  1.5899  0.7299  0.8206
 8600SOL     OW37261   2.181   1.576   7.628  0.2133  0.2744 -0.5246
 8600SOL    HW137262   2.104   1.630   7.612  1.0137  1.5074 -0.2428
 8600SOL    HW237263   2.227   1.648   7.671 -0.4250 -0.7204  1.7831
 8601SOL     OW37264   3.976   4.303   4.940 -0.4238 -0.0003  0.2297
 8601SOL    HW137265   3.997   4.387   4.900 -3.0598  0.5762  0.0987
 8601SOL    HW237266   4.061   4.268   4.966  1.4664  3.2018 -1.6857
 8602SOL     OW37267   2.462   0.987   4.291  0.1361  0.0049  0.0697
 8602SOL    HW137268   2.534   0.977   4.352  1.1312 -0.7825 -1.2486
 8602SOL    HW237269   2.461   1.082   4.277  0.6475  0.2211  1.4804
 8603SOL     OW37270   1.887   3.681   3.776 -0.1044  0.0257  1.0614
 8603SOL    HW137271   1.881   3.755   3.836  1.8324  0.4520  0.7268
 8603SOL    HW237272   1.882   3.723   3.690  1.7143 -0.0094  0.9275
 8604SOL     OW37273   4.288   3.268  15.482  0.1225 -0.1209  0.5502
 8604SOL    HW137274   4.381   3.277  15.461 -0.3032  0.8044 -1.0013
 8604SOL    HW237275   4.293   3.265  15.577 -0.8249 -1.2980  0.5631
 8605SOL     OW37276   3.969   1.522   3.500  0.1332 -0.0193  0.3992
 8605SOL    HW137277   3.972   1.566   3.585 -1.0493  0.2973  0.2707
 8605SOL    HW237278   3.887   1.476   3.516 -1.0743  1.7339 -0.7444
 8606SOL     OW37279   0.501   0.589   6.981  0.2067  0.0963 -0.3290
 8606SOL    HW137280   0.452   0.508   6.996  0.9319 -0.8182 -2.9730
 8606SOL    HW237281   0.460   0.653   7.040  1.4861 -0.6366  1.3572
 8607SOL     OW37282   4.651   4.634   9.661 -0.0051 -0.3913 -0.6569
 8607SOL    HW137283   4.716   4.704   9.651 -2.1806  1.8127  0.7043
 8607SOL    HW237284   4.672   4.564   9.598  0.6873 -0.5462 -0.2562
 8608SOL     OW37285   0.818   0.618   1.554  0.6068  0.0108 -0.4477
 8608SOL    HW137286   0.820   0.710   1.578  1.5906 -0.2423  0.4257
 8608SOL    HW237287   0.844   0.582   1.639  1.3114  2.7560  0.4831
 8609SOL     OW37288   2.596   3.552   5.568  0.5894 -0.0826 -0.1230
 8609SOL    HW137289   2.608   3.470   5.520 -0.0412 -0.3802  0.2336
 8609SOL    HW237290   2.684   3.577   5.596  0.0383 -1.0076  2.5294
 8610SOL     OW37291   2.887   1.068   4.620 -0.2389  0.1807  0.0726
 8610SOL    HW137292   2.909   0.999   4.683  1.1146  1.4113  0.9353
 8610SOL    HW237293   2.973   1.103   4.598 -0.2218 -0.0892 -0.2907
 8611SOL     OW37294   1.446   4.426   7.417 -0.1681  0.6172  0.3420
 8611SOL    HW137295   1.356   4.457   7.403  0.0499  0.8952 -0.4550
 8611SOL    HW237296   1.455   4.466   7.503 -0.1800  0.2522  0.5115
 8612SOL     OW37297   4.446   3.480   5.255 -0.2200  0.6526 -0.2193
 8612SOL    HW137298   4.540   3.463   5.259 -0.2519  0.6319  0.3228
 8612SOL    HW237299   4.413   3.448   5.338  0.9153  1.0271  0.3810
 8613SOL     OW37300   1.341   3.217   6.980 -0.1935 -0.0065  0.1781
 8613SOL    HW137301   1.248   3.213   7.004 -0.2402 -2.1458 -0.3722
 8613SOL    HW237302   1.378   3.290   7.030 -1.8735 -1.1167  3.0317
 8614SOL     OW37303   0.692   2.350   2.984  0.1154  0.6000  0.4233
 8614SOL    HW137304   0.709   2.286   2.916 -2.1471  0.9958 -0.5211
 8614SOL    HW237305   0.647   2.294   3.047 -0.0259 -0.9049 -1.0331
 8615SOL     OW37306   1.802   2.894   2.753  0.3719 -0.0030  0.0792
 8615SOL    HW137307   1.840   2.967   2.705  0.7464 -0.6836 -0.6583
 8615SOL    HW237308   1.730   2.871   2.694 -0.6287 -0.5787  1.5297
 8616SOL     OW37309   3.381   3.655   4.354  0.3273 -0.5847  0.3366
 8616SOL    HW137310   3.386   3.597   4.431 -2.1106 -2.1720 -0.7000
 8616SOL    HW237311   3.472   3.682   4.346  0.2848 -0.0016  1.8011
 8617SOL     OW37312   1.933   2.801   4.459  0.0451 -0.0985 -0.1261
 8617SOL    HW137313   1.976   2.886   4.458 -1.5018  0.6754  0.4752
 8617SOL    HW237314   1.974   2.761   4.536 -0.1310  0.8690  0.4615
 8618SOL     OW37315   1.082   1.940   6.169  0.3499 -0.2529 -0.0310
 8618SOL    HW137316   1.106   2.031   6.151 -1.4151 -0.2236 -2.3427
 8618SOL    HW237317   1.027   1.961   6.244  0.6654  2.0873 -0.4508
 8619SOL     OW37318   3.764   3.512   2.896  0.0437  0.4242  0.2180
 8619SOL    HW137319   3.744   3.483   2.807  0.9805  1.9090 -0.4708
 8619SOL    HW237320   3.807   3.432   2.926  2.3166  0.8725 -1.8112
 8620SOL     OW37321   3.157   3.993  16.507 -0.2321 -0.0094  0.4664
 8620SOL    HW137322   3.217   3.929  16.546 -0.8815 -0.1102  1.2862
 8620SOL    HW237323   3.091   3.938  16.464 -0.0418 -1.5297  2.1147
 8621SOL     OW37324   1.280   2.629   9.798  0.9580  0.0349 -0.5500
 8621SOL    HW137325   1.250   2.690   9.731  0.7937 -0.2088 -0.6953
 8621SOL    HW237326   1.225   2.656   9.871  0.8483  1.5300 -1.1778
 8622SOL     OW37327   2.247   0.055  16.806 -0.3122  0.3144 -0.0853
 8622SOL    HW137328   2.330   0.008  16.794 -0.6050 -0.0048 -0.8277
 8622SOL    HW237329   2.253   0.124  16.740  0.3368 -1.3982 -1.8364
 8623SOL     OW37330   4.030   2.429   7.069  0.0660 -0.8436 -0.0409
 8623SOL    HW137331   4.019   2.426   7.164 -1.5295  0.0824 -0.2027
 8623SOL    HW237332   4.027   2.335   7.048 -3.1014 -1.2225  2.0694
 8624SOL     OW37333   3.068   3.355   2.125  0.0727 -0.2887 -0.4568
 8624SOL    HW137334   3.039   3.287   2.185 -2.4189  1.7721  0.6660
 8624SOL    HW237335   3.004   3.424   2.142 -1.8893 -2.3955  0.5959
 8625SOL     OW37336   3.125   3.508   6.342 -0.8233 -0.4556 -0.2901
 8625SOL    HW137337   3.170   3.450   6.280  2.6739  1.0309  0.8413
 8625SOL    HW237338   3.114   3.585   6.287 -1.9292 -1.5970 -1.6612
 8626SOL     OW37339   0.989   0.294   0.288 -0.0977 -0.7443 -0.3758
 8626SOL    HW137340   1.036   0.322   0.366  0.6985 -0.0662 -1.0923
 8626SOL    HW237341   0.899   0.313   0.315 -0.3436 -0.0278 -1.6950
 8627SOL     OW37342   4.157   0.273  10.055 -0.0975  0.4455 -0.3420
 8627SOL    HW137343   4.172   0.199  10.113  1.1055  0.8755 -0.0995
 8627SOL    HW237344   4.247   0.293  10.029 -0.2258  2.4336  0.7484
 8628SOL     OW37345   0.980   2.431   0.942  0.0900 -0.3244 -0.5386
 8628SOL    HW137346   0.954   2.515   0.980 -0.1390  0.0579 -1.5374
 8628SOL    HW237347   1.032   2.393   1.013 -0.1960  3.6919  1.7821
 8629SOL     OW37348   0.963   0.358  12.046  0.3508  0.1578 -0.4840
 8629SOL    HW137349   0.940   0.403  12.127  2.6474  0.3654  0.0647
 8629SOL    HW237350   1.016   0.423  12.000  0.7772  0.0140 -0.1932
 8630SOL     OW37351   1.476   2.091   2.045  0.4607  0.5214 -0.0490
 8630SOL    HW137352   1.434   2.148   1.981  0.4413  0.4836 -0.0703
 8630SOL    HW237353   1.410   2.022   2.057  0.0207  0.9201 -0.1679
 8631SOL     OW37354   0.385   3.024   5.847 -0.1638  0.1984  0.2829
 8631SOL    HW137355   0.324   3.098   5.852 -0.7583 -0.3498  1.1165
 8631SOL    HW237356   0.455   3.050   5.906  2.1702 -0.3911 -2.2268
 8632SOL     OW37357   3.495   4.394   6.636 -0.2338  0.1616 -0.1198
 8632SOL    HW137358   3.565   4.330   6.628 -1.0405 -0.4089 -2.5847
 8632SOL    HW237359   3.485   4.408   6.730  1.0862  0.9630 -0.0913
 8633SOL     OW37360   0.023   2.716  16.070 -0.0115 -0.1225  0.1572
 8633SOL    HW137361   0.031   2.741  15.978 -0.2307 -0.5512  0.0246
 8633SOL    HW237362   4.663   2.765  16.084  0.5885  0.2758  2.2754
 8634SOL     OW37363   1.205   2.335   7.999  0.1584 -0.1604 -0.1661
 8634SOL    HW137364   1.140   2.279   7.957 -0.2728 -0.2573  0.6249
 8634SOL    HW237365   1.183   2.318   8.091  1.1839  0.4731  0.1951
 8635SOL     OW37366   2.209   2.549   3.587  0.2204  0.4916 -0.3762
 8635SOL    HW137367   2.283   2.559   3.647 -0.4911 -0.8516  0.7331
 8635SOL    HW237368   2.245   2.475   3.538 -0.3457 -1.0431  1.4938
 8636SOL     OW37369   2.482   3.204   6.123  0.1611 -0.6093 -0.0475
 8636SOL    HW137370   2.425   3.193   6.047 -0.4179 -0.7728  0.4094
 8636SOL    HW237371   2.532   3.283   6.102  0.8907 -1.4288 -1.3582
 8637SOL     OW37372   3.457   4.327   0.599  0.3075  0.2102 -0.3439
 8637SOL    HW137373   3.444   4.278   0.681 -0.1636 -1.7590 -1.5963
 8637SOL    HW237374   3.505   4.259   0.552  0.4986 -0.3411  0.6485
 8638SOL     OW37375   1.172   4.605  13.915 -0.1501 -0.3735 -0.3431
 8638SOL    HW137376   1.170   4.543  13.988  1.8245 -0.0358  0.0114
 8638SOL    HW237377   1.151   4.539  13.849  0.2232 -2.1636  1.3258
 8639SOL     OW37378   3.404   1.345   3.478 -0.2722  0.1418  0.5681
 8639SOL    HW137379   3.352   1.272   3.513 -1.7303  0.7631 -0.2971
 8639SOL    HW237380   3.487   1.306   3.452 -0.7372  0.3005 -1.1324
 8640SOL     OW37381   0.580   2.622   8.905  0.5924  0.9188 -0.7247
 8640SOL    HW137382   0.503   2.669   8.871 -0.5612 -0.5093 -0.0471
 8640SOL    HW237383   0.652   2.652   8.849 -0.3333 -0.2885 -2.5626
 8641SOL     OW37384   2.393   2.971   6.514 -0.0191 -0.2524  0.5275
 8641SOL    HW137385   2.303   2.939   6.521 -0.3937  0.0044 -2.9199
 8641SOL    HW237386   2.438   2.903   6.564 -0.2290  0.5100  1.7511
 8642SOL     OW37387   2.014   1.957   8.855  0.3442 -0.2290  0.5962
 8642SOL    HW137388   2.032   1.988   8.766  0.6878 -0.2472  0.6569
 8642SOL    HW237389   1.919   1.967   8.851  0.4406  0.7972  0.7006
 8643SOL     OW37390   4.524   1.998   5.085 -0.4563 -0.2370  0.0162
 8643SOL    HW137391   4.436   2.027   5.109 -0.6679  0.3000 -1.4261
 8643SOL    HW237392   4.573   2.045   5.153 -0.9511 -1.0324  0.9200
 8644SOL     OW37393   1.426   3.770   1.687  0.4036 -0.5127  0.2607
 8644SOL    HW137394   1.409   3.771   1.782  0.5395  1.1032  0.2614
 8644SOL    HW237395   1.376   3.849   1.666  2.1718  0.6333  0.3974
 8645SOL     OW37396   2.929   3.492  10.945 -0.0089 -0.0564 -0.1568
 8645SOL    HW137397   2.923   3.410  10.994 -2.2234  0.7020  0.8657
 8645SOL    HW237398   3.011   3.533  10.970  0.2663 -0.9728  0.4495
 8646SOL     OW37399   2.577   3.869   4.410 -0.2554 -0.3340  0.0840
 8646SOL    HW137400   2.575   3.815   4.489  1.3828 -1.3634 -0.5845
 8646SOL    HW237401   2.661   3.836   4.378 -0.2468 -0.4944  0.2709
 8647SOL     OW37402   4.042   2.791   2.831 -0.3830 -0.3219  0.3934
 8647SOL    HW137403   3.955   2.762   2.804 -0.0649 -1.4268  0.5548
 8647SOL    HW237404   4.031   2.760   2.921 -4.4521 -0.4455 -0.1380
 8648SOL     OW37405   2.016   0.636  13.627 -0.3071 -0.4458 -0.4012
 8648SOL    HW137406   1.993   0.552  13.588 -1.0353  0.4796 -1.9778
 8648SOL    HW237407   2.013   0.703  13.558  2.3245  1.5114  1.3714
 8649SOL     OW37408   0.116   2.339   3.180 -0.7103 -0.3028  0.2039
 8649SOL    HW137409   0.023   2.342   3.158 -0.8200  1.6349  0.9360
 8649SOL    HW237410   0.123   2.400   3.253 -3.0804  1.2389 -0.8702
 8650SOL     OW37411   2.417   3.256   9.895  0.1494  0.1747 -1.0813
 8650SOL    HW137412   2.426   3.334   9.842  0.2847  1.5075  0.9117
 8650SOL    HW237413   2.449   3.295   9.976  0.3574 -2.0678 -0.0860
 8651SOL     OW37414   1.077   1.215  14.436 -0.1370 -0.0540  0.0055
 8651SOL    HW137415   1.139   1.188  14.369 -0.5983 -1.6264  0.2266
 8651SOL    HW237416   1.055   1.128  14.470  1.5368  0.6337  2.8622
 8652SOL     OW37417   0.527   3.728   5.579  0.8301 -0.8682  0.1133
 8652SOL    HW137418   0.572   3.703   5.499  0.7759 -0.6336  0.0098
 8652SOL    HW237419   0.555   3.659   5.640 -0.0408 -0.9810  0.3871
 8653SOL     OW37420   3.865   1.090   7.094 -0.2688 -0.4705  1.0110
 8653SOL    HW137421   3.779   1.089   7.134 -0.1452 -0.0546  1.2856
 8653SOL    HW237422   3.933   1.109   7.158 -0.4072  2.7838  0.1983
 8654SOL     OW37423   4.412   1.040   8.319 -0.4912  0.2628  0.4051
 8654SOL    HW137424   4.348   1.032   8.389 -2.3485  0.1712 -1.2988
 8654SOL    HW237425   4.449   1.128   8.331 -0.2834  0.4931 -1.9387
 8655SOL     OW37426   2.034   0.827   9.700  0.4973 -0.1004 -0.0153
 8655SOL    HW137427   2.089   0.823   9.622  0.2907  0.0285 -0.1661
 8655SOL    HW237428   1.988   0.910   9.689  1.6603  0.7265  1.3960
 8656SOL     OW37429   4.353   4.675  12.956 -0.2372  0.4174  0.4891
 8656SOL    HW137430   4.382   4.595  12.913  2.7022  1.5374  0.3628
 8656SOL    HW237431   4.310   4.645  13.035  0.6593 -0.9829  0.4386
 8657SOL     OW37432   2.627   2.919  13.178  0.0330 -0.3866 -0.5547
 8657SOL    HW137433   2.677   2.915  13.260  0.2058 -0.8052 -0.6762
 8657SOL    HW237434   2.600   2.828  13.163 -1.1034 -0.2609  0.7300
 8658SOL     OW37435   0.990   1.556   7.718  0.0237  0.0113  0.3041
 8658SOL    HW137436   0.897   1.580   7.721 -0.3744 -1.5770  0.6137
 8658SOL    HW237437   0.990   1.469   7.679  0.1219 -0.3861  1.1932
 8659SOL     OW37438   3.110   2.997   8.039  0.1004  0.5224  0.5150
 8659SOL    HW137439   3.204   2.991   8.018 -0.2100 -1.2134 -0.4304
 8659SOL    HW237440   3.068   3.016   7.955 -1.1965  1.4777  1.3946
 8660SOL     OW37441   1.760   2.273   8.673 -0.0594 -0.3413  0.2418
 8660SOL    HW137442   1.845   2.315   8.683  0.2154 -1.3515  2.2045
 8660SOL    HW237443   1.701   2.348   8.676  0.3664  0.1168 -2.8312
 8661SOL     OW37444   2.982   4.339  13.085 -0.0868  0.6603  0.4088
 8661SOL    HW137445   3.057   4.362  13.141  0.9211  0.2384 -0.7645
 8661SOL    HW237446   3.005   4.270  13.022 -0.9754  1.4829 -0.8016
 8662SOL     OW37447   1.626   0.677   7.705 -0.0047  0.3118  0.0553
 8662SOL    HW137448   1.545   0.678   7.654 -0.9201  0.1156  1.5194
 8662SOL    HW237449   1.613   0.748   7.768  1.5738  0.2642  0.4407
 8663SOL     OW37450   2.847   4.477   7.325 -0.0934  0.2031 -0.0118
 8663SOL    HW137451   2.933   4.472   7.366  0.0775 -0.6735 -0.4954
 8663SOL    HW237452   2.862   4.551   7.266  2.6350 -0.7194 -0.4651
 8664SOL     OW37453   2.478   1.674   8.031  0.0462  0.3553 -0.2361
 8664SOL    HW137454   2.474   1.653   8.125  1.4339  3.1448  0.4418
 8664SOL    HW237455   2.569   1.645   8.023 -0.9148 -2.8746  0.2460
 8665SOL     OW37456   4.566   1.642   7.964  0.1754 -0.2402 -0.0073
 8665SOL    HW137457   4.640   1.640   7.905 -0.1792  3.0076 -0.5565
 8665SOL    HW237458   4.506   1.598   7.903 -0.3064  1.7036 -0.9260
 8666SOL     OW37459   0.938   4.541   2.024 -0.2836 -0.3857  0.2004
 8666SOL    HW137460   1.023   4.581   2.007 -1.2349  1.4813 -0.1000
 8666SOL    HW237461   0.916   4.576   2.111 -1.7400  0.6586 -0.5880
 8667SOL     OW37462   4.438   4.257   6.471  0.4138 -0.2148 -0.1492
 8667SOL    HW137463   4.395   4.332   6.428 -0.2485  0.1122  1.0972
 8667SOL    HW237464   4.375   4.186   6.457  0.4269  0.2701 -2.6625
 8668SOL     OW37465   4.380   1.995   4.058 -0.4907  0.5474  0.1972
 8668SOL    HW137466   4.411   1.948   4.135 -1.6141  0.2053  0.4435
 8668SOL    HW237467   4.430   2.073   4.038 -0.1178 -0.0966 -1.3980
 8669SOL     OW37468   0.753   3.500   7.450  0.2820 -0.5696  0.2277
 8669SOL    HW137469   0.835   3.452   7.465 -0.1600 -0.5196  2.8134
 8669SOL    HW237470   0.706   3.504   7.533  0.9695  3.9434  0.3594
 8670SOL     OW37471   1.818   0.926   9.378  0.2879  0.0272  0.5399
 8670SOL    HW137472   1.908   0.892   9.382  0.6237  0.7093 -1.1043
 8670SOL    HW237473   1.831   1.016   9.408 -0.5638  0.8760 -1.6289
 8671SOL     OW37474   2.338   3.290   5.513 -0.2231  0.2121 -0.5165
 8671SOL    HW137475   2.349   3.222   5.446  0.8740 -0.0735 -0.0525
 8671SOL    HW237476   2.254   3.329   5.488  0.6582  0.1219 -3.6253
 8672SOL     OW37477   3.431   0.141   4.407 -0.1119  0.5112  0.1638
 8672SOL    HW137478   3.422   0.217   4.349  1.0930  1.6106  1.4299
 8672SOL    HW237479   3.357   0.088   4.377 -0.0933  1.3129 -1.2772
 8673SOL     OW37480   4.285   0.458  10.491 -0.2442 -0.0835 -0.7322
 8673SOL    HW137481   4.240   0.542  10.496  0.7220  0.2871  1.5794
 8673SOL    HW237482   4.374   0.485  10.513 -0.5480 -1.0546  1.7956
 8674SOL     OW37483   2.416   3.764   5.595 -0.5280 -0.6514 -0.1939
 8674SOL    HW137484   2.462   3.682   5.579  1.4689  0.4497  0.0124
 8674SOL    HW237485   2.331   3.719   5.602 -1.2310  0.9481  1.4486
 8675SOL     OW37486   1.311   1.576   3.118  0.2042 -0.5170  0.2194
 8675SOL    HW137487   1.377   1.630   3.073  1.0425 -1.1203  0.7339
 8675SOL    HW237488   1.240   1.569   3.053  0.7356 -0.5908 -0.3576
 8676SOL     OW37489   2.034   1.252   6.319 -0.7153 -0.5106  0.4265
 8676SOL    HW137490   2.016   1.181   6.381  0.1589 -2.0676 -1.1039
 8676SOL    HW237491   2.062   1.324   6.375 -3.6595  0.9896 -0.0641
 8677SOL     OW37492   1.235   1.893   5.289  0.3296 -0.6845 -0.0869
 8677SOL    HW137493   1.312   1.835   5.289  0.6694 -0.2460  1.1384
 8677SOL    HW237494   1.194   1.872   5.373 -0.8858  2.5347  0.1164
 8678SOL     OW37495   0.762   0.109  15.058 -0.5641  0.3178  0.1380
 8678SOL    HW137496   0.799   0.197  15.067  0.5580  0.0852 -2.2070
 8678SOL    HW237497   0.796   0.086  14.971 -4.3432 -1.8153 -0.8120
 8679SOL     OW37498   2.421   2.524  10.976  0.6082  0.0004  0.5599
 8679SOL    HW137499   2.336   2.531  11.020  0.5896  0.3369  0.4710
 8679SOL    HW237500   2.424   2.607  10.928  1.9692  0.3749  1.3246
 8680SOL     OW37501   4.619   0.702   2.899 -0.4122 -0.1435 -0.0092
 8680SOL    HW137502   4.659   0.623   2.863 -0.4180 -0.2538  0.2247
 8680SOL    HW237503   4.693   0.722   2.957 -0.8669 -1.9293  1.1609
 8681SOL     OW37504   0.347   1.716   2.044  0.0983  0.2564  0.3268
 8681SOL    HW137505   0.425   1.755   2.005  0.1989 -1.8402 -1.5532
 8681SOL    HW237506   0.391   1.665   2.112 -0.3330  0.7131  0.9439
 8682SOL     OW37507   1.194   1.218  14.983 -0.1976 -0.5805  0.6480
 8682SOL    HW137508   1.136   1.150  14.947 -0.7094 -0.1093  0.5889
 8682SOL    HW237509   1.146   1.297  14.960 -2.1579 -2.7037 -2.6000
 8683SOL     OW37510   1.788   2.875  10.277  0.2064 -0.0426 -0.1058
 8683SOL    HW137511   1.752   2.812  10.339  0.4203 -0.8982 -0.8578
 8683SOL    HW237512   1.867   2.906  10.321  0.0723 -1.5627  1.2096
 8684SOL     OW37513   4.114   0.475   4.947  0.5905 -0.4567  0.3160
 8684SOL    HW137514   4.119   0.455   5.040  2.7898 -3.5198 -0.4374
 8684SOL    HW237515   4.051   0.547   4.945  1.5245  0.3701  0.7416
 8685SOL     OW37516   0.190   0.715   6.775 -0.4816  1.1380  0.0534
 8685SOL    HW137517   0.193   0.619   6.776 -2.0365  1.0968 -0.1493
 8685SOL    HW237518   0.174   0.730   6.868  0.1306  0.1484  0.3266
 8686SOL     OW37519   0.864   3.926   5.557  1.2638  0.1486  0.0876
 8686SOL    HW137520   0.868   3.831   5.570  1.3437  0.0041 -0.9684
 8686SOL    HW237521   0.896   3.936   5.468  0.1950 -0.0908 -0.3272
 8687SOL     OW37522   4.213   4.592   5.536 -0.1944  0.1867  0.5961
 8687SOL    HW137523   4.179   4.655   5.599 -2.2528  1.1069 -1.4357
 8687SOL    HW237524   4.145   4.612   5.472 -0.6941 -0.6316  0.8729
 8688SOL     OW37525   0.529   2.646   6.176  0.2080  0.0248  0.4559
 8688SOL    HW137526   0.497   2.704   6.107  0.4237 -0.6842 -0.2364
 8688SOL    HW237527   0.474   2.673   6.250  0.6841 -0.1352  0.8683
 8689SOL     OW37528   1.681   1.181   6.508 -0.4845 -0.2387  0.4890
 8689SOL    HW137529   1.661   1.092   6.538  0.5664 -0.5657  0.2184
 8689SOL    HW237530   1.603   1.229   6.534  0.5506  2.1726 -0.9350
 8690SOL     OW37531   4.348   3.740   9.234  0.5909  0.4768 -0.1354
 8690SOL    HW137532   4.374   3.741   9.142 -0.8705 -2.2080 -0.5708
 8690SOL    HW237533   4.262   3.698   9.243  0.1396  0.8253 -2.9212
 8691SOL     OW37534   0.611   1.273   7.833  0.9375 -0.2951  0.2535
 8691SOL    HW137535   0.600   1.367   7.844  2.7678 -0.5311  3.9627
 8691SOL    HW237536   0.569   1.228   7.906 -1.2142  1.0500 -0.1614
 8692SOL     OW37537   0.672   0.266   0.992  0.1115  0.0890 -0.0630
 8692SOL    HW137538   0.632   0.348   1.018  0.8643  0.4442 -0.0359
 8692SOL    HW237539   0.587   0.229   0.968  0.0943 -0.0045  0.1355
 8693SOL     OW37540   2.760   4.302  16.246 -0.0963 -0.1589 -0.1114
 8693SOL    HW137541   2.752   4.278  16.338  1.3505 -0.6642 -0.1077
 8693SOL    HW237542   2.735   4.215  16.214 -0.5417  0.3829 -1.2456
 8694SOL     OW37543   3.111   2.238   5.070  0.0049  0.1878  0.0064
 8694SOL    HW137544   3.160   2.225   5.152  1.7989  2.0348 -0.7688
 8694SOL    HW237545   3.169   2.298   5.024  0.4783 -1.2934 -1.3124
 8695SOL     OW37546   3.199   2.068   6.972 -0.0302  0.2095 -0.8168
 8695SOL    HW137547   3.221   2.141   7.030 -1.3413 -0.1244  0.1121
 8695SOL    HW237548   3.119   2.037   7.015 -0.3499  0.6258 -1.1163
 8696SOL     OW37549   3.407   2.887   8.308  0.2561  0.5409  0.2363
 8696SOL    HW137550   3.440   2.801   8.332 -2.0215 -0.8771 -1.6293
 8696SOL    HW237551   3.363   2.923   8.385  3.1573  2.1488  1.1413
 8697SOL     OW37552   0.368   2.886   5.374  0.6588  0.5063  0.5349
 8697SOL    HW137553   0.463   2.899   5.376  0.8968 -1.1431 -0.2823
 8697SOL    HW237554   0.348   2.867   5.282  1.0009  0.6318  0.4348
 8698SOL     OW37555   0.632   1.019   6.020 -0.2159  0.1511  0.0577
 8698SOL    HW137556   0.707   0.960   6.014 -2.4496 -2.6682 -0.2563
 8698SOL    HW237557   0.595   0.987   6.103  1.4106  0.0741  0.7425
 8699SOL     OW37558   4.575   4.523   2.099  0.5270 -0.2005  0.1560
 8699SOL    HW137559   4.579   4.619   2.102 -1.0048 -0.0852 -1.6220
 8699SOL    HW237560   4.628   4.502   2.023 -0.7443 -1.0255 -0.5084
 8700SOL     OW37561   4.339   3.007  14.164 -0.5836 -0.1201 -0.3946
 8700SOL    HW137562   4.369   3.059  14.239 -2.5926  0.9451 -0.3413
 8700SOL    HW237563   4.424   2.982  14.127 -0.2964 -1.7058  1.2949
 8701SOL     OW37564   1.068   3.486   3.300  0.6764  0.1222 -0.2427
 8701SOL    HW137565   1.060   3.536   3.219 -1.1073 -0.5716 -0.4976
 8701SOL    HW237566   1.098   3.401   3.268  2.3092  0.6121  0.0371
 8702SOL     OW37567   0.291   1.191   4.243 -0.0309  0.3635 -0.0109
 8702SOL    HW137568   0.333   1.107   4.225 -0.6773 -0.1803  1.0149
 8702SOL    HW237569   0.259   1.173   4.331  0.9239  2.7823  0.8365
 8703SOL     OW37570   0.414   2.328   8.658  0.0414  0.1568 -0.5679
 8703SOL    HW137571   0.349   2.298   8.722 -0.3773  0.3392 -0.9068
 8703SOL    HW237572   0.380   2.411   8.625 -3.9579 -0.9239  0.7676
 8704SOL     OW37573   1.341   1.034   1.767  0.1622  0.0861  0.1254
 8704SOL    HW137574   1.280   0.963   1.745  0.3755  0.2130 -0.8790
 8704SOL    HW237575   1.420   0.979   1.769  1.1283  1.4475 -0.5815
 8705SOL     OW37576   1.963   2.471   4.563 -0.2723 -0.6833  0.0011
 8705SOL    HW137577   2.054   2.452   4.587 -0.8182 -1.7189  1.2594
 8705SOL    HW237578   1.927   2.523   4.635 -1.9384  1.3826 -2.3561
 8706SOL     OW37579   1.378   0.917  14.776  0.4930  0.2606  0.0152
 8706SOL    HW137580   1.463   0.885  14.748 -0.8469 -2.4049 -0.9695
 8706SOL    HW237581   1.395   0.999  14.823 -0.3562 -1.1564  2.8342
 8707SOL     OW37582   3.685   3.009  13.067 -0.0551 -0.3251  0.5025
 8707SOL    HW137583   3.615   3.032  13.127 -0.4452  0.1648 -0.1440
 8707SOL    HW237584   3.765   3.047  13.104 -1.2953 -0.5907  3.4355
 8708SOL     OW37585   0.900   4.277  11.106  0.7865  0.3167 -0.4125
 8708SOL    HW137586   0.888   4.264  11.200  0.2038  2.9778 -0.1016
 8708SOL    HW237587   0.964   4.348  11.111  0.0756  0.9061  0.3649
 8709SOL     OW37588   3.550   2.507   4.425  0.2416 -0.1160  0.0367
 8709SOL    HW137589   3.597   2.465   4.497 -1.4706 -1.5343  0.3269
 8709SOL    HW237590   3.499   2.436   4.387  0.3086 -0.7085  1.0616
 8710SOL     OW37591   3.007   3.540  13.130  0.1075 -0.6288 -0.3363
 8710SOL    HW137592   2.965   3.609  13.078  0.4747  0.3959  0.7455
 8710SOL    HW237593   3.056   3.598  13.188 -1.0887  0.9929 -0.9168
 8711SOL     OW37594   3.545   0.745  11.202 -0.4066 -0.4912  0.4082
 8711SOL    HW137595   3.486   0.769  11.130  1.1339  0.0233 -0.6822
 8711SOL    HW237596   3.517   0.656  11.226 -0.3147 -0.2832  1.2860
 8712SOL     OW37597   2.337   2.418  12.259 -0.4761 -0.5750  0.1355
 8712SOL    HW137598   2.377   2.502  12.282  0.5481 -2.0985  3.8472
 8712SOL    HW237599   2.414   2.361  12.258  0.1953  0.2935  1.7916
 8713SOL     OW37600   3.353   4.203   6.034  0.2858 -0.3840  0.5233
 8713SOL    HW137601   3.370   4.132   6.096  0.9224  0.7370  1.6201
 8713SOL    HW237602   3.258   4.197   6.025  0.0366  0.7385  2.4522
 8714SOL     OW37603   0.194   3.835   6.762  0.1453  0.5910 -0.6724
 8714SOL    HW137604   0.107   3.854   6.798 -1.1356  2.1089 -4.5003
 8714SOL    HW237605   0.180   3.769   6.695 -1.0395  0.1960 -0.0304
 8715SOL     OW37606   4.566   2.404   5.158  0.3378 -0.1821  0.0667
 8715SOL    HW137607   4.512   2.361   5.224  0.2898 -1.0747 -0.5476
 8715SOL    HW237608   4.654   2.366   5.160  1.1023  1.4600 -2.5962
 8716SOL     OW37609   3.226   3.380  15.209 -0.0792  0.4363  0.4156
 8716SOL    HW137610   3.235   3.321  15.134  0.9710 -1.3144  1.9233
 8716SOL    HW237611   3.167   3.444  15.169  1.1050  0.4711 -1.2788
 8717SOL     OW37612   4.203   0.160   8.497  0.1313  0.9144  0.0297
 8717SOL    HW137613   4.199   0.201   8.583 -0.8978  1.2096 -0.1505
 8717SOL    HW237614   4.239   0.073   8.516  2.9440  1.9970 -0.4176
 8718SOL     OW37615   3.567   1.164  12.286  0.3594 -1.1085  0.3143
 8718SOL    HW137616   3.520   1.081  12.288 -0.4731 -0.6412  0.0062
 8718SOL    HW237617   3.583   1.174  12.380 -2.5665  3.0776  0.3248
 8719SOL     OW37618   2.447   0.285  13.621  0.2723  0.2629 -0.2711
 8719SOL    HW137619   2.356   0.255  13.620  0.5477 -0.6814  2.8601
 8719SOL    HW237620   2.480   0.200  13.590  0.5120  0.2419  0.0479
 8720SOL     OW37621   2.883   3.232   7.894  0.2329  0.1798  0.1388
 8720SOL    HW137622   2.953   3.296   7.908  0.2083  0.7093 -2.0045
 8720SOL    HW237623   2.925   3.168   7.836  2.1280  0.2232  1.4901
 8721SOL     OW37624   0.414   2.930   1.900  0.1315  1.0091 -0.2171
 8721SOL    HW137625   0.496   2.975   1.877  2.3410 -3.7488 -1.6943
 8721SOL    HW237626   0.351   2.975   1.845 -0.7376 -1.9450 -1.6124
 8722SOL     OW37627   1.848   0.346   2.987  0.7966 -0.0826  0.1879
 8722SOL    HW137628   1.937   0.310   2.990  1.5498  1.6605 -1.6671
 8722SOL    HW237629   1.853   0.420   2.927 -0.4193 -0.9767 -1.0371
 8723SOL     OW37630   0.621   1.210   4.456 -0.5082  0.2517 -0.5171
 8723SOL    HW137631   0.535   1.218   4.498  0.3035 -0.4056  1.2845
 8723SOL    HW237632   0.646   1.301   4.440 -2.1013  0.7336 -0.2907
 8724SOL     OW37633   3.599   3.487  11.467  0.2431 -0.3176 -0.0910
 8724SOL    HW137634   3.691   3.488  11.494  0.1711 -0.8789  0.1680
 8724SOL    HW237635   3.598   3.402  11.423  1.0824 -0.7130  0.6383
 8725SOL     OW37636   4.662   0.675  14.146 -0.2433 -0.3131  0.4161
 8725SOL    HW137637   4.719   0.751  14.139  2.9589 -2.6329  1.3597
 8725SOL    HW237638   4.691   0.647  14.059 -0.2233  1.0773 -0.0182
 8726SOL     OW37639   2.377   1.191   1.335  0.1626 -0.2955 -0.4829
 8726SOL    HW137640   2.466   1.156   1.335  0.1009 -0.4563  0.3017
 8726SOL    HW237641   2.347   1.128   1.400  2.2810  1.9756  2.6992
 8727SOL     OW37642   3.572   0.151   3.664 -0.9914  0.0167 -0.2400
 8727SOL    HW137643   3.484   0.125   3.637  0.2180 -1.7743 -2.4151
 8727SOL    HW237644   3.625   0.142   3.585  1.0486  2.0157  0.9164
 8728SOL     OW37645   2.379   2.215   5.555 -0.3049 -0.4508  0.4882
 8728SOL    HW137646   2.286   2.196   5.570 -0.3167  0.3879  1.4480
 8728SOL    HW237647   2.400   2.232   5.647  0.6514 -1.6805  0.4992
 8729SOL     OW37648   3.308   4.623   7.239  0.2484  0.4911 -0.0412
 8729SOL    HW137649   3.251   4.671   7.299 -1.7844  0.4990 -1.9787
 8729SOL    HW237650   3.391   4.670   7.245  0.5933  0.2326 -2.7981
 8730SOL     OW37651   1.494   0.404   2.347  0.9261  0.4928 -0.1845
 8730SOL    HW137652   1.580   0.389   2.306  0.9535 -2.3766  0.9153
 8730SOL    HW237653   1.476   0.495   2.325  2.5265  0.8013 -0.2594
 8731SOL     OW37654   4.294   2.923   1.847 -0.5254  0.0004  0.0823
 8731SOL    HW137655   4.312   2.875   1.767 -2.8114 -0.9699  0.1494
 8731SOL    HW237656   4.325   3.010   1.824  1.2192 -0.0123  2.3697
 8732SOL     OW37657   0.836   2.086  11.192  0.2860 -0.7870  0.0831
 8732SOL    HW137658   0.827   2.161  11.134 -1.1968 -0.8440  0.2569
 8732SOL    HW237659   0.749   2.075  11.230  0.8980 -0.6604  1.5539
 8733SOL     OW37660   4.559   0.918   4.351  0.1253 -0.1394 -0.2837
 8733SOL    HW137661   4.536   0.943   4.261 -1.6009 -1.8305 -0.3254
 8733SOL    HW237662   4.525   0.989   4.405  1.1495 -1.4706  2.1333
 8734SOL     OW37663   0.319   3.692   2.494 -0.0652 -0.8624  0.0861
 8734SOL    HW137664   0.302   3.598   2.499 -0.2305 -0.7021  2.2598
 8734SOL    HW237665   0.414   3.688   2.505 -0.0820 -1.0032  0.1749
 8735SOL     OW37666   4.643   1.930   8.008  0.3011 -0.1298 -0.0886
 8735SOL    HW137667   4.684   1.953   7.925 -1.1289  1.1429 -0.4315
 8735SOL    HW237668   4.591   1.851   7.991  1.9936 -1.1530 -0.4910
 8736SOL     OW37669   2.467   3.129   5.339  0.3757 -0.0012 -0.0740
 8736SOL    HW137670   2.477   3.177   5.257 -1.5176 -0.6090 -0.6666
 8736SOL    HW237671   2.388   3.077   5.324 -0.1932  0.6416  0.6740
 8737SOL     OW37672   0.246   3.353   8.597  0.3880  0.2288 -0.1882
 8737SOL    HW137673   0.278   3.441   8.621  0.7489  0.7630 -2.6446
 8737SOL    HW237674   0.273   3.302   8.673  1.6298 -0.1249 -0.8679
 8738SOL     OW37675   0.024   1.313  10.834 -0.2867  0.7274  0.3683
 8738SOL    HW137676   4.665   1.336  10.883  0.7262  0.8407  1.9811
 8738SOL    HW237677   0.059   1.402  10.827 -1.2211  1.1451  0.9846
 8739SOL     OW37678   4.016   3.916  15.854 -0.1428 -0.3027  0.2754
 8739SOL    HW137679   3.987   3.996  15.897 -0.5941 -0.2385 -0.1565
 8739SOL    HW237680   3.972   3.911  15.770 -0.2548 -1.4437  0.4060
 8740SOL     OW37681   4.038   2.990   7.089  0.0623  0.1528  0.2566
 8740SOL    HW137682   4.056   2.914   7.145  1.5546 -0.5909 -1.2230
 8740SOL    HW237683   3.957   2.954   7.052 -0.8539  0.3339  2.0690
 8741SOL     OW37684   3.329   1.469   8.333 -0.1171  0.3249  0.6743
 8741SOL    HW137685   3.373   1.400   8.283 -1.7758  0.7988 -1.4337
 8741SOL    HW237686   3.241   1.459   8.296 -0.3314  2.7602  0.5361
 8742SOL     OW37687   1.038   2.456   6.316  0.2832  0.2464  0.0096
 8742SOL    HW137688   1.028   2.448   6.411  0.6954  0.7667  0.0980
 8742SOL    HW237689   0.975   2.526   6.296  2.0220  1.4798 -1.1137
 8743SOL     OW37690   3.619   1.369  10.103  0.1517 -0.0790 -0.5827
 8743SOL    HW137691   3.549   1.373  10.038  1.3539  1.3985 -1.7729
 8743SOL    HW237692   3.570   1.402  10.179  0.7315 -0.8638  0.1243
 8744SOL     OW37693   3.267   3.367   2.377  0.2527  0.8063 -0.2418
 8744SOL    HW137694   3.299   3.313   2.449  0.6348 -0.0445 -1.0589
 8744SOL    HW237695   3.323   3.342   2.304 -1.5112  1.4945 -1.8477
 8745SOL     OW37696   0.858   3.346  17.053 -0.2486  0.1148 -0.0467
 8745SOL    HW137697   0.953   3.348  17.038 -0.1688 -4.5898 -0.2261
 8745SOL    HW237698   0.840   3.321  17.143 -0.8920 -0.7026 -0.4084
 8746SOL     OW37699   2.606   0.197  14.975 -0.1181 -0.4575  0.3583
 8746SOL    HW137700   2.622   0.119  15.029 -1.5565 -1.8841 -1.2771
 8746SOL    HW237701   2.695   0.223  14.950  0.1332 -0.0538  1.6796
 8747SOL     OW37702   3.857   0.782   4.674  0.4742  0.2290 -0.3204
 8747SOL    HW137703   3.826   0.846   4.610 -0.5596  0.2900  0.2513
 8747SOL    HW237704   3.821   0.826   4.751 -0.7695  0.5059 -1.0772
 8748SOL     OW37705   3.685   0.923   3.131 -0.3318  0.5442 -0.8556
 8748SOL    HW137706   3.691   1.010   3.092  1.3929  1.2351  0.9496
 8748SOL    HW237707   3.594   0.903   3.152 -0.6036  1.4590 -1.1639
 8749SOL     OW37708   3.770   2.333   8.635  0.1452  0.5664  0.2964
 8749SOL    HW137709   3.861   2.327   8.606 -0.5992  4.4239 -2.8309
 8749SOL    HW237710   3.766   2.272   8.709 -0.1455 -1.6724 -1.5795
 8750SOL     OW37711   0.109   0.645  12.439 -0.2020 -0.0158 -0.0351
 8750SOL    HW137712   0.173   0.579  12.464 -0.6395 -0.9253 -1.2951
 8750SOL    HW237713   0.120   0.708  12.510  1.2411 -0.2650 -0.0342
 8751SOL     OW37714   0.764   3.408   4.603 -0.5555 -0.1037  0.0777
 8751SOL    HW137715   0.850   3.444   4.582 -0.2208 -0.8054  0.2545
 8751SOL    HW237716   0.711   3.484   4.581  1.6043  1.0015 -1.3102
 8752SOL     OW37717   3.438   0.484  14.402  0.0942 -0.0400 -0.2190
 8752SOL    HW137718   3.463   0.494  14.494 -0.0902  1.3311 -0.3220
 8752SOL    HW237719   3.508   0.534  14.360 -2.2949  2.5874 -1.0366
 8753SOL     OW37720   3.408   2.646   6.191 -0.0492 -0.3097  0.1841
 8753SOL    HW137721   3.382   2.590   6.265  0.3283  0.1706  0.6802
 8753SOL    HW237722   3.504   2.644   6.190 -0.0645 -2.2500  1.5488
 8754SOL     OW37723   4.133   1.957   6.323 -0.0726 -0.3729  0.0495
 8754SOL    HW137724   4.113   2.040   6.365  1.0353  0.5193 -1.1662
 8754SOL    HW237725   4.229   1.959   6.323 -0.0917  0.7304  2.2964
 8755SOL     OW37726   4.582   1.302   8.208 -0.3056  0.0883 -0.3740
 8755SOL    HW137727   4.643   1.229   8.204 -1.1230 -0.5672 -0.8878
 8755SOL    HW237728   4.562   1.315   8.301  1.8479 -0.0040  0.0979
 8756SOL     OW37729   3.528   1.504   4.092 -0.2822  1.2673  0.3639
 8756SOL    HW137730   3.448   1.451   4.095  1.0070 -0.8344 -3.1638
 8756SOL    HW237731   3.497   1.582   4.139 -1.3996  0.1269  1.5311
 8757SOL     OW37732   2.643   1.947   0.223  0.5543 -0.9105 -0.7560
 8757SOL    HW137733   2.725   1.921   0.181  1.0719  1.3622 -1.1126
 8757SOL    HW237734   2.581   1.957   0.150 -3.1318  1.1060  2.6383
 8758SOL     OW37735   0.452   4.350  11.849  0.2997 -1.0020  0.1743
 8758SOL    HW137736   0.431   4.324  11.760 -1.9276  0.7340  0.1959
 8758SOL    HW237737   0.547   4.345  11.841  0.1743  2.2175 -3.2369
 8759SOL     OW37738   0.528   0.049   5.401  0.2709  0.0352  0.7390
 8759SOL    HW137739   0.466   0.002   5.346  2.4051  1.6507 -3.0401
 8759SOL    HW237740   0.592   4.702   5.421  0.9587  0.3380 -0.4596
 8760SOL     OW37741   3.664   2.944   7.405  0.2779  0.3187 -0.5609
 8760SOL    HW137742   3.715   3.014   7.363  0.7541  0.3224  0.0347
 8760SOL    HW237743   3.597   2.923   7.340 -1.4481  0.7035  1.0966
 8761SOL     OW37744   2.983   4.386  16.091  0.1270 -0.0250  0.9369
 8761SOL    HW137745   2.983   4.480  16.109 -0.0204  0.7652 -3.2772
 8761SOL    HW237746   2.916   4.360  16.155  1.3907 -2.7536  1.1258
 8762SOL     OW37747   3.092   1.127  13.545  0.6170 -0.1909 -0.0411
 8762SOL    HW137748   3.095   1.220  13.522 -0.8695  0.2693  1.5899
 8762SOL    HW237749   2.997   1.125  13.558  0.5708 -0.0515 -0.3648
 8763SOL     OW37750   1.513   1.475   4.899  0.1077  0.1383 -0.1883
 8763SOL    HW137751   1.579   1.451   4.835 -1.0601  2.3482 -2.2145
 8763SOL    HW237752   1.565   1.491   4.978 -0.8884  2.2471  0.0495
 8764SOL     OW37753   0.467   2.525   2.883  0.9353 -0.0565 -0.5110
 8764SOL    HW137754   0.553   2.493   2.913  1.8260 -1.7060 -4.7351
 8764SOL    HW237755   0.477   2.532   2.788 -0.3201 -0.9412 -0.7055
 8765SOL     OW37756   0.419   3.135  15.240  0.0877  0.1994 -0.1259
 8765SOL    HW137757   0.500   3.104  15.200  0.5460 -0.8104  1.5594
 8765SOL    HW237758   0.432   3.228  15.224 -2.5970  0.8896  1.7470
 8766SOL     OW37759   1.881   4.688   5.809 -0.1332 -0.6322  0.2430
 8766SOL    HW137760   1.938   4.612   5.807 -1.2000 -1.4722  1.5773
 8766SOL    HW237761   1.840   4.674   5.894 -0.2296 -0.7657  0.1746
 8767SOL     OW37762   3.205   0.154   8.980 -0.4955 -0.3504  0.5427
 8767SOL    HW137763   3.141   0.191   9.040  0.0917 -1.9807  2.1531
 8767SOL    HW237764   3.288   0.193   9.007 -0.0191 -1.9577  1.3889
 8768SOL     OW37765   0.220   3.545   2.945  0.0165 -0.4658 -0.1973
 8768SOL    HW137766   0.314   3.529   2.954  0.1874 -1.0060 -3.1273
 8768SOL    HW237767   0.188   3.508   3.028  0.3493  0.9219  0.5534
 8769SOL     OW37768   0.981   2.598   7.170  0.0165 -0.5281 -0.3876
 8769SOL    HW137769   0.952   2.608   7.261 -0.5697  1.4641 -0.7926
 8769SOL    HW237770   0.910   2.627   7.112  0.1110 -0.8623 -0.6677
 8770SOL     OW37771   0.873   0.102   8.895 -0.2891 -0.0470 -0.1428
 8770SOL    HW137772   0.788   0.142   8.911 -1.4300 -3.2244  1.8913
 8770SOL    HW237773   0.918   0.174   8.851 -2.7023  0.2560 -2.0733
 8771SOL     OW37774   2.461   4.667   7.279 -0.2978 -0.0329 -0.0275
 8771SOL    HW137775   2.514   4.587   7.275  0.1461  0.2021  1.0053
 8771SOL    HW237776   2.424   4.659   7.367  2.7666 -1.5760  1.1385
 8772SOL     OW37777   3.156   0.837  17.541 -0.7798 -0.5023 -0.7655
 8772SOL    HW137778   3.128   0.910  17.597  0.0965 -0.4492 -0.3973
 8772SOL    HW237779   3.250   0.846  17.556 -1.0106 -3.4386  2.7096
 8773SOL     OW37780   4.328   3.417   3.820  0.1053 -0.4217  0.2755
 8773SOL    HW137781   4.340   3.322   3.826  0.7885 -0.3679 -0.2126
 8773SOL    HW237782   4.418   3.435   3.847 -0.0778  1.7646 -0.5847
 8774SOL     OW37783   0.909   1.196   0.733 -0.8724 -0.0305  0.2323
 8774SOL    HW137784   0.819   1.227   0.726  0.2051  3.3066  0.7127
 8774SOL    HW237785   0.944   1.269   0.681  0.1747 -1.4546 -1.0458
 8775SOL     OW37786   3.845   2.274   2.793  0.7327  0.3859  0.1904
 8775SOL    HW137787   3.839   2.181   2.769 -1.2175  0.0711  1.8808
 8775SOL    HW237788   3.784   2.290   2.865 -0.9059 -0.1838 -1.0631
 8776SOL     OW37789   2.332   3.424   4.061  0.6316  0.3896 -0.5422
 8776SOL    HW137790   2.337   3.434   3.966 -1.8571 -1.9728 -0.8984
 8776SOL    HW237791   2.240   3.407   4.079  1.1303 -1.5863  0.1278
 8777SOL     OW37792   0.549   3.227   7.573 -0.1041 -0.0356 -0.2852
 8777SOL    HW137793   0.467   3.178   7.572  0.8925 -1.7171  1.0218
 8777SOL    HW237794   0.609   3.161   7.606 -0.6016 -0.4372 -0.1832
 8778SOL     OW37795   4.315   2.685  13.995 -0.4172  0.4758 -0.0576
 8778SOL    HW137796   4.337   2.651  13.908  0.6370  0.8842  0.0607
 8778SOL    HW237797   4.403   2.697  14.028 -0.5565  0.2303  0.4079
 8779SOL     OW37798   1.241   0.912  16.172 -0.2441 -0.2433  0.1737
 8779SOL    HW137799   1.192   0.994  16.174 -0.7308 -0.4305 -2.6157
 8779SOL    HW237800   1.240   0.887  16.079 -0.0870 -1.2428  0.4341
 8780SOL     OW37801   0.683   3.521   2.335  0.0552 -0.0951 -0.0179
 8780SOL    HW137802   0.756   3.539   2.394 -0.3093  0.7300  0.1830
 8780SOL    HW237803   0.638   3.463   2.397  1.5837 -0.9180  0.3145
 8781SOL     OW37804   2.410   1.950  13.034 -0.6096 -0.2508 -0.3296
 8781SOL    HW137805   2.381   2.038  13.059  1.7896 -0.1233  2.0037
 8781SOL    HW237806   2.337   1.917  12.982  1.0303 -1.8129 -1.6765
 8782SOL     OW37807   0.030   2.274   7.777 -0.4480  0.8307  0.8550
 8782SOL    HW137808   0.114   2.252   7.737  0.4787  1.6562  2.3574
 8782SOL    HW237809   0.043   2.216   7.853 -2.9740  0.4374  0.9992
 8783SOL     OW37810   0.481   1.873   3.196 -0.4785 -0.1153  0.4060
 8783SOL    HW137811   0.570   1.836   3.196 -0.0561  0.9168  0.6316
 8783SOL    HW237812   0.501   1.930   3.122  3.4640  0.0330  1.5630
 8784SOL     OW37813   4.147   1.120  13.142 -0.0496  0.0355  0.0233
 8784SOL    HW137814   4.055   1.139  13.162 -0.0420  0.5094 -0.3897
 8784SOL    HW237815   4.140   1.032  13.106  2.4000  0.0743 -0.5450
 8785SOL     OW37816   1.762   2.341   6.606 -0.0959 -0.4099 -0.0282
 8785SOL    HW137817   1.722   2.255   6.593  0.2566 -0.5639 -0.1068
 8785SOL    HW237818   1.688   2.402   6.605  1.7521  1.7596 -4.0587
 8786SOL     OW37819   1.665   3.837   5.454  0.9274 -0.1157 -0.1707
 8786SOL    HW137820   1.614   3.860   5.532  1.2425 -0.3905  0.1210
 8786SOL    HW237821   1.716   3.771   5.501 -2.2158 -3.0714 -0.9081
 8787SOL     OW37822   0.029   0.553   3.965  0.6642 -0.0724  0.9161
 8787SOL    HW137823   4.702   0.470   3.968  0.0360  0.2844  0.5457
 8787SOL    HW237824   4.683   0.618   3.986  1.3493  0.5360  1.1974
 8788SOL     OW37825   1.729   3.701   4.339  0.0701  0.0259 -0.0183
 8788SOL    HW137826   1.813   3.716   4.296  0.1583 -0.8440 -0.1443
 8788SOL    HW237827   1.746   3.689   4.433  2.1428  0.3074 -0.3550
 8789SOL     OW37828   2.825   4.624   0.423 -0.3562  0.5066  0.0398
 8789SOL    HW137829   2.805   4.717   0.423 -1.0503  0.3604  0.6786
 8789SOL    HW237830   2.897   4.619   0.360  0.3795 -0.3101  0.9342
 8790SOL     OW37831   1.691   1.356   3.371 -0.0882 -0.1557 -0.2052
 8790SOL    HW137832   1.604   1.395   3.376 -0.1498 -0.2291 -0.6979
 8790SOL    HW237833   1.701   1.359   3.276  0.4879 -0.4802 -0.1517
 8791SOL     OW37834   1.571   3.796   9.846 -0.2317 -0.5184 -0.4854
 8791SOL    HW137835   1.602   3.706   9.837 -1.3750 -0.8140 -1.4481
 8791SOL    HW237836   1.634   3.813   9.916 -0.8824  3.8001 -0.9597
 8792SOL     OW37837   2.722   2.920   4.992 -0.0979 -0.0044 -0.6046
 8792SOL    HW137838   2.790   2.871   5.038 -0.7328 -0.7724 -0.4873
 8792SOL    HW237839   2.655   2.854   5.011  0.5752 -0.3544  0.5579
 8793SOL     OW37840   1.410   2.979   5.824 -0.5049  0.1700  0.0185
 8793SOL    HW137841   1.326   2.962   5.866 -1.0039 -1.9397 -1.8280
 8793SOL    HW237842   1.412   2.913   5.754  0.0742  1.6172 -1.3197
 8794SOL     OW37843   1.651   1.996   5.298 -0.5100 -0.4276 -0.0500
 8794SOL    HW137844   1.598   1.993   5.218  1.4992 -0.7719 -1.3676
 8794SOL    HW237845   1.730   1.965   5.255 -0.6640  0.9265 -1.3185
 8795SOL     OW37846   3.138   0.641   7.456 -0.1977 -0.1453 -0.4673
 8795SOL    HW137847   3.123   0.613   7.547 -2.4429  0.4474 -0.6429
 8795SOL    HW237848   3.230   0.618   7.444  0.1181  0.9815 -0.1919
 8796SOL     OW37849   0.131   3.939   2.964  0.1396 -0.2214 -0.1283
 8796SOL    HW137850   0.171   3.904   2.884  1.3945 -0.9075  0.8014
 8796SOL    HW237851   0.049   3.970   2.926 -1.5111 -2.1283  1.8733
 8797SOL     OW37852   0.054   0.727   2.294 -0.1615 -0.6712  0.0992
 8797SOL    HW137853   4.709   0.730   2.226 -1.3120  1.3725  1.3044
 8797SOL    HW237854   0.058   0.633   2.314 -0.0320 -0.4560  1.0828
 8798SOL     OW37855   4.044   2.319   8.050  0.4527  0.1962 -0.0622
 8798SOL    HW137856   4.010   2.230   8.062  0.6778  0.2112  0.6873
 8798SOL    HW237857   3.960   2.364   8.049  0.6452  0.5405 -0.4702
 8799SOL     OW37858   2.027   2.986   7.459 -0.0680  0.0766  0.0099
 8799SOL    HW137859   2.100   2.962   7.516 -0.2489 -2.0425 -0.6564
 8799SOL    HW237860   2.065   2.977   7.372  0.4386  1.6117  0.0782
 8800SOL     OW37861   4.686   2.488  13.243 -0.3347  0.0832  0.1198
 8800SOL    HW137862   0.047   2.461  13.284  0.8361  0.4390 -1.9834
 8800SOL    HW237863   4.712   2.489  13.151  1.0622 -0.5835  0.5058
 8801SOL     OW37864   4.401   3.266   5.630  0.0014  0.0789 -0.2754
 8801SOL    HW137865   4.377   3.348   5.588 -0.4393  1.1036  1.9523
 8801SOL    HW237866   4.439   3.221   5.555  0.1663  1.4775 -1.0193
 8802SOL     OW37867   3.058   1.318   0.651 -0.3074 -0.0452  0.4850
 8802SOL    HW137868   3.023   1.309   0.562 -1.1288 -0.1013  0.8158
 8802SOL    HW237869   3.048   1.225   0.674 -2.4321  0.1452  0.3717
 8803SOL     OW37870   1.367   0.343   7.729 -0.2953  0.4667 -0.3400
 8803SOL    HW137871   1.409   0.270   7.683 -3.0397 -1.6188  0.4799
 8803SOL    HW237872   1.412   0.348   7.814 -0.4059 -0.8028 -0.2077
 8804SOL     OW37873   3.106   2.025   9.002 -0.2118  0.3165 -0.4404
 8804SOL    HW137874   3.129   2.083   8.929 -0.6464 -0.9039 -1.5454
 8804SOL    HW237875   3.109   2.079   9.081 -3.0296  0.4251 -0.4195
 8805SOL     OW37876   2.956   4.307   4.930 -0.3044 -0.4541 -0.7617
 8805SOL    HW137877   2.936   4.355   4.849  0.9428  0.9607 -0.2424
 8805SOL    HW237878   3.048   4.289   4.911  0.6432  0.7131  2.5173
 8806SOL     OW37879   3.842   4.622   5.970 -0.3714 -0.0861  0.1847
 8806SOL    HW137880   3.861   4.669   6.051 -0.9971  2.5149 -1.1943
 8806SOL    HW237881   3.928   4.595   5.937 -0.7284 -0.1289 -0.7325
 8807SOL     OW37882   1.063   1.078   2.501  0.7829 -0.4051  0.1905
 8807SOL    HW137883   1.012   1.033   2.433 -0.8781  0.3818  0.9381
 8807SOL    HW237884   1.095   1.148   2.444  2.3724  0.2798  1.9352
 8808SOL     OW37885   2.510   1.161   1.848  0.0851  0.8097  0.5742
 8808SOL    HW137886   2.537   1.225   1.914  2.2468  1.3465 -0.8095
 8808SOL    HW237887   2.576   1.092   1.855  0.7360  1.2739 -1.0068
 8809SOL     OW37888   2.649   3.315   5.457  0.0538 -0.1322  0.5345
 8809SOL    HW137889   2.580   3.252   5.437  0.3925  0.5364 -2.8442
 8809SOL    HW237890   2.722   3.265   5.420  0.0551  0.8661 -0.8115
 8810SOL     OW37891   3.340   3.780   8.552 -0.0969  0.3726 -0.2878
 8810SOL    HW137892   3.264   3.817   8.507 -0.8392  0.1863  0.8186
 8810SOL    HW237893   3.319   3.808   8.641 -0.0888  0.5768 -0.3516
 8811SOL     OW37894   0.666   3.309   5.496  0.4249  0.2000  0.4721
 8811SOL    HW137895   0.717   3.229   5.510  2.9398  1.7743  0.4218
 8811SOL    HW237896   0.589   3.279   5.447  0.5306  0.3735  0.1984
 8812SOL     OW37897   1.807   4.392  14.374  0.2081 -0.2394 -0.2716
 8812SOL    HW137898   1.884   4.392  14.317  0.4305 -0.1740  0.0281
 8812SOL    HW237899   1.766   4.311  14.343 -0.9764 -0.1930  1.1783
 8813SOL     OW37900   4.454   1.996   7.403  0.0154 -0.4227  0.8479
 8813SOL    HW137901   4.450   2.013   7.308 -2.3763  1.3154  1.2456
 8813SOL    HW237902   4.394   2.064   7.434  0.0139  0.3129 -0.7555
 8814SOL     OW37903   3.051   3.376   5.194 -0.5390 -0.2588 -0.4401
 8814SOL    HW137904   3.016   3.461   5.167  2.0316  1.4420  1.6593
 8814SOL    HW237905   3.025   3.370   5.286  0.0516  1.1358 -0.1891
 8815SOL     OW37906   3.700   2.258   6.849 -0.0333 -0.0919  0.2651
 8815SOL    HW137907   3.704   2.230   6.940  2.2716 -0.9052 -0.0767
 8815SOL    HW237908   3.619   2.220   6.816 -0.2406  0.6722 -0.0997
 8816SOL     OW37909   2.363   1.651  13.024  0.0314  0.2041  0.1237
 8816SOL    HW137910   2.369   1.574  12.967 -0.3092  0.1912  0.1089
 8816SOL    HW237911   2.332   1.704  12.951  1.9846 -0.6248 -1.3379
 8817SOL     OW37912   2.582   0.131   5.278  0.1570  0.2171 -0.2642
 8817SOL    HW137913   2.617   0.211   5.316  1.1548 -0.9242  1.2345
 8817SOL    HW237914   2.600   0.065   5.345 -0.9441  0.8019  0.6192
 8818SOL     OW37915   1.101   3.651   5.722  0.8653 -0.1669  0.2799
 8818SOL    HW137916   1.075   3.681   5.809  0.6321  3.4668 -1.0356
 8818SOL    HW237917   1.063   3.563   5.719  2.4210 -0.8259  0.1774
 8819SOL     OW37918   3.574   2.284   3.981  0.2524 -0.0329 -0.4165
 8819SOL    HW137919   3.619   2.334   3.913 -0.9637  0.4662 -0.8631
 8819SOL    HW237920   3.590   2.197   3.947 -0.5380  0.7246 -2.7423
 8820SOL     OW37921   2.739   2.652   8.266  0.0070 -0.1031 -0.3728
 8820SOL    HW137922   2.826   2.627   8.233 -0.1535 -0.8646 -0.2184
 8820SOL    HW237923   2.715   2.707   8.192 -0.0843 -0.6435 -0.7495
 8821SOL     OW37924   1.414   4.316   7.858 -0.5608 -0.1624 -0.2009
 8821SOL    HW137925   1.398   4.407   7.831  0.5767 -0.0018 -0.3242
 8821SOL    HW237926   1.396   4.268   7.776  0.5731  0.3879 -0.7701
 8822SOL     OW37927   3.364   3.028   8.815 -0.0727 -0.8326  0.2639
 8822SOL    HW137928   3.352   3.068   8.729  1.2491 -1.2232 -0.1028
 8822SOL    HW237929   3.289   3.066   8.860  0.6333 -0.0495  0.7712
 8823SOL     OW37930   2.257   1.759   8.907  0.1827 -0.2918  0.4377
 8823SOL    HW137931   2.175   1.795   8.874  1.0984  1.0190 -0.4086
 8823SOL    HW237932   2.246   1.667   8.883 -0.5937  0.1205 -0.7457
 8824SOL     OW37933   4.155   1.046   6.288  0.4455  0.2957  0.2599
 8824SOL    HW137934   4.168   1.141   6.288 -0.0904  0.3695  1.9805
 8824SOL    HW237935   4.229   1.019   6.341  0.3328  0.6207  0.5865
 8825SOL     OW37936   0.808   3.898   5.878  0.6344  0.3661  0.1709
 8825SOL    HW137937   0.718   3.903   5.912  0.8967  1.6595  0.6987
 8825SOL    HW237938   0.808   3.812   5.836 -0.6029  0.5824 -0.2933
 8826SOL     OW37939   1.376   3.919   2.403 -0.5181 -0.3309  0.4690
 8826SOL    HW137940   1.319   3.976   2.455  1.7980  3.0832 -0.7067
 8826SOL    HW237941   1.440   3.894   2.471  1.7018  1.3247 -1.0190
 8827SOL     OW37942   4.367   1.605   9.460 -0.3171 -0.1351 -0.2033
 8827SOL    HW137943   4.412   1.639   9.382  0.3256 -1.2174 -0.2956
 8827SOL    HW237944   4.419   1.527   9.474  0.8752  0.8560  0.8336
 8828SOL     OW37945   0.233   3.149  15.020 -0.5533  0.0550  0.0984
 8828SOL    HW137946   0.249   3.238  14.988  0.1813  0.5361  1.7666
 8828SOL    HW237947   0.291   3.151  15.096  1.3308 -3.2954 -1.2569
 8829SOL     OW37948   0.031   0.502   0.689 -0.3090 -0.4778 -0.0912
 8829SOL    HW137949   0.004   0.593   0.693  2.1267  0.2217 -0.0838
 8829SOL    HW237950   4.675   0.458   0.727 -0.6974  0.0862 -0.2250
 8830SOL     OW37951   4.141   3.138   9.014 -0.1603 -0.2549 -0.2865
 8830SOL    HW137952   4.125   3.109   8.924  0.2301  1.4262 -0.8928
 8830SOL    HW237953   4.221   3.190   9.000 -0.7574  0.5319 -0.7720
 8831SOL     OW37954   1.557   0.878   1.783  0.2411  0.6298  0.6098
 8831SOL    HW137955   1.612   0.924   1.720  1.0235  1.0541  1.6044
 8831SOL    HW237956   1.534   0.801   1.730 -0.8948  1.6486 -0.3785
 8832SOL     OW37957   2.967   3.167   8.375 -0.0027  0.1987 -0.0820
 8832SOL    HW137958   2.966   3.103   8.447 -0.2777  1.4231  0.9981
 8832SOL    HW237959   3.041   3.138   8.323  0.3369  0.8252  0.0664
 8833SOL     OW37960   2.843   2.266   4.518 -0.0351 -0.4524  0.0457
 8833SOL    HW137961   2.918   2.275   4.578  0.1596 -1.4183 -0.0524
 8833SOL    HW237962   2.782   2.321   4.568  1.5166  0.4974  0.9013
 8834SOL     OW37963   2.733   3.405  17.309 -0.1686  0.6134  0.0357
 8834SOL    HW137964   2.674   3.468  17.266 -1.0260 -0.2674 -0.0784
 8834SOL    HW237965   2.696   3.407  17.398  0.2807 -0.9902  0.2528
 8835SOL     OW37966   2.767   2.995   4.189 -1.0167  0.0238 -0.2797
 8835SOL    HW137967   2.829   2.932   4.224  0.1875 -0.2934 -2.9214
 8835SOL    HW237968   2.825   3.026   4.118 -1.0332  0.0208 -0.2946
 8836SOL     OW37969   1.182   3.951   9.402  0.7574 -0.1360 -0.2771
 8836SOL    HW137970   1.180   3.889   9.329  2.3972 -0.7598  0.1896
 8836SOL    HW237971   1.165   4.035   9.360  0.9268 -1.1645 -2.3859
 8837SOL     OW37972   2.907   2.140   3.961 -0.0900  0.3487 -0.0501
 8837SOL    HW137973   2.848   2.205   4.000  0.7283 -0.3677  2.3463
 8837SOL    HW237974   2.847   2.091   3.905  0.3592  0.5087 -0.6635
 8838SOL     OW37975   2.683   0.581  12.432 -0.1940  0.2053 -0.3594
 8838SOL    HW137976   2.772   0.554  12.457 -0.5062 -1.1670 -0.7461
 8838SOL    HW237977   2.697   0.589  12.338  0.4374 -1.6722 -0.4242
 8839SOL     OW37978   3.706   0.480  13.496 -0.1074 -0.2106 -0.0664
 8839SOL    HW137979   3.684   0.554  13.440  3.1288  0.1537 -0.8476
 8839SOL    HW237980   3.791   0.511  13.529  0.6034 -2.0796 -0.1674
 8840SOL     OW37981   3.154   3.286  14.397  0.1948  0.1462 -0.4892
 8840SOL    HW137982   3.148   3.308  14.304 -2.3284 -1.3264 -0.6784
 8840SOL    HW237983   3.250   3.283  14.402  0.0826 -2.9636 -0.1322
 8841SOL     OW37984   1.362   4.240   2.936 -0.4593 -0.4496 -0.2919
 8841SOL    HW137985   1.455   4.223   2.954 -0.7217  0.5149  1.9535
 8841SOL    HW237986   1.365   4.305   2.865 -0.9760  0.8223  0.8495
 8842SOL     OW37987   2.189   0.262  15.656  0.2789  0.8587 -0.0161
 8842SOL    HW137988   2.222   0.339  15.703  1.4163 -1.0838  2.3313
 8842SOL    HW237989   2.273   0.228  15.625  0.4908  2.2294 -0.9575
 8843SOL     OW37990   3.760   2.215   6.271 -0.3974 -0.4917  0.0057
 8843SOL    HW137991   3.735   2.203   6.179  0.2455 -0.3282 -0.1862
 8843SOL    HW237992   3.779   2.308   6.270  0.7154 -0.6517  3.5774
 8844SOL     OW37993   0.686   0.033   0.494 -0.4346 -0.4974  0.0047
 8844SOL    HW137994   0.745   4.705   0.437 -0.3118 -1.0781  0.6338
 8844SOL    HW237995   0.722   4.716   0.574  0.7073  1.0582  0.2115
 8845SOL     OW37996   0.310   1.691   2.862  0.0372  0.5955 -0.6787
 8845SOL    HW137997   0.394   1.730   2.887 -0.0984  2.7753 -3.5311
 8845SOL    HW237998   0.324   1.597   2.872 -0.7115  0.6812  1.1244
 8846SOL     OW37999   2.561   2.065  15.351 -0.5332 -0.0767 -0.4340
 8846SOL    HW138000   2.521   2.040  15.268 -1.7702  0.3602  0.0458
 8846SOL    HW238001   2.484   2.089  15.402  0.7553  3.5745 -0.1661
 8847SOL     OW38002   2.240   0.301   5.002  0.0531 -0.4751 -0.1854
 8847SOL    HW138003   2.201   0.347   4.928  0.6226  0.4037  0.0648
 8847SOL    HW238004   2.240   0.367   5.071 -1.5127  1.0901 -1.6883
 8848SOL     OW38005   2.115   3.140   7.022  0.5052  0.1882  0.3554
 8848SOL    HW138006   2.052   3.070   7.002  2.3710 -0.5018 -3.0929
 8848SOL    HW238007   2.162   3.108   7.099  1.0525 -1.7628 -0.7924
 8849SOL     OW38008   4.531   3.523   7.688 -0.1332  0.8215 -0.5322
 8849SOL    HW138009   4.528   3.568   7.772 -1.2435 -1.7739  0.8031
 8849SOL    HW238010   4.463   3.562   7.633 -0.4155  1.6517  0.4113
 8850SOL     OW38011   2.532   2.206   2.695  0.2406  0.1579  0.3082
 8850SOL    HW138012   2.534   2.139   2.628  1.9655  0.3676  0.1474
 8850SOL    HW238013   2.444   2.242   2.683  0.7099  0.9954 -0.6054
 8851SOL     OW38014   1.804   4.153   8.366  0.0805  0.2219  0.3471
 8851SOL    HW138015   1.831   4.179   8.278  0.3110 -0.0495  0.3396
 8851SOL    HW238016   1.816   4.060   8.350 -3.0844  0.0153 -0.7972
 8852SOL     OW38017   3.564   1.975   4.159 -0.0203  0.5691  0.4482
 8852SOL    HW138018   3.497   1.979   4.091  1.6212  0.0384 -1.2060
 8852SOL    HW238019   3.540   1.891   4.198  1.4245  0.5388  1.3020
 8853SOL     OW38020   0.724   0.555  10.409 -0.3614  0.4076  0.0654
 8853SOL    HW138021   0.676   0.633  10.438  0.4635  1.0075 -0.1976
 8853SOL    HW238022   0.802   0.570  10.461 -0.0308 -0.5958 -0.1495
 8854SOL     OW38023   4.021   3.837   3.425 -0.2821  0.8028  0.2875
 8854SOL    HW138024   4.074   3.883   3.361 -2.0131  2.3475 -0.0074
 8854SOL    HW238025   4.076   3.846   3.503 -2.2122  0.6141  1.6913
 8855SOL     OW38026   1.660   0.284   8.665  0.2516 -0.3548  0.5856
 8855SOL    HW138027   1.606   0.217   8.709  0.2461 -0.9326 -0.3010
 8855SOL    HW238028   1.695   0.338   8.736  0.7544  2.2624 -1.6745
 8856SOL     OW38029   2.578   4.097  17.599  0.1814 -0.0467 -0.0323
 8856SOL    HW138030   2.537   4.183  17.601 -0.2511 -0.2337 -0.8056
 8856SOL    HW238031   2.514   4.030  17.621  1.0055 -0.0446  2.4037
 8857SOL     OW38032   1.455   2.097  12.581  0.3097 -0.1799  0.5647
 8857SOL    HW138033   1.373   2.084  12.534 -0.3636 -1.3873  2.0811
 8857SOL    HW238034   1.507   2.137  12.511  0.3956 -0.0502  0.7022
 8858SOL     OW38035   2.961   4.596   3.368  0.0213  0.3442 -0.1024
 8858SOL    HW138036   2.885   4.553   3.329  0.6656  0.0169 -0.9813
 8858SOL    HW238037   2.934   4.642   3.448  1.9617  0.2693  0.5894
 8859SOL     OW38038   4.671   3.880  15.814 -0.2950 -0.9164 -0.2489
 8859SOL    HW138039   4.617   3.888  15.736 -2.7136  2.3156  1.7708
 8859SOL    HW238040   4.672   3.785  15.831 -2.1612 -0.9185 -0.1411
 8860SOL     OW38041   2.219   4.274   8.885  0.1659  0.7182  0.0602
 8860SOL    HW138042   2.276   4.279   8.808 -1.6222 -0.8270 -1.3669
 8860SOL    HW238043   2.147   4.332   8.859 -3.2582 -2.9710  1.3494
 8861SOL     OW38044   0.786   3.990   2.639 -0.2572 -0.0375 -0.4285
 8861SOL    HW138045   0.806   4.068   2.691 -1.5517  1.4853 -2.2344
 8861SOL    HW238046   0.712   4.016   2.584 -0.0630  2.2063  0.3775
 8862SOL     OW38047   2.024   2.726   5.702 -0.2453  0.7045  0.5123
 8862SOL    HW138048   2.037   2.657   5.636  0.4992  2.3006 -1.0217
 8862SOL    HW238049   1.976   2.671   5.763  0.2446  2.0299  2.0661
 8863SOL     OW38050   0.926   0.256   7.100 -0.3100 -0.2708 -0.3761
 8863SOL    HW138051   0.952   0.223   7.014 -3.7695  0.0572 -1.5494
 8863SOL    HW238052   0.880   0.333   7.067 -2.1346 -0.3743  1.9268
 8864SOL     OW38053   2.130   3.034   4.446 -0.2386 -0.2199 -0.2330
 8864SOL    HW138054   2.128   3.027   4.350  0.8483  1.0121 -0.3361
 8864SOL    HW238055   2.202   2.975   4.468 -0.3520  0.0307  0.7888
 8865SOL     OW38056   2.158   4.412  12.494 -0.1776 -0.4291  0.1374
 8865SOL    HW138057   2.118   4.473  12.556  0.2702 -0.9729  0.9527
 8865SOL    HW238058   2.149   4.463  12.413 -2.4343 -0.6598  0.2593
 8866SOL     OW38059   1.379   3.186  12.475  0.5949  0.0404 -0.3041
 8866SOL    HW138060   1.332   3.117  12.428 -1.4565  0.6065  0.9323
 8866SOL    HW238061   1.322   3.257  12.446 -1.6772 -1.2558  0.9873
 8867SOL     OW38062   3.214   4.259   5.182  0.1387  0.1790 -0.0072
 8867SOL    HW138063   3.226   4.321   5.254 -0.7177 -1.8994  1.9298
 8867SOL    HW238064   3.290   4.202   5.196 -0.7243 -0.9699 -0.0390
 8868SOL     OW38065   0.521   1.085  10.680  0.1326  0.0966  0.0106
 8868SOL    HW138066   0.572   1.070  10.759 -1.1551 -0.3363  0.7493
 8868SOL    HW238067   0.569   1.042  10.610 -1.1494  0.1179 -0.8864
 8869SOL     OW38068   3.530   0.840   4.692 -0.4602  0.2760  0.3946
 8869SOL    HW138069   3.599   0.804   4.749 -0.2317 -0.8246 -0.5767
 8869SOL    HW238070   3.530   0.935   4.702 -1.8469  0.3389 -0.2952
 8870SOL     OW38071   2.331   1.925   9.136  0.2866 -0.3205  0.1618
 8870SOL    HW138072   2.366   1.864   9.202 -0.4091 -0.8882  0.0004
 8870SOL    HW238073   2.351   1.882   9.053  0.0014  1.7516 -0.9693
 8871SOL     OW38074   0.727   0.739   3.948 -0.0216 -0.1135 -0.4052
 8871SOL    HW138075   0.724   0.758   4.042 -1.5599  2.2950 -0.9382
 8871SOL    HW238076   0.640   0.700   3.943 -0.3386  0.7153 -1.4966
 8872SOL     OW38077   4.021   4.072  13.237 -0.3569  0.3652  0.3913
 8872SOL    HW138078   3.976   3.991  13.258  0.1464 -0.2687 -0.9715
 8872SOL    HW238079   4.061   4.043  13.155 -1.6141 -1.3938  0.4160
 8873SOL     OW38080   0.930   0.747   2.444 -0.1776 -0.5295 -0.2969
 8873SOL    HW138081   0.887   0.828   2.418 -0.2038  0.1763  2.0392
 8873SOL    HW238082   0.998   0.746   2.376 -1.3407  1.8401 -1.4827
 8874SOL     OW38083   1.052   4.507   4.820  0.2757  0.4892  0.5398
 8874SOL    HW138084   1.140   4.544   4.817  0.7349 -0.6565 -0.2771
 8874SOL    HW238085   1.039   4.502   4.915  0.4671  0.2198  0.5505
 8875SOL     OW38086   2.891   3.590   5.558 -0.0508  0.3169  0.4203
 8875SOL    HW138087   2.946   3.665   5.581  1.1462 -0.0348 -1.2404
 8875SOL    HW238088   2.935   3.514   5.597  1.9578 -0.6634 -3.7298
 8876SOL     OW38089   1.459   4.135   7.308 -0.2725  0.3165 -0.9464
 8876SOL    HW138090   1.402   4.163   7.236  1.1469  2.0128 -1.4111
 8876SOL    HW238091   1.450   4.218   7.355  1.3688 -1.3387  2.2341
 8877SOL     OW38092   4.322   0.933   7.800 -0.8292  0.0797 -0.5668
 8877SOL    HW138093   4.347   1.025   7.791 -0.3596  0.0517  0.4624
 8877SOL    HW238094   4.388   0.912   7.866 -1.8493 -0.4891  0.2755
 8878SOL     OW38095   0.426   0.152   2.787 -0.3127 -0.1226 -0.2338
 8878SOL    HW138096   0.363   0.131   2.856 -1.8675  2.9018 -0.7821
 8878SOL    HW238097   0.381   0.220   2.739 -1.8221 -1.1469 -0.2451
 8879SOL     OW38098   0.346   1.449   7.582  0.1696  0.0949 -0.0424
 8879SOL    HW138099   0.271   1.478   7.633  0.0909 -0.7410  0.3212
 8879SOL    HW238100   0.410   1.516   7.603  0.2556  0.6636 -2.1301
 8880SOL     OW38101   4.075   3.957   8.329 -0.2635  0.3114  0.8405
 8880SOL    HW138102   4.091   3.935   8.238 -1.5755  0.4065  0.5965
 8880SOL    HW238103   3.998   3.906   8.351 -1.2077  1.6239  0.6050
 8881SOL     OW38104   2.303   2.122  13.242 -0.3011  0.5434  0.5854
 8881SOL    HW138105   2.322   2.206  13.284  2.3510  0.3574 -0.2293
 8881SOL    HW238106   2.355   2.062  13.295  0.4819 -0.2150 -1.0420
 8882SOL     OW38107   4.531   3.605   4.342  0.4228 -0.0458  0.9020
 8882SOL    HW138108   4.482   3.525   4.322 -2.2889  2.0658 -0.8304
 8882SOL    HW238109   4.538   3.592   4.437 -0.3463  1.1433  1.1145
 8883SOL     OW38110   0.882   4.208  16.005  0.1648 -1.2073 -0.3800
 8883SOL    HW138111   0.935   4.173  16.076 -1.8655 -1.7948  0.8323
 8883SOL    HW238112   0.807   4.149  16.011  0.2566 -1.1012  1.5437
 8884SOL     OW38113   3.810   4.280   7.323  0.1394  0.3405  0.2967
 8884SOL    HW138114   3.853   4.345   7.378  0.7598 -1.8151  2.3678
 8884SOL    HW238115   3.728   4.324   7.301 -0.3496 -0.6738  0.1052
 8885SOL     OW38116   0.512   4.167   4.711 -0.3667  0.5793 -0.1119
 8885SOL    HW138117   0.485   4.134   4.797 -1.4830 -0.3737 -0.8463
 8885SOL    HW238118   0.548   4.252   4.739  0.1136  0.7012 -1.1180
 8886SOL     OW38119   0.073   1.291   0.644  0.1855  0.1830 -0.2220
 8886SOL    HW138120   0.128   1.256   0.715 -0.7516  0.7715  0.7955
 8886SOL    HW238121   0.086   1.384   0.661  0.4945  1.0000 -5.0575
 8887SOL     OW38122   3.474   1.268   6.881 -0.3309  0.3097  1.0469
 8887SOL    HW138123   3.425   1.210   6.823  1.1431 -0.0215  0.1316
 8887SOL    HW238124   3.560   1.226   6.886 -0.7538 -0.5821  0.8220
 8888SOL     OW38125   0.070   1.448   8.392 -0.3825  0.0713  0.8286
 8888SOL    HW138126   0.000   1.472   8.331  1.7137 -0.4344 -1.7805
 8888SOL    HW238127   0.133   1.516   8.369  0.9326 -0.8279  1.7817
 8889SOL     OW38128   2.424   2.001   0.890 -0.5169 -0.4993 -0.2368
 8889SOL    HW138129   2.457   2.089   0.908 -1.2471 -0.2616 -0.0597
 8889SOL    HW238130   2.354   2.023   0.829  1.1381  1.0247 -1.5843
 8890SOL     OW38131   2.763   1.183   8.464  0.2039 -0.2389  0.3757
 8890SOL    HW138132   2.780   1.095   8.497  0.9343  0.5985  2.2101
 8890SOL    HW238133   2.675   1.184   8.427  0.3733  0.7220 -0.0079
 8891SOL     OW38134   3.667   1.708   2.110 -0.1607  0.0437  0.3363
 8891SOL    HW138135   3.704   1.631   2.069  1.5182  0.7220  0.5946
 8891SOL    HW238136   3.674   1.778   2.046 -2.2682 -1.8808 -1.9938
 8892SOL     OW38137   4.380   2.218   4.371  0.3196 -0.1944  0.1221
 8892SOL    HW138138   4.395   2.136   4.325 -1.0664  0.5657 -1.6466
 8892SOL    HW238139   4.374   2.195   4.464  2.8204 -0.7625  0.1575
 8893SOL     OW38140   4.014   0.804   6.332 -0.4323 -0.3548 -0.2220
 8893SOL    HW138141   3.958   0.799   6.410  0.0507  0.9288  0.2161
 8893SOL    HW238142   4.046   0.894   6.337  1.3826 -1.1047  1.3556
 8894SOL     OW38143   2.957   4.192   8.763 -0.2853 -0.1115 -0.1885
 8894SOL    HW138144   2.934   4.100   8.779  2.1278 -0.8467 -0.8833
 8894SOL    HW238145   2.866   4.222   8.761 -0.6865 -1.2541  0.6784
 8895SOL     OW38146   4.419   2.598  13.746  0.2004  0.1378  0.2833
 8895SOL    HW138147   4.386   2.662  13.684 -0.7662  0.1619  0.8358
 8895SOL    HW238148   4.461   2.540  13.682 -0.5587  1.1210 -1.1064
 8896SOL     OW38149   2.959   0.233   2.621 -0.1564 -0.3407 -0.6526
 8896SOL    HW138150   2.877   0.185   2.613 -0.5849  0.3393 -0.2983
 8896SOL    HW238151   2.922   0.320   2.633  0.1319 -0.4154  0.7694
 8897SOL     OW38152   3.556   2.722  11.276 -0.1593 -0.0770  0.1075
 8897SOL    HW138153   3.567   2.678  11.191  0.9598  0.4322 -0.0053
 8897SOL    HW238154   3.611   2.800  11.267  0.5921 -0.3238  2.7777
 8898SOL     OW38155   0.946   2.594   9.547  0.1521 -0.3397  0.5761
 8898SOL    HW138156   0.948   2.522   9.609 -1.8034  1.2458  2.4831
 8898SOL    HW238157   0.882   2.553   9.489 -1.9570  2.2099  1.0811
 8899SOL     OW38158   0.375   1.188   1.392 -0.1306  0.5476 -0.1341
 8899SOL    HW138159   0.398   1.210   1.482  1.3981  1.8474 -0.8411
 8899SOL    HW238160   0.421   1.261   1.351 -0.0079  0.1837 -0.6510
 8900SOL     OW38161   4.312   4.029  16.316  0.7845 -0.3324 -0.3013
 8900SOL    HW138162   4.270   3.973  16.251 -2.6646  0.3179  1.3739
 8900SOL    HW238163   4.248   4.101  16.312  0.0649 -0.9437  0.1880
 8901SOL     OW38164   1.487   0.066   5.779  0.2875 -0.0672  0.1733
 8901SOL    HW138165   1.536   0.055   5.861  0.9054 -1.6904 -0.4143
 8901SOL    HW238166   1.435   0.144   5.796  0.6294  0.3501 -0.6615
 8902SOL     OW38167   0.706   4.269   8.760  0.2326 -0.4092  0.3481
 8902SOL    HW138168   0.755   4.198   8.801  1.4151 -1.2042 -2.4530
 8902SOL    HW238169   0.732   4.256   8.668  0.3245  1.5858  0.0876
 8903SOL     OW38170   3.226   1.811   3.859  0.9400 -0.0503 -0.1175
 8903SOL    HW138171   3.167   1.845   3.792  2.3719 -0.5014 -1.6047
 8903SOL    HW238172   3.190   1.724   3.877 -0.2735  0.7780  1.3715
 8904SOL     OW38173   1.616   0.551  17.225  0.0654 -0.7345 -0.4075
 8904SOL    HW138174   1.695   0.605  17.213  0.0401 -1.1748 -2.5435
 8904SOL    HW238175   1.610   0.525  17.133  0.7568  2.8164 -1.4671
 8905SOL     OW38176   0.773   0.949   6.550 -0.0737 -0.1981  0.2098
 8905SOL    HW138177   0.756   0.855   6.550 -0.1477 -0.1977 -2.2976
 8905SOL    HW238178   0.867   0.959   6.568  0.0206 -0.1544 -0.3067
 8906SOL     OW38179   4.002   1.553   2.935 -0.1628  0.2541  0.2716
 8906SOL    HW138180   4.047   1.475   2.967 -0.0117 -0.1186 -0.8472
 8906SOL    HW238181   4.067   1.596   2.880  1.6340 -0.2211  2.0151
 8907SOL     OW38182   3.538   3.749   6.261  0.0743  0.1738  0.7812
 8907SOL    HW138183   3.526   3.680   6.326  0.0750 -1.5939 -1.0795
 8907SOL    HW238184   3.614   3.714   6.216 -2.1464 -1.6060 -1.6196
 8908SOL     OW38185   4.572   0.779   5.874 -0.1677 -0.2389  0.0585
 8908SOL    HW138186   4.643   0.753   5.932  1.1061 -1.4085 -2.0161
 8908SOL    HW238187   4.619   0.791   5.791  1.3932  2.5480  1.3489
 8909SOL     OW38188   4.265   3.560  14.060  0.3383  0.4477 -0.0281
 8909SOL    HW138189   4.308   3.645  14.048  1.0989  0.1818  0.7775
 8909SOL    HW238190   4.334   3.495  14.045 -0.1763  0.2646 -1.5384
 8910SOL     OW38191   2.248   3.853   5.972  0.0009  0.5529 -0.5424
 8910SOL    HW138192   2.160   3.840   5.938 -0.0744  2.4668 -1.1284
 8910SOL    HW238193   2.290   3.789   5.915  1.0613  0.1692  0.6705
 8911SOL     OW38194   4.100   4.157   7.119  0.0913  0.0086 -0.6738
 8911SOL    HW138195   4.129   4.248   7.124  2.9310 -0.9758  0.8721
 8911SOL    HW238196   4.134   4.136   7.032 -1.5225 -0.3463 -1.2156
 8912SOL     OW38197   0.234   3.637   3.572  0.3763 -0.8943  0.4051
 8912SOL    HW138198   0.176   3.561   3.580  0.8629 -1.2783  0.2559
 8912SOL    HW238199   0.276   3.614   3.490 -1.3483  0.2691 -0.8090
 8913SOL     OW38200   4.642   0.799   5.610 -0.2218 -0.2304 -0.1924
 8913SOL    HW138201   4.624   0.809   5.516  2.2102 -1.1771 -0.7869
 8913SOL    HW238202   4.718   0.854   5.626 -1.1317  1.2549 -0.9702
 8914SOL     OW38203   0.128   1.062   5.682  0.3817 -0.2487 -0.3237
 8914SOL    HW138204   0.129   1.143   5.630 -0.2486 -0.0748 -0.0619
 8914SOL    HW238205   0.043   1.070   5.724  0.6683 -0.2394  0.2527
 8915SOL     OW38206   1.436   4.683   6.885 -0.0420 -0.0233 -0.3531
 8915SOL    HW138207   1.420   4.655   6.795  2.0685  0.0715 -0.7393
 8915SOL    HW238208   1.427   4.605   6.940  0.6681  1.0641  1.3049
 8916SOL     OW38209   1.749   0.107   4.892 -0.5382 -0.4051 -0.2428
 8916SOL    HW138210   1.799   0.084   4.814 -0.0340 -1.6034  0.4352
 8916SOL    HW238211   1.704   0.183   4.855  0.4058  0.1045 -0.3382
 8917SOL     OW38212   4.704   3.378   8.527 -0.5766 -0.1559  0.0943
 8917SOL    HW138213   4.663   3.299   8.492  0.3334  0.1180 -1.5953
 8917SOL    HW238214   0.070   3.346   8.552  0.5522  1.5375 -1.6816
 8918SOL     OW38215   1.674   1.276   6.819  0.1704  0.0244 -0.0041
 8918SOL    HW138216   1.606   1.338   6.793 -0.5284 -0.9793 -0.5691
 8918SOL    HW238217   1.756   1.321   6.797 -0.1029 -0.5570 -2.2226
 8919SOL     OW38218   3.682   0.147   8.043 -0.3128  0.0665  0.1021
 8919SOL    HW138219   3.752   0.155   7.978 -0.3491  0.8590  0.1674
 8919SOL    HW238220   3.626   0.219   8.015 -1.7402 -0.1571  2.3339
 8920SOL     OW38221   3.507   4.553  13.693 -0.3050 -0.0206 -0.2888
 8920SOL    HW138222   3.468   4.467  13.683 -1.4210  0.1569  2.6676
 8920SOL    HW238223   3.563   4.557  13.615  1.8160 -0.9709  1.1936
 8921SOL     OW38224   1.173   3.007   9.121 -0.2542  0.1030  0.3025
 8921SOL    HW138225   1.128   2.998   9.037 -0.9789  1.4959  0.5359
 8921SOL    HW238226   1.253   2.962   9.093 -1.4233 -1.3514 -0.6461
 8922SOL     OW38227   1.025   1.333   4.825 -0.0422  0.2383  0.1143
 8922SOL    HW138228   1.019   1.400   4.757 -0.0395  0.9938  0.8546
 8922SOL    HW238229   1.120   1.324   4.830 -0.2081 -0.5510  1.6737
 8923SOL     OW38230   1.149   0.088   6.030  0.4513  0.0153  0.0371
 8923SOL    HW138231   1.176   0.180   6.030 -2.5395  0.8966 -1.0597
 8923SOL    HW238232   1.134   0.077   5.936  0.4120  1.1678 -0.0906
 8924SOL     OW38233   3.684   1.392   9.799  0.1920 -0.2004 -0.0009
 8924SOL    HW138234   3.741   1.389   9.875  1.2907  1.1549 -0.7806
 8924SOL    HW238235   3.743   1.408   9.726 -1.9967 -1.8042 -2.1471
 8925SOL     OW38236   0.295   2.155   8.432  0.2709 -0.0820 -0.2784
 8925SOL    HW138237   0.228   2.162   8.499  0.2065  2.8731 -0.6551
 8925SOL    HW238238   0.364   2.209   8.470 -1.2319  0.4646  1.6185
 8926SOL     OW38239   4.291   1.621   6.112 -0.3625  0.1056 -0.8542
 8926SOL    HW138240   4.380   1.650   6.095 -0.3307  0.9319  0.6770
 8926SOL    HW238241   4.282   1.532   6.079 -1.5274  0.2655 -0.9954
 8927SOL     OW38242   3.209   4.223   5.760  0.2967  0.2857  0.4965
 8927SOL    HW138243   3.166   4.238   5.844 -0.2729 -1.6480  0.5658
 8927SOL    HW238244   3.270   4.296   5.760  1.0737 -0.3506 -1.2044
 8928SOL     OW38245   3.544   3.131   5.297 -0.1378  0.3213 -0.2222
 8928SOL    HW138246   3.491   3.069   5.347  0.1260  0.9459  0.8549
 8928SOL    HW238247   3.474   3.196   5.291  1.0236  1.4751 -1.1749
 8929SOL     OW38248   2.295   0.543  13.525  0.3992  0.2564  0.3467
 8929SOL    HW138249   2.204   0.514  13.517  1.6086 -3.5004 -0.1393
 8929SOL    HW238250   2.278   0.607  13.593 -0.6876  1.7983 -1.3743
 8930SOL     OW38251   2.893   0.364  12.490 -1.0008 -0.7042 -0.1496
 8930SOL    HW138252   2.844   0.285  12.470  1.6169 -2.2658 -0.3601
 8930SOL    HW238253   2.868   0.385  12.581 -2.2498  0.2941 -0.7182
 8931SOL     OW38254   4.506   1.145  16.677  0.3369 -0.0398  0.2211
 8931SOL    HW138255   4.551   1.108  16.601 -0.7700  0.3658 -0.6339
 8931SOL    HW238256   4.519   1.234  16.643  1.7823 -1.6428 -3.4587
 8932SOL     OW38257   4.247   0.056   9.859  0.4342 -0.8659 -0.1423
 8932SOL    HW138258   4.229   0.083   9.950 -2.2138 -1.1951 -0.5616
 8932SOL    HW238259   4.255   4.684   9.877 -0.2311 -0.7326  0.8852
 8933SOL     OW38260   0.551   0.697  15.883 -0.6458  0.1319 -0.3727
 8933SOL    HW138261   0.495   0.742  15.820  0.3899  0.7739 -0.8389
 8933SOL    HW238262   0.523   0.607  15.867 -1.4996 -0.1232  2.6900
 8934SOL     OW38263   2.709   4.222   5.369  0.0047  0.1101  0.4315
 8934SOL    HW138264   2.787   4.166   5.366  0.3421  0.6450 -0.6381
 8934SOL    HW238265   2.717   4.270   5.287  1.6631 -0.0167  0.5113
 8935SOL     OW38266   3.022   2.752   4.049  0.2423  0.1265 -0.5879
 8935SOL    HW138267   2.973   2.831   4.027  3.2530  0.7009 -5.1852
 8935SOL    HW238268   2.986   2.741   4.138 -0.6841 -0.0503 -0.9880
 8936SOL     OW38269   2.621   2.388  14.225 -0.0885  0.3454 -0.0846
 8936SOL    HW138270   2.566   2.450  14.273 -0.6050  0.3032 -0.6211
 8936SOL    HW238271   2.555   2.332  14.185 -2.4076  1.8468  1.6329
 8937SOL     OW38272   0.122   0.656  10.706  0.6773  0.6028 -0.0869
 8937SOL    HW138273   0.070   0.680  10.629  1.8595 -1.2605 -1.4491
 8937SOL    HW238274   0.178   0.586  10.672 -1.1679 -0.1535 -1.5943
 8938SOL     OW38275   0.262   2.172   2.020 -0.2132  0.0278  0.6552
 8938SOL    HW138276   0.220   2.193   2.103  1.1519  0.9409  1.1204
 8938SOL    HW238277   0.257   2.077   2.021  0.2092 -0.0089 -0.7663
 8939SOL     OW38278   3.487   4.008   7.291 -0.8812 -0.3467 -0.0553
 8939SOL    HW138279   3.563   4.014   7.232  1.0177  2.3084  2.6608
 8939SOL    HW238280   3.448   4.096   7.288 -1.7658 -0.7093  1.0874
 8940SOL     OW38281   0.756   3.578   6.670  0.4639 -0.4807 -1.1113
 8940SOL    HW138282   0.787   3.669   6.668 -1.2647  0.1455 -0.0111
 8940SOL    HW238283   0.833   3.527   6.693  0.6469 -0.1945 -1.0851
 8941SOL     OW38284   2.527   0.655   7.233  0.1121 -0.1769 -0.0020
 8941SOL    HW138285   2.564   0.743   7.243 -0.9012 -0.0337  2.5644
 8941SOL    HW238286   2.459   0.661   7.300  1.0980 -1.4108  1.1153
 8942SOL     OW38287   0.939   4.672   3.128 -0.2292 -0.0753  0.2187
 8942SOL    HW138288   0.907   4.624   3.204 -1.0948  0.7999  0.4102
 8942SOL    HW238289   0.855   4.705   3.096  0.2823  0.1810 -0.8705
 8943SOL     OW38290   1.611   4.152   1.955 -0.1067 -0.4996 -0.3174
 8943SOL    HW138291   1.693   4.181   1.994 -1.8602  0.1885  2.8517
 8943SOL    HW238292   1.560   4.135   2.034  1.5713  0.1856  0.8895
 8944SOL     OW38293   2.008   0.502   7.767  0.3939 -0.4360 -0.1010
 8944SOL    HW138294   2.002   0.590   7.805 -0.8608 -0.0283 -1.2687
 8944SOL    HW238295   2.006   0.519   7.673  1.0063  1.2056  0.1807
 8945SOL     OW38296   1.986   4.073   2.396  0.6157 -0.0500  0.2372
 8945SOL    HW138297   1.969   4.020   2.473  1.0898 -0.3998  0.0994
 8945SOL    HW238298   2.023   4.014   2.331  0.9033 -3.5013  3.5926
 8946SOL     OW38299   3.364   4.229   9.208 -0.1243  0.2810 -0.6073
 8946SOL    HW138300   3.407   4.240   9.293 -0.3895 -1.1857 -0.2785
 8946SOL    HW238301   3.372   4.316   9.168 -0.9298  0.8039  0.3684
 8947SOL     OW38302   1.330   4.712   4.308 -0.5897  0.3539 -0.1419
 8947SOL    HW138303   1.391   0.064   4.292  1.9173 -1.6743  0.0830
 8947SOL    HW238304   1.264   0.015   4.243 -1.8730 -1.6122  0.4339
 8948SOL     OW38305   1.927   3.992   0.589  0.1678 -0.0842 -0.0361
 8948SOL    HW138306   1.846   4.022   0.630  0.6078 -1.0407  1.5061
 8948SOL    HW238307   1.904   3.901   0.569 -1.0637  0.0055  0.9399
 8949SOL     OW38308   3.603   3.021   2.038  0.8327 -0.0620  0.5176
 8949SOL    HW138309   3.588   2.983   2.125  1.5605 -1.6034 -0.0405
 8949SOL    HW238310   3.513   3.026   2.006  0.6908  1.3998  1.1331
 8950SOL     OW38311   2.489   2.438   6.052  0.1868  0.7381  0.5434
 8950SOL    HW138312   2.402   2.425   6.091  0.5204  0.9025  1.3304
 8950SOL    HW238313   2.494   2.531   6.033  3.0690  0.9658  2.5022
 8951SOL     OW38314   2.817   1.245   0.866 -0.1586 -0.0531  0.2238
 8951SOL    HW138315   2.911   1.241   0.883 -0.5034  0.4191  2.2592
 8951SOL    HW238316   2.805   1.340   0.864 -0.0111 -0.0116  1.3240
 8952SOL     OW38317   3.645   0.685   2.751 -0.2754 -0.0665  0.4283
 8952SOL    HW138318   3.639   0.612   2.690 -1.1049  0.1455  0.2584
 8952SOL    HW238319   3.652   0.758   2.690 -0.1522 -0.0582  0.4524
 8953SOL     OW38320   0.700   1.054   7.513  0.0456 -0.1657 -0.2142
 8953SOL    HW138321   0.644   0.977   7.525  0.8235 -0.6387  0.3511
 8953SOL    HW238322   0.640   1.127   7.526 -0.1298 -0.1361 -1.2037
 8954SOL     OW38323   1.493   4.315  10.000 -0.3611  0.5756 -0.5721
 8954SOL    HW138324   1.476   4.398   9.954  1.9400  0.5236 -1.4825
 8954SOL    HW238325   1.538   4.359  10.073  2.6173  1.9955 -3.2500
 8955SOL     OW38326   1.294   1.389   4.053 -0.1746  0.5925  0.3581
 8955SOL    HW138327   1.334   1.344   3.979  1.8532  1.7514  0.7364
 8955SOL    HW238328   1.203   1.359   4.056  1.0923 -3.2855 -0.4179
 8956SOL     OW38329   3.782   2.410  17.284  0.3995 -0.0664 -0.2300
 8956SOL    HW138330   3.834   2.419  17.204 -0.4083 -0.5678 -0.8084
 8956SOL    HW238331   3.700   2.418  17.236 -0.3308  0.4685  1.1029
 8957SOL     OW38332   3.627   3.367   9.153  0.4641 -0.0435 -0.7177
 8957SOL    HW138333   3.533   3.371   9.136  0.2397  1.7494  0.8938
 8957SOL    HW238334   3.637   3.366   9.249  0.1748  1.3951 -0.6762
 8958SOL     OW38335   2.544   2.745   8.468  0.5359  0.4663  0.0201
 8958SOL    HW138336   2.603   2.805   8.513  2.0183  0.6505 -2.1517
 8958SOL    HW238337   2.592   2.752   8.385  0.1435  0.8289 -0.1767
 8959SOL     OW38338   0.506   0.332  15.688 -0.3165 -0.6386 -0.8205
 8959SOL    HW138339   0.586   0.363  15.730  0.3079 -0.1602 -2.3354
 8959SOL    HW238340   0.491   0.414  15.640  0.0181 -0.4924 -0.6783
 8960SOL     OW38341   2.801   1.593   8.857  0.7464 -0.2992 -0.3966
 8960SOL    HW138342   2.840   1.582   8.943 -0.9278 -0.2181  0.3706
 8960SOL    HW238343   2.836   1.679   8.834 -1.5084  0.7827  0.2047
 8961SOL     OW38344   1.620   2.487   8.618  0.2344  0.1082  0.0054
 8961SOL    HW138345   1.663   2.566   8.587  0.3171 -0.2479 -0.7644
 8961SOL    HW238346   1.536   2.499   8.573  2.1886 -1.9518 -4.1055
 8962SOL     OW38347   2.190   3.724   4.430  0.4859  0.9797 -0.2073
 8962SOL    HW138348   2.182   3.790   4.499 -1.1718 -1.3975  1.8464
 8962SOL    HW238349   2.263   3.674   4.466 -1.4767 -0.3930  1.7815
 8963SOL     OW38350   0.915   0.144   1.985 -0.5200  0.0567 -0.5810
 8963SOL    HW138351   0.839   0.140   2.042  0.5281  0.6778  0.8571
 8963SOL    HW238352   0.935   0.238   1.980 -0.1490 -0.0598 -1.3364
 8964SOL     OW38353   3.982   0.605   9.844  0.4419 -0.0231 -0.2845
 8964SOL    HW138354   3.955   0.610   9.752 -0.7291 -2.4752 -0.0587
 8964SOL    HW238355   3.921   0.667   9.883  2.2241  0.5125  1.6552
 8965SOL     OW38356   1.530   1.165   7.400 -0.2902 -0.5707  0.0482
 8965SOL    HW138357   1.592   1.172   7.473 -1.0101 -0.6091  0.6653
 8965SOL    HW238358   1.451   1.136   7.447  0.3661  1.4820  2.4237
 8966SOL     OW38359   2.932   1.804   9.121 -0.8724  0.0403 -0.5402
 8966SOL    HW138360   2.997   1.863   9.161  1.2504 -2.1861 -0.7154
 8966SOL    HW238361   2.935   1.825   9.028  0.1139 -0.5705 -0.6537
 8967SOL     OW38362   4.016   0.149  11.835  0.6515 -0.3164 -0.2616
 8967SOL    HW138363   4.065   0.231  11.826 -1.5242  0.9742 -0.2972
 8967SOL    HW238364   4.077   0.084  11.801  1.2427  0.6840 -1.1167
 8968SOL     OW38365   3.331   3.089  15.354  1.0553 -0.5124 -0.7468
 8968SOL    HW138366   3.338   3.180  15.384  0.6255 -0.5417 -0.5633
 8968SOL    HW238367   3.238   3.095  15.333  0.5296 -0.8913  1.4712
 8969SOL     OW38368   2.789   3.182   0.502  0.1279  0.0015  0.6340
 8969SOL    HW138369   2.847   3.107   0.513 -0.5398 -0.3749  1.5310
 8969SOL    HW238370   2.804   3.215   0.413 -0.3459  0.2598  0.6495
 8970SOL     OW38371   1.006   2.660   3.384  0.1060 -0.2099 -0.0782
 8970SOL    HW138372   0.950   2.722   3.336  2.8132  1.4241 -1.1164
 8970SOL    HW238373   1.076   2.643   3.322  2.7822 -0.3011  2.9973
 8971SOL     OW38374   3.777   0.751   8.004 -0.0876 -0.0229 -0.1038
 8971SOL    HW138375   3.801   0.691   8.075  1.6861  2.7395  1.6456
 8971SOL    HW238376   3.687   0.774   8.027 -0.1943 -0.5939  0.0350
 8972SOL     OW38377   4.097   0.536   3.609  0.0909  0.5345 -0.2221
 8972SOL    HW138378   4.055   0.622   3.614 -1.1423 -0.0895  0.1972
 8972SOL    HW238379   4.027   0.479   3.640  1.7292  0.0628  2.5241
 8973SOL     OW38380   2.499   1.988   5.395 -0.0972  0.3140 -0.1960
 8973SOL    HW138381   2.426   2.045   5.420 -0.3176  0.2119 -0.6074
 8973SOL    HW238382   2.571   2.033   5.440 -0.0724  0.6044 -0.5243
 8974SOL     OW38383   0.960   1.458   3.228 -0.0916 -0.1501 -0.3959
 8974SOL    HW138384   0.967   1.440   3.322  2.1279 -2.4148 -1.0102
 8974SOL    HW238385   0.865   1.462   3.222 -0.0965 -0.9058 -0.7574
 8975SOL     OW38386   1.527   0.424  14.455 -0.0713 -0.1231  0.1807
 8975SOL    HW138387   1.480   0.398  14.376  2.0094  0.8013 -1.3767
 8975SOL    HW238388   1.602   0.465  14.411 -1.6022  0.7692 -1.5730
 8976SOL     OW38389   1.175   3.094   8.571 -0.6045 -0.7220 -0.0713
 8976SOL    HW138390   1.188   3.134   8.657 -0.6874 -0.4007 -0.2094
 8976SOL    HW238391   1.264   3.099   8.537 -1.0185  0.4150 -0.9895
 8977SOL     OW38392   3.133   0.739   2.424  0.3612 -0.1033 -0.1597
 8977SOL    HW138393   3.095   0.813   2.377 -1.4381 -0.8912  0.0505
 8977SOL    HW238394   3.221   0.735   2.387  0.9422 -1.7425  1.3803
 8978SOL     OW38395   0.920   2.066   3.242 -0.2000  0.2513  0.6032
 8978SOL    HW138396   0.852   2.132   3.228 -0.6569  0.2338  2.7092
 8978SOL    HW238397   0.976   2.117   3.301  2.6025 -2.1686 -0.0220
 8979SOL     OW38398   2.936   4.451   2.731 -0.3916 -0.0315  0.4397
 8979SOL    HW138399   3.029   4.455   2.753  0.2321 -1.6797 -1.9326
 8979SOL    HW238400   2.933   4.465   2.637  1.9579  0.9789  0.5263
 8980SOL     OW38401   3.128   3.405   7.024  0.0903 -0.1071 -0.5655
 8980SOL    HW138402   3.215   3.442   7.007  0.7263 -2.5371 -2.6088
 8980SOL    HW238403   3.076   3.481   6.999 -0.2893 -0.1052  0.2516
 8981SOL     OW38404   0.181   1.026   1.235 -0.0145  0.0392 -0.3630
 8981SOL    HW138405   0.247   1.086   1.270  2.0108 -1.3596 -1.7654
 8981SOL    HW238406   0.105   1.083   1.229 -0.4783 -0.4811  0.4088
 8982SOL     OW38407   2.648   4.571  16.661 -0.2409  0.0355  0.4891
 8982SOL    HW138408   2.629   4.603  16.573  1.7217 -1.5890 -0.5138
 8982SOL    HW238409   2.614   4.482  16.659  0.6098 -0.2878  0.9230
 8983SOL     OW38410   2.819   0.160  16.328  0.4395 -0.5636 -0.4813
 8983SOL    HW138411   2.807   0.173  16.422  2.0702 -0.5434 -0.2810
 8983SOL    HW238412   2.875   0.237  16.321  1.2248 -1.0242  0.7797
 8984SOL     OW38413   4.436   0.669  10.577  0.7020  0.5285  0.3879
 8984SOL    HW138414   4.454   0.753  10.618 -4.2583  0.7448  2.1440
 8984SOL    HW238415   4.448   0.619  10.658  0.0648 -2.0564 -1.1114
 8985SOL     OW38416   3.745   1.827  13.043  0.2452  0.0126  0.0536
 8985SOL    HW138417   3.788   1.771  12.978  2.5074  1.8424 -0.0585
 8985SOL    HW238418   3.827   1.861  13.080  0.5005 -0.5420  0.0115
 8986SOL     OW38419   0.196   0.633   4.319 -0.0780  0.8259 -0.2184
 8986SOL    HW138420   0.155   0.592   4.395 -0.8098  2.2614  0.1619
 8986SOL    HW238421   0.145   0.713   4.308 -0.5283  0.4697 -0.7324
 8987SOL     OW38422   1.440   1.581   9.395  0.4055 -1.2350  0.5305
 8987SOL    HW138423   1.376   1.556   9.461 -0.9075  1.2628  0.2108
 8987SOL    HW238424   1.506   1.614   9.457  2.2404  0.8586 -2.5594
 8988SOL     OW38425   2.927   0.209   1.004  0.4446  0.3649 -0.2183
 8988SOL    HW138426   2.882   0.277   1.054 -0.9829 -1.0834  0.4803
 8988SOL    HW238427   2.889   0.137   1.054 -1.1118  1.2171 -0.1763
 8989SOL     OW38428   2.023   3.592  17.592  0.5153  0.3752  0.0872
 8989SOL    HW138429   2.005   3.681  17.620  0.5637  0.1071  0.9810
 8989SOL    HW238430   2.102   3.569  17.642  0.2749  0.1973  0.3869
 8990SOL     OW38431   1.351   4.073  10.458 -0.5656  0.2347 -0.2180
 8990SOL    HW138432   1.394   4.005  10.405 -0.1353  1.7016 -1.7654
 8990SOL    HW238433   1.387   4.041  10.540 -0.4121  0.5861 -0.1488
 8991SOL     OW38434   2.664   2.552  16.786 -0.1352  0.2007  0.3909
 8991SOL    HW138435   2.733   2.501  16.828 -2.5504 -2.9673  0.4936
 8991SOL    HW238436   2.686   2.645  16.795 -2.4927  0.7061  1.0666
 8992SOL     OW38437   2.326   2.569  14.198  0.2714  0.3394  0.0045
 8992SOL    HW138438   2.416   2.583  14.168  1.2128 -1.7497  1.8186
 8992SOL    HW238439   2.312   2.474  14.192 -1.3260  0.6601 -1.3851
 8993SOL     OW38440   3.276   3.116   1.691  1.0579  0.4810 -0.0501
 8993SOL    HW138441   3.306   3.131   1.602 -2.1247  0.9509 -1.0287
 8993SOL    HW238442   3.217   3.043   1.671  0.1707  1.4576 -0.9799
 8994SOL     OW38443   3.890   3.883   6.008 -0.5231 -0.2745  0.1592
 8994SOL    HW138444   3.968   3.936   6.024 -0.2498 -0.7166  0.2892
 8994SOL    HW238445   3.901   3.813   6.073  1.1479  0.6910  0.9050
 8995SOL     OW38446   2.593   0.945   7.019  0.2740  0.5420 -0.3020
 8995SOL    HW138447   2.638   0.911   7.097 -2.4380 -2.6967 -0.0869
 8995SOL    HW238448   2.522   0.997   7.056  0.0289 -1.4337  2.0714
 8996SOL     OW38449   0.390   4.604   1.600  0.5464 -0.5331  0.3139
 8996SOL    HW138450   0.398   4.630   1.692  0.6597 -0.3592  0.2561
 8996SOL    HW238451   0.468   4.650   1.569 -0.3913  0.2970 -0.8149
 8997SOL     OW38452   2.611   1.820   2.796 -0.2188  0.7824 -0.6424
 8997SOL    HW138453   2.547   1.860   2.855  0.4144 -0.1740  0.6849
 8997SOL    HW238454   2.680   1.812   2.861 -0.8298 -0.1884 -0.1095
 8998SOL     OW38455   3.955   3.571  13.489 -0.4401 -0.0256  0.1406
 8998SOL    HW138456   4.003   3.512  13.546  0.5621  0.1317 -0.5475
 8998SOL    HW238457   3.998   3.578  13.404  3.0018  2.5554  2.0917
 8999SOL     OW38458   0.496   3.817   4.419  0.6325  0.2202 -0.0277
 8999SOL    HW138459   0.546   3.895   4.446  0.9488 -0.1718  0.5391
 8999SOL    HW238460   0.456   3.852   4.340 -0.2889 -1.3398 -0.2428
 9000SOL     OW38461   3.385   2.400   5.931  0.1458 -0.6814 -0.0764
 9000SOL    HW138462   3.350   2.456   6.001  0.5006  1.3460 -1.5127
 9000SOL    HW238463   3.303   2.389   5.883  0.6022 -0.6013 -0.8623
 9001SOL     OW38464   2.232   2.954  14.934 -0.1947  0.9430  0.5877
 9001SOL    HW138465   2.269   3.038  14.962  3.0870 -0.5259  0.5583
 9001SOL    HW238466   2.204   2.913  15.016  0.1871  1.9479  1.2150
 9002SOL     OW38467   4.451   1.542  12.431  0.0884  0.2327  0.3283
 9002SOL    HW138468   4.513   1.586  12.372 -0.3208  0.0434 -0.2350
 9002SOL    HW238469   4.478   1.451  12.422  1.0885  0.5149  0.4818
 9003SOL     OW38470   2.764   4.037   0.965 -0.3709 -0.2422  0.0973
 9003SOL    HW138471   2.830   4.059   0.899 -0.1090  1.5923  0.9492
 9003SOL    HW238472   2.776   4.102   1.035 -1.1074 -1.4042  1.2936
 9004SOL     OW38473   4.520   2.735   5.611  0.3476  0.6807 -0.2493
 9004SOL    HW138474   4.570   2.812   5.587  0.1930  1.8254  3.1435
 9004SOL    HW238475   4.479   2.707   5.529 -0.6871  1.0928  0.1297
 9005SOL     OW38476   0.029   2.901  17.139 -0.0643 -0.0843 -0.2928
 9005SOL    HW138477   4.685   2.830  17.139 -0.6993  0.5009 -0.4901
 9005SOL    HW238478   4.700   2.977  17.110  0.6722  0.7178  0.5550
 9006SOL     OW38479   1.800   1.058   8.379 -0.3789 -0.7944 -0.5891
 9006SOL    HW138480   1.878   1.112   8.368 -0.0911 -0.8086  1.3055
 9006SOL    HW238481   1.758   1.074   8.295  1.6180 -0.7590 -1.5781
 9007SOL     OW38482   1.525   0.258   6.798 -0.0610 -0.5154 -0.8837
 9007SOL    HW138483   1.437   0.272   6.762 -0.0737  1.3257 -0.1724
 9007SOL    HW238484   1.509   0.169   6.829 -0.7638 -0.1741 -0.2500
 9008SOL     OW38485   2.149   3.530   7.148 -0.0480  0.3895  0.1857
 9008SOL    HW138486   2.209   3.455   7.144  0.9158  1.1566  0.3061
 9008SOL    HW238487   2.199   3.587   7.090 -1.3409  0.9840 -0.3361
 9009SOL     OW38488   3.871   2.335  13.968  0.1857 -0.6396  0.3574
 9009SOL    HW138489   3.814   2.259  13.963  0.4146 -0.8762  1.2583
 9009SOL    HW238490   3.903   2.360  13.882 -2.3467 -0.2137 -0.4723
 9010SOL     OW38491   3.033   3.722   2.515 -0.0118  0.7059  0.2582
 9010SOL    HW138492   3.008   3.809   2.486  0.3566  0.8856  0.4803
 9010SOL    HW238493   2.964   3.705   2.578 -0.5210  0.2535 -0.4153
 9011SOL     OW38494   2.213   0.727   7.131 -0.0812 -0.0346  0.5438
 9011SOL    HW138495   2.211   0.747   7.038  1.1604  1.0249  0.7548
 9011SOL    HW238496   2.170   0.801   7.174  0.7887  0.8382 -0.0996
 9012SOL     OW38497   2.250   1.052   3.211  0.5835  0.5296  0.5865
 9012SOL    HW138498   2.281   1.011   3.291 -0.8112  0.1137  0.9114
 9012SOL    HW238499   2.325   1.053   3.152 -0.1525 -0.9139 -0.3719
 9013SOL     OW38500   2.350   2.843   4.444  0.0889  0.3787  0.5702
 9013SOL    HW138501   2.373   2.868   4.354 -0.7533 -1.2042 -0.0949
 9013SOL    HW238502   2.375   2.751   4.449  1.7391  0.6412 -2.6802
 9014SOL     OW38503   1.931   0.204   3.451  0.1322  0.1256 -0.4486
 9014SOL    HW138504   1.964   0.210   3.540 -1.9118  2.3281  0.1579
 9014SOL    HW238505   1.883   0.286   3.442  1.1724  0.6017 -1.6078
 9015SOL     OW38506   3.130   4.603   2.095 -0.0189 -0.1176 -0.0367
 9015SOL    HW138507   3.211   4.647   2.122 -0.3934  0.1397  0.6577
 9015SOL    HW238508   3.062   4.668   2.111 -0.3005 -0.1302 -1.1603
 9016SOL     OW38509   3.374   4.475   5.675  0.2117 -0.0449 -0.2348
 9016SOL    HW138510   3.407   4.506   5.759  0.8987 -1.8066  0.1512
 9016SOL    HW238511   3.446   4.419   5.645 -0.1931 -1.3090  1.1199
 9017SOL     OW38512   2.650   3.443   7.797 -0.6548 -0.5092 -0.3096
 9017SOL    HW138513   2.730   3.403   7.832 -2.2801 -1.4653  2.2512
 9017SOL    HW238514   2.670   3.448   7.704 -0.1455 -1.4982 -0.2586
 9018SOL     OW38515   3.972   3.909   5.346  0.0087 -0.0199  0.3108
 9018SOL    HW138516   3.954   3.935   5.436  1.0149  3.0656 -0.3819
 9018SOL    HW238517   3.913   3.961   5.292  0.1661 -0.8157 -0.6455
 9019SOL     OW38518   3.454   2.987  12.796  0.4472  0.2617  0.4921
 9019SOL    HW138519   3.366   2.950  12.807  0.6800  0.0808  1.7423
 9019SOL    HW238520   3.430   3.079  12.785 -0.3913  0.1693  1.5425
 9020SOL     OW38521   3.308   0.760   7.771 -0.2861 -0.3930  0.6119
 9020SOL    HW138522   3.233   0.715   7.811 -1.3427  1.2736  0.5209
 9020SOL    HW238523   3.378   0.699   7.795  1.6255  1.8983  0.7933
 9021SOL     OW38524   1.337   1.141  15.190 -0.1080  0.2917 -0.5660
 9021SOL    HW138525   1.277   1.163  15.118 -1.1733 -2.4657 -0.5201
 9021SOL    HW238526   1.383   1.068  15.148 -0.1391  0.2103 -0.4590
 9022SOL     OW38527   1.768   0.421   9.531  0.2944 -0.4074 -0.2462
 9022SOL    HW138528   1.716   0.459   9.602 -0.1708 -1.0531 -0.2431
 9022SOL    HW238529   1.769   0.498   9.474 -1.5189  1.3163  2.0259
 9023SOL     OW38530   2.001   2.993  15.873 -0.5056 -0.2794 -0.1342
 9023SOL    HW138531   2.007   3.033  15.786 -0.7599 -1.5506 -0.7424
 9023SOL    HW238532   2.033   2.904  15.862  0.7393 -0.0072  1.2313
 9024SOL     OW38533   2.422   2.741   8.919 -0.3104 -0.4030 -0.1272
 9024SOL    HW138534   2.427   2.691   9.001 -0.1497  0.3038  0.2899
 9024SOL    HW238535   2.399   2.669   8.860 -2.3675 -0.3155  0.5571
 9025SOL     OW38536   4.144   0.763  15.614  0.4651  0.3812 -0.3856
 9025SOL    HW138537   4.204   0.832  15.585  0.8132 -0.5529 -1.8630
 9025SOL    HW238538   4.128   0.713  15.534  0.1304 -2.1639  1.2956
 9026SOL     OW38539   4.263   2.427   3.883  0.0552  0.1417  0.1565
 9026SOL    HW138540   4.335   2.374   3.849  0.8146  1.6719 -0.5844
 9026SOL    HW238541   4.263   2.500   3.821  0.0888  0.1732  0.1937
 9027SOL     OW38542   4.115   2.114   1.207  0.0858 -0.6738 -0.1056
 9027SOL    HW138543   4.171   2.040   1.183  0.5499 -1.1026  2.3602
 9027SOL    HW238544   4.162   2.186   1.165 -0.8649  0.9115  1.5448
 9028SOL     OW38545   0.802   3.985  16.430  0.0667  0.0222 -0.0894
 9028SOL    HW138546   0.856   4.064  16.436  0.0606  0.0565 -0.5177
 9028SOL    HW238547   0.866   3.921  16.398  1.4773  0.9884  0.7573
 9029SOL     OW38548   3.465   0.058   2.340 -0.1140 -0.1229  0.4547
 9029SOL    HW138549   3.483   0.116   2.413 -1.4424 -1.3246  1.7330
 9029SOL    HW238550   3.547   0.008   2.338  0.2219  0.4477 -0.0107
 9030SOL     OW38551   4.565   0.059  13.599 -0.4158 -0.2452  0.7745
 9030SOL    HW138552   4.542   0.043  13.508  1.3170 -1.8910  0.6239
 9030SOL    HW238553   4.533   0.149  13.610 -2.4433 -0.8649 -0.0481
 9031SOL     OW38554   4.462   0.307  17.030  0.4223  0.1226  0.1730
 9031SOL    HW138555   4.469   0.402  17.039  0.8532  0.1632 -0.6376
 9031SOL    HW238556   4.423   0.309  16.943  0.0518  1.8501  0.3894
 9032SOL     OW38557   1.268   3.025   6.808 -0.1187  0.7980 -0.2341
 9032SOL    HW138558   1.294   3.099   6.863  0.2377  1.6773 -1.5649
 9032SOL    HW238559   1.336   2.961   6.825  0.3245  0.8921 -1.5998
 9033SOL     OW38560   4.527   3.769   5.828  0.5819 -0.3445 -0.6684
 9033SOL    HW138561   4.494   3.851   5.866  2.5356  0.0758  0.1616
 9033SOL    HW238562   4.444   3.729   5.802  1.5415 -2.4994 -0.3454
 9034SOL     OW38563   4.658   1.475   8.616  0.6318 -0.2299  0.2998
 9034SOL    HW138564   4.705   1.452   8.537  0.2842  0.0596  0.0066
 9034SOL    HW238565   4.644   1.568   8.597  0.4401 -0.4858 -0.7890
 9035SOL     OW38566   1.794   0.611   9.339 -0.3896 -0.3658 -0.6452
 9035SOL    HW138567   1.840   0.629   9.256 -1.3347  3.2129 -0.4156
 9035SOL    HW238568   1.735   0.686   9.338 -1.1085 -0.9346  1.4324
 9036SOL     OW38569   0.636   2.752   3.960  0.3838  0.7972  0.6327
 9036SOL    HW138570   0.643   2.782   4.051 -1.2400  1.6516  0.4772
 9036SOL    HW238571   0.541   2.745   3.949  0.7266 -0.9359 -1.2972
 9037SOL     OW38572   4.584   1.721   8.434  0.7509 -0.3013 -0.1217
 9037SOL    HW138573   4.515   1.775   8.395  0.7102 -0.3553 -0.1242
 9037SOL    HW238574   4.603   1.666   8.359  0.5999 -0.3041 -0.1580
 9038SOL     OW38575   4.669   0.081   2.908  0.2502  0.3053  0.2292
 9038SOL    HW138576   4.625   0.079   2.823 -0.6427 -3.1391  0.7895
 9038SOL    HW238577   4.683   0.173   2.930 -3.0876  0.0997  3.1228
 9039SOL     OW38578   4.336   2.687   7.330  0.2712  0.2620  0.5509
 9039SOL    HW138579   4.313   2.699   7.238 -1.9562  0.5177  1.1539
 9039SOL    HW238580   4.393   2.763   7.338 -1.2038  1.3412  0.7474
 9040SOL     OW38581   2.585   1.073   1.477  0.2662  0.4227  0.3538
 9040SOL    HW138582   2.547   0.987   1.492  0.1314  0.3758 -0.2711
 9040SOL    HW238583   2.626   1.079   1.563  1.0506 -2.2145  0.1387
 9041SOL     OW38584   1.454   3.275   0.597 -0.1647 -0.1385 -0.1018
 9041SOL    HW138585   1.365   3.306   0.582 -1.3888 -2.6818  1.9424
 9041SOL    HW238586   1.449   3.187   0.560 -1.3888  0.4040 -1.2112
 9042SOL     OW38587   0.952   0.319  12.434  0.6346 -0.2329  0.0388
 9042SOL    HW138588   0.954   0.287  12.524 -1.6551 -1.5911 -0.3702
 9042SOL    HW238589   0.863   0.356  12.433  0.8465  0.3399  1.6903
 9043SOL     OW38590   1.957   3.190   7.652  0.3769  0.0250 -0.0522
 9043SOL    HW138591   1.986   3.139   7.575 -2.7306 -0.9307 -0.5988
 9043SOL    HW238592   2.043   3.202   7.694  0.4691  1.8721 -0.7838
 9044SOL     OW38593   4.577   1.324  15.252 -0.0725 -0.4662 -0.4127
 9044SOL    HW138594   4.519   1.283  15.187 -0.8283 -1.6088  0.9630
 9044SOL    HW238595   4.521   1.319  15.330  0.6014 -1.2042  0.0273
 9045SOL     OW38596   0.090   1.579  15.339  0.3646  0.3876 -0.1077
 9045SOL    HW138597   0.100   1.638  15.265  2.6553  2.7013  2.0029
 9045SOL    HW238598   0.014   1.531  15.308  0.7564  0.2024 -0.7819
 9046SOL     OW38599   0.298   4.094   5.337  0.1347  1.1797 -0.2128
 9046SOL    HW138600   0.264   4.099   5.427  2.0136 -2.2587  0.6772
 9046SOL    HW238601   0.313   4.002   5.316 -3.8113  1.0334 -2.3876
 9047SOL     OW38602   4.689   4.018   2.753 -0.3255  0.3141  0.3401
 9047SOL    HW138603   4.646   4.086   2.702 -1.3906  1.5816  2.9193
 9047SOL    HW238604   4.617   3.985   2.807  1.4729 -0.6198  2.1998
 9048SOL     OW38605   2.603   3.248   3.059  0.2372  0.5929 -0.2599
 9048SOL    HW138606   2.644   3.237   3.144 -0.7698 -0.5157  0.0866
 9048SOL    HW238607   2.654   3.326   3.037 -0.3762  0.5692 -1.7750
 9049SOL     OW38608   3.102   4.019   0.042  0.3171  0.6116 -0.0111
 9049SOL    HW138609   3.013   3.984   0.034  0.5025  0.1812 -0.1321
 9049SOL    HW238610   3.081   4.086   0.109 -0.3716  0.5446 -0.1545
 9050SOL     OW38611   0.905   0.562  12.215  0.1075 -0.4782 -0.0878
 9050SOL    HW138612   0.865   0.648  12.201  0.8551  0.1082  1.3588
 9050SOL    HW238613   0.866   0.522  12.293 -1.3020 -3.1227 -2.1578
 9051SOL     OW38614   0.002   3.338   7.035  0.1087  0.1564  0.1898
 9051SOL    HW138615   0.018   3.394   6.960  3.0497 -1.5982 -0.5097
 9051SOL    HW238616   0.061   3.387   7.092 -0.2045  0.2150  0.4602
 9052SOL     OW38617   2.246   1.153  10.856  0.2580 -0.5128  0.4409
 9052SOL    HW138618   2.305   1.194  10.794  0.8534  0.9948  2.0051
 9052SOL    HW238619   2.289   1.176  10.938 -1.0177  2.1002  0.3760
 9053SOL     OW38620   2.466   3.993   8.797 -0.1291 -0.7416  0.2600
 9053SOL    HW138621   2.456   4.071   8.743 -1.0423 -1.1188 -0.0989
 9053SOL    HW238622   2.428   3.922   8.746 -0.6703  0.7678 -1.4395
 9054SOL     OW38623   2.550   1.282   5.817  0.1941 -0.0301 -0.4393
 9054SOL    HW138624   2.547   1.217   5.887  0.2942  1.7039  1.1799
 9054SOL    HW238625   2.515   1.236   5.741 -1.8187  0.2564  0.2984
 9055SOL     OW38626   2.703   1.827   9.257 -0.1737 -1.1851 -0.5910
 9055SOL    HW138627   2.694   1.921   9.245 -1.4180 -1.2501 -0.1782
 9055SOL    HW238628   2.777   1.805   9.200  0.0590  0.1088 -0.7775
 9056SOL     OW38629   2.048   1.740  13.376 -0.7284 -0.1552  0.0957
 9056SOL    HW138630   1.977   1.701  13.325 -2.2220 -1.0491  2.8338
 9056SOL    HW238631   2.040   1.674  13.445 -1.9355 -1.0077 -0.8753
 9057SOL     OW38632   4.412   3.908   7.191 -0.0056 -0.1402 -0.0232
 9057SOL    HW138633   4.468   3.902   7.268 -1.5410  1.5064  1.2308
 9057SOL    HW238634   4.328   3.880   7.227 -0.3428  0.8376 -0.0520
 9058SOL     OW38635   0.995   0.206   7.698 -0.2737 -0.3352  0.4190
 9058SOL    HW138636   0.940   0.197   7.777  2.8759  0.0691  2.6661
 9058SOL    HW238637   1.033   0.290   7.724  1.1407 -1.1069  0.8494
 9059SOL     OW38638   0.285   3.377  15.923 -0.0516 -0.0497  0.6263
 9059SOL    HW138639   0.226   3.395  15.995 -0.4277 -0.3185  0.3843
 9059SOL    HW238640   0.229   3.329  15.862  2.0269 -1.4817 -0.1597
 9060SOL     OW38641   0.134   3.502   0.634 -0.2803  0.2792  0.0648
 9060SOL    HW138642   0.160   3.476   0.545 -0.3263 -0.0674  0.1501
 9060SOL    HW238643   0.103   3.592   0.623 -0.6146  0.1483 -0.0649
 9061SOL     OW38644   0.818   4.232   3.331 -0.0514 -0.7414 -0.0763
 9061SOL    HW138645   0.835   4.299   3.397  0.2534  1.1773 -2.1059
 9061SOL    HW238646   0.838   4.148   3.373 -2.3951 -1.8087 -1.0652
 9062SOL     OW38647   0.824   3.697  13.638 -0.1965  0.3390 -0.4901
 9062SOL    HW138648   0.863   3.621  13.681 -0.4547  1.0987  1.0567
 9062SOL    HW238649   0.780   3.739  13.712 -0.8421 -2.0400  0.4992
 9063SOL     OW38650   0.327   4.320   1.280 -0.2145  0.2164 -0.4138
 9063SOL    HW138651   0.261   4.268   1.326 -0.1057  0.5835  0.1480
 9063SOL    HW238652   0.392   4.323   1.350 -0.9839  1.5980  0.2330
 9064SOL     OW38653   1.989   0.987   3.813  0.1672 -0.0409  0.0262
 9064SOL    HW138654   1.934   1.039   3.871 -2.4051 -1.3633 -1.2102
 9064SOL    HW238655   1.936   0.908   3.799  1.4574 -0.7980 -0.6073
 9065SOL     OW38656   1.466   2.919   0.124  0.7014  0.2645 -0.1771
 9065SOL    HW138657   1.457   3.009   0.091 -0.0355  0.3192  0.1782
 9065SOL    HW238658   1.533   2.885   0.065  0.1622 -0.3918 -0.4032
 9066SOL     OW38659   4.028   0.373   0.835  0.9461 -0.3311  0.0524
 9066SOL    HW138660   4.062   0.307   0.896  2.5276 -0.5446 -1.0453
 9066SOL    HW238661   3.986   0.429   0.901 -0.3704  0.8984 -1.8519
 9067SOL     OW38662   0.142   1.058   7.344 -0.0057  0.6024 -0.2175
 9067SOL    HW138663   0.225   1.012   7.362  1.1790  2.2713 -1.4434
 9067SOL    HW238664   0.168   1.150   7.340  0.3871  0.5048  0.0872
 9068SOL     OW38665   0.147   3.224   8.001 -0.3877  0.0257 -0.2353
 9068SOL    HW138666   0.224   3.253   8.050  0.7917 -0.9094 -1.5349
 9068SOL    HW238667   0.125   3.146   8.053  0.1313  0.1310  0.1512
 9069SOL     OW38668   0.321   3.846   5.743  0.0937 -0.1179 -0.1449
 9069SOL    HW138669   0.378   3.783   5.698 -2.4367 -3.3490  1.1749
 9069SOL    HW238670   0.261   3.785   5.786 -0.6158  1.0646  0.5274
 9070SOL     OW38671   3.222   1.128   7.437  0.6250  0.1408  0.3571
 9070SOL    HW138672   3.148   1.147   7.495 -0.3898  2.0369 -1.5732
 9070SOL    HW238673   3.278   1.205   7.430  1.6003 -0.7020 -1.1129
 9071SOL     OW38674   1.697   1.713  15.911 -0.1790 -0.6895 -0.3482
 9071SOL    HW138675   1.638   1.739  15.981  2.3416  1.2182  1.0738
 9071SOL    HW238676   1.659   1.634  15.872 -0.4372  0.1092 -1.6874
 9072SOL     OW38677   1.736   2.123   2.091  0.2065 -0.0331 -0.1291
 9072SOL    HW138678   1.766   2.130   2.000 -0.5894 -0.3282 -0.4127
 9072SOL    HW238679   1.644   2.110   2.069  0.1080 -1.0714  0.9366
 9073SOL     OW38680   2.642   2.740   5.845  0.1320 -0.0271 -0.1030
 9073SOL    HW138681   2.713   2.784   5.891 -0.2133  0.7508 -0.3226
 9073SOL    HW238682   2.561   2.770   5.887  0.8790 -0.2517  1.4949
 9074SOL     OW38683   0.551   3.751  14.737  1.0092  0.0521 -0.7750
 9074SOL    HW138684   0.597   3.834  14.749  0.2778 -0.0745  3.0280
 9074SOL    HW238685   0.561   3.747  14.642  1.0045 -0.1819 -0.7647
 9075SOL     OW38686   1.160   2.308  15.035  0.3040  0.3575 -0.2486
 9075SOL    HW138687   1.122   2.321  15.122 -1.6264 -1.7575 -0.7535
 9075SOL    HW238688   1.251   2.310  15.064 -0.0520 -1.2383  1.0003
 9076SOL     OW38689   1.219   4.637   0.172  0.4338  0.3588  0.2423
 9076SOL    HW138690   1.157   4.601   0.236  0.6603  1.0193  0.8359
 9076SOL    HW238691   1.240   0.001   0.212  2.8536 -0.6646  1.1722
 9077SOL     OW38692   0.839   3.004  15.930 -0.0261 -0.3885 -0.4088
 9077SOL    HW138693   0.925   2.972  15.902  0.5296 -0.2772  1.1446
 9077SOL    HW238694   0.844   3.004  16.026  0.3203  0.1558 -0.4238
 9078SOL     OW38695   0.038   2.676   6.616  0.2608  0.0828  0.4969
 9078SOL    HW138696   4.696   2.645   6.551 -0.1075 -0.0326  0.9093
 9078SOL    HW238697   4.695   2.713   6.677 -1.1357 -0.5058 -0.6206
 9079SOL     OW38698   3.374   3.607   5.284  0.8552  0.0486 -0.3523
 9079SOL    HW138699   3.308   3.666   5.321  0.0341  0.5192 -2.5626
 9079SOL    HW238700   3.411   3.657   5.211 -1.2924  2.2398  0.0489
 9080SOL     OW38701   2.395   3.417  11.569 -0.2015 -0.0920 -0.0250
 9080SOL    HW138702   2.352   3.331  11.570  0.6021 -0.4868  0.6997
 9080SOL    HW238703   2.362   3.464  11.646  1.8083 -2.5810  2.3849
 9081SOL     OW38704   1.777   3.092  14.988  0.3685  0.3620  0.1938
 9081SOL    HW138705   1.820   3.055  14.911  1.5676  0.4744  0.8100
 9081SOL    HW238706   1.699   3.036  14.992 -1.7567  3.6457  4.0348
 9082SOL     OW38707   0.749   3.024   8.720  0.6554 -0.0280 -0.2986
 9082SOL    HW138708   0.657   2.998   8.708  0.2217  0.7773  1.2847
 9082SOL    HW238709   0.739   3.119   8.731  1.1484 -0.2119  1.6972
 9083SOL     OW38710   1.391   0.647  15.538  0.2218  0.3219  0.0873
 9083SOL    HW138711   1.336   0.613  15.466  0.0952 -1.6054  1.1016
 9083SOL    HW238712   1.482   0.657  15.509  0.3781  0.4493  0.6367
 9084SOL     OW38713   2.496   3.256   9.019  0.3334 -0.3030 -0.6229
 9084SOL    HW138714   2.482   3.280   9.111  2.0636 -1.7712  0.0318
 9084SOL    HW238715   2.430   3.314   8.983  0.5328 -0.1087 -0.6758
 9085SOL     OW38716   0.020   1.742   5.363  0.2167 -0.1069 -0.7672
 9085SOL    HW138717   0.044   1.797   5.288  0.0984 -0.4693 -1.0760
 9085SOL    HW238718   4.646   1.738   5.360  0.3021 -3.8535  1.3920
 9086SOL     OW38719   1.832   1.669   8.667 -0.6500 -0.2558 -0.4180
 9086SOL    HW138720   1.869   1.725   8.599  0.3311 -0.2992  0.0827
 9086SOL    HW238721   1.830   1.592   8.611 -0.5259 -0.1530 -0.5626
 9087SOL     OW38722   4.512   0.435  14.501  0.3596  0.1951 -0.7169
 9087SOL    HW138723   4.453   0.448  14.575  1.3538 -0.0225  0.1061
 9087SOL    HW238724   4.592   0.480  14.529 -0.8732  1.5410  0.6494
 9088SOL     OW38725   1.749   0.959   0.891  0.5244 -0.1316  0.6063
 9088SOL    HW138726   1.801   0.911   0.826  0.2573 -1.2890  1.2595
 9088SOL    HW238727   1.821   1.005   0.934  0.2874 -1.6640  2.6205
 9089SOL     OW38728   1.294   2.298   7.730 -0.0020 -0.2367  0.3702
 9089SOL    HW138729   1.249   2.337   7.804  1.1460  1.7938 -0.0035
 9089SOL    HW238730   1.383   2.289   7.766  0.6508 -0.2906 -1.2523
 9090SOL     OW38731   4.430   3.341  14.052  0.2668 -0.3664 -0.1196
 9090SOL    HW138732   4.526   3.339  14.047  0.1735 -0.8980 -1.5511
 9090SOL    HW238733   4.395   3.261  14.015 -0.0734  0.7854 -2.2743
 9091SOL     OW38734   4.012   1.525  14.723  0.3785 -0.0008 -0.0029
 9091SOL    HW138735   3.949   1.488  14.661  0.7612 -0.4138 -0.1376
 9091SOL    HW238736   3.956   1.561  14.792 -1.7570  0.2959 -1.8646
 9092SOL     OW38737   2.540   4.408   6.188 -0.3925 -0.1543  0.3351
 9092SOL    HW138738   2.614   4.392   6.247 -1.7902 -0.0428  2.1176
 9092SOL    HW238739   2.547   4.349   6.113  3.0107 -0.4034  0.8616
 9093SOL     OW38740   2.846   1.798  16.684  0.3709  0.4975  0.5304
 9093SOL    HW138741   2.842   1.703  16.674 -0.2708  0.4820  0.9257
 9093SOL    HW238742   2.788   1.814  16.759 -3.0225 -0.2040 -1.9526
 9094SOL     OW38743   2.621   3.877  12.164  0.0981  0.5601  0.2465
 9094SOL    HW138744   2.538   3.863  12.119  1.0596  0.1385 -1.3859
 9094SOL    HW238745   2.601   3.925  12.245 -0.8395  0.4484  0.0795
 9095SOL     OW38746   2.736   0.109   8.342  0.3211  0.3814 -0.0222
 9095SOL    HW138747   2.790   0.187   8.328 -0.1721  0.5212 -1.1393
 9095SOL    HW238748   2.756   0.073   8.256  3.0525  1.9067 -0.0256
 9096SOL     OW38749   4.282   3.318  13.163 -0.6525  0.2220  0.3471
 9096SOL    HW138750   4.349   3.384  13.180  0.1061 -0.7070  1.0179
 9096SOL    HW238751   4.228   3.367  13.102 -1.4737 -1.4166 -0.2489
 9097SOL     OW38752   3.696   0.332   4.616  0.2088  0.1176  0.3682
 9097SOL    HW138753   3.706   0.251   4.665  1.8790 -1.0991 -2.0127
 9097SOL    HW238754   3.750   0.389   4.671  1.3921 -0.8305  0.1916
 9098SOL     OW38755   2.611   1.081   3.289  0.1500 -0.1787 -0.5603
 9098SOL    HW138756   2.531   1.053   3.334 -0.6019 -1.2723 -2.5569
 9098SOL    HW238757   2.619   1.169   3.325 -0.3667 -0.1624 -0.4883
 9099SOL     OW38758   4.238   1.373   5.590  0.4020  0.3328  0.0495
 9099SOL    HW138759   4.272   1.299   5.541 -0.8183  0.9373 -1.7281
 9099SOL    HW238760   4.199   1.322   5.660  0.8650  0.6677  0.5527
 9100SOL     OW38761   2.592   2.263  11.635  0.1346  0.0494 -0.3855
 9100SOL    HW138762   2.634   2.348  11.617 -0.1866  0.5987  1.4113
 9100SOL    HW238763   2.506   2.293  11.664  1.3674  1.6253  1.6310
 9101SOL     OW38764   2.540   3.047   9.714  0.2790  0.2543 -0.1693
 9101SOL    HW138765   2.492   3.056   9.632  1.1935 -0.0286 -0.7391
 9101SOL    HW238766   2.476   3.078   9.778  1.3465 -2.3586  2.1655
 9102SOL     OW38767   2.050   4.609   7.767  0.2717  0.1121  1.0964
 9102SOL    HW138768   2.135   4.567   7.752  0.0158  0.4713 -1.4477
 9102SOL    HW238769   2.006   4.552   7.703  1.6212 -0.0286  0.2882
 9103SOL     OW38770   4.013   4.156   7.869  0.1906  0.2575  0.4751
 9103SOL    HW138771   3.931   4.204   7.877 -0.4559 -0.9576  1.1581
 9103SOL    HW238772   4.007   4.129   7.777  2.5950  0.0789  0.3684
 9104SOL     OW38773   3.004   0.548  16.610  0.0686 -0.6188 -0.4791
 9104SOL    HW138774   3.052   0.470  16.583  3.1856  1.5478 -1.1514
 9104SOL    HW238775   2.976   0.520  16.697 -0.2467  1.9149  0.2455
 9105SOL     OW38776   1.960   1.231   2.251  0.0751 -0.1755 -0.1129
 9105SOL    HW138777   1.938   1.324   2.262 -1.6645 -0.4993 -0.8130
 9105SOL    HW238778   2.014   1.246   2.173  2.7451 -0.3515  1.7107
 9106SOL     OW38779   3.110   3.688   6.103 -0.7758 -0.5100 -0.4526
 9106SOL    HW138780   3.165   3.638   6.042 -0.5832  0.8850 -1.4316
 9106SOL    HW238781   3.113   3.777   6.066 -4.5799  0.9577  2.6627
 9107SOL     OW38782   3.326   1.208   3.111  0.3265  0.3803 -0.7303
 9107SOL    HW138783   3.350   1.115   3.112  1.3513  0.6711  3.2765
 9107SOL    HW238784   3.231   1.193   3.110  0.6611 -1.8997  2.0345
 9108SOL     OW38785   3.134   3.319  10.155 -0.5367 -0.3810  0.4437
 9108SOL    HW138786   3.185   3.315  10.236  1.2639 -0.6846 -0.7018
 9108SOL    HW238787   3.158   3.397  10.107  1.8468 -2.9411 -2.5355
 9109SOL     OW38788   0.648   0.693   6.603 -0.3194  0.1208  0.5528
 9109SOL    HW138789   0.554   0.705   6.587 -0.1976 -0.2554 -0.4189
 9109SOL    HW238790   0.656   0.731   6.691 -0.5983 -1.1225  1.1117
 9110SOL     OW38791   1.370   2.982   9.736  0.0743 -0.3186  0.3329
 9110SOL    HW138792   1.405   2.997   9.824  1.2608 -2.4295  0.2293
 9110SOL    HW238793   1.450   2.990   9.684 -1.9734  2.7991 -2.2893
 9111SOL     OW38794   3.286   3.800   2.924 -0.2205 -0.0134 -0.0208
 9111SOL    HW138795   3.344   3.874   2.942 -0.3068 -0.2840  1.3985
 9111SOL    HW238796   3.223   3.838   2.863  1.5217 -2.3165 -3.2630
 9112SOL     OW38797   3.972   1.040   8.942 -0.0877 -0.4290  0.0945
 9112SOL    HW138798   4.005   1.073   8.858  0.7373  0.1076  0.6147
 9112SOL    HW238799   4.009   0.952   8.935 -2.4675 -1.4560  0.6515
 9113SOL     OW38800   2.161   4.624  13.573 -0.1083  0.6052 -0.1766
 9113SOL    HW138801   2.208   4.544  13.593  1.0058  1.1287 -0.7323
 9113SOL    HW238802   2.073   4.588  13.584  0.8953 -2.0690 -0.9114
 9114SOL     OW38803   4.649   3.125  16.985 -0.6279 -0.2507 -0.0724
 9114SOL    HW138804   4.604   3.152  16.905 -2.8507 -0.8623  0.9574
 9114SOL    HW238805   4.669   3.208  17.029 -3.1831 -0.2505  1.1000
 9115SOL     OW38806   2.716   0.233   4.753  0.0749  0.4288  0.5812
 9115SOL    HW138807   2.718   0.245   4.658 -3.5762 -1.7927  0.2191
 9115SOL    HW238808   2.775   0.159   4.770 -0.7863 -0.0805  1.3126
 9116SOL     OW38809   1.482   3.355  13.318 -0.6092 -0.4011  0.0641
 9116SOL    HW138810   1.558   3.404  13.286  1.5924 -1.1426  4.0733
 9116SOL    HW238811   1.521   3.288  13.374  3.8436  2.6102  0.5419
 9117SOL     OW38812   3.436   2.566   4.845  0.1198 -0.7651  0.1434
 9117SOL    HW138813   3.477   2.496   4.895 -1.1433 -1.2637  0.4825
 9117SOL    HW238814   3.354   2.577   4.892 -0.2962 -0.2814 -0.6958
 9118SOL     OW38815   4.010   2.035   5.336  0.1746 -0.3863 -0.0984
 9118SOL    HW138816   3.946   1.963   5.333  0.1637 -0.4132  0.6957
 9118SOL    HW238817   3.973   2.088   5.408  1.5977 -0.5342  0.7357
 9119SOL     OW38818   4.633   0.384  17.616  0.2380  0.4328  0.2895
 9119SOL    HW138819   4.655   0.474  17.641  0.8666  1.7856 -5.1383
 9119SOL    HW238820   4.538   0.386  17.611  0.2560 -0.7920 -0.4915
 9120SOL     OW38821   1.463   3.586   4.186 -0.9678 -0.4702 -0.2907
 9120SOL    HW138822   1.430   3.674   4.199  3.3480  0.4164  4.7172
 9120SOL    HW238823   1.549   3.609   4.220 -1.3955  1.2247 -0.3483
 9121SOL     OW38824   2.924   0.025   4.008 -0.5334  0.5127  0.3916
 9121SOL    HW138825   2.896   4.664   3.965  1.7287  0.0722 -0.2105
 9121SOL    HW238826   3.000   0.043   3.953 -0.0638 -0.6039  0.6733
 9122SOL     OW38827   0.522   4.401   7.605  0.1194 -0.0157 -0.9006
 9122SOL    HW138828   0.480   4.487   7.596 -0.7407 -0.2899  0.5897
 9122SOL    HW238829   0.521   4.372   7.514 -1.8947  1.2526 -1.2927
 9123SOL     OW38830   0.208   2.500   3.374  0.0878 -0.0615  0.3095
 9123SOL    HW138831   0.278   2.532   3.316  1.3200 -0.0532  1.8160
 9123SOL    HW238832   0.256   2.426   3.410 -0.0601 -0.2256  0.1737
 9124SOL     OW38833   2.429   1.744   5.443 -0.4534  0.1061  0.1255
 9124SOL    HW138834   2.376   1.734   5.363  2.8989 -3.6432 -1.6650
 9124SOL    HW238835   2.457   1.835   5.440  1.5034 -0.4621  1.5710
 9125SOL     OW38836   2.064   2.763  15.742  0.3849 -0.2706  0.0018
 9125SOL    HW138837   2.073   2.687  15.684 -1.3056  0.2307 -0.9214
 9125SOL    HW238838   2.115   2.833  15.701 -1.3559 -0.3140 -2.2417
 9126SOL     OW38839   0.339   1.140  11.724 -0.2772  0.2429  0.1286
 9126SOL    HW138840   0.246   1.162  11.720 -0.0106  1.5348  0.7797
 9126SOL    HW238841   0.342   1.067  11.785 -1.1970 -0.1854 -0.3380
 9127SOL     OW38842   1.845   4.045   5.153 -0.4674 -0.3550 -0.0670
 9127SOL    HW138843   1.786   3.970   5.150 -0.6520 -0.1810 -0.9908
 9127SOL    HW238844   1.875   4.059   5.243 -0.0361  3.3481 -0.7609
 9128SOL     OW38845   3.192   0.449   7.656  0.0277 -0.0575 -0.1206
 9128SOL    HW138846   3.199   0.355   7.639  0.6777 -0.4998  2.5299
 9128SOL    HW238847   3.166   0.449   7.749 -0.2385 -0.7849 -0.1985
 9129SOL     OW38848   2.090   0.500   5.697  0.2066 -0.2185  0.1028
 9129SOL    HW138849   2.151   0.507   5.624  0.5455  1.2620  0.5177
 9129SOL    HW238850   2.132   0.566   5.753  0.2966 -1.9120  2.0176
 9130SOL     OW38851   0.380   1.881   3.680 -0.7930  0.2979  0.2441
 9130SOL    HW138852   0.304   1.918   3.724 -0.9266 -1.0965  1.1703
 9130SOL    HW238853   0.344   1.794   3.663 -2.1824  0.9648 -0.2213
 9131SOL     OW38854   0.938   0.919   3.115 -0.3477  0.0947  0.3945
 9131SOL    HW138855   0.998   0.852   3.148  0.8764  2.9841  4.0944
 9131SOL    HW238856   0.942   0.989   3.181 -1.3968  0.8856 -0.3899
 9132SOL     OW38857   3.356   3.816  11.686  0.3218 -0.4728  0.0420
 9132SOL    HW138858   3.328   3.754  11.753  0.1161  0.4654  0.8256
 9132SOL    HW238859   3.306   3.786  11.611 -0.6751 -1.3901  1.0699
 9133SOL     OW38860   1.319   0.706  17.327 -0.6325  0.3978  0.0715
 9133SOL    HW138861   1.371   0.726  17.249  0.2409 -1.1486  0.2493
 9133SOL    HW238862   1.238   0.754  17.312  1.1165  2.6712 -2.1272
 9134SOL     OW38863   3.306   2.193   5.254  0.5752 -0.3224 -0.1933
 9134SOL    HW138864   3.296   2.215   5.346 -0.7154  0.3818 -0.5059
 9134SOL    HW238865   3.369   2.258   5.226  0.4398  0.3580  1.1185
 9135SOL     OW38866   0.500   0.088   5.696 -0.6618  0.2385 -0.5987
 9135SOL    HW138867   0.524   0.063   5.607 -1.3320  0.9527 -0.9844
 9135SOL    HW238868   0.580   0.117   5.739 -0.9204  0.7326 -0.4469
 9136SOL     OW38869   4.312   4.208   2.202 -0.3616 -0.3856  0.1715
 9136SOL    HW138870   4.235   4.248   2.242 -1.4411  0.0864 -2.4129
 9136SOL    HW238871   4.313   4.124   2.248  0.6265 -0.5956 -0.2308
 9137SOL     OW38872   3.759   4.431   8.119 -0.5593 -0.5044 -0.0856
 9137SOL    HW138873   3.824   4.368   8.151  1.4854  0.6136 -1.9971
 9137SOL    HW238874   3.790   4.515   8.155 -1.3395 -1.0479  1.8723
 9138SOL     OW38875   2.646   0.173   1.702  0.0698 -0.0471 -0.0855
 9138SOL    HW138876   2.645   0.113   1.776 -0.5010  0.8624  0.6563
 9138SOL    HW238877   2.602   0.251   1.736 -0.8046 -1.5314  2.1726
 9139SOL     OW38878   4.178   1.529   9.090 -0.6060 -0.2770  0.3084
 9139SOL    HW138879   4.179   1.603   9.150 -1.4544  0.7448 -0.9558
 9139SOL    HW238880   4.151   1.458   9.148 -0.0278  0.9555  2.0722
 9140SOL     OW38881   1.683   2.434  12.400  0.1284 -0.1443  0.3829
 9140SOL    HW138882   1.595   2.468  12.414 -0.4980 -1.1442 -1.1094
 9140SOL    HW238883   1.662   2.340  12.399  0.9332 -0.3172 -0.4793
 9141SOL     OW38884   2.475   3.454   7.440 -0.3751 -0.5198  0.3241
 9141SOL    HW138885   2.510   3.365   7.434 -3.3797 -1.6422 -0.3411
 9141SOL    HW238886   2.557   3.498   7.419 -0.2530 -1.1228 -0.4663
 9142SOL     OW38887   3.346   1.085   2.077  0.0792 -0.3207 -0.2992
 9142SOL    HW138888   3.274   1.118   2.023 -0.2379  0.7318  0.7679
 9142SOL    HW238889   3.418   1.113   2.021  0.2739 -0.5060 -0.1427
 9143SOL     OW38890   0.592   1.243   9.488  0.1535 -0.6443 -0.0131
 9143SOL    HW138891   0.676   1.276   9.455 -0.4032 -0.3758 -1.1436
 9143SOL    HW238892   0.610   1.249   9.582  1.0331  1.6737 -0.3502
 9144SOL     OW38893   2.898   4.699   7.159  0.0243 -0.0444 -0.2734
 9144SOL    HW138894   2.932   0.062   7.189 -1.5963  0.6295 -0.3242
 9144SOL    HW238895   2.917   4.714   7.066 -0.8441  1.7981 -0.1582
 9145SOL     OW38896   4.052   2.562   9.903  0.0068  1.1951  0.5555
 9145SOL    HW138897   4.035   2.494   9.837 -1.2141 -0.1733  2.2745
 9145SOL    HW238898   4.139   2.591   9.876  0.7509 -1.3782  0.1939
 9146SOL     OW38899   2.906   2.466   8.978  0.8525 -0.3941  0.1387
 9146SOL    HW138900   2.845   2.503   9.041 -0.2520  0.0838 -1.2310
 9146SOL    HW238901   2.984   2.521   8.986 -0.7512  1.5206  2.2920
 9147SOL     OW38902   2.427   0.748   2.681  0.5233 -0.7134 -0.1534
 9147SOL    HW138903   2.364   0.818   2.695 -1.2741 -2.6483  1.2646
 9147SOL    HW238904   2.395   0.674   2.733  1.6278 -0.0133  1.5233
 9148SOL     OW38905   3.122   4.242  16.596  0.1397  0.1508  0.4644
 9148SOL    HW138906   3.147   4.238  16.688  0.3102 -0.7418  0.3792
 9148SOL    HW238907   3.121   4.149  16.577  0.7241 -0.0259  1.3180
 9149SOL     OW38908   1.663   1.069   3.639  0.2612  0.1652 -1.0282
 9149SOL    HW138909   1.659   1.078   3.544 -0.7472  1.2697 -0.8767
 9149SOL    HW238910   1.751   1.100   3.660 -0.5554  0.8183  1.4444
 9150SOL     OW38911   0.108   2.282   8.618  0.4465 -0.3392  0.3603
 9150SOL    HW138912   0.097   2.335   8.697  1.3736  0.1941  0.1351
 9150SOL    HW238913   0.021   2.287   8.579  1.3214  2.2239 -1.2432
 9151SOL     OW38914   2.979   2.321   9.983  0.2582 -0.2736 -0.2777
 9151SOL    HW138915   3.059   2.297   9.936  1.6451  0.7516  1.5924
 9151SOL    HW238916   3.005   2.293  10.071 -0.7930 -2.2022 -0.5841
 9152SOL     OW38917   4.636   2.991   5.558 -0.1327  0.6168  0.1277
 9152SOL    HW138918   4.720   2.976   5.515  0.3604 -2.2002  2.0836
 9152SOL    HW238919   4.604   3.075   5.525  0.2509  0.2685 -1.1405
 9153SOL     OW38920   3.340   0.044   2.730 -0.4748  0.0954  0.0758
 9153SOL    HW138921   3.284   4.720   2.666  2.2522 -0.0078 -2.2154
 9153SOL    HW238922   3.269   0.079   2.785  0.5820  1.7596  0.3686
 9154SOL     OW38923   3.171   0.073   7.395  0.1616 -0.4710 -0.2967
 9154SOL    HW138924   3.133   0.147   7.348  1.4531  0.2123 -0.2733
 9154SOL    HW238925   3.147   0.104   7.483  2.7300  0.3651  0.1374
 9155SOL     OW38926   0.614   0.227   0.155  0.1811  0.0332  0.0349
 9155SOL    HW138927   0.697   0.272   0.141  0.5955 -0.8532 -0.3253
 9155SOL    HW238928   0.556   0.303   0.145  2.2883  1.5654 -0.5553
 9156SOL     OW38929   3.513   3.101   0.936  0.0526  0.6758  0.3765
 9156SOL    HW138930   3.475   3.161   0.872  0.9476 -1.5141 -2.1798
 9156SOL    HW238931   3.547   3.154   1.009  0.4190  0.0752  0.6430
 9157SOL     OW38932   0.143   2.177  17.201  0.2267 -0.0751  0.6655
 9157SOL    HW138933   0.077   2.165  17.269  0.4813 -2.6208  0.4604
 9157SOL    HW238934   0.120   2.255  17.150 -3.8518 -0.2414  2.2515
 9158SOL     OW38935   2.584   3.043   5.611  0.2516  0.1923 -0.1700
 9158SOL    HW138936   2.563   3.040   5.518 -0.0068 -0.2966 -0.0929
 9158SOL    HW238937   2.502   3.023   5.656  0.2072  1.0937  0.1552
 9159SOL     OW38938   1.539   2.349   6.227  0.3600  0.1169 -0.5830
 9159SOL    HW138939   1.619   2.315   6.267  0.9397  0.6503 -1.2993
 9159SOL    HW238940   1.509   2.414   6.291 -0.8527 -0.1461 -0.8777
 9160SOL     OW38941   0.496   2.526   1.552  0.0932 -0.1555  0.0107
 9160SOL    HW138942   0.524   2.616   1.567  0.5400 -0.0231 -1.6056
 9160SOL    HW238943   0.413   2.524   1.601 -0.0832 -2.2594 -0.3803
 9161SOL     OW38944   0.354   2.592   7.586  0.3686 -0.5716 -0.3426
 9161SOL    HW138945   0.348   2.612   7.679 -0.2729 -2.9563  0.1032
 9161SOL    HW238946   0.291   2.522   7.570 -0.0251 -0.6148  1.4075
 9162SOL     OW38947   3.657   3.559  14.797 -0.0628  0.0404 -0.4352
 9162SOL    HW138948   3.693   3.493  14.857 -0.5226  1.3444  1.2625
 9162SOL    HW238949   3.724   3.626  14.809  1.6665 -2.0266  1.4439
 9163SOL     OW38950   1.204   0.406   7.526 -1.0236  0.4954  0.4926
 9163SOL    HW138951   1.155   0.324   7.514  1.6452 -0.7239 -2.2185
 9163SOL    HW238952   1.275   0.376   7.584 -1.6820 -2.1679 -0.0564
 9164SOL     OW38953   4.199   1.251  11.134  0.7562 -0.0256 -1.0701
 9164SOL    HW138954   4.187   1.247  11.039  1.5196 -1.6473 -1.0979
 9164SOL    HW238955   4.262   1.323  11.138 -1.6087  1.9643  0.3792
 9165SOL     OW38956   0.140   4.058   5.080  0.2249 -0.4598 -0.0701
 9165SOL    HW138957   0.170   4.082   5.168  3.4037  0.3310 -1.3865
 9165SOL    HW238958   0.067   3.999   5.101 -0.8412  0.6427 -0.6979
 9166SOL     OW38959   4.347   2.699   2.296  0.0193  0.5496  0.1137
 9166SOL    HW138960   4.310   2.664   2.215 -1.0578  2.1453 -0.0848
 9166SOL    HW238961   4.385   2.783   2.271 -0.6648  0.7066 -0.4122
 9167SOL     OW38962   4.346   2.147   6.225 -0.0153  0.5746  0.0065
 9167SOL    HW138963   4.358   2.052   6.235  2.2368  1.1193  2.4392
 9167SOL    HW238964   4.396   2.182   6.299  0.1062  0.4054  0.0043
 9168SOL     OW38965   2.135   1.194   4.908  0.1284  0.5717  0.0122
 9168SOL    HW138966   2.077   1.232   4.841 -1.6918 -1.6361  0.3352
 9168SOL    HW238967   2.214   1.174   4.857  0.0463 -0.1681  0.1863
 9169SOL     OW38968   4.105   3.581   4.060  0.2939  0.3903  0.2574
 9169SOL    HW138969   4.062   3.652   4.107  0.0136 -0.0816  0.7053
 9169SOL    HW238970   4.194   3.616   4.065  0.5432  0.0524 -1.6553
 9170SOL     OW38971   3.347   3.227   5.654 -0.2479  0.4583  0.1828
 9170SOL    HW138972   3.276   3.163   5.652 -0.2954  0.4537  1.6871
 9170SOL    HW238973   3.367   3.215   5.747 -2.1299 -2.1072  0.2611
 9171SOL     OW38974   4.559   0.111   1.663  0.6101  0.6081  0.4805
 9171SOL    HW138975   4.643   0.066   1.649  0.7524  0.3979  2.0096
 9171SOL    HW238976   4.593   0.200   1.656  1.5214  0.2262  0.0085
 9172SOL     OW38977   3.150   3.248  14.667 -0.5343  0.4519 -0.1745
 9172SOL    HW138978   3.178   3.157  14.660  1.2798  0.9892  0.0077
 9172SOL    HW238979   3.124   3.260  14.576  0.5679  0.5416 -0.4876
 9173SOL     OW38980   2.776   3.930  17.450 -0.0309  0.2337 -0.3294
 9173SOL    HW138981   2.821   4.007  17.415  1.2487 -1.3217 -2.0333
 9173SOL    HW238982   2.688   3.960  17.475 -0.4688  0.8503 -2.6440
 9174SOL     OW38983   1.739   0.378  16.920 -0.0947  0.6832  0.0311
 9174SOL    HW138984   1.716   0.342  16.834 -3.1444 -1.1039  1.5978
 9174SOL    HW238985   1.690   0.460  16.915 -0.8296  0.2712  0.5014
 9175SOL     OW38986   1.690   0.596   3.501  0.0262 -0.3170 -0.0450
 9175SOL    HW138987   1.655   0.552   3.424  1.4862 -0.3524 -0.6992
 9175SOL    HW238988   1.724   0.677   3.462  0.0382  0.2473  1.1429
 9176SOL     OW38989   2.865   1.607   6.772 -0.8759  0.0834 -0.2858
 9176SOL    HW138990   2.808   1.535   6.747  0.2134 -0.9631  0.2500
 9176SOL    HW238991   2.951   1.566   6.776 -1.1905 -0.6715 -1.4049
 9177SOL     OW38992   0.295   3.621  10.523 -0.3429 -0.0680 -0.0786
 9177SOL    HW138993   0.370   3.658  10.570  1.0326 -1.7877 -0.8968
 9177SOL    HW238994   0.300   3.656  10.434 -1.8151  1.0306  0.2737
 9178SOL     OW38995   1.361   2.608  10.170 -0.1812  0.0148  0.8236
 9178SOL    HW138996   1.396   2.681  10.222  0.0759 -0.5282  1.4021
 9178SOL    HW238997   1.282   2.658  10.148 -0.0749 -0.7918 -1.3970
 9179SOL     OW38998   2.332   1.599   0.938 -0.5934 -0.0028 -0.2047
 9179SOL    HW138999   2.421   1.582   0.970 -0.6232  1.4808  0.6904
 9179SOL    HW239000   2.295   1.511   0.934 -2.6937  0.8131  1.9486
 9180SOL     OW39001   2.848   4.540  16.330 -0.1610  0.0222  0.7650
 9180SOL    HW139002   2.820   4.622  16.289 -2.4302 -0.7687  0.7652
 9180SOL    HW239003   2.781   4.481  16.297  0.4601  0.2317 -0.8946
 9181SOL     OW39004   4.438   4.195   8.853 -0.0491  0.1639  0.1635
 9181SOL    HW139005   4.411   4.226   8.939  1.7391  0.5717  0.5821
 9181SOL    HW239006   4.408   4.262   8.791 -0.5461  0.3551  0.6136
 9182SOL     OW39007   3.885   2.612   5.145 -0.2940 -0.1397 -0.1959
 9182SOL    HW139008   3.894   2.518   5.162  0.1164  0.3316  2.1418
 9182SOL    HW239009   3.859   2.622   5.054 -0.3203  1.4590 -0.0156
 9183SOL     OW39010   2.685   0.090   2.701  0.1324 -0.2417  0.4102
 9183SOL    HW139011   2.677   4.718   2.722 -1.1219 -0.0213  0.8986
 9183SOL    HW239012   2.591   0.104   2.711  0.0061 -0.1368 -0.9905
 9184SOL     OW39013   2.026   0.535   2.490 -0.3406 -0.0635  0.3265
 9184SOL    HW139014   2.051   0.609   2.545  0.4505  1.6961 -2.3986
 9184SOL    HW239015   1.985   0.585   2.420  0.1687 -1.2045 -0.7841
 9185SOL     OW39016   1.991   0.472  16.945  0.5444  0.3478 -0.1980
 9185SOL    HW139017   1.954   0.560  16.954 -0.4213 -0.2538  1.7258
 9185SOL    HW239018   1.909   0.423  16.938  0.2582  1.0044 -1.4188
 9186SOL     OW39019   3.889   4.375   2.724  0.0255  0.3221  0.0200
 9186SOL    HW139020   3.955   4.314   2.690  0.9805  0.8497  0.9156
 9186SOL    HW239021   3.853   4.402   2.640 -1.7095  0.5315  0.8442
 9187SOL     OW39022   2.354   0.556   0.026 -0.2523 -0.6114 -0.4909
 9187SOL    HW139023   2.343   0.641   0.068 -0.0706 -1.0750  0.4852
 9187SOL    HW239024   2.270   0.518   0.052 -0.6825  0.3338 -0.5279
 9188SOL     OW39025   0.654   1.429  17.371  0.4702  0.1025  0.2961
 9188SOL    HW139026   0.664   1.470  17.285  1.0121 -0.8299 -0.0800
 9188SOL    HW239027   0.737   1.390  17.397  1.0056  0.7412 -0.4768
 9189SOL     OW39028   4.210   0.306   7.570  0.1703 -0.0762  0.4559
 9189SOL    HW139029   4.180   0.380   7.518  0.7247 -0.8309 -0.9376
 9189SOL    HW239030   4.304   0.290   7.560  0.2360 -0.0408  0.9978
 9190SOL     OW39031   4.703   2.102   2.403 -0.1753  0.0680 -0.2005
 9190SOL    HW139032   4.624   2.094   2.350 -0.7096  4.2157  0.0163
 9190SOL    HW239033   4.690   2.178   2.459  1.8597 -0.4285  0.9899
 9191SOL     OW39034   3.701   1.359   8.764 -0.1691  0.5290 -0.1849
 9191SOL    HW139035   3.614   1.392   8.786  0.1652  2.0831 -1.2086
 9191SOL    HW239036   3.686   1.266   8.781 -4.0490  1.5774  2.1815
 9192SOL     OW39037   4.554   0.400   0.858  0.0854  0.4350 -0.2447
 9192SOL    HW139038   4.531   0.319   0.902 -3.1141  0.9368 -1.0064
 9192SOL    HW239039   4.585   0.448   0.935 -1.2902 -0.8038  1.0691
 9193SOL     OW39040   3.222   0.226   7.967 -0.2000 -0.0178  0.4321
 9193SOL    HW139041   3.138   0.269   7.982 -0.6220 -0.7838  0.3105
 9193SOL    HW239042   3.201   0.145   8.014 -0.2446  0.0460  0.5220
 9194SOL     OW39043   0.449   1.863  15.958  0.1994  0.1142  0.1740
 9194SOL    HW139044   0.416   1.951  15.977 -1.8779 -0.5049 -0.5094
 9194SOL    HW239045   0.518   1.895  15.901 -0.6600  1.7295  0.0268
 9195SOL     OW39046   0.238   4.632   6.753 -0.7282 -0.6135  0.0566
 9195SOL    HW139047   0.252   4.571   6.824 -0.1955 -0.6856 -0.1086
 9195SOL    HW239048   0.266   4.577   6.680  1.1477 -1.3040  1.2923
 9196SOL     OW39049   2.725   1.883  15.475  0.2213  0.2315  0.2628
 9196SOL    HW139050   2.677   1.941  15.417 -1.1247  0.2902  1.4332
 9196SOL    HW239051   2.742   1.945  15.546 -1.3826  1.0244 -0.0576
 9197SOL     OW39052   2.967   2.149  13.857  0.2331 -0.3589 -0.0156
 9197SOL    HW139053   2.896   2.193  13.810 -0.6262 -2.5350 -0.7324
 9197SOL    HW239054   3.023   2.117  13.787  0.5499 -1.6378  0.8163
 9198SOL     OW39055   3.872   1.546  13.535  0.7003  0.1306  0.2165
 9198SOL    HW139056   3.883   1.548  13.440 -2.6127  0.1183 -0.1514
 9198SOL    HW239057   3.862   1.457  13.568  0.2023  0.0697 -0.1065
 9199SOL     OW39058   1.798   1.756   4.955 -0.1211  0.5777 -0.7552
 9199SOL    HW139059   1.827   1.771   4.864  2.1482 -1.4530 -0.3763
 9199SOL    HW239060   1.803   1.661   4.960  0.0469  0.5632 -1.1828
 9200SOL     OW39061   0.649   4.021   4.505 -0.3277 -0.5020  0.0630
 9200SOL    HW139062   0.717   4.036   4.572 -0.7250 -0.1511  0.3860
 9200SOL    HW239063   0.571   4.060   4.543 -0.0214 -0.7772  0.9795
 9201SOL     OW39064   3.821   1.535  10.042 -0.5736  0.0570  0.3688
 9201SOL    HW139065   3.876   1.517  10.119 -0.3683  2.5699  0.7897
 9201SOL    HW239066   3.755   1.466  10.050  0.5804 -1.0780  0.1503
 9202SOL     OW39067   0.535   1.122   2.816  0.2461  0.7916  0.2332
 9202SOL    HW139068   0.489   1.108   2.734 -0.3415  4.6052 -0.0948
 9202SOL    HW239069   0.612   1.073   2.786  0.2998 -1.5907  4.1297
 9203SOL     OW39070   2.767   1.647   8.098 -0.6692 -0.3205  0.7415
 9203SOL    HW139071   2.824   1.699   8.155  1.4343 -2.1112  0.2743
 9203SOL    HW239072   2.739   1.597   8.175 -2.6779  1.3358  1.0995
 9204SOL     OW39073   2.148   3.720   4.901 -0.1832  0.5648  0.2464
 9204SOL    HW139074   2.191   3.653   4.954  0.0876  0.3917 -0.1924
 9204SOL    HW239075   2.178   3.798   4.948 -0.3760 -0.5739  2.2657
 9205SOL     OW39076   2.915   2.866   6.245 -0.2295  0.3548 -0.1921
 9205SOL    HW139077   2.988   2.849   6.304  0.6907 -0.3513 -1.5469
 9205SOL    HW239078   2.860   2.934   6.283  0.1994 -0.1367  1.3040
 9206SOL     OW39079   3.570   2.815   1.555  0.0563 -0.3713  0.6592
 9206SOL    HW139080   3.659   2.849   1.543  1.3896 -3.7719  0.8633
 9206SOL    HW239081   3.547   2.812   1.462 -0.0163  0.1184  0.6630
 9207SOL     OW39082   1.051   0.068   7.975 -0.5034 -0.3995  0.8197
 9207SOL    HW139083   0.987   0.138   7.988  0.9830  0.6762  2.4621
 9207SOL    HW239084   0.996   0.008   7.924 -0.1814  0.1011 -0.1099
 9208SOL     OW39085   0.244   0.526  17.290 -0.3316 -0.0988  0.1887
 9208SOL    HW139086   0.303   0.451  17.279 -1.6589 -1.0676 -0.3456
 9208SOL    HW239087   0.279   0.592  17.230  1.2906  0.2608  1.5449
 9209SOL     OW39088   3.222   4.517   8.317 -0.4941  0.0176  0.1129
 9209SOL    HW139089   3.197   4.532   8.409  0.0471  3.4646 -0.3001
 9209SOL    HW239090   3.308   4.476   8.317 -0.0913  0.9272 -2.8952
 9210SOL     OW39091   1.710   0.150   5.168 -0.6140  0.2012  0.5111
 9210SOL    HW139092   1.770   0.095   5.218  0.2380 -0.4431 -1.2206
 9210SOL    HW239093   1.713   0.088   5.095  2.7090 -2.3730  2.8288
 9211SOL     OW39094   4.167   2.423   7.685  0.2394  0.2964 -0.2477
 9211SOL    HW139095   4.174   2.334   7.720 -2.4176  0.0589 -0.2733
 9211SOL    HW239096   4.232   2.419   7.615 -1.1078  2.7600 -1.6326
 9212SOL     OW39097   4.673   0.204   5.979 -0.6872 -0.2113 -0.2955
 9212SOL    HW139098   4.629   0.264   5.920 -0.0876  0.9433  0.4308
 9212SOL    HW239099   0.038   0.246   5.971 -0.3465 -1.1858 -1.6971
 9213SOL     OW39100   4.188   1.715  14.637 -0.0284 -0.1252  0.6813
 9213SOL    HW139101   4.125   1.648  14.664  0.5430 -0.1716  1.8961
 9213SOL    HW239102   4.215   1.755  14.720  2.4600  2.6109 -1.4382
 9214SOL     OW39103   0.332   3.109   4.413 -0.2768  0.8891 -0.0656
 9214SOL    HW139104   0.408   3.163   4.434 -1.1459  1.3034  2.1055
 9214SOL    HW239105   0.258   3.163   4.442 -1.0578 -0.0761 -0.2212
 9215SOL     OW39106   2.321   2.312   3.144 -0.1794 -0.2426  0.0891
 9215SOL    HW139107   2.392   2.265   3.099  0.1589  1.2437 -0.9379
 9215SOL    HW239108   2.256   2.241   3.141 -0.5736  0.0751  1.2170
 9216SOL     OW39109   2.360   2.383  13.309  0.2171  0.5416 -0.5930
 9216SOL    HW139110   2.339   2.475  13.324  0.7069  0.7450 -1.1296
 9216SOL    HW239111   2.415   2.367  13.386  0.5490  0.1546 -0.9120
 9217SOL     OW39112   1.440   0.662   2.040 -0.3124  0.1176 -0.5125
 9217SOL    HW139113   1.482   0.698   2.118 -1.5537 -0.2974  0.3342
 9217SOL    HW239114   1.481   0.716   1.973  1.6641 -3.4708 -2.2343
 9218SOL     OW39115   3.367   1.589   8.573  0.0617  0.3970 -0.1400
 9218SOL    HW139116   3.282   1.599   8.616 -0.1715 -0.8213 -0.3158
 9218SOL    HW239117   3.342   1.602   8.482 -1.5820 -0.5905  0.1647
 9219SOL     OW39118   3.589   3.354   6.572  0.3710 -0.1483 -0.6790
 9219SOL    HW139119   3.683   3.337   6.561  0.6888 -1.8759  4.4125
 9219SOL    HW239120   3.580   3.445   6.544  1.1041  0.1550  0.0773
 9220SOL     OW39121   3.733   2.869   1.851 -0.1058 -0.2528 -0.0919
 9220SOL    HW139122   3.666   2.807   1.823 -0.5891  0.9095 -1.4917
 9220SOL    HW239123   3.691   2.907   1.928  0.9011 -2.0409  1.3422
 9221SOL     OW39124   1.655   0.909   9.724  0.2575 -0.3887 -0.1762
 9221SOL    HW139125   1.601   0.982   9.694 -0.0902 -0.6684 -0.2340
 9221SOL    HW239126   1.736   0.959   9.731 -1.4074  1.9965  1.8972
 9222SOL     OW39127   0.055   1.623   1.971 -0.0336  0.6064 -0.0602
 9222SOL    HW139128   0.121   1.679   2.011  0.2967  0.2163 -0.0518
 9222SOL    HW239129   0.107   1.543   1.966 -0.8099  0.1042 -0.1364
 9223SOL     OW39130   2.743   3.957   3.473  0.4490  0.0688  0.0413
 9223SOL    HW139131   2.813   3.925   3.530  1.2499 -1.0848 -1.5984
 9223SOL    HW239132   2.787   3.938   3.390 -1.3600  1.2230 -1.1768
 9224SOL     OW39133   0.566   1.277  12.653  0.6070  0.4451 -0.3057
 9224SOL    HW139134   0.624   1.294  12.579  0.2882 -1.6467 -1.0490
 9224SOL    HW239135   0.502   1.216  12.615  0.2123  0.2790  0.6220
 9225SOL     OW39136   2.751   4.322   5.099  0.1084 -0.2692  0.0799
 9225SOL    HW139137   2.694   4.387   5.058  0.7867  0.3870  0.1545
 9225SOL    HW239138   2.827   4.322   5.040 -1.4953 -1.9700 -1.9766
 9226SOL     OW39139   1.486   3.622  15.572  0.3206 -0.2576 -0.0818
 9226SOL    HW139140   1.545   3.675  15.520 -1.3869  0.9847 -0.7387
 9226SOL    HW239141   1.413   3.613  15.510 -1.1162  3.5247  1.0427
 9227SOL     OW39142   4.204   3.180   0.012 -0.1194  0.2731 -0.7050
 9227SOL    HW139143   4.236   3.270   0.011 -0.3177  0.3222 -2.2548
 9227SOL    HW239144   4.236   3.146   0.096 -2.2257  0.9003  0.3625
 9228SOL     OW39145   3.529   0.651   1.700  1.1236  0.0396  0.0454
 9228SOL    HW139146   3.513   0.666   1.793  1.2580  0.9828 -0.0765
 9228SOL    HW239147   3.537   0.556   1.708 -0.6809 -0.1337 -0.2496
 9229SOL     OW39148   1.580   3.214   6.325 -0.2119 -0.1955  0.3418
 9229SOL    HW139149   1.514   3.203   6.393 -0.3559 -1.8087 -0.0505
 9229SOL    HW239150   1.535   3.233   6.243 -1.3932 -0.2699  0.9733
 9230SOL     OW39151   2.256   3.301   8.330 -0.3132 -0.0097 -0.1261
 9230SOL    HW139152   2.273   3.380   8.278 -0.7915 -0.6683 -1.2677
 9230SOL    HW239153   2.332   3.254   8.297 -1.3692 -1.6159 -0.2561
 9231SOL     OW39154   3.209   2.823   6.106  0.7394  0.4388  0.3898
 9231SOL    HW139155   3.279   2.771   6.146  1.3118  0.6459 -0.3341
 9231SOL    HW239156   3.149   2.749   6.097  0.2656  1.0118 -1.1440
 9232SOL     OW39157   4.346   1.754   1.716 -0.2993 -0.1856 -0.4433
 9232SOL    HW139158   4.292   1.810   1.771  1.0548 -0.0584  0.7361
 9232SOL    HW239159   4.431   1.781   1.751  0.8755 -2.7862 -1.2796
 9233SOL     OW39160   3.873   0.832   7.768 -0.3928  0.1239  0.0950
 9233SOL    HW139161   3.957   0.844   7.812 -0.0465 -1.4922 -0.1265
 9233SOL    HW239162   3.818   0.799   7.839  1.6305  1.0717  2.1289
 9234SOL     OW39163   0.620   3.481   7.180  0.4567 -0.1844  0.2912
 9234SOL    HW139164   0.573   3.562   7.200  0.3783  0.2265 -1.5433
 9234SOL    HW239165   0.660   3.473   7.266 -0.7889 -2.7842  0.6212
 9235SOL     OW39166   3.719   4.453   9.948 -0.3666  0.2611 -0.2197
 9235SOL    HW139167   3.745   4.450   9.856  1.5095 -2.7538  0.4146
 9235SOL    HW239168   3.767   4.385   9.996  0.2937 -0.6147 -2.1007
 9236SOL     OW39169   2.729   2.065   5.671  0.1706  0.7716 -0.1323
 9236SOL    HW139170   2.721   1.970   5.672  0.9832  0.6925 -1.0075
 9236SOL    HW239171   2.653   2.098   5.720 -0.5281  0.7369 -1.1963
 9237SOL     OW39172   0.592   4.714   6.482 -0.1777 -0.2755 -0.4765
 9237SOL    HW139173   0.642   0.075   6.475  2.9480 -2.0102  1.6885
 9237SOL    HW239174   0.537   0.016   6.557  2.7087  0.0169  1.5527
 9238SOL     OW39175   4.534   2.866   0.457 -0.1307  0.2650 -0.1427
 9238SOL    HW139176   4.590   2.880   0.381 -0.1623 -0.0310 -0.2185
 9238SOL    HW239177   4.454   2.823   0.428  0.1456  0.8071 -1.7019
 9239SOL     OW39178   3.523   4.080  16.586  0.5075 -0.3608 -0.3574
 9239SOL    HW139179   3.477   4.161  16.603 -1.2100 -0.7452 -3.2954
 9239SOL    HW239180   3.515   4.077  16.491  1.7226 -1.9760 -0.4251
 9240SOL     OW39181   2.015   3.552   1.282  0.6841  0.0811 -0.2153
 9240SOL    HW139182   1.981   3.610   1.214  2.2611 -0.3001 -1.3326
 9240SOL    HW239183   2.068   3.617   1.328 -0.4597  0.4570  0.5841
 9241SOL     OW39184   4.681   2.762   8.351 -0.2706 -0.1925 -0.6260
 9241SOL    HW139185   4.634   2.845   8.344  1.4569  0.9752  1.3942
 9241SOL    HW239186   4.699   2.732   8.262  2.2717  0.3077 -0.2935
 9242SOL     OW39187   2.908   2.403   0.456  0.2482  0.3074 -0.2045
 9242SOL    HW139188   2.977   2.336   0.459  0.4861  0.6454  1.9117
 9242SOL    HW239189   2.851   2.366   0.388  1.3200  0.1649 -1.0237
 9243SOL     OW39190   4.572   3.180  10.412  0.1755 -0.3090 -0.4380
 9243SOL    HW139191   4.526   3.097  10.425 -0.3579 -0.0135 -0.4351
 9243SOL    HW239192   4.663   3.161  10.434 -0.3558  0.3873  2.4402
 9244SOL     OW39193   4.345   3.056   6.213  0.0461  0.3605 -0.2844
 9244SOL    HW139194   4.377   3.039   6.124  1.8432 -1.7485  0.7643
 9244SOL    HW239195   4.251   3.041   6.201  0.3586 -0.9316 -1.1235
 9245SOL     OW39196   1.550   3.798   4.623  0.2776 -0.5071  0.0376
 9245SOL    HW139197   1.484   3.734   4.596 -0.0044 -1.2847  2.6066
 9245SOL    HW239198   1.631   3.746   4.618 -1.2147 -2.7961 -0.5122
 9246SOL     OW39199   4.133   0.607   3.018  0.0973  0.5041  0.2246
 9246SOL    HW139200   4.085   0.524   3.024 -2.1174  1.7467 -0.6045
 9246SOL    HW239201   4.061   0.664   3.045 -1.7464 -0.3099 -2.9232
 9247SOL     OW39202   2.254   2.997   5.249 -0.3096  0.4356  0.1650
 9247SOL    HW139203   2.211   2.973   5.331 -1.0661  3.5138  0.6657
 9247SOL    HW239204   2.206   2.951   5.180  1.9589 -2.1169  0.2489
 9248SOL     OW39205   3.406   1.766   4.758  0.2723 -0.1203  0.1969
 9248SOL    HW139206   3.319   1.760   4.719  0.3539  0.4830 -0.0760
 9248SOL    HW239207   3.430   1.857   4.742  2.0771 -0.0746  3.0923
 9249SOL     OW39208   4.353   0.070   7.018  0.6616  0.1092 -0.1965
 9249SOL    HW139209   4.328   0.147   6.968  0.3859 -0.9916 -1.7792
 9249SOL    HW239210   4.429   0.037   6.969 -0.1183 -1.7173 -0.1917
 9250SOL     OW39211   2.831   2.018   8.601  0.5286  0.3643 -0.5028
 9250SOL    HW139212   2.768   2.001   8.531 -0.3015  1.4882 -0.0317
 9250SOL    HW239213   2.796   2.097   8.642 -0.5392 -1.1562  1.5230
 9251SOL     OW39214   3.335   1.469   6.673 -0.7365  0.1489  0.4511
 9251SOL    HW139215   3.403   1.417   6.714 -0.6187  0.6808  0.9432
 9251SOL    HW239216   3.378   1.555   6.674 -0.5915  0.0711  1.6143
 9252SOL     OW39217   1.407   3.222   5.688 -0.4217 -0.0129 -0.1512
 9252SOL    HW139218   1.411   3.168   5.767  0.2125  1.8451  1.0860
 9252SOL    HW239219   1.438   3.302   5.731 -0.6148  0.0881 -0.1990
 9253SOL     OW39220   3.551   2.852  13.766  0.4977  0.2995  0.7287
 9253SOL    HW139221   3.630   2.879  13.814 -0.9019  0.5985  2.8543
 9253SOL    HW239222   3.568   2.858  13.672  0.6051  1.3217  0.8147
 9254SOL     OW39223   1.628   4.021  16.800 -0.3710  0.3300  0.2333
 9254SOL    HW139224   1.723   4.029  16.787 -0.6132  0.1320 -1.7062
 9254SOL    HW239225   1.596   4.000  16.712 -0.4752  0.7050  0.1789
 9255SOL     OW39226   4.027   1.564   8.568  0.0089 -0.2701 -0.1744
 9255SOL    HW139227   4.061   1.561   8.658 -3.4119  0.1940  1.1468
 9255SOL    HW239228   4.068   1.646   8.542  1.3442 -1.2920 -1.2393
 9256SOL     OW39229   2.043   3.262   4.775 -0.4829 -0.3869  0.1941
 9256SOL    HW139230   2.042   3.283   4.681  0.8128 -1.3242 -0.0210
 9256SOL    HW239231   2.030   3.168   4.766  1.3874 -0.6375 -0.0540
 9257SOL     OW39232   4.055   4.140   1.334 -0.2098  0.1942  0.1016
 9257SOL    HW139233   4.145   4.144   1.368 -0.9573  1.4716  1.9356
 9257SOL    HW239234   4.004   4.173   1.408 -0.6803  0.0581 -0.1659
 9258SOL     OW39235   0.857   4.339  14.964  0.5867 -0.4420 -0.2240
 9258SOL    HW139236   0.853   4.310  14.873  3.1968 -1.0463 -0.1588
 9258SOL    HW239237   0.875   4.431  14.943 -1.8651  0.3565  1.1770
 9259SOL     OW39238   0.493   3.936   2.214 -0.3590  0.3990 -0.3179
 9259SOL    HW139239   0.574   3.932   2.264 -0.8662 -2.5518  0.2760
 9259SOL    HW239240   0.507   3.877   2.141  1.2531 -1.3005  1.3765
 9260SOL     OW39241   4.277   4.280   5.256  0.7036  0.5867  0.1874
 9260SOL    HW139242   4.367   4.288   5.224  0.2409  1.1322 -0.9856
 9260SOL    HW239243   4.234   4.357   5.220  1.7597  0.4452 -1.3600
 9261SOL     OW39244   1.853   1.477  17.499 -0.3957  0.4680  0.0508
 9261SOL    HW139245   1.934   1.527  17.495  0.2803 -0.6228 -0.0474
 9261SOL    HW239246   1.817   1.518  17.578 -0.1116 -0.5534  0.7102
 9262SOL     OW39247   3.680   2.965   8.206 -0.0477 -0.0992 -0.7133
 9262SOL    HW139248   3.596   2.943   8.248  0.4969 -1.3136 -0.2809
 9262SOL    HW239249   3.659   3.044   8.157 -0.0995 -1.1127 -2.3099
 9263SOL     OW39250   3.673   1.077   5.828 -0.4273  0.1562 -0.6352
 9263SOL    HW139251   3.764   1.085   5.801  0.1549 -1.7606  0.7550
 9263SOL    HW239252   3.629   1.158   5.803 -2.9218 -1.2240 -0.6951
 9264SOL     OW39253   4.692   3.685   6.169  0.1735  0.2256 -0.4529
 9264SOL    HW139254   0.050   3.665   6.118 -0.9482  1.0286 -2.5300
 9264SOL    HW239255   4.686   3.781   6.161 -2.1481  0.2875  2.3260
 9265SOL     OW39256   1.707   1.961   9.754 -0.2483  0.8957 -0.2366
 9265SOL    HW139257   1.762   1.964   9.833  1.9789 -0.0433 -1.7809
 9265SOL    HW239258   1.625   1.944   9.801 -0.1263  1.4525  0.1891
 9266SOL     OW39259   2.389   2.038   3.558  0.2773  0.3615  0.2957
 9266SOL    HW139260   2.346   2.004   3.480  0.1614  1.1725  0.0066
 9266SOL    HW239261   2.364   1.968   3.619  0.4265  0.2955  0.2803
 9267SOL     OW39262   3.070   4.507  17.204 -0.5991  0.2960  0.3066
 9267SOL    HW139263   3.058   4.537  17.293  2.3238  1.7576  0.1814
 9267SOL    HW239264   3.053   4.413  17.214 -2.4721  0.3870 -1.9486
 9268SOL     OW39265   3.955   2.667   6.374 -0.3007  0.5944 -0.4541
 9268SOL    HW139266   3.976   2.684   6.466  0.5388 -1.8012 -0.1999
 9268SOL    HW239267   3.993   2.746   6.334  2.9221 -0.7557 -0.0315
 9269SOL     OW39268   1.274   0.343   7.220  0.0938 -0.5774  0.4937
 9269SOL    HW139269   1.258   0.261   7.268 -0.9007  0.9031  2.6764
 9269SOL    HW239270   1.366   0.345   7.196  0.3379 -0.5935  1.4517
 9270SOL     OW39271   2.638   1.464   4.100  1.0071 -0.3699  0.0665
 9270SOL    HW139272   2.632   1.424   4.013 -0.1872 -0.5628  0.2459
 9270SOL    HW239273   2.566   1.527   4.096 -0.1725 -1.7702 -0.7479
 9271SOL     OW39274   1.780   3.380   6.455 -0.5839 -0.1240  0.0242
 9271SOL    HW139275   1.715   3.325   6.413  0.2356 -0.9774 -0.1373
 9271SOL    HW239276   1.832   3.316   6.503  1.5852  3.3077  2.2016
 9272SOL     OW39277   0.948   0.344   4.749  0.2915  0.2649  0.6990
 9272SOL    HW139278   0.938   0.269   4.690 -0.6406  0.4580  0.6135
 9272SOL    HW239279   1.039   0.334   4.777  1.0255  1.2398 -1.3864
 9273SOL     OW39280   1.184   4.642   6.241 -0.0026 -0.0913  0.5392
 9273SOL    HW139281   1.194   4.694   6.161 -0.8885 -2.1970 -0.9712
 9273SOL    HW239282   1.195   4.551   6.212 -1.7686 -0.4147  0.9119
 9274SOL     OW39283   3.906   2.374   4.455  0.3341  0.2108  0.5116
 9274SOL    HW139284   3.907   2.429   4.377  0.6821 -0.8108 -0.1993
 9274SOL    HW239285   4.000   2.358   4.465  0.7595  2.9182  0.9129
 9275SOL     OW39286   2.020   2.986  10.439  0.1717 -0.0254 -0.2107
 9275SOL    HW139287   2.066   2.921  10.493 -0.1519 -0.5973 -0.6163
 9275SOL    HW239288   2.002   3.053  10.504 -0.8526 -0.7784  0.2790
 9276SOL     OW39289   0.433   3.824   6.556 -0.0481  0.2008  0.1574
 9276SOL    HW139290   0.507   3.828   6.495 -0.4493 -0.9990 -0.4124
 9276SOL    HW239291   0.373   3.766   6.509 -1.1772  1.5135 -0.0156
 9277SOL     OW39292   3.868   1.303  11.970  0.0274  0.6082 -0.3886
 9277SOL    HW139293   3.917   1.379  12.001  1.0115  0.4185 -1.4611
 9277SOL    HW239294   3.778   1.324  11.993  0.2665 -2.3753  3.1752
 9278SOL     OW39295   1.665   0.718   9.947 -0.2978  0.1252  0.2267
 9278SOL    HW139296   1.744   0.754   9.985  0.1127  0.6705 -1.1221
 9278SOL    HW239297   1.650   0.785   9.879  0.3540 -2.3969 -2.4055
 9279SOL     OW39298   0.505   3.835   3.645 -0.0331 -0.0223  0.1146
 9279SOL    HW139299   0.503   3.905   3.580 -1.0678  2.0178  2.3707
 9279SOL    HW239300   0.448   3.766   3.609 -1.3192  1.5751 -0.8870
 9280SOL     OW39301   0.496   2.548   3.783 -0.1456 -0.3656  0.0552
 9280SOL    HW139302   0.443   2.627   3.774  1.7591  0.9785  0.6692
 9280SOL    HW239303   0.531   2.531   3.695  1.5846  2.3591  0.2234
 9281SOL     OW39304   1.810   4.145   6.286 -0.4710 -0.7336 -0.9128
 9281SOL    HW139305   1.869   4.165   6.359  0.5323 -1.8623 -1.4149
 9281SOL    HW239306   1.865   4.133   6.209  0.2506 -1.8989 -0.2293
 9282SOL     OW39307   3.820   1.869   5.017  0.0657  0.6889 -0.4732
 9282SOL    HW139308   3.764   1.809   4.969  0.3674  0.0484 -0.0202
 9282SOL    HW239309   3.828   1.825   5.102  0.2279  0.3866 -0.6443
 9283SOL     OW39310   1.817   1.585   5.336 -0.0573  0.3340 -0.4525
 9283SOL    HW139311   1.857   1.662   5.375 -1.3683  0.6106  0.3324
 9283SOL    HW239312   1.794   1.523   5.405 -0.7246  1.4042  0.2643
 9284SOL     OW39313   0.843   3.724   4.404  0.1605  0.1952  0.8224
 9284SOL    HW139314   0.906   3.659   4.374  0.3433  0.1090  1.3875
 9284SOL    HW239315   0.817   3.753   4.317  1.3524  1.4481  0.8825
 9285SOL     OW39316   1.377   2.679   4.143  0.1269  0.1049 -0.5401
 9285SOL    HW139317   1.435   2.732   4.089 -1.8222  2.1968 -0.5949
 9285SOL    HW239318   1.388   2.724   4.227 -0.0462 -0.7048 -0.0756
 9286SOL     OW39319   1.550   2.860   3.994 -0.2838  0.2952 -0.5233
 9286SOL    HW139320   1.536   2.955   3.997  1.0832  0.5911 -3.1358
 9286SOL    HW239321   1.627   2.855   4.051 -0.0412  0.2968 -0.8489
 9287SOL     OW39322   4.587   1.103   5.757  0.6955 -0.1026 -0.0580
 9287SOL    HW139323   4.544   1.186   5.781 -0.8999 -0.5116 -1.5126
 9287SOL    HW239324   4.524   1.038   5.785  1.4439 -0.0291  1.8284
 9288SOL     OW39325   3.495   3.409   1.661  0.4399  0.4259 -0.6930
 9288SOL    HW139326   3.563   3.473   1.641 -1.4055  1.5560 -3.4412
 9288SOL    HW239327   3.528   3.336   1.609 -2.3057 -1.4688  0.1793
 9289SOL     OW39328   0.597   3.888   7.512  0.2620  0.5655  0.2854
 9289SOL    HW139329   0.599   3.829   7.437  0.4399 -0.3851  1.0475
 9289SOL    HW239330   0.650   3.844   7.578  0.2289 -1.4861 -1.0585
 9290SOL     OW39331   0.312   3.783   9.479 -0.0925 -0.2460 -0.0318
 9290SOL    HW139332   0.315   3.689   9.459  2.6372 -0.0567 -0.5290
 9290SOL    HW239333   0.338   3.791   9.571  1.9669 -1.7768 -0.4690
 9291SOL     OW39334   1.824   4.234   3.218  0.4134  0.7915  0.1950
 9291SOL    HW139335   1.838   4.250   3.125 -0.4025  0.1519 -0.0280
 9291SOL    HW239336   1.917   4.213   3.229  0.2359  1.3527  2.9223
 9292SOL     OW39337   3.454   3.684  10.867  0.1240 -0.2083  0.0893
 9292SOL    HW139338   3.533   3.714  10.822  0.0185 -1.0323 -0.6472
 9292SOL    HW239339   3.489   3.610  10.915  1.6278 -1.1170 -2.4245
 9293SOL     OW39340   2.526   0.084   1.122  0.5384  0.3136  0.3377
 9293SOL    HW139341   2.441   0.069   1.163 -0.3649 -1.2189 -2.0906
 9293SOL    HW239342   2.523   0.178   1.101 -1.3947  0.1970  0.1048
 9294SOL     OW39343   2.642   1.375   3.825  0.2883 -0.3621  0.6556
 9294SOL    HW139344   2.648   1.436   3.752  1.1965 -2.1437 -0.7483
 9294SOL    HW239345   2.551   1.345   3.817 -0.0449  1.0371 -0.7620
 9295SOL     OW39346   1.420   4.438  16.962  0.5851 -0.4684  0.3475
 9295SOL    HW139347   1.374   4.355  16.951  0.1662 -0.1606 -0.1885
 9295SOL    HW239348   1.353   4.486  17.011  1.5586 -0.9147  2.1280
 9296SOL     OW39349   4.182   1.710  11.748  0.0335  0.1614 -0.0109
 9296SOL    HW139350   4.209   1.798  11.773 -0.0336  0.1332  0.1617
 9296SOL    HW239351   4.111   1.697  11.811  1.0197 -1.4652  0.7742
 9297SOL     OW39352   0.901   1.756   7.071  0.4798  0.3608 -0.0098
 9297SOL    HW139353   0.899   1.850   7.092 -0.2184  0.2001  0.6177
 9297SOL    HW239354   0.856   1.758   6.987 -1.1243  0.9929  0.8637
 9298SOL     OW39355   4.670   2.944  14.416  0.2019  0.0403  0.4165
 9298SOL    HW139356   4.720   2.913  14.492 -0.3973 -0.2582  0.6903
 9298SOL    HW239357   4.589   2.895  14.431 -0.5304  0.8916 -0.7760
 9299SOL     OW39358   4.503   2.015  15.638  1.2512  0.0094  0.5960
 9299SOL    HW139359   4.512   2.067  15.558  0.9730 -2.1899 -0.8625
 9299SOL    HW239360   4.539   1.929  15.616  0.8490  0.7111 -2.7423
 9300SOL     OW39361   2.396   3.115   2.981  0.5654 -0.1206 -0.2783
 9300SOL    HW139362   2.372   3.159   2.899 -0.9211 -0.2768  0.0814
 9300SOL    HW239363   2.477   3.162   3.000  0.1727 -0.0833  1.2995
 9301SOL     OW39364   0.476   1.696   7.625  0.2392  0.1926  0.0647
 9301SOL    HW139365   0.438   1.762   7.683  0.5726  0.3758  0.0753
 9301SOL    HW239366   0.518   1.749   7.556 -1.4168  1.1435 -0.2288
 9302SOL     OW39367   2.081   2.520  11.610  1.2261 -0.2505  0.1970
 9302SOL    HW139368   2.118   2.520  11.522  0.7181  0.5724 -0.0084
 9302SOL    HW239369   2.063   2.611  11.635 -1.5144 -1.3332  2.2354
 9303SOL     OW39370   2.229   4.626  11.501 -0.5522  0.8240  0.6518
 9303SOL    HW139371   2.197   4.538  11.483  1.6239  0.3319 -0.8797
 9303SOL    HW239372   2.191   4.682  11.433 -3.3082 -1.0377  0.6745
 9304SOL     OW39373   1.794   2.709   6.450 -0.8541  0.0594  0.1170
 9304SOL    HW139374   1.709   2.741   6.480 -0.9266  0.0620 -0.0942
 9304SOL    HW239375   1.850   2.769   6.499  0.8223  0.7974 -2.7230
 9305SOL     OW39376   4.668   2.279  10.527  0.1434  0.1854  0.4722
 9305SOL    HW139377   0.012   2.304  10.592  1.7221  0.7370 -1.3312
 9305SOL    HW239378   4.707   2.302  10.442 -0.2830  0.7853  0.4397
 9306SOL     OW39379   3.526   3.743   3.590  0.3469  0.2226 -0.0535
 9306SOL    HW139380   3.561   3.681   3.654  1.0865  1.5355  0.8007
 9306SOL    HW239381   3.607   3.779   3.552  1.2136  0.1434  1.6978
 9307SOL     OW39382   3.075   0.388   3.226 -0.2006  0.1506  0.1778
 9307SOL    HW139383   3.121   0.432   3.155  1.0250  1.5095  1.8049
 9307SOL    HW239384   3.082   0.454   3.295 -0.2367 -1.1123  1.3875
 9308SOL     OW39385   1.364   2.940   3.180  0.1969  0.4378 -0.2320
 9308SOL    HW139386   1.337   2.913   3.268 -0.5224  0.2547 -0.5046
 9308SOL    HW239387   1.440   2.888   3.152 -1.4014 -0.7944 -2.2486
 9309SOL     OW39388   1.527   0.262  13.675  0.0482  0.1905 -0.2930
 9309SOL    HW139389   1.507   0.182  13.724 -2.8940  1.3776  0.4336
 9309SOL    HW239390   1.451   0.279  13.619 -0.0259 -1.9458 -0.8665
 9310SOL     OW39391   4.591   4.320   9.125 -0.3122 -0.3508  0.0765
 9310SOL    HW139392   4.662   4.348   9.182 -2.1266  0.1961  2.0768
 9310SOL    HW239393   4.601   4.231   9.157 -3.9546 -0.1401  1.8684
 9311SOL     OW39394   4.168   3.707   7.081  0.4409 -0.0620 -0.4683
 9311SOL    HW139395   4.171   3.756   7.163  1.3136 -3.7105  1.6864
 9311SOL    HW239396   4.253   3.664   7.093 -0.4326 -1.1974  1.6827
 9312SOL     OW39397   0.644   4.643  11.759  0.0570  0.4210  0.0175
 9312SOL    HW139398   0.594   4.596  11.692 -1.0064  0.1780  1.0046
 9312SOL    HW239399   0.717   4.583  11.777 -0.5360 -0.7886 -1.5801
 9313SOL     OW39400   4.455   1.382   0.405 -0.4204 -0.2346 -0.3398
 9313SOL    HW139401   4.466   1.315   0.473 -1.8364  1.8507  1.9493
 9313SOL    HW239402   4.364   1.403   0.427 -0.2451 -0.3632  0.5215
 9314SOL     OW39403   4.044   1.537   3.840  0.3299 -0.5840  0.2501
 9314SOL    HW139404   4.006   1.606   3.894  1.6819  0.6813 -0.4448
 9314SOL    HW239405   4.137   1.554   3.854  0.2312 -0.4117  0.6706
 9315SOL     OW39406   3.332   2.084   4.789 -0.2847  0.3547  0.4550
 9315SOL    HW139407   3.266   2.029   4.748  0.8844 -0.6932  0.0059
 9315SOL    HW239408   3.306   2.175   4.773  0.8601 -0.0595 -3.6672
 9316SOL     OW39409   3.023   2.188   8.756  0.3292 -0.2528 -0.2267
 9316SOL    HW139410   3.112   2.169   8.723  0.0266  0.7012 -1.6099
 9316SOL    HW239411   3.000   2.266   8.706 -0.4727  0.0166  0.5725
 9317SOL     OW39412   3.153   1.393   5.812 -0.0701 -0.3675 -0.5355
 9317SOL    HW139413   3.219   1.448   5.770 -0.7142  0.0847 -0.9444
 9317SOL    HW239414   3.173   1.385   5.906  0.5432  0.9277 -0.5464
 9318SOL     OW39415   2.777   0.173   9.105 -0.3037 -0.1193 -0.6766
 9318SOL    HW139416   2.872   0.184   9.096 -0.2373 -0.5725 -0.5061
 9318SOL    HW239417   2.763   0.084   9.136 -0.6577 -0.4132 -1.6720
 9319SOL     OW39418   1.614   1.231   5.175 -0.3845  0.0923  0.1721
 9319SOL    HW139419   1.546   1.178   5.134 -0.1752  0.4591 -0.6596
 9319SOL    HW239420   1.639   1.169   5.243 -0.3972 -1.3409 -1.1226
 9320SOL     OW39421   1.842   1.105  16.545 -0.0635  0.1329  0.1431
 9320SOL    HW139422   1.833   1.048  16.468  3.6057  0.5529 -0.5738
 9320SOL    HW239423   1.937   1.108  16.534 -0.2360  0.3552 -1.3544
 9321SOL     OW39424   3.277   2.276  13.058 -0.4247  0.2707 -0.5566
 9321SOL    HW139425   3.271   2.234  12.972 -3.1655 -1.7044  0.6013
 9321SOL    HW239426   3.240   2.199  13.102 -0.1200 -0.1337 -1.0044
 9322SOL     OW39427   0.980   0.366  15.379 -0.2055  0.2375  0.7306
 9322SOL    HW139428   0.888   0.358  15.352 -0.2158 -1.8213  1.3362
 9322SOL    HW239429   1.004   0.273  15.384 -0.0940  0.2323  0.1096
 9323SOL     OW39430   2.121   3.962  16.942 -0.0044 -0.0480 -0.5384
 9323SOL    HW139431   2.203   3.913  16.933 -0.0632 -0.2761  0.1702
 9323SOL    HW239432   2.066   3.891  16.975  1.3154  0.0788  1.9316
 9324SOL     OW39433   2.211   2.517   8.258  0.2988  0.1259  0.6409
 9324SOL    HW139434   2.236   2.507   8.350  0.3304  2.8921  0.9411
 9324SOL    HW239435   2.129   2.563   8.279  0.1292 -1.0877  2.6318
 9325SOL     OW39436   2.191   2.484   5.843 -0.0893 -0.3702 -0.0558
 9325SOL    HW139437   2.188   2.543   5.918  0.8132 -0.5560  0.1264
 9325SOL    HW239438   2.274   2.506   5.798 -1.7146  2.1094 -1.8655
 9326SOL     OW39439   4.162   3.094   0.759 -0.0007 -0.2819  0.1207
 9326SOL    HW139440   4.228   3.128   0.699 -0.0490 -3.2744 -1.6303
 9326SOL    HW239441   4.132   3.017   0.711 -0.2575  0.1519 -0.4082
 9327SOL     OW39442   4.320   4.473   6.378  0.2176 -0.1863 -0.2515
 9327SOL    HW139443   4.378   4.548   6.367  1.5057 -0.8880  1.8574
 9327SOL    HW239444   4.244   4.506   6.330 -0.3587  0.8937  1.4384
 9328SOL     OW39445   1.383   2.937   3.576  0.2052  0.3204 -0.7630
 9328SOL    HW139446   1.477   2.920   3.581  0.3867  0.9381 -2.0326
 9328SOL    HW239447   1.349   2.885   3.649  0.1759 -0.8078 -1.5911
 9329SOL     OW39448   4.658   1.378   6.317  0.0589 -0.6290 -0.0856
 9329SOL    HW139449   4.676   1.425   6.399 -1.6008  3.7697 -2.1992
 9329SOL    HW239450   0.021   1.332   6.316  2.4317  3.6793 -2.2721
 9330SOL     OW39451   0.034   3.816   4.547 -0.4451  0.5322  0.0253
 9330SOL    HW139452   4.692   3.864   4.492 -1.2311  0.4353  0.8385
 9330SOL    HW239453   4.697   3.773   4.609  0.3833 -0.2306  0.2593
 9331SOL     OW39454   0.713   0.092   4.160 -0.2114  0.3536 -0.0983
 9331SOL    HW139455   0.744   0.051   4.241 -2.0031 -1.0364 -0.1182
 9331SOL    HW239456   0.706   0.008   4.115 -1.2176 -0.9190  2.4309
 9332SOL     OW39457   2.027   4.004   7.306  0.6092 -0.2308  0.4799
 9332SOL    HW139458   2.042   3.913   7.332 -3.9619 -1.2607 -0.3946
 9332SOL    HW239459   1.997   4.048   7.386  1.4171  1.1719  0.0099
 9333SOL     OW39460   0.040   0.182   0.567 -0.0649 -0.0823  0.1062
 9333SOL    HW139461   0.127   0.148   0.545 -0.3317 -1.7525  1.6359
 9333SOL    HW239462   0.038   0.186   0.662 -0.9919 -2.5016  0.1755
 9334SOL     OW39463   2.194   2.123  17.166  0.0285 -0.2911 -0.1891
 9334SOL    HW139464   2.249   2.063  17.116 -1.1153  0.6198 -2.5793
 9334SOL    HW239465   2.163   2.174  17.091  0.2203  1.0325  0.6324
 9335SOL     OW39466   3.159   3.006   2.152  0.6392 -0.1364  0.0328
 9335SOL    HW139467   3.085   3.041   2.202  0.8416  2.2864 -1.3786
 9335SOL    HW239468   3.161   2.911   2.159  2.0461 -0.3842 -3.9275
 9336SOL     OW39469   0.656   0.629  10.716 -0.1996 -0.3840  0.2065
 9336SOL    HW139470   0.581   0.663  10.667  0.2320 -0.5373 -0.5784
 9336SOL    HW239471   0.654   0.687  10.792  0.3816  0.1337 -0.1658
 9337SOL     OW39472   3.629   0.798   8.465  0.4524  0.1324  0.4912
 9337SOL    HW139473   3.661   0.721   8.511  0.6122 -0.0231  0.1238
 9337SOL    HW239474   3.648   0.871   8.524  1.0164  0.2753  0.1337
 9338SOL     OW39475   3.263   2.375   4.356  0.1666  0.6071  0.1752
 9338SOL    HW139476   3.251   2.427   4.276 -0.5267 -1.3118 -0.9514
 9338SOL    HW239477   3.326   2.306   4.336  0.3340  0.7653  0.1529
 9339SOL     OW39478   4.397   2.675   2.008 -0.0213  0.4513  0.0523
 9339SOL    HW139479   4.449   2.596   2.024  0.8314  1.0339  0.2021
 9339SOL    HW239480   4.464   2.743   2.018  0.3059 -0.0621  1.3535
 9340SOL     OW39481   0.816   0.872   0.723  0.2449  0.9685  0.6342
 9340SOL    HW139482   0.813   0.779   0.746 -1.5704  0.6516 -0.8462
 9340SOL    HW239483   0.741   0.884   0.665  1.0912 -1.5979 -1.0102
 9341SOL     OW39484   2.756   1.425   1.652 -0.4474  0.3797 -0.2129
 9341SOL    HW139485   2.665   1.430   1.681 -0.1846 -3.3953  1.2859
 9341SOL    HW239486   2.782   1.367   1.724 -0.5657  1.3912  0.6428
 9342SOL     OW39487   1.905   0.963   1.881  0.7930  0.8550  0.7497
 9342SOL    HW139488   1.887   1.020   1.956  0.0853  0.6611  0.7295
 9342SOL    HW239489   1.951   1.024   1.824  0.7631  1.1470  1.0382
 9343SOL     OW39490   3.635   3.927   8.310  0.4727 -0.1468 -0.1554
 9343SOL    HW139491   3.719   3.886   8.333 -0.5455 -2.0716  0.1319
 9343SOL    HW239492   3.658   4.013   8.277  0.4633  0.0071  0.2305
 9344SOL     OW39493   2.512   2.189   2.986 -0.1032  0.4391  0.3178
 9344SOL    HW139494   2.494   2.209   2.894 -1.0029 -0.4156  0.3133
 9344SOL    HW239495   2.493   2.095   2.983  2.8924 -0.1466  0.2743
 9345SOL     OW39496   2.661   2.549   3.535 -0.0715  0.7108  0.1790
 9345SOL    HW139497   2.648   2.465   3.492 -1.2122  1.1977 -0.4325
 9345SOL    HW239498   2.756   2.564   3.528  0.2246 -1.2672 -0.1028
 9346SOL     OW39499   2.625   3.547   6.990 -0.3205 -0.2490 -0.3800
 9346SOL    HW139500   2.639   3.457   6.961 -1.2860 -0.0805 -1.3596
 9346SOL    HW239501   2.608   3.586   6.905  1.6100 -0.3433 -0.8106
 9347SOL     OW39502   4.061   3.593   5.876  0.0130  0.0184 -0.2141
 9347SOL    HW139503   4.026   3.633   5.956 -2.7921 -2.8360 -0.0304
 9347SOL    HW239504   4.061   3.674   5.824  2.4331 -0.1898 -0.5225
 9348SOL     OW39505   1.297   4.014   5.126 -0.2162 -0.1323  0.4185
 9348SOL    HW139506   1.372   4.072   5.143 -0.8171  0.6626  0.3846
 9348SOL    HW239507   1.338   3.959   5.059 -0.2040  0.8102 -0.3524
 9349SOL     OW39508   0.507   1.548   6.022 -0.6350 -0.4921  0.0964
 9349SOL    HW139509   0.549   1.624   5.982  0.2515  0.2135  2.3858
 9349SOL    HW239510   0.583   1.502   6.056  0.8976  1.6920 -0.4312
 9350SOL     OW39511   0.849   3.679   6.979 -0.2758 -0.0175  0.1207
 9350SOL    HW139512   0.827   3.598   6.933  1.8196  0.5431 -1.8986
 9350SOL    HW239513   0.901   3.648   7.053 -0.1131  3.1544  1.2970
 9351SOL     OW39514   0.651   3.595  14.269  0.6447 -0.0443 -0.0132
 9351SOL    HW139515   0.596   3.563  14.198  1.7786 -0.1194 -0.8457
 9351SOL    HW239516   0.714   3.650  14.224  1.2243 -1.8111 -1.3169
 9352SOL     OW39517   3.787   1.514   1.658  0.4851 -0.0731  0.3593
 9352SOL    HW139518   3.844   1.568   1.604 -0.1362 -1.3921 -1.5946
 9352SOL    HW239519   3.702   1.536   1.621 -0.2253  0.7540  2.4636
 9353SOL     OW39520   3.020   0.966   8.835 -0.6567 -0.0875 -0.3458
 9353SOL    HW139521   3.085   0.938   8.900 -1.2123 -1.3520 -0.3523
 9353SOL    HW239522   3.016   1.059   8.859 -0.0748  0.0165 -0.6475
 9354SOL     OW39523   3.774   1.416   3.701  1.3246 -0.2998 -0.2408
 9354SOL    HW139524   3.804   1.450   3.785  0.6180  0.6901 -0.3919
 9354SOL    HW239525   3.756   1.503   3.666 -2.2437 -0.4031  1.3242
 9355SOL     OW39526   1.371   4.364  11.888 -0.5894  0.4623  0.2920
 9355SOL    HW139527   1.318   4.289  11.914  1.7661 -1.8013 -1.4104
 9355SOL    HW239528   1.362   4.416  11.968  0.1987 -0.2798  0.8634
 9356SOL     OW39529   3.816   4.468   5.148 -0.2537 -0.1151 -0.3161
 9356SOL    HW139530   3.884   4.400   5.151  0.2879  0.3331 -2.5820
 9356SOL    HW239531   3.743   4.407   5.139  0.5355 -1.1677  0.2981
 9357SOL     OW39532   1.510   1.107  14.965 -0.2778 -0.7009  0.3934
 9357SOL    HW139533   1.543   1.081  15.051 -2.1733 -1.0996  1.0068
 9357SOL    HW239534   1.462   1.188  14.983  0.3143  0.0649 -1.5445
 9358SOL     OW39535   2.634   4.710   0.677  0.4229  0.2658  0.4483
 9358SOL    HW139536   2.730   4.709   0.678  0.4308  1.3957  2.0882
 9358SOL    HW239537   2.612   4.640   0.616  1.1297 -0.8812  1.4827
 9359SOL     OW39538   2.931   3.033  11.233  0.0918 -0.5532 -0.2944
 9359SOL    HW139539   2.983   2.954  11.248 -0.3912 -1.0528 -1.2748
 9359SOL    HW239540   2.849   2.994  11.205 -0.9327  0.5662  1.1368
 9360SOL     OW39541   0.544   4.219   8.445  0.3039 -0.2668  0.4515
 9360SOL    HW139542   0.634   4.204   8.474  0.1689 -1.4070  0.2804
 9360SOL    HW239543   0.561   4.307   8.411  0.1855 -0.8405 -1.1330
 9361SOL     OW39544   4.156   3.174  16.169  0.0569  0.3525  0.1814
 9361SOL    HW139545   4.120   3.215  16.247 -1.0316  2.0111 -1.1998
 9361SOL    HW239546   4.122   3.233  16.102 -1.6885 -0.3231  0.4957
 9362SOL     OW39547   3.793   4.376   0.579 -0.4517  0.1830  0.4907
 9362SOL    HW139548   3.743   4.300   0.550 -0.0456  0.4775 -0.9533
 9362SOL    HW239549   3.784   4.416   0.493  0.1750  0.0408  0.3602
 9363SOL     OW39550   1.291   0.772   6.199 -0.0172  0.7052 -0.4411
 9363SOL    HW139551   1.235   0.790   6.275 -0.2894 -1.9157 -0.0255
 9363SOL    HW239552   1.374   0.760   6.246 -1.2198  0.4870  1.6143
 9364SOL     OW39553   1.937   3.642  10.640  0.6106  0.5139 -0.3259
 9364SOL    HW139554   1.868   3.577  10.633 -0.4985  1.5496  1.0078
 9364SOL    HW239555   1.919   3.698  10.564 -0.0270 -2.3249 -2.2470
 9365SOL     OW39556   4.572   3.799   6.565  0.1088  0.9152 -0.7945
 9365SOL    HW139557   4.592   3.826   6.655  0.4120 -2.5631  0.1562
 9365SOL    HW239558   4.587   3.872   6.504  0.5050  2.4056  1.0859
 9366SOL     OW39559   0.388   1.141   1.066 -0.4908  0.3160 -0.2875
 9366SOL    HW139560   0.465   1.191   1.039  0.0613 -0.2850  0.1606
 9366SOL    HW239561   0.426   1.057   1.093  0.0478  0.0517 -1.8893
 9367SOL     OW39562   4.289   3.900   4.662 -0.2512 -0.3522 -0.3806
 9367SOL    HW139563   4.322   3.811   4.651 -2.8062 -1.5884  1.7869
 9367SOL    HW239564   4.211   3.875   4.712 -0.5367  1.0847 -0.0978
 9368SOL     OW39565   4.037   3.344   7.563 -0.6531 -0.0431 -0.2718
 9368SOL    HW139566   4.126   3.312   7.553 -1.0795 -1.0339 -0.9316
 9368SOL    HW239567   4.040   3.439   7.551 -1.7073 -0.0136 -0.3762
 9369SOL     OW39568   2.916   1.621  16.361  0.3497  0.2595 -0.3338
 9369SOL    HW139569   2.916   1.612  16.265  0.6639 -3.0216 -0.0299
 9369SOL    HW239570   2.830   1.661  16.375  0.3892  0.4142 -0.5307
 9370SOL     OW39571   0.812   3.902   2.357 -0.7676  0.7488  0.0105
 9370SOL    HW139572   0.800   3.893   2.451 -0.3068  3.0999  0.2926
 9370SOL    HW239573   0.878   3.971   2.351  0.1897 -0.3906 -2.6305
 9371SOL     OW39574   0.009   1.743   3.518  0.2390  0.0677  0.0867
 9371SOL    HW139575   4.711   1.731   3.424  2.0419 -1.3657 -0.0773
 9371SOL    HW239576   0.087   1.688   3.519  0.5256  0.4247 -1.9547
 9372SOL     OW39577   4.556   2.092  11.653 -0.0362 -0.1976 -0.0076
 9372SOL    HW139578   4.595   2.084  11.740 -0.1617 -0.6665  0.0043
 9372SOL    HW239579   4.490   2.156  11.679  1.7824  1.2480  1.0696
 9373SOL     OW39580   3.522   2.403   5.697 -0.1086  0.2054  0.3629
 9373SOL    HW139581   3.459   2.421   5.767 -2.8083  1.1227 -2.2928
 9373SOL    HW239582   3.556   2.493   5.694  0.3567 -0.0323 -1.7090
 9374SOL     OW39583   4.356   4.474   9.414  0.1065 -0.4975  0.3048
 9374SOL    HW139584   4.369   4.557   9.459  1.0707 -0.1766 -0.5722
 9374SOL    HW239585   4.345   4.509   9.325 -2.2198  1.0386  1.2024
 9375SOL     OW39586   1.041   4.052  16.189 -0.2807  0.6923 -0.1054
 9375SOL    HW139587   1.074   4.073  16.276  1.2676  0.5253 -0.6454
 9375SOL    HW239588   1.118   4.004  16.159 -0.3351  1.5593 -1.6438
 9376SOL     OW39589   1.634   2.933   4.662 -0.0256  0.6863  0.1955
 9376SOL    HW139590   1.573   2.971   4.725 -0.9114 -0.8884  0.3025
 9376SOL    HW239591   1.685   3.010   4.638 -0.7791  1.1244  0.0097
 9377SOL     OW39592   1.685   2.779  12.557 -0.2745  0.0097  0.0348
 9377SOL    HW139593   1.748   2.728  12.608 -1.0195 -1.4896 -0.5405
 9377SOL    HW239594   1.643   2.826  12.628 -2.5894 -3.3788  0.9076
 9378SOL     OW39595   1.950   2.614   7.602  0.4130 -0.4310 -0.1399
 9378SOL    HW139596   1.944   2.533   7.552  1.6806 -1.0397  0.6723
 9378SOL    HW239597   1.905   2.679   7.548  0.0050  0.3227  1.0852
 9379SOL     OW39598   1.681   3.251   7.037  0.5006 -0.1832  0.1911
 9379SOL    HW139599   1.702   3.303   6.959 -0.9181 -0.1571 -0.1809
 9379SOL    HW239600   1.693   3.320   7.102 -1.4120 -0.0295  0.3662
 9380SOL     OW39601   1.085   3.841   0.441  0.0833 -0.5253  0.9461
 9380SOL    HW139602   1.163   3.891   0.467  0.5152 -1.0131  0.6058
 9380SOL    HW239603   1.109   3.751   0.463  0.9726 -0.8861 -1.3865
 9381SOL     OW39604   3.929   3.646   5.575 -0.3048 -0.6542  0.4717
 9381SOL    HW139605   3.877   3.572   5.545  0.9621 -1.9242  1.4232
 9381SOL    HW239606   3.884   3.669   5.656 -0.4900 -0.2289  0.2502
 9382SOL     OW39607   1.384   1.541   8.152  0.0240  0.1222 -0.4193
 9382SOL    HW139608   1.351   1.528   8.241  0.1132  1.2410 -0.2250
 9382SOL    HW239609   1.304   1.550   8.101  0.1729 -1.4321 -0.9508
 9383SOL     OW39610   3.275   2.542   3.046 -0.0632  0.3913 -0.4341
 9383SOL    HW139611   3.181   2.548   3.064  0.4215 -0.4300  2.2024
 9383SOL    HW239612   3.274   2.574   2.955 -0.5768 -2.6240 -1.4893
 9384SOL     OW39613   1.858   1.662  13.187 -0.1813  0.8515  0.0507
 9384SOL    HW139614   1.784   1.605  13.166  1.2826 -0.9115 -0.2899
 9384SOL    HW239615   1.834   1.742  13.139 -1.9429 -0.4671 -1.2618
 9385SOL     OW39616   0.023   1.260   2.470  0.0974  0.4000 -0.4590
 9385SOL    HW139617   4.680   1.281   2.538  0.3040  1.8068 -0.7004
 9385SOL    HW239618   4.705   1.179   2.437  2.4145 -1.4268  1.3184
 9386SOL     OW39619   2.212   3.849   4.008 -0.1334  0.9096  0.3515
 9386SOL    HW139620   2.302   3.843   3.975 -0.7869  3.6305 -1.9203
 9386SOL    HW239621   2.166   3.904   3.944 -0.3273  0.5737  0.1986
 9387SOL     OW39622   3.941   1.840  10.065  0.5908 -0.7806 -0.2917
 9387SOL    HW139623   3.935   1.788   9.984  0.5124 -1.3769  0.0978
 9387SOL    HW239624   4.027   1.825  10.103  0.0868  0.4095  1.3001
 9388SOL     OW39625   4.513   1.810   8.998  0.2881 -0.0161 -0.6825
 9388SOL    HW139626   4.587   1.830   8.940  1.2765  1.0673  0.9296
 9388SOL    HW239627   4.433   1.819   8.946  0.7549 -1.0888 -1.5988
 9389SOL     OW39628   3.566   1.817  17.546 -0.2782  0.2129 -0.2117
 9389SOL    HW139629   3.506   1.761  17.595 -0.0409  0.4061  0.2929
 9389SOL    HW239630   3.615   1.868  17.609  0.1407 -2.1076  1.3151
 9390SOL     OW39631   0.880   2.262  10.917 -0.4267  0.8658 -0.3830
 9390SOL    HW139632   0.796   2.217  10.912  0.6164 -0.9051 -2.0486
 9390SOL    HW239633   0.871   2.313  10.837  1.4459 -0.2509 -1.3038
 9391SOL     OW39634   4.560   1.512   9.866  0.1775 -0.4359 -0.1940
 9391SOL    HW139635   4.547   1.439   9.806 -0.6083 -1.2222  0.9338
 9391SOL    HW239636   4.655   1.515   9.877  0.0377  1.7533  0.6117
 9392SOL     OW39637   3.089   3.871   3.743 -0.5440  0.1236  1.0795
 9392SOL    HW139638   3.063   3.926   3.817 -0.3754  1.5661  0.0730
 9392SOL    HW239639   3.006   3.840   3.707 -0.6046  0.3504  1.0243
 9393SOL     OW39640   1.653   4.113  10.574 -0.1192  0.2814 -0.2304
 9393SOL    HW139641   1.738   4.127  10.533 -0.0543  0.9454  0.1340
 9393SOL    HW239642   1.594   4.178  10.536  0.5173  1.2424  0.4159
 9394SOL     OW39643   0.407   4.663   2.605 -0.4612  0.2825 -0.2006
 9394SOL    HW139644   0.495   4.626   2.605 -1.1280 -1.3510  0.5807
 9394SOL    HW239645   0.403   4.714   2.685  2.1141  1.2541 -0.7094
 9395SOL     OW39646   2.512   3.339   8.060 -0.1847  0.6836 -0.1900
 9395SOL    HW139647   2.535   3.359   7.969 -0.4026  0.0456 -0.3904
 9395SOL    HW239648   2.502   3.424   8.104  2.5602 -0.5554  2.7919
 9396SOL     OW39649   1.096   0.097   2.936 -0.1684 -0.0541  0.0619
 9396SOL    HW139650   1.038   0.047   2.994 -0.0064 -1.5371 -1.0871
 9396SOL    HW239651   1.054   0.184   2.936  1.8691  0.9224 -3.0310
 9397SOL     OW39652   1.270   2.771   8.790  0.3085  0.4026  0.1841
 9397SOL    HW139653   1.219   2.737   8.716 -0.2828 -3.5116  2.4310
 9397SOL    HW239654   1.200   2.811   8.842 -1.5862 -3.3190  0.4395
 9398SOL     OW39655   4.201   0.685  17.576  0.5495 -0.1291  0.2676
 9398SOL    HW139656   4.256   0.763  17.578 -0.5948  0.7044 -0.8611
 9398SOL    HW239657   4.255   0.616  17.536 -0.5355  0.7385 -2.6552
 9399SOL     OW39658   4.544   1.388   2.208  0.1821  0.1331 -0.2603
 9399SOL    HW139659   4.621   1.427   2.249 -0.9854  1.3743  0.7607
 9399SOL    HW239660   4.468   1.441   2.230 -1.1257 -1.4226 -0.9785
 9400SOL     OW39661   4.216   0.354   7.176  0.1512 -0.0863 -0.4243
 9400SOL    HW139662   4.261   0.280   7.216  0.0260 -0.3511 -0.7780
 9400SOL    HW239663   4.172   0.305   7.106 -2.8616  1.6553  0.2280
 9401SOL     OW39664   2.504   3.764   8.194 -0.6113 -0.8055  0.1527
 9401SOL    HW139665   2.556   3.818   8.133 -0.4001  1.3081  2.2237
 9401SOL    HW239666   2.432   3.818   8.226  0.4758  1.0230 -0.4694
 9402SOL     OW39667   3.935   1.395   6.467  0.1699 -0.3312 -0.9110
 9402SOL    HW139668   3.899   1.318   6.424 -2.0434 -0.0568  0.5182
 9402SOL    HW239669   4.022   1.393   6.426 -0.0469  0.0674 -1.3879
 9403SOL     OW39670   4.070   4.563   1.241 -0.5105  0.2437 -0.1452
 9403SOL    HW139671   4.065   4.471   1.213  0.2084  0.7624 -2.0094
 9403SOL    HW239672   4.130   4.541   1.313 -0.1978 -2.0752 -1.1119
 9404SOL     OW39673   0.222   4.259   7.081  0.3121 -0.3460 -0.3752
 9404SOL    HW139674   0.181   4.225   7.001  3.1607 -0.1679 -1.9096
 9404SOL    HW239675   0.306   4.216   7.094  0.3838  1.0321  3.7625
 9405SOL     OW39676   1.361   1.707   8.790 -0.4714 -0.5832  0.3169
 9405SOL    HW139677   1.419   1.742   8.722 -1.3814  2.8333  1.3318
 9405SOL    HW239678   1.301   1.777   8.812  2.9705  1.6587  2.4552
 9406SOL     OW39679   2.841   1.527   3.178  0.2928 -0.7286 -0.3134
 9406SOL    HW139680   2.857   1.617   3.206 -1.1813 -0.1677 -1.2743
 9406SOL    HW239681   2.826   1.492   3.266  0.0230  0.1496 -0.0051
 9407SOL     OW39682   1.644   0.880  14.630  0.1175 -0.0831 -0.1522
 9407SOL    HW139683   1.647   0.975  14.646 -1.0342 -0.2604  1.0995
 9407SOL    HW239684   1.727   0.852  14.668 -0.4677 -0.8328  0.5570
 9408SOL     OW39685   1.172   3.681  13.859 -0.0947  0.1054  0.1209
 9408SOL    HW139686   1.242   3.671  13.795 -0.4384 -5.1006  0.5350
 9408SOL    HW239687   1.129   3.749  13.807  0.2218 -1.1920 -1.8228
 9409SOL     OW39688   1.223   2.019   3.214  0.5008  0.2180  0.2909
 9409SOL    HW139689   1.239   2.086   3.148 -0.3305  0.8100  0.6862
 9409SOL    HW239690   1.226   2.068   3.296 -1.9687  3.0785 -1.2997
 9410SOL     OW39691   1.202   4.365   6.515  0.2708  0.6224  0.3788
 9410SOL    HW139692   1.110   4.386   6.497  0.2734 -0.8344 -1.3133
 9410SOL    HW239693   1.212   4.286   6.461  1.4200 -0.4678  2.1873
 9411SOL     OW39694   3.591   1.923   5.479  0.4353 -0.4528 -0.5656
 9411SOL    HW139695   3.628   1.898   5.563 -1.8868  0.8832  0.8777
 9411SOL    HW239696   3.503   1.945   5.509  0.9362 -0.3703  0.8385
 9412SOL     OW39697   0.687   0.882   5.532  0.5688 -0.0947 -0.4107
 9412SOL    HW139698   0.715   0.811   5.589  0.8864  0.6982  0.4255
 9412SOL    HW239699   0.620   0.921   5.588 -0.1020 -1.1168 -0.5006
 9413SOL     OW39700   3.786   4.467  15.844  0.1779  0.0142 -0.2472
 9413SOL    HW139701   3.865   4.497  15.888  0.2054  1.5246 -1.3102
 9413SOL    HW239702   3.720   4.508  15.900  1.1260  0.4798  0.5230
 9414SOL     OW39703   4.014   3.633   3.243  0.1533 -0.4997 -0.2128
 9414SOL    HW139704   3.921   3.612   3.249 -0.1608  0.7586 -0.5393
 9414SOL    HW239705   4.021   3.707   3.304  0.4104 -0.2471 -0.5482
 9415SOL     OW39706   3.037   2.130   8.068  0.3253 -0.1351  0.1775
 9415SOL    HW139707   3.119   2.157   8.109 -0.9949  2.4544  1.0868
 9415SOL    HW239708   2.974   2.179   8.120  0.6447  0.2745  0.1773
 9416SOL     OW39709   4.348   1.132   5.491  0.1540  0.6565  0.0270
 9416SOL    HW139710   4.331   1.088   5.574 -0.0580  0.4249 -0.1376
 9416SOL    HW239711   4.434   1.104   5.459  0.5738  1.7060  0.2477
 9417SOL     OW39712   0.167   4.553   3.168 -1.0310  0.1250 -0.0969
 9417SOL    HW139713   0.154   4.502   3.088  0.7906 -0.5008 -0.0034
 9417SOL    HW239714   0.244   4.598   3.133 -0.8892  0.3270  0.4711
 9418SOL     OW39715   0.750   1.250   6.389  0.3050  0.1945 -0.3696
 9418SOL    HW139716   0.828   1.198   6.366  0.3074  0.0112  0.0669
 9418SOL    HW239717   0.798   1.311   6.444 -0.0650  2.8506 -3.0119
 9419SOL     OW39718   3.277   3.465   7.498  1.0776 -0.5540 -0.1347
 9419SOL    HW139719   3.342   3.487   7.565  0.1451  1.6658  0.0495
 9419SOL    HW239720   3.317   3.391   7.453 -0.9993 -2.2768  0.9042
 9420SOL     OW39721   3.542   2.380   3.710  0.3476 -0.7203  0.0859
 9420SOL    HW139722   3.586   2.402   3.628  2.8654  0.9982  1.8866
 9420SOL    HW239723   3.508   2.294   3.685 -2.0426  0.0642  0.6727
 9421SOL     OW39724   1.728   4.348  15.404  0.2278 -0.6042 -0.1771
 9421SOL    HW139725   1.713   4.395  15.485  1.3878  0.6485 -0.7019
 9421SOL    HW239726   1.718   4.256  15.429  1.0360 -1.4035 -2.7168
 9422SOL     OW39727   2.388   2.713   2.219 -0.4508  0.1511  0.4610
 9422SOL    HW139728   2.296   2.702   2.193  0.5277 -0.6359 -2.5706
 9422SOL    HW239729   2.409   2.622   2.237 -2.4062 -0.3945  0.0555
 9423SOL     OW39730   2.013   1.189   4.660  0.5318 -0.2679  0.0793
 9423SOL    HW139731   2.060   1.111   4.690 -0.8284 -1.1998 -0.2099
 9423SOL    HW239732   2.078   1.229   4.602  0.1144  0.7384  0.3001
 9424SOL     OW39733   0.791   2.919  10.449 -0.5508  0.0669 -0.0004
 9424SOL    HW139734   0.720   2.904  10.512 -1.4649  0.9218 -0.8091
 9424SOL    HW239735   0.804   3.013  10.465  2.0580 -0.0165 -1.6860
 9425SOL     OW39736   4.448   0.696   2.404 -0.0249 -0.5341 -0.3898
 9425SOL    HW139737   4.399   0.772   2.373  0.2143  0.0444  0.6372
 9425SOL    HW239738   4.489   0.661   2.325  2.5469  0.5895  0.4508
 9426SOL     OW39739   3.911   2.515   2.589  0.0022 -0.0678 -0.4465
 9426SOL    HW139740   3.984   2.576   2.584  0.4587 -0.6175 -0.4311
 9426SOL    HW239741   3.957   2.447   2.541  2.9304 -0.2828  2.7193
 9427SOL     OW39742   2.122   3.697   0.830 -0.4681  0.1380 -0.3972
 9427SOL    HW139743   2.058   3.756   0.791 -0.4942  1.7949  2.1044
 9427SOL    HW239744   2.113   3.726   0.921  0.8542 -0.6285 -0.0236
 9428SOL     OW39745   0.990   1.667   9.419 -0.2034 -0.0964 -0.5585
 9428SOL    HW139746   0.934   1.714   9.480 -1.9289 -0.1598 -2.1019
 9428SOL    HW239747   1.050   1.734   9.387  0.4878 -0.5244 -0.1744
 9429SOL     OW39748   3.881   2.078   3.784 -0.7020 -0.3897 -0.2054
 9429SOL    HW139749   3.830   2.156   3.762  1.0855  0.2711 -1.9674
 9429SOL    HW239750   3.811   2.024   3.821 -0.2631  1.3807  3.2142
 9430SOL     OW39751   1.710   2.794   5.910 -0.9775 -0.5524  0.1229
 9430SOL    HW139752   1.771   2.722   5.892  1.0846  1.4751 -1.0770
 9430SOL    HW239753   1.642   2.748   5.959 -0.3655  0.1675  1.6451
 9431SOL     OW39754   0.639   3.098  12.621 -0.2166 -0.1836  0.3876
 9431SOL    HW139755   0.674   3.183  12.650 -0.4735  0.0288  0.0790
 9431SOL    HW239756   0.702   3.041  12.664  0.5898 -1.1826 -2.0904
 9432SOL     OW39757   1.046   4.593   0.361  0.6673  0.4816 -0.1426
 9432SOL    HW139758   0.974   4.632   0.313 -1.0473 -1.3518  0.8975
 9432SOL    HW239759   1.003   4.513   0.393  1.2428  0.1976 -0.0664
 9433SOL     OW39760   0.670   0.581   1.876 -0.0662  0.3233  0.2641
 9433SOL    HW139761   0.676   0.677   1.877  0.9056  0.2764 -0.8558
 9433SOL    HW239762   0.638   0.559   1.964 -0.9316 -0.3563 -0.2153
 9434SOL     OW39763   4.246   4.602   6.109  0.3296 -0.1726 -0.0780
 9434SOL    HW139764   4.306   4.627   6.039 -0.2541  1.5069  0.0008
 9434SOL    HW239765   4.305   4.635   6.177 -0.7581 -0.0660  0.8170
 9435SOL     OW39766   3.017   3.077   1.905  0.7694  0.7450  0.4054
 9435SOL    HW139767   3.053   3.067   1.993  0.7204 -1.9105  0.1339
 9435SOL    HW239768   3.052   3.162   1.878 -0.0695  0.6551 -0.9422
 9436SOL     OW39769   3.558   1.312   4.427  0.5194  0.3617 -0.6694
 9436SOL    HW139770   3.479   1.364   4.443  0.8218  0.7469 -0.4192
 9436SOL    HW239771   3.528   1.253   4.358 -0.1344 -0.1857  0.0861
 9437SOL     OW39772   2.078   1.517   5.099 -0.3691  0.2275 -0.3759
 9437SOL    HW139773   2.038   1.559   5.175 -2.6158 -0.8849 -0.9340
 9437SOL    HW239774   2.044   1.428   5.107 -1.8590  0.8471  0.1874
 9438SOL     OW39775   1.724   3.152   3.733  0.3297 -0.7934 -0.4307
 9438SOL    HW139776   1.771   3.198   3.663 -1.5012  4.1022  1.6139
 9438SOL    HW239777   1.675   3.224   3.771  0.7156 -1.6487  1.6801
 9439SOL     OW39778   0.274   1.531   8.202 -0.0775  0.3706 -0.2774
 9439SOL    HW139779   0.271   1.459   8.139  0.0074 -1.1286  1.4165
 9439SOL    HW239780   0.348   1.492   8.248 -0.9830 -0.8494  0.1440
 9440SOL     OW39781   0.225   0.144   8.006 -0.3326 -0.8678 -0.4364
 9440SOL    HW139782   0.187   0.136   8.094 -0.8321  1.5229 -0.4261
 9440SOL    HW239783   0.141   0.129   7.963 -1.0710 -1.1857  1.1017
 9441SOL     OW39784   4.020   1.367   4.165 -0.5870  0.1203  0.0220
 9441SOL    HW139785   3.960   1.368   4.239  0.7350 -4.4668  1.1833
 9441SOL    HW239786   3.961   1.386   4.092  0.7559 -0.4839 -1.2267
 9442SOL     OW39787   2.274   2.093  17.618  0.3249  0.0418 -0.1016
 9442SOL    HW139788   2.259   2.146  17.540  0.2803  1.5523  0.9320
 9442SOL    HW239789   2.204   2.137  17.666  0.8251 -1.0716  1.6723
 9443SOL     OW39790   4.480   3.958   7.856  0.5519  0.0333  0.0506
 9443SOL    HW139791   4.417   4.028   7.838 -0.3321 -0.9525 -0.6398
 9443SOL    HW239792   4.538   3.967   7.781 -1.2605  1.9908 -1.1273
 9444SOL     OW39793   0.678   3.355  11.537 -0.2743 -0.7510 -0.5683
 9444SOL    HW139794   0.693   3.381  11.447 -0.5183  0.1848 -0.3374
 9444SOL    HW239795   0.584   3.335  11.537 -0.6102  0.8086  0.5563
 9445SOL     OW39796   4.660   4.467   8.661 -0.2217  0.5291  0.2293
 9445SOL    HW139797   4.654   4.372   8.673 -1.6022  0.4612 -0.9941
 9445SOL    HW239798   4.684   4.500   8.748  1.1151 -0.9846  0.4348
 9446SOL     OW39799   2.053   3.399   4.112  0.3042 -0.0441 -1.0747
 9446SOL    HW139800   2.011   3.410   4.197  0.1499  0.1270 -1.1710
 9446SOL    HW239801   1.976   3.415   4.056 -2.0936 -0.5317  2.0826
 9447SOL     OW39802   4.320   2.938   5.424  1.3845  0.5302  0.3528
 9447SOL    HW139803   4.277   3.003   5.369 -0.6922 -2.1544 -1.1899
 9447SOL    HW239804   4.334   2.866   5.363 -0.8590  0.6547 -0.3107
 9448SOL     OW39805   4.519   4.470   0.710 -0.0942 -0.4131 -0.4148
 9448SOL    HW139806   4.486   4.408   0.775  1.7519 -0.8540  0.0824
 9448SOL    HW239807   4.607   4.475   0.746 -0.0297 -1.1059 -0.4677
 9449SOL     OW39808   1.524   0.996   1.155 -0.4489 -0.1056  0.1659
 9449SOL    HW139809   1.613   1.030   1.143 -0.1287 -1.3016 -0.7773
 9449SOL    HW239810   1.505   1.035   1.240  0.7735  0.7931  0.0384
 9450SOL     OW39811   2.801   3.551   4.941 -0.4083  0.1324  0.2359
 9450SOL    HW139812   2.714   3.590   4.930  0.0800  0.8858 -0.9459
 9450SOL    HW239813   2.782   3.480   5.002 -0.2445 -0.4815 -0.4260
 9451SOL     OW39814   1.730   3.417   6.841 -0.9109  0.8814 -0.4812
 9451SOL    HW139815   1.796   3.481   6.866 -1.8394  0.7935  2.1543
 9451SOL    HW239816   1.690   3.455   6.763  0.4953  0.8479 -1.2086
 9452SOL     OW39817   4.379   1.946   3.167 -0.0941  0.3547  0.6283
 9452SOL    HW139818   4.437   2.005   3.214 -0.0628  0.6349  0.2388
 9452SOL    HW239819   4.446   1.905   3.110 -1.4093 -1.5658  0.4510
 9453SOL     OW39820   2.009   1.314   0.812  0.2133  0.1430 -0.3005
 9453SOL    HW139821   2.018   1.291   0.720  2.0999  1.2327 -0.3895
 9453SOL    HW239822   2.063   1.393   0.815 -0.9600  0.9643 -1.0001
 9454SOL     OW39823   4.094   0.611  16.022  0.3418 -0.0915  0.0800
 9454SOL    HW139824   4.128   0.699  16.009 -3.0674  1.2663  0.3469
 9454SOL    HW239825   4.008   0.607  16.066  1.2511 -0.5531  1.8197
 9455SOL     OW39826   0.666   3.659   4.594 -0.0274  0.3375 -0.2087
 9455SOL    HW139827   0.583   3.697   4.564 -1.3478 -3.0527 -0.9101
 9455SOL    HW239828   0.734   3.691   4.535 -0.3750  0.4277 -0.5634
 9456SOL     OW39829   4.528   0.160   3.570  0.4488  1.0472  0.2356
 9456SOL    HW139830   4.454   0.220   3.553  0.7824  1.8237  1.4622
 9456SOL    HW239831   4.500   0.097   3.637  1.1506 -0.7722 -1.1982
 9457SOL     OW39832   2.494   2.987   2.278 -0.4709  0.6653 -0.2992
 9457SOL    HW139833   2.430   2.917   2.260  1.0666 -0.5087 -1.1417
 9457SOL    HW239834   2.447   3.035   2.347 -1.2463  0.9025 -0.9914
 9458SOL     OW39835   0.657   0.172   3.726  0.0397  0.1798 -0.2557
 9458SOL    HW139836   0.587   0.117   3.690 -0.4081 -0.7636  2.0288
 9458SOL    HW239837   0.622   0.212   3.806  1.3261 -0.4827  0.6395
 9459SOL     OW39838   4.542   0.836   7.971 -0.0597  0.0717 -0.3275
 9459SOL    HW139839   4.572   0.755   7.930  2.1657  0.9135 -0.3699
 9459SOL    HW239840   4.551   0.810   8.062  0.3546  3.7797  0.6689
 9460SOL     OW39841   1.478   2.960   7.146 -0.5032  0.2600 -0.3936
 9460SOL    HW139842   1.548   2.964   7.082  1.2289  2.0680  1.6112
 9460SOL    HW239843   1.411   3.017   7.108 -1.2610 -1.0678 -1.0671
 9461SOL     OW39844   3.395   0.772   5.061 -0.8331 -0.2089 -0.2949
 9461SOL    HW139845   3.399   0.682   5.094 -2.3721 -0.1863 -0.0587
 9461SOL    HW239846   3.406   0.827   5.138  1.9860 -2.1865  0.7420
 9462SOL     OW39847   1.914   3.930   2.623 -0.3012 -0.8785  0.2914
 9462SOL    HW139848   1.829   3.934   2.665 -0.4476 -0.1574 -0.0820
 9462SOL    HW239849   1.970   3.888   2.688  1.6016 -0.8546 -1.3281
 9463SOL     OW39850   1.428   3.056   8.475  0.0209 -0.2044  0.5241
 9463SOL    HW139851   1.503   3.115   8.488  0.0384 -0.2503  0.6255
 9463SOL    HW239852   1.440   3.000   8.551 -1.3579 -1.7397 -0.3863
 9464SOL     OW39853   2.266   4.105   6.039  0.4291  0.1281  0.3390
 9464SOL    HW139854   2.292   4.134   5.951  2.9798 -2.7967  0.1470
 9464SOL    HW239855   2.269   4.010   6.028 -3.4229  0.1014 -0.6033
 9465SOL     OW39856   3.101   0.200   4.633  0.2108  0.2787  0.0448
 9465SOL    HW139857   3.027   0.219   4.575  0.6077  0.8721 -0.2729
 9465SOL    HW239858   3.151   0.143   4.575 -0.4347  0.0481 -0.2822
 9466SOL     OW39859   4.645   4.527   7.631  0.1957 -0.3428  0.4505
 9466SOL    HW139860   4.662   4.457   7.568 -0.2000  0.7414 -0.8488
 9466SOL    HW239861   4.647   4.462   7.701 -0.1786  1.0628  1.7670
 9467SOL     OW39862   1.162   3.427   6.314 -0.8074  0.3931  0.4714
 9467SOL    HW139863   1.110   3.455   6.390  0.3253  0.9253  1.0469
 9467SOL    HW239864   1.157   3.513   6.273 -2.1126  0.6779  1.2201
 9468SOL     OW39865   1.474   3.510   9.046 -0.0498  0.1459  0.1730
 9468SOL    HW139866   1.409   3.530   9.113 -2.7510 -2.6248 -1.6538
 9468SOL    HW239867   1.418   3.513   8.969 -2.1676  1.4366  1.7600
 9469SOL     OW39868   2.769   1.097   3.766 -0.1958 -0.1604  0.2049
 9469SOL    HW139869   2.763   1.077   3.860 -0.9022  2.9232  0.8162
 9469SOL    HW239870   2.732   1.185   3.757 -3.2650 -1.2290  2.2473
 9470SOL     OW39871   1.033   0.910   4.146 -0.3079  0.2730  0.5586
 9470SOL    HW139872   1.022   0.867   4.230 -0.1912 -1.2495 -0.2158
 9470SOL    HW239873   0.943   0.928   4.119 -0.1810  0.4998  0.2896
 9471SOL     OW39874   2.658   4.069   3.898 -0.2580 -0.3546 -0.2014
 9471SOL    HW139875   2.594   4.001   3.920 -0.2189  0.5107  2.5736
 9471SOL    HW239876   2.726   4.054   3.963  0.5217 -0.2405 -0.9790
 9472SOL     OW39877   3.528   1.558  15.655  0.3676 -0.1519  0.2897
 9472SOL    HW139878   3.544   1.633  15.712  1.5554 -0.7640  0.7620
 9472SOL    HW239879   3.443   1.518  15.677  1.4423 -2.2553  0.6531
 9473SOL     OW39880   2.463   3.386  10.141  0.8819  0.2091  0.0194
 9473SOL    HW139881   2.474   3.475  10.173 -2.8960  1.2023 -1.4786
 9473SOL    HW239882   2.549   3.345  10.153  0.9424  0.2942 -0.1276
 9474SOL     OW39883   0.258   3.991  14.542 -0.7285  0.1672 -0.2042
 9474SOL    HW139884   0.326   3.977  14.476 -1.3928  1.4846 -1.1490
 9474SOL    HW239885   0.189   3.931  14.514 -0.5018  0.1957 -0.8244
 9475SOL     OW39886   1.961   3.781   6.682 -0.0131  0.2234 -0.4918
 9475SOL    HW139887   2.031   3.845   6.700 -1.1033  1.0602  0.7305
 9475SOL    HW239888   2.000   3.749   6.601  1.9748 -1.9895  1.3410
 9476SOL     OW39889   3.732   1.108   0.190  0.5762  0.3761 -0.1202
 9476SOL    HW139890   3.652   1.146   0.226  0.3903  0.5403 -0.7064
 9476SOL    HW239891   3.721   1.112   0.095  2.0982  0.2918 -0.3110
 9477SOL     OW39892   1.284   2.188   5.775 -0.5081 -0.2643  0.2809
 9477SOL    HW139893   1.250   2.100   5.758  1.4254 -1.1957  1.2566
 9477SOL    HW239894   1.359   2.185   5.716 -0.9328  0.3507 -0.2952
 9478SOL     OW39895   0.863   4.087  17.254  0.4580 -0.3845 -0.3433
 9478SOL    HW139896   0.929   4.127  17.197  1.4411  0.6622  1.5094
 9478SOL    HW239897   0.894   3.997  17.256  0.2693 -0.3938  3.5227
 9479SOL     OW39898   3.933   1.449   6.995  0.2619  0.1226  0.0131
 9479SOL    HW139899   3.973   1.423   6.912  2.3044  0.4338  0.9015
 9479SOL    HW239900   3.889   1.369   7.023 -0.0257  0.2827  0.0210
 9480SOL     OW39901   1.469   4.716   6.479  0.3303 -0.5715 -0.2277
 9480SOL    HW139902   1.383   0.033   6.499  0.0673 -1.0302 -0.4800
 9480SOL    HW239903   1.465   4.640   6.537  2.3194 -1.8080 -1.6977
 9481SOL     OW39904   1.548   0.758   8.830 -0.3310  0.5816 -0.2291
 9481SOL    HW139905   1.454   0.742   8.817 -0.7157 -0.1531  3.2735
 9481SOL    HW239906   1.547   0.779   8.924 -0.2215  0.8669 -0.2901
 9482SOL     OW39907   4.007   0.360   5.727  0.5330  0.1958 -0.0255
 9482SOL    HW139908   4.092   0.340   5.689  0.7964  2.5595 -0.6784
 9482SOL    HW239909   3.969   0.419   5.662 -0.9720 -2.2727 -1.3804
 9483SOL     OW39910   2.813   1.422   3.437 -0.3032 -0.7213  0.4107
 9483SOL    HW139911   2.721   1.440   3.455  0.2777  2.1194  0.5471
 9483SOL    HW239912   2.815   1.326   3.435 -2.4352 -0.7871  1.4078
 9484SOL     OW39913   3.456   0.961   5.258  0.2307  0.6500 -0.3445
 9484SOL    HW139914   3.549   0.952   5.236  0.0598 -1.9836 -0.0259
 9484SOL    HW239915   3.464   1.006   5.342 -0.6226 -0.0216  0.0888
 9485SOL     OW39916   3.589   4.509   8.365  0.5676  0.2054 -0.7072
 9485SOL    HW139917   3.680   4.482   8.365 -0.5364 -3.4379 -1.3969
 9485SOL    HW239918   3.602   4.604   8.355 -1.7030  0.7518  1.4334
 9486SOL     OW39919   0.230   2.354   6.119  0.3952 -0.5941 -0.4301
 9486SOL    HW139920   0.174   2.408   6.174  0.4820  0.4007 -1.3207
 9486SOL    HW239921   0.187   2.380   6.038  1.5544 -0.0332 -0.8638
 9487SOL     OW39922   3.728   3.318  12.019  0.1214 -0.2384  0.3125
 9487SOL    HW139923   3.819   3.302  11.994  0.3130  1.3716 -0.0393
 9487SOL    HW239924   3.702   3.383  11.954 -0.3828  0.1716  0.9249
 9488SOL     OW39925   0.775   2.034   3.524  0.0340  0.1228  0.1993
 9488SOL    HW139926   0.687   2.001   3.544  1.1652 -2.7236  0.4035
 9488SOL    HW239927   0.778   2.037   3.429  1.2250  2.0443  0.3039
 9489SOL     OW39928   0.697   0.478   1.359 -0.2032 -0.1865  0.0226
 9489SOL    HW139929   0.754   0.523   1.422 -1.3674  1.5219 -0.1583
 9489SOL    HW239930   0.674   0.548   1.298  0.2779  0.1289  0.2098
 9490SOL     OW39931   2.466   0.342   1.100  0.4557 -0.3328  0.8701
 9490SOL    HW139932   2.374   0.326   1.121  0.8600 -1.3693  1.8353
 9490SOL    HW239933   2.449   0.407   1.032 -1.9363  1.1844  2.9325
 9491SOL     OW39934   4.553   1.315   2.697  0.3805 -0.4649 -0.6626
 9491SOL    HW139935   4.552   1.310   2.793  0.5940 -1.2519 -0.7008
 9491SOL    HW239936   4.458   1.313   2.687  0.5086  0.0924 -1.9069
 9492SOL     OW39937   1.471   0.457  14.965  0.3708 -0.1098 -0.3384
 9492SOL    HW139938   1.510   0.471  14.879  1.5992  1.5776  0.4767
 9492SOL    HW239939   1.550   0.474  15.017 -0.4504 -0.6352  1.0870
 9493SOL     OW39940   2.059   4.065  13.434  0.5484  0.1054 -0.2833
 9493SOL    HW139941   2.088   4.027  13.351 -0.6789 -0.5577 -0.4207
 9493SOL    HW239942   2.144   4.070  13.477 -0.2714  2.2661  1.1129
 9494SOL     OW39943   4.413   2.503   2.989  0.5282 -0.5260  0.1192
 9494SOL    HW139944   4.357   2.431   2.961 -2.5286  1.3962  1.2755
 9494SOL    HW239945   4.382   2.574   2.932  0.7565 -0.8410 -0.3922
 9495SOL     OW39946   3.093   0.650   7.890 -0.2903  0.7592  0.4418
 9495SOL    HW139947   3.014   0.692   7.923 -0.8863 -0.7609  0.9682
 9495SOL    HW239948   3.108   0.587   7.960 -0.2030 -0.2783 -0.5031
 9496SOL     OW39949   4.559   3.532   1.831 -0.6324 -0.8765  0.4183
 9496SOL    HW139950   4.482   3.581   1.801 -0.5006  0.4826  2.3431
 9496SOL    HW239951   4.578   3.580   1.911 -0.0939  1.2060 -0.9673
 9497SOL     OW39952   4.013   0.113   6.138  0.1271  0.7430  0.1722
 9497SOL    HW139953   3.983   0.152   6.220 -0.5737  0.5747  0.0002
 9497SOL    HW239954   4.101   0.083   6.162  1.1605  2.3151 -1.7200
 9498SOL     OW39955   1.106   4.145   3.995 -0.1952 -0.3390  0.8099
 9498SOL    HW139956   1.142   4.066   4.036 -0.1227  0.6144  2.5927
 9498SOL    HW239957   1.175   4.208   4.013  0.3953 -0.1476 -2.1683
 9499SOL     OW39958   4.578   2.303   8.474  0.2374  0.7152  0.1011
 9499SOL    HW139959   4.489   2.285   8.444  0.5696  2.9716 -2.2941
 9499SOL    HW239960   4.631   2.274   8.400  0.9959  4.1675 -0.7326
 9500SOL     OW39961   1.015   3.666  10.746 -0.3956 -0.2279  0.2690
 9500SOL    HW139962   0.929   3.633  10.772 -1.6468  0.8403 -2.5785
 9500SOL    HW239963   1.040   3.729  10.814  0.9890 -0.4676 -0.0192
 9501SOL     OW39964   2.060   3.112   6.031 -0.2666  0.1158  0.1575
 9501SOL    HW139965   1.994   3.139   6.094 -0.5234 -0.1179 -0.0109
 9501SOL    HW239966   2.019   3.124   5.946  0.0502 -1.6411 -0.2473
 9502SOL     OW39967   0.022   0.656   9.007 -0.3622 -0.5041 -0.0611
 9502SOL    HW139968   0.089   0.692   9.065  0.6715 -1.4330 -0.6623
 9502SOL    HW239969   0.013   0.581   9.066 -0.2040 -1.0229 -0.6900
 9503SOL     OW39970   1.438   3.216   7.553  0.2884  0.4782 -0.4969
 9503SOL    HW139971   1.511   3.274   7.577 -0.3792  1.5966 -1.1872
 9503SOL    HW239972   1.484   3.158   7.492 -0.9376  0.1396 -1.0846
 9504SOL     OW39973   1.335   4.213   3.216  0.2289  0.8114  0.3824
 9504SOL    HW139974   1.429   4.198   3.225  0.3158  0.3691 -1.3499
 9504SOL    HW239975   1.332   4.240   3.124  0.5940 -0.7042 -0.0672
 9505SOL     OW39976   1.215   4.525   1.065 -0.0823  0.3312 -0.5740
 9505SOL    HW139977   1.132   4.478   1.058  1.5794 -2.4034 -2.5893
 9505SOL    HW239978   1.265   4.447   1.090  1.8789  1.2010 -1.7434
 9506SOL     OW39979   0.804   2.287  15.069  0.0676  0.9559  0.5550
 9506SOL    HW139980   0.880   2.280  15.127 -0.1862 -1.1116  0.6352
 9506SOL    HW239981   0.839   2.241  14.992 -1.4197 -1.2228  1.1637
 9507SOL     OW39982   4.534   3.188   0.478 -0.8890  0.4877  0.3091
 9507SOL    HW139983   4.576   3.269   0.447 -2.0835  0.8976 -0.2376
 9507SOL    HW239984   4.581   3.119   0.431  1.6368  3.1989 -1.1697
 9508SOL     OW39985   1.371   2.907   6.350 -0.1850  0.6735  0.0210
 9508SOL    HW139986   1.299   2.855   6.384  1.3899 -1.0396  0.7812
 9508SOL    HW239987   1.349   2.919   6.258  0.5399 -0.9376 -0.3675
 9509SOL     OW39988   1.796   3.818  14.479 -0.0922 -0.3465  0.0305
 9509SOL    HW139989   1.831   3.907  14.483  1.0077 -0.7515 -0.4192
 9509SOL    HW239990   1.870   3.766  14.448  0.9963  0.9311  0.5097
 9510SOL     OW39991   4.216   2.836   4.272 -0.0758 -0.0478  0.2485
 9510SOL    HW139992   4.251   2.779   4.340 -1.2976 -1.6034 -0.4377
 9510SOL    HW239993   4.123   2.815   4.266  0.5181 -1.9570 -2.4610
 9511SOL     OW39994   0.653   0.422  16.759 -0.3664 -0.1587 -0.5820
 9511SOL    HW139995   0.564   0.397  16.733 -0.5624  0.0134 -0.0775
 9511SOL    HW239996   0.691   0.335  16.753  0.9274  0.2860  1.1893
 9512SOL     OW39997   0.929   0.657  17.203  0.1623  0.2196 -0.4520
 9512SOL    HW139998   0.984   0.730  17.174  0.7546  0.0381  0.2011
 9512SOL    HW239999   0.936   0.677  17.296 -0.9292 -1.5645  0.0092
 9513SOL     OW40000   2.045   3.973  13.124 -0.3818  0.6397 -0.7284
 9513SOL    HW140001   2.094   3.897  13.094  0.0014 -0.1239  1.8026
 9513SOL    HW240002   2.080   4.050  13.079 -0.7685  1.3510  0.1810
 9514SOL     OW40003   0.953   3.681  11.453  0.1965  0.2823  1.0739
 9514SOL    HW140004   0.952   3.586  11.437 -0.4909  0.6591 -1.2527
 9514SOL    HW240005   0.858   3.695  11.454  0.0396 -0.6247 -0.1185
 9515SOL     OW40006   0.161   0.555  16.005 -0.3532  0.3726  0.2293
 9515SOL    HW140007   0.078   0.595  15.978 -2.1130 -1.5682  2.7870
 9515SOL    HW240008   0.206   0.555  15.920 -1.5094  1.5345 -0.3923
 9516SOL     OW40009   2.252   1.452  10.842  0.2907 -0.1340 -0.1289
 9516SOL    HW140010   2.347   1.461  10.829  0.4701  0.5010  1.6230
 9516SOL    HW240011   2.238   1.505  10.921  3.2604  0.3122  0.1152
 9517SOL     OW40012   0.901   4.417   8.024 -0.2617  0.1120  0.1804
 9517SOL    HW140013   0.823   4.374   7.991 -1.0310  1.2946  0.4577
 9517SOL    HW240014   0.917   4.487   7.961 -1.0567  1.8297  1.8685
 9518SOL     OW40015   4.318   1.635   5.258 -0.4406  0.2107 -0.1619
 9518SOL    HW140016   4.409   1.656   5.233 -0.4890  2.1034  1.2362
 9518SOL    HW240017   4.291   1.704   5.319  0.1343  0.6649 -0.4095
 9519SOL     OW40018   2.298   1.145   4.666  0.1563  0.2241 -0.5529
 9519SOL    HW140019   2.286   1.171   4.574  0.2875  0.5001 -0.4925
 9519SOL    HW240020   2.390   1.120   4.673  0.5156  1.5724 -0.4990
 9520SOL     OW40021   3.424   0.146   4.678  0.1544 -1.1697  0.4359
 9520SOL    HW140022   3.499   0.093   4.705 -1.7616 -3.3538  1.4474
 9520SOL    HW240023   3.428   0.137   4.583 -1.0638  0.0532  0.2715
 9521SOL     OW40024   3.782   2.000   9.362  0.1940 -0.3351 -0.2524
 9521SOL    HW140025   3.728   1.936   9.409  0.6754 -0.9370 -0.5051
 9521SOL    HW240026   3.830   2.032   9.439 -0.5447 -1.4229  0.6714
 9522SOL     OW40027   4.220   2.735   8.237  0.4923 -0.7394  0.2748
 9522SOL    HW140028   4.201   2.803   8.302  0.4070 -0.6778  0.1870
 9522SOL    HW240029   4.287   2.776   8.182  0.9145 -0.4291  1.0136
 9523SOL     OW40030   4.540   4.013   9.289 -0.1709 -0.8885 -0.2546
 9523SOL    HW140031   4.608   4.028   9.224  1.6163 -0.8020  1.6435
 9523SOL    HW240032   4.547   4.092   9.342  0.6109 -1.0390 -0.1413
 9524SOL     OW40033   3.768   0.943  15.555  0.0415 -0.4886  0.1034
 9524SOL    HW140034   3.833   0.881  15.521 -1.4032 -0.8836 -1.9263
 9524SOL    HW240035   3.820   0.994  15.617 -1.2834  0.6865  0.2456
 9525SOL     OW40036   0.941   0.744   5.913  0.2936  0.1302 -0.3436
 9525SOL    HW140037   1.027   0.713   5.942  1.7074  1.6603 -2.8633
 9525SOL    HW240038   0.966   0.823   5.864 -2.4075  0.6051 -0.9699
 9526SOL     OW40039   0.742   3.928   0.064 -0.4122  0.1456 -0.5339
 9526SOL    HW140040   0.729   3.914  17.656  0.9160  2.1146 -1.0205
 9526SOL    HW240041   0.676   3.877   0.111  0.8200 -0.4100  0.5629
 9527SOL     OW40042   1.104   0.358  13.875 -0.0036  0.1097 -0.0713
 9527SOL    HW140043   1.156   0.423  13.923 -0.7752 -0.6024  1.7558
 9527SOL    HW240044   1.023   0.361  13.927 -1.0345  1.8316 -1.8053
 9528SOL     OW40045   1.816   3.739   0.738  0.3298 -0.3112 -0.0816
 9528SOL    HW140046   1.732   3.740   0.693  0.4846 -0.5586 -0.3741
 9528SOL    HW240047   1.835   3.652   0.703  1.3487  0.5125 -1.5698
 9529SOL     OW40048   2.439   0.377  13.874  0.2713  0.2200 -0.2741
 9529SOL    HW140049   2.447   0.470  13.850  1.3383  0.3251  0.5119
 9529SOL    HW240050   2.453   0.334  13.790  0.3495 -0.4321  0.0785
 9530SOL     OW40051   2.057   0.804   9.980 -0.6336 -0.0850  0.0643
 9530SOL    HW140052   2.058   0.807   9.884 -1.0410  0.2748  0.0652
 9530SOL    HW240053   2.129   0.745  10.002 -2.0040 -1.2286  1.5014
 9531SOL     OW40054   4.088   2.805   2.422 -0.0934  0.1809  0.0585
 9531SOL    HW140055   4.023   2.741   2.391  1.3611 -1.7133  0.9459
 9531SOL    HW240056   4.158   2.743   2.441  0.3218  0.6768  0.1281
 9532SOL     OW40057   0.216   3.522  11.797  0.4185  0.2345  0.5679
 9532SOL    HW140058   0.311   3.526  11.804  0.7582 -3.2974 -2.0153
 9532SOL    HW240059   0.202   3.615  11.776  1.1182  0.4818  1.1981
 9533SOL     OW40060   1.753   4.430   9.971  0.6260  0.2816 -0.0414
 9533SOL    HW140061   1.755   4.523   9.952  1.4717 -0.1729 -2.1773
 9533SOL    HW240062   1.680   4.411   9.912 -0.7494  0.5417  1.5739
 9534SOL     OW40063   1.426   0.063   8.065  0.7001 -0.1279  0.0530
 9534SOL    HW140064   1.403   0.017   8.146  0.1337 -0.5825 -0.3640
 9534SOL    HW240065   1.382   0.005   8.003  1.2072 -2.5977  1.9900
 9535SOL     OW40066   4.595   1.620   1.540  0.1871  0.1479  0.2465
 9535SOL    HW140067   4.597   1.555   1.610  3.3771 -0.7983 -0.7253
 9535SOL    HW240068   4.645   1.696   1.570 -0.7214  1.4985 -1.6365
 9536SOL     OW40069   2.456   0.523   3.276 -0.7294 -0.0143  0.6101
 9536SOL    HW140070   2.510   0.578   3.332 -1.1136  0.5518  0.4178
 9536SOL    HW240071   2.420   0.466   3.345 -1.3968 -2.0119 -1.3940
 9537SOL     OW40072   3.815   0.155   5.789  0.0639 -0.2347  0.1866
 9537SOL    HW140073   3.856   0.105   5.860  0.7034  0.4120  0.2762
 9537SOL    HW240074   3.885   0.217   5.767  2.3287 -3.4484 -1.6609
 9538SOL     OW40075   0.766   0.122   6.764 -0.1384 -0.5156 -0.1011
 9538SOL    HW140076   0.754   0.034   6.728 -1.7550 -0.1346 -0.4956
 9538SOL    HW240077   0.741   0.178   6.691  0.2284 -1.5076 -0.9815
 9539SOL     OW40078   3.308   2.810  11.430  0.0243  0.2581 -0.0192
 9539SOL    HW140079   3.304   2.756  11.509  0.7093 -1.9040 -1.4503
 9539SOL    HW240080   3.386   2.768  11.394  0.4890  2.2025 -1.2666
 9540SOL     OW40081   1.161   3.983   2.726  0.2762 -0.1465  0.9463
 9540SOL    HW140082   1.162   3.894   2.763 -0.0616  0.3091  2.0492
 9540SOL    HW240083   1.093   4.033   2.771 -2.3424 -0.7544 -2.3365
 9541SOL     OW40084   3.213   2.212  16.285  0.3101 -0.4322  0.4960
 9541SOL    HW140085   3.300   2.251  16.286 -0.2908  0.9751 -2.0891
 9541SOL    HW240086   3.198   2.175  16.372 -0.6687  0.3748  0.6734
 9542SOL     OW40087   0.655   3.332  12.016  0.5002 -0.1689  0.2379
 9542SOL    HW140088   0.718   3.397  12.047  2.2756 -1.4590 -0.6737
 9542SOL    HW240089   0.721   3.287  11.963  1.1647 -2.0604  2.6854
 9543SOL     OW40090   4.686   0.047   5.291  0.2309 -0.0369  0.0216
 9543SOL    HW140091   4.602   0.051   5.336  0.4253  1.4938  0.2741
 9543SOL    HW240092   4.690   4.678   5.260  0.0640 -0.2312  0.5768
 9544SOL     OW40093   0.306   1.491  12.338 -0.5699 -0.4340 -0.0383
 9544SOL    HW140094   0.338   1.430  12.271 -0.3421  0.4903 -0.7814
 9544SOL    HW240095   0.218   1.461  12.358  0.0894 -0.0987  3.3085
 9545SOL     OW40096   3.244   2.131   2.510 -0.1950 -0.2472 -0.0461
 9545SOL    HW140097   3.189   2.057   2.536 -0.2175 -1.6333 -4.0106
 9545SOL    HW240098   3.305   2.085   2.452 -0.5039 -0.8047  0.0692
 9546SOL     OW40099   1.284   0.555  16.271 -0.4115 -0.1678  0.1788
 9546SOL    HW140100   1.243   0.473  16.299  0.8686 -0.7007  0.4759
 9546SOL    HW240101   1.269   0.611  16.348 -2.3859  0.2341 -0.4840
 9547SOL     OW40102   0.673   2.523   3.287  0.3310  0.1439 -0.2079
 9547SOL    HW140103   0.596   2.579   3.289  0.8078  0.8774 -1.6987
 9547SOL    HW240104   0.711   2.570   3.212  0.6820  0.6967  0.3135
 9548SOL     OW40105   1.954   0.231  12.277 -0.1790 -1.0942 -0.3616
 9548SOL    HW140106   1.872   0.186  12.299 -1.7035  3.2897  2.8846
 9548SOL    HW240107   1.949   0.205  12.184 -0.2771  0.6160 -0.8256
 9549SOL     OW40108   3.872   4.057   4.778  0.0068  0.3051 -0.1043
 9549SOL    HW140109   3.783   4.052   4.813 -0.7731  2.8239 -1.7364
 9549SOL    HW240110   3.899   4.144   4.805  0.4118  0.4861 -1.0819
 9550SOL     OW40111   3.027   2.862  13.204  0.1784  0.1146 -0.0427
 9550SOL    HW140112   3.086   2.798  13.242 -1.7378  0.0550  2.8029
 9550SOL    HW240113   2.942   2.851  13.247  0.5690 -1.0535  0.4382
 9551SOL     OW40114   0.205   1.929   2.049 -0.2873  0.0157  0.3782
 9551SOL    HW140115   0.262   1.855   2.029  0.0007  0.5618 -0.8160
 9551SOL    HW240116   0.168   1.896   2.131 -0.8254 -2.7526 -1.0019
 9552SOL     OW40117   4.047   1.274   5.796 -0.0513  0.5069  0.5890
 9552SOL    HW140118   3.999   1.207   5.748  0.3181 -0.3755  1.4532
 9552SOL    HW240119   4.014   1.355   5.757 -0.7362  1.1831  2.5951
 9553SOL     OW40120   0.815   0.491   7.701  0.4671  0.2227  0.2256
 9553SOL    HW140121   0.817   0.447   7.786  2.3020  3.2795  1.7575
 9553SOL    HW240122   0.736   0.544   7.712  0.8680  0.8357  0.0926
 9554SOL     OW40123   0.931   0.882  10.405 -0.1621  0.2867 -0.0657
 9554SOL    HW140124   0.925   0.790  10.431 -1.2146  0.4243  0.1830
 9554SOL    HW240125   0.993   0.907  10.474  0.8929 -1.8224 -0.2249
 9555SOL     OW40126   4.458   2.042   7.123  0.9101  0.1735 -0.2656
 9555SOL    HW140127   4.504   2.088   7.054 -0.6969  2.0870 -0.0757
 9555SOL    HW240128   4.428   2.119   7.171 -1.9562 -0.6859 -0.6287
 9556SOL     OW40129   2.736   1.097   7.856 -0.2427  0.0194 -0.1636
 9556SOL    HW140130   2.792   1.174   7.849  1.2256 -0.5785  4.5243
 9556SOL    HW240131   2.649   1.135   7.854 -1.0359 -1.7688  0.7554
 9557SOL     OW40132   3.231   2.831  13.837  0.2808  0.0284  0.5389
 9557SOL    HW140133   3.145   2.858  13.804  2.1596  1.2910 -3.4033
 9557SOL    HW240134   3.290   2.865  13.770  0.8671 -1.6893  0.1964
 9558SOL     OW40135   2.112   2.649  17.350  0.5362 -0.4029 -0.3502
 9558SOL    HW140136   2.083   2.692  17.270 -2.9251 -0.7671  0.7452
 9558SOL    HW240137   2.083   2.559  17.334 -0.1463  0.0095 -1.4224
 9559SOL     OW40138   3.102   0.763   3.076  0.4078 -0.5658 -0.5014
 9559SOL    HW140139   3.083   0.717   3.158  0.7945  1.9806  1.0209
 9559SOL    HW240140   3.034   0.729   3.018 -0.0914  2.4315 -1.6968
 9560SOL     OW40141   0.025   1.778   2.863  0.8606  0.2520  0.2357
 9560SOL    HW140142   0.041   1.817   2.777 -1.8941  0.4951 -0.1657
 9560SOL    HW240143   0.111   1.736   2.869 -0.0946 -1.6183  0.5533
 9561SOL     OW40144   0.982   0.052  13.403  0.1045 -0.5021 -0.2268
 9561SOL    HW140145   0.994   4.684  13.438  0.3853  0.0442  1.0288
 9561SOL    HW240146   0.915   0.088  13.461  0.5086 -0.9292  0.5040
 9562SOL     OW40147   4.363   3.038   9.252 -0.0447  0.4201 -0.1018
 9562SOL    HW140148   4.390   3.020   9.162 -1.2342 -3.1639  0.2632
 9562SOL    HW240149   4.419   3.112   9.277  1.6575  0.1797 -3.2024
 9563SOL     OW40150   2.436   3.331   3.431 -0.5907  0.2255 -0.2677
 9563SOL    HW140151   2.522   3.366   3.456 -2.0066  2.7799  1.0577
 9563SOL    HW240152   2.382   3.348   3.508 -1.5875 -2.2482 -0.4229
 9564SOL     OW40153   0.451   3.961   6.796 -0.4758 -0.0716 -0.3911
 9564SOL    HW140154   0.459   3.919   6.710  1.0006 -1.4548  0.4261
 9564SOL    HW240155   0.375   3.913   6.830  1.0513 -1.2744  1.3368
 9565SOL     OW40156   3.519   4.584   7.496  0.1522  0.1198 -0.4958
 9565SOL    HW140157   3.467   4.555   7.570  0.8668 -0.1439 -0.0956
 9565SOL    HW240158   3.473   4.541   7.424 -1.2583  0.4465  0.2122
 9566SOL     OW40159   3.220   0.364   2.279  0.1589 -0.2950 -0.0223
 9566SOL    HW140160   3.226   0.356   2.374  0.1748 -0.7633 -0.0626
 9566SOL    HW240161   3.134   0.405   2.276  0.0806 -0.4298  0.4261
 9567SOL     OW40162   1.057   1.660   4.892 -0.0989 -0.1583  0.1208
 9567SOL    HW140163   1.146   1.677   4.861  0.4296 -1.4373  0.9404
 9567SOL    HW240164   1.017   1.656   4.805  0.9829 -1.3591 -0.3062
 9568SOL     OW40165   0.564   3.908   8.593 -0.0328  0.0702  0.5826
 9568SOL    HW140166   0.512   3.843   8.545  0.3457 -0.3963  0.7973
 9568SOL    HW240167   0.600   3.946   8.512 -1.4179  0.9937  0.4106
   4.72083   4.72083  17.68577
