Membrane in water
40167
    1TCq1    O1    1   0.857   1.445  10.340  0.1985 -0.3608 -0.1894
    1TCq1    C1    2   0.763   1.534  10.299  0.4127  0.2545  0.4511
    1TCq1    O2    3   0.784   1.652  10.284  0.6188  0.4032  0.2530
    1TCq1    C2    4   0.666   1.499  10.392  0.0260  0.1358 -0.1372
    1TCq1    C3    5   0.606   1.379  10.362 -0.9687  0.5251  0.4439
    1TCq1    C4    6   0.514   1.333  10.453 -0.6681 -0.3000 -0.8488
    1TCq1    C5    7   0.513   1.389  10.580  0.4879 -1.1087 -0.0729
    1TCq1    C6    8   0.600   1.483  10.612  0.5735 -0.6647  0.7195
    1TCq1    C7    9   0.679   1.548  10.519  0.1478  0.0695  0.2292
    1TCq1    C8   10   0.560   1.559  10.734 -0.1810 -0.4720  0.0721
    1TCq1    O4   11   0.450   1.546  10.784 -0.0341 -0.3087 -0.1962
    1TCq1    C9   12   0.422   1.225  10.417 -0.1239  0.1373  0.0302
    1TCq1    O5   13   0.446   1.157  10.316 -0.6731 -0.2728 -0.5882
    1TCq1    O6   14   0.330   1.216  10.497  0.0907 -0.0835 -0.1158
    1TCq1    H1   15   0.819   1.359  10.368 -2.8375 -0.2066 -3.8068
    1TCq1    H2   16   0.615   1.322  10.270  2.7694  0.5812  0.7598
    1TCq1    H3   17   0.438   1.358  10.652  0.0030  1.1478  0.3764
    1TCq1    H4   18   0.715   1.649  10.532 -0.7210  0.2896  0.8941
    2MPD2     C   19   0.741   1.884  11.084 -0.2442  0.9597  0.2333
    2MPD2    C1   20   0.617   1.832  11.077  0.1486  0.1098 -0.0699
    2MPD2    C2   21   0.590   1.739  10.980 -0.4724  0.2968  0.5364
    2MPD2    C3   22   0.693   1.703  10.899  0.4450 -0.2178  0.1007
    2MPD2    C4   23   0.825   1.739  10.923 -0.0077 -0.4651  0.3530
    2MPD2    C5   24   0.848   1.833  11.015  0.1086  0.0005  0.3532
    2MPD2     H   25   0.490   1.717  10.943  0.3521 -1.4947 -0.6580
    2MPD2    H1   26   0.905   1.707  10.857  0.8096 -2.1358  2.1503
    2MPD2    H2   27   0.770   1.961  11.155  0.2976 -0.0726  1.1367
    2MPD2    H3   28   0.948   1.874  11.025 -0.2630  0.9182  0.2925
    2MPD2     N   29   0.676   1.622  10.785  0.2394  0.3848  0.2929
    2MPD2    H5   30   0.757   1.597  10.729 -0.6575 -1.2048 -0.2924
    2MPD2    N1   31   0.511   1.864  11.162 -0.4815 -0.1592 -0.3623
    2MPD2    H7   32   0.427   1.809  11.155  0.3124 -1.5135  0.7266
    3TCq1    O1   33   4.694   3.005  11.329 -0.2363 -0.0782 -0.0969
    3TCq1    C1   34   4.599   2.954  11.246  0.4220 -0.6184  0.1490
    3TCq1    O2   35   4.518   2.865  11.278  0.0007  0.1781 -0.2928
    3TCq1    C2   36   4.556   3.062  11.166 -0.0711 -0.3410 -0.6270
    3TCq1    C3   37   4.653   3.132  11.092  0.2147 -0.1296  0.5930
    3TCq1    C4   38   4.616   3.255  11.049 -0.4800 -0.4239  0.3630
    3TCq1    C5   39   4.486   3.303  11.059 -0.4320 -0.4731  0.0886
    3TCq1    C6   40   4.395   3.216  11.112  0.0975 -0.0499  0.9182
    3TCq1    C7   41   4.424   3.096  11.172  1.0318 -0.3161  0.8140
    3TCq1    C8   42   4.250   3.247  11.124  0.6308  0.4001  0.2861
    3TCq1    O4   43   4.170   3.155  11.154  0.0222  0.2589  0.1637
    3TCq1    C9   44   4.713   3.341  10.972 -0.0748  0.0025  0.4748
    3TCq1    O5   45   0.093   3.274  10.933 -0.0271  0.2296  0.4272
    3TCq1    O6   46   4.698   3.465  10.976 -0.4163 -0.1534  0.0905
    3TCq1    H1   47   0.010   3.093  11.302 -2.0530 -0.3639 -3.2977
    3TCq1    H2   48   0.031   3.083  11.075 -0.2252 -0.1261 -1.8497
    3TCq1    H3   49   4.471   3.385  10.990  2.3617 -0.3654 -0.3767
    3TCq1    H4   50   4.350   3.040  11.228 -0.5520  0.0907 -0.8642
    4MPD2     C   51   3.884   3.562  10.956 -1.0971  0.4248 -0.1791
    4MPD2    C1   52   4.005   3.622  10.942 -0.0614 -0.3207 -0.8147
    4MPD2    C2   53   4.123   3.563  10.994 -0.4341  0.2311 -0.2308
    4MPD2    C3   54   4.117   3.439  11.045 -0.1210 -0.2141 -0.0195
    4MPD2    C4   55   3.997   3.371  11.056  0.1036 -0.0929 -0.7658
    4MPD2    C5   56   3.884   3.433  11.007  0.4519  0.0621  0.2828
    4MPD2     H   57   4.218   3.615  10.984  0.4839 -1.2641  0.6720
    4MPD2    H1   58   3.983   3.271  11.095 -2.6009  0.8666  0.6751
    4MPD2    H2   59   3.792   3.596  10.911 -1.3060  1.4288  1.0173
    4MPD2    H3   60   3.792   3.376  11.003  1.9229 -2.2423 -0.4769
    4MPD2     N   61   4.236   3.373  11.077  0.2624 -0.1344 -0.1620
    4MPD2    H5   62   4.322   3.421  11.051  1.5444 -1.4715  1.6292
    4MPD2    N1   63   4.030   3.753  10.892 -0.6671  0.1091  0.8124
    4MPD2    H7   64   4.122   3.794  10.881 -1.1775  1.3578  1.1887
    5TCq1    O1   65   0.084   0.577  11.810 -0.0295 -0.3197  0.1169
    5TCq1    C1   66   0.105   0.497  11.703  0.4478 -0.1639 -0.2384
    5TCq1    O2   67   0.200   0.422  11.686 -0.1800  0.3287 -0.4043
    5TCq1    C2   68   4.697   0.471  11.627  0.1905 -0.2158  0.4062
    5TCq1    C3   69   4.576   0.470  11.701  0.1190  0.3948 -0.3774
    5TCq1    C4   70   4.470   0.411  11.644  0.6714  0.4910  0.1662
    5TCq1    C5   71   4.475   0.359  11.523 -0.2443  0.5115  0.2300
    5TCq1    C6   72   4.595   0.357  11.454 -0.3767 -0.6004  0.2441
    5TCq1    C7   73   4.709   0.409  11.502  0.3817  1.0349 -0.4191
    5TCq1    C8   74   4.610   0.281  11.327  0.4528 -0.8332 -0.6258
    5TCq1    O4   75   4.716   0.228  11.289  0.0910  0.0434 -0.1822
    5TCq1    C9   76   4.348   0.400  11.718 -0.0800 -0.1096 -0.0301
    5TCq1    O5   77   4.357   0.395  11.841  0.0694 -0.2695 -0.1318
    5TCq1    O6   78   4.239   0.426  11.654 -0.3041 -0.6551  0.2604
    5TCq1    H1   79   0.027   0.651  11.779 -1.8114 -0.5485  2.8627
    5TCq1    H2   80   4.568   0.518  11.797 -1.4081 -0.3443 -0.1384
    5TCq1    H3   81   4.380   0.323  11.486 -0.0583  0.8749 -0.6012
    5TCq1    H4   82   0.082   0.401  11.443  1.8720  0.4975  1.9658
    6MPD2     C   83   4.349   0.264  11.075 -0.1659 -0.5213 -0.4593
    6MPD2    C1   84   4.473   0.234  11.127  0.1110  0.1117  0.2093
    6MPD2    C2   85   4.559   0.139  11.068 -0.0873 -0.6134 -0.3496
    6MPD2    C3   86   4.518   0.087  10.945  0.0167  0.1677 -0.6288
    6MPD2    C4   87   4.403   0.131  10.888 -0.6969  0.7468  0.5506
    6MPD2    C5   88   4.315   0.213  10.951 -0.2821  0.1382 -0.9501
    6MPD2     H   89   4.649   0.101  11.114 -0.8151 -1.4082  0.4028
    6MPD2    H1   90   4.381   0.107  10.785  1.1168  2.8616 -0.3166
    6MPD2    H2   91   4.285   0.334  11.128 -0.5669 -1.4570  0.2892
    6MPD2    H3   92   4.225   0.248  10.901 -0.7743 -1.0361 -0.8845
    6MPD2     N   93   4.600   4.707  10.889  0.1393  0.2001 -0.0016
    6MPD2    H5   94   4.665   4.663  10.953 -1.6117 -3.4399 -0.7218
    6MPD2    N1   95   4.499   0.281  11.256  0.0742  0.3599 -0.4132
    6MPD2    H7   96   4.423   0.335  11.297  0.3869  0.4652  0.0295
    7TCq1    O1   97   2.603   4.695  14.293  0.3853 -0.0452 -0.2780
    7TCq1    C1   98   2.615   0.104  14.252 -0.1814  0.1005  0.5451
    7TCq1    O2   99   2.543   0.192  14.291 -0.1308  0.1668  0.6154
    7TCq1    C2  100   2.745   0.122  14.178  0.9351 -0.2333  0.2427
    7TCq1    C3  101   2.815   0.239  14.196 -0.7011 -0.6313 -0.0804
    7TCq1    C4  102   2.926   0.259  14.116 -0.1499 -0.7968  0.0166
    7TCq1    C5  103   2.973   0.159  14.032 -0.5420 -0.7345  0.4546
    7TCq1    C6  104   2.897   0.042  14.027  0.5827  0.6639 -0.4917
    7TCq1    C7  105   2.784   0.023  14.104 -0.6702 -0.2177 -0.2049
    7TCq1    C8  106   2.912   4.666  13.917 -0.2522 -0.7313  0.1381
    7TCq1    O4  107   2.853   4.558  13.929  0.4257 -0.0785  0.1468
    7TCq1    C9  108   3.001   0.381  14.121  0.7862 -0.1193  0.0810
    7TCq1    O5  109   2.957   0.470  14.201 -1.1586  0.2550  0.3106
    7TCq1    O6  110   3.093   0.386  14.031  0.0888  1.0854 -0.0534
    7TCq1    H1  111   2.669   4.633  14.257 -1.1377 -2.0146  0.3208
    7TCq1    H2  112   2.770   0.315  14.257  1.1768  0.6244 -0.2531
    7TCq1    H3  113   3.060   0.161  13.969  0.9047 -0.2111  2.4521
    7TCq1    H4  114   2.711   4.664  14.078 -2.4313  1.4384 -0.1601
    8MPD2     C  115   3.083   4.533  13.447 -0.4325 -0.1056 -0.2312
    8MPD2    C1  116   3.044   4.454  13.551  0.0325  0.0128  0.0043
    8MPD2    C2  117   3.004   4.509  13.676 -0.1193  0.3265 -0.5439
    8MPD2    C3  118   2.990   4.652  13.682  0.1970 -0.1392 -0.3865
    8MPD2    C4  119   3.025   0.017  13.573  0.4263  0.3515  0.0202
    8MPD2    C5  120   3.070   4.664  13.460  0.1973  0.2252  0.0198
    8MPD2     H  121   2.979   4.448  13.762  0.5739  1.0907  0.2024
    8MPD2    H1  122   3.026   0.124  13.587 -2.2992  0.2772  0.8109
    8MPD2    H2  123   3.131   4.497  13.356  0.9959 -0.2447  0.5740
    8MPD2    H3  124   3.090   0.001  13.369 -1.2987  2.0886  0.8335
    8MPD2     N  125   2.965   0.001  13.804 -0.1662  0.0730  0.4599
    8MPD2    H5  126   2.970   0.101  13.793 -1.8676  0.0810 -0.3047
    8MPD2    N1  127   3.049   4.312  13.532 -0.2730  0.4588  0.1914
    8MPD2    H7  128   3.088   4.279  13.444 -1.5095  0.0282 -0.1939
    9TCq1    O1  129   0.972   2.982  10.591 -0.1903  0.3754  1.2346
    9TCq1    C1  130   0.847   2.980  10.543  0.1811  0.5302  0.4647
    9TCq1    O2  131   0.802   2.908  10.452 -0.0202 -0.3011 -0.3707
    9TCq1    C2  132   0.769   3.060  10.634 -0.3083 -0.8506 -0.2608
    9TCq1    C3  133   0.644   3.102  10.597  0.4050  0.5406 -0.2708
    9TCq1    C4  134   0.555   3.139  10.693 -0.1193  0.1685  1.0477
    9TCq1    C5  135   0.591   3.152  10.826 -0.3073  0.1894 -0.3886
    9TCq1    C6  136   0.717   3.124  10.868  0.2054  0.4644 -0.3299
    9TCq1    C7  137   0.805   3.077  10.772 -0.6786  0.1411  0.5255
    9TCq1    C8  138   0.766   3.177  10.990 -0.1081  1.0243  0.2164
    9TCq1    O4  139   0.888   3.206  10.990  0.0134 -0.7647  0.6449
    9TCq1    C9  140   0.431   3.184  10.652  0.7283 -0.0439  0.1697
    9TCq1    O5  141   0.410   3.167  10.527 -0.3100 -0.1965  0.9369
    9TCq1    O6  142   0.340   3.213  10.733  0.1332 -0.4341  0.3640
    9TCq1    H1  143   0.995   3.061  10.644  0.1715  0.5678  0.7921
    9TCq1    H2  144   0.621   3.091  10.492  0.7990  3.8704 -0.6924
    9TCq1    H3  145   0.514   3.191  10.890 -0.3843 -1.2726  0.4211
    9TCq1    H4  146   0.906   3.048  10.799 -0.0524  1.0668 -0.8320
   10MPD2     C  147   0.811   3.303  11.244 -0.1430  1.0577 -0.2306
   10MPD2    C1  148   0.702   3.210  11.229 -0.3634  0.1869 -0.3533
   10MPD2    C2  149   0.631   3.172  11.335 -0.0759  0.6064  0.2321
   10MPD2    C3  150   0.656   3.220  11.459  0.3458  0.4684 -0.1523
   10MPD2    C4  151   0.762   3.306  11.478  0.6738 -0.0762 -0.3002
   10MPD2    C5  152   0.843   3.349  11.369 -0.3744  0.0646  0.4495
   10MPD2     H  153   0.557   3.094  11.319  0.7618  0.0258 -0.8647
   10MPD2    H1  154   0.780   3.350  11.575 -1.1367  2.1670 -0.9872
   10MPD2    H2  155   0.876   3.341  11.167 -1.2049  2.1028 -0.6224
   10MPD2    H3  156   0.923   3.417  11.395 -0.1044 -0.5997  1.4081
   10MPD2     N  157   0.589   3.183  11.570 -0.5318 -0.4701 -0.3227
   10MPD2    H5  158   0.605   3.249  11.645  1.5051 -0.2587 -0.9482
   10MPD2    N1  159   0.677   3.159  11.102  0.2257 -0.0351 -0.2099
   10MPD2    H7  160   0.600   3.094  11.091  0.4876 -0.0286 -2.0562
   11TCq1    O1  161   1.555   3.484  14.600  0.3515 -0.3908 -0.0540
   11TCq1    C1  162   1.614   3.360  14.588  0.2494  0.3720  0.1575
   11TCq1    O2  163   1.706   3.312  14.649 -0.1963 -0.4100 -0.1399
   11TCq1    C2  164   1.542   3.279  14.501  0.2305  0.0228  0.9362
   11TCq1    C3  165   1.619   3.216  14.405  0.0505 -0.5451  0.4596
   11TCq1    C4  166   1.540   3.147  14.314  0.3013  0.2507  0.3398
   11TCq1    C5  167   1.401   3.147  14.323 -0.5952  1.0404  0.5341
   11TCq1    C6  168   1.329   3.197  14.430 -0.4554 -0.5138  0.1912
   11TCq1    C7  169   1.409   3.265  14.518 -0.5511 -0.1104  0.0830
   11TCq1    C8  170   1.188   3.232  14.408  0.5323 -0.4299  0.0828
   11TCq1    O4  171   1.145   3.333  14.450  0.1707  0.1987 -0.1225
   11TCq1    C9  172   1.606   3.087  14.196 -0.9902  0.6651 -0.0578
   11TCq1    O5  173   1.526   3.058  14.105  0.1114  0.3181  0.1854
   11TCq1    O6  174   1.727   3.105  14.180 -0.4441  0.0426 -0.0450
   11TCq1    H1  175   1.480   3.492  14.537 -1.5084 -0.2003  2.2177
   11TCq1    H2  176   1.727   3.221  14.409 -0.0512  0.7687  1.4933
   11TCq1    H3  177   1.348   3.083  14.253 -0.6495  0.3152  1.2439
   11TCq1    H4  178   1.363   3.316  14.602  0.9148  0.8643  0.2894
   12MPD2     C  179   0.902   3.236  14.329 -1.0068 -0.1104 -0.4000
   12MPD2    C1  180   0.988   3.137  14.291  0.3119  1.1247  0.2680
   12MPD2    C2  181   0.942   3.030  14.212 -0.1691 -0.3956  0.0691
   12MPD2    C3  182   0.819   3.031  14.158 -0.1751  0.3676 -0.3907
   12MPD2    C4  183   0.730   3.125  14.200 -0.4172  0.0534  0.1641
   12MPD2    C5  184   0.771   3.227  14.278  0.0058  0.4062 -0.4975
   12MPD2     H  185   0.997   2.940  14.182 -0.9709 -1.5175  2.0173
   12MPD2    H1  186   0.626   3.109  14.177 -0.5025 -1.5074  1.5788
   12MPD2    H2  187   0.929   3.319  14.392 -1.0899  0.5817 -1.2776
   12MPD2    H3  188   0.708   3.304  14.319  0.6286 -0.8777  2.8631
   12MPD2     N  189   0.780   2.925  14.075  0.4722  0.2505  0.3412
   12MPD2    H5  190   0.843   2.846  14.061  0.4993  0.0660  1.4962
   12MPD2    N1  191   1.118   3.128  14.334 -0.1984 -0.0465 -0.0013
   12MPD2    H7  192   1.186   3.061  14.299 -1.0891 -0.3266 -1.1955
   13TCq1    O1  193   0.756   2.663  10.738 -0.1959  0.1775 -0.4374
   13TCq1    C1  194   0.677   2.636  10.850  0.1740  0.1923  0.5593
   13TCq1    O2  195   0.711   2.583  10.956  0.0784  0.1638  0.5257
   13TCq1    C2  196   0.549   2.697  10.837 -0.1167 -0.1208 -0.5635
   13TCq1    C3  197   0.517   2.760  10.723 -0.5865 -0.4438 -0.1421
   13TCq1    C4  198   0.391   2.815  10.712  0.0469  0.1271 -0.6416
   13TCq1    C5  199   0.300   2.810  10.816  0.0535 -0.0869  0.0796
   13TCq1    C6  200   0.331   2.733  10.925 -0.1749 -0.1533  0.8373
   13TCq1    C7  201   0.456   2.681  10.941  0.4896 -0.0072 -0.4818
   13TCq1    C8  202   0.222   2.699  11.013  0.3015  0.3348  0.3695
   13TCq1    O4  203   0.137   2.782  11.048  0.4190 -0.6923 -0.9780
   13TCq1    C9  204   0.355   2.861  10.580 -1.0380 -0.5714  0.3785
   13TCq1    O5  205   0.247   2.918  10.557  0.2760 -0.0616  0.4153
   13TCq1    O6  206   0.441   2.845  10.490  0.0799 -0.1091  0.0095
   13TCq1    H1  207   0.847   2.634  10.757 -0.3631  0.8413  1.4827
   13TCq1    H2  208   0.587   2.769  10.641 -0.0692  2.1026  0.5534
   13TCq1    H3  209   0.201   2.854  10.806 -0.9039 -2.4855 -1.0709
   13TCq1    H4  210   0.479   2.628  11.033 -2.1983 -3.2738 -1.6754
   14MPD2     C  211   0.189   2.382  11.188 -0.6715 -0.1392 -0.2916
   14MPD2    C1  212   0.159   2.516  11.168  0.2028 -0.4604 -0.3079
   14MPD2    C2  213   0.074   2.582  11.255  0.7615  0.3044 -0.6303
   14MPD2    C3  214   0.023   2.514  11.365  0.4419  0.0220 -0.0084
   14MPD2    C4  215   0.036   2.379  11.368 -0.3407  0.4432  1.3075
   14MPD2    C5  216   0.116   2.312  11.281 -0.2183  0.0760 -0.8906
   14MPD2     H  217   0.046   2.686  11.244  0.5782  0.3629  0.3921
   14MPD2    H1  218   4.706   2.328  11.451 -0.8602 -0.5382  0.4125
   14MPD2    H2  219   0.259   2.332  11.123  0.0965  0.6864 -0.0979
   14MPD2    H3  220   0.133   2.205  11.286 -2.5390 -0.2900 -0.8812
   14MPD2     N  221   4.654   2.587  11.455  0.3280  0.8847 -0.1654
   14MPD2    H5  222   4.661   2.687  11.438  2.1057  0.8745  0.5234
   14MPD2    N1  223   0.231   2.575  11.061 -0.3577  0.2293  0.1781
   14MPD2    H7  224   0.287   2.510  11.007 -0.4503 -0.4883  0.9399
   15TCq1    O1  225   2.286   2.493   2.078 -0.0303 -0.0481 -0.1852
   15TCq1    C1  226   2.310   2.451   1.954 -0.1504  0.0982  0.0867
   15TCq1    O2  227   2.408   2.481   1.888 -0.3458  0.0893 -0.1568
   15TCq1    C2  228   2.192   2.392   1.890  0.1801 -0.6272  0.2648
   15TCq1    C3  229   2.081   2.469   1.896  0.6281  0.2840  0.6024
   15TCq1    C4  230   1.977   2.425   1.815  0.1038  0.2298  0.8619
   15TCq1    C5  231   1.991   2.326   1.720 -0.8972  0.4145 -0.4320
   15TCq1    C6  232   2.107   2.254   1.713 -0.9502  0.2906  0.3640
   15TCq1    C7  233   2.206   2.293   1.796  0.2837 -0.0185 -0.3603
   15TCq1    C8  234   2.124   2.144   1.627  0.4746 -0.2603 -0.4886
   15TCq1    O4  235   2.223   2.084   1.663  0.2358  0.2882 -0.1893
   15TCq1    C9  236   1.844   2.482   1.830 -0.2246 -0.7498  0.0823
   15TCq1    O5  237   1.763   2.460   1.734 -0.2320 -0.0443  0.2175
   15TCq1    O6  238   1.832   2.553   1.934 -0.0332  0.5952 -0.4034
   15TCq1    H1  239   2.205   2.457   2.121  1.4089  1.0512  3.4383
   15TCq1    H2  240   2.065   2.548   1.969  0.2877  2.9242 -2.3396
   15TCq1    H3  241   1.908   2.292   1.659 -1.7099  0.6670  0.5352
   15TCq1    H4  242   2.302   2.245   1.805  0.1260 -0.3208 -0.2997
   16MPD2     C  243   1.991   2.051   1.298 -0.4817 -0.2825  0.2302
   16MPD2    C1  244   2.058   2.037   1.417  0.8775  0.7488  0.2064
   16MPD2    C2  245   2.140   1.933   1.428 -0.0599  0.0093  0.1620
   16MPD2    C3  246   2.174   1.845   1.323 -0.0941 -0.4172 -0.0704
   16MPD2    C4  247   2.100   1.867   1.207 -0.3947 -0.7312  0.3302
   16MPD2    C5  248   2.004   1.962   1.200  0.1600  0.5230  0.0116
   16MPD2     H  249   2.205   1.916   1.514 -0.8179  3.3506  1.3632
   16MPD2    H1  250   2.098   1.797   1.124 -0.9371  0.2385 -0.4781
   16MPD2    H2  251   1.919   2.131   1.286  0.6270  0.8767  1.2792
   16MPD2    H3  252   1.946   1.961   1.109 -0.0899 -0.5048  0.1842
   16MPD2     N  253   2.268   1.742   1.341 -0.2683 -0.6971  0.2920
   16MPD2    H5  254   2.328   1.730   1.422 -0.6555  0.1847  0.6980
   16MPD2    N1  255   2.044   2.136   1.515  0.9936  0.6481 -0.3953
   16MPD2    H7  256   1.979   2.212   1.500 -2.4335 -2.3403 -0.6457
   17TCq1    O1  257   4.398   2.054  11.351  0.0220 -0.0854  0.4587
   17TCq1    C1  258   4.358   1.949  11.275  0.2037  0.1736  0.1047
   17TCq1    O2  259   4.332   1.838  11.324  0.1712  0.0238 -0.1250
   17TCq1    C2  260   4.433   1.962  11.154  0.4412 -0.3918  0.0780
   17TCq1    C3  261   4.507   1.857  11.114  0.1233  0.8850 -0.3274
   17TCq1    C4  262   4.594   1.880  11.016  0.4109 -0.0592 -0.1262
   17TCq1    C5  263   4.616   2.005  10.967  0.0933 -0.7438  0.5660
   17TCq1    C6  264   4.553   2.115  11.016  0.3960 -0.0562  0.2867
   17TCq1    C7  265   4.455   2.092  11.111  1.0245 -0.6043 -0.4605
   17TCq1    C8  266   4.581   2.254  10.989 -1.0646  0.2175 -0.3592
   17TCq1    O4  267   4.490   2.333  10.993  0.3864  0.6826  0.1971
   17TCq1    C9  268   4.666   1.775  10.945 -0.0739  0.4117  0.2824
   17TCq1    O5  269   0.006   1.816  10.839  0.2781  0.3563 -0.4002
   17TCq1    O6  270   4.643   1.659  10.979  0.0110 -0.0132  0.3621
   17TCq1    H1  271   4.407   2.145  11.315 -0.6785 -0.7951 -1.5161
   17TCq1    H2  272   4.502   1.754  11.147  2.6348  0.8899  0.0516
   17TCq1    H3  273   4.688   2.021  10.888 -0.3989  3.4799  0.9425
   17TCq1    H4  274   4.381   2.163  11.145 -1.0672 -1.3689 -3.3293
   18MPD2     C  275   4.680   2.475  10.814 -0.3777 -0.4273 -0.6425
   18MPD2    C1  276   0.042   2.365  10.844  0.1058 -0.3594  0.3784
   18MPD2    C2  277   0.175   2.355  10.810 -0.5196 -0.5805  0.1757
   18MPD2    C3  278   0.226   2.442  10.718  0.0349 -0.4109  0.2027
   18MPD2    C4  279   0.143   2.539  10.674  0.3721 -0.3062  0.3816
   18MPD2    C5  280   0.018   2.563  10.721 -0.5942 -0.5282 -0.1864
   18MPD2     H  281   0.225   2.268  10.851  0.1981 -0.3173 -0.1424
   18MPD2    H1  282   0.183   2.612  10.605 -1.8785  1.8767  1.3837
   18MPD2    H2  283   4.577   2.490  10.845 -0.6778 -0.2713 -1.7307
   18MPD2    H3  284   4.683   2.647  10.678 -0.6803 -0.2387  0.4842
   18MPD2     N  285   0.360   2.433  10.677  0.3766 -0.1285 -0.0168
   18MPD2    H5  286   0.389   2.496  10.603  1.6112 -0.8431 -0.1337
   18MPD2    N1  287   4.705   2.262  10.923  0.4166 -0.4158 -0.4608
   18MPD2    H7  288   0.054   2.191  10.951  2.1410 -0.1917 -4.0051
   19TMC2    C1  289   2.292   2.466  13.651  0.0408 -1.0055  0.1944
   19TMC2    C2  290   2.330   2.399  13.539  0.6303  0.4552  0.0438
   19TMC2    C3  291   2.258   2.291  13.501 -0.5904 -0.1768  1.4481
   19TMC2    C4  292   2.202   2.412  13.733  0.1760 -0.4307  1.0616
   19TMC2    C5  293   2.127   2.305  13.688  0.6719 -0.0622 -0.5888
   19TMC2    C6  294   2.149   2.240  13.574  0.6323  0.0449  0.0440
   19TMC2     C  295   2.371   2.579  13.693  0.3679 -0.7095  0.3956
   19TMC2     O  296   2.463   2.605  13.619 -0.7181 -0.0953  0.4028
   19TMC2     H  297   2.418   2.430  13.485  0.6015  1.3402  0.5026
   19TMC2    H1  298   2.161   2.458  13.822  1.7178  2.5784  0.2159
   19TMC2    H2  299   2.114   2.142  13.544  0.4025 -0.3106  1.5128
   19TMC2    C7  300   2.008   2.268  13.761  1.0500  0.5910  0.2980
   19TMC2    C8  301   2.296   2.215  13.386 -0.1621 -0.0823 -0.1684
   19TMC2    O1  302   2.009   2.276  13.881 -0.0859 -0.4844  0.2138
   19TMC2    O2  303   2.280   2.094  13.384 -0.3103 -0.2481  0.3254
   19TMC2    O5  304   2.293   2.299  13.289  0.8064 -0.2392 -0.3380
   19TMC2    H5  305   2.280   2.395  13.309  2.9669 -0.4591  2.0365
   20MPD2     C  306   2.521   2.786  13.837 -0.2019 -0.1968  0.2309
   20MPD2    C1  307   2.402   2.725  13.877  0.9187 -1.0817 -0.0010
   20MPD2    C2  308   2.353   2.759  14.003 -0.0836 -0.2292  0.1831
   20MPD2    C3  309   2.417   2.858  14.088  0.2461  0.1230 -1.2010
   20MPD2    C4  310   2.535   2.914  14.043  0.6686 -0.7997 -0.2137
   20MPD2    C5  311   2.579   2.875  13.918  0.4564  0.1635  0.1106
   20MPD2     H  312   2.263   2.711  14.040 -0.0922 -1.2908 -1.2288
   20MPD2    H1  313   2.598   2.983  14.099 -2.7399  2.8119 -0.8748
   20MPD2    H2  314   2.578   2.780  13.745  1.2073 -1.2878  1.1666
   20MPD2    H3  315   2.665   2.928  13.878  0.4850 -0.9638 -1.3278
   20MPD2     N  316   2.390   2.866  14.226  0.1563  0.3048  0.0859
   20MPD2    H5  317   2.453   2.919  14.285  0.7582  0.6240 -0.8601
   20MPD2    N1  318   2.324   2.642  13.801 -0.1554  0.2673 -0.3443
   20MPD2    H7  319   2.250   2.593  13.850  1.6002 -0.5054  1.5193
   21MPD2     C  320   4.385   3.408  14.177  0.3263  0.3095 -0.4184
   21MPD2    C1  321   4.368   3.274  14.176 -0.1035 -0.1952  1.0339
   21MPD2    C2  322   4.271   3.222  14.251  0.0255  0.5279  0.0555
   21MPD2    C3  323   4.187   3.300  14.326  0.0399  0.3754 -0.2277
   21MPD2    C4  324   4.212   3.437  14.331  0.2103 -0.3360  0.9328
   21MPD2    C5  325   4.306   3.491  14.253  0.1801 -0.3585  0.4583
   21MPD2     H  326   4.257   3.115  14.254  1.0283  0.4399  1.6395
   21MPD2    H1  327   4.154   3.503  14.395  1.1228  0.9016  0.4950
   21MPD2    H2  328   4.475   3.456  14.141  0.2573  1.6623  1.1833
   21MPD2    H3  329   4.331   3.596  14.260 -2.9167  0.2198  2.7400
   21MPD2     N  330   4.099   3.248  14.425 -0.5774  0.0932 -0.2506
   21MPD2    H5  331   4.068   3.314  14.495 -0.3488  0.2044 -0.2528
   21MPD2    N1  332   4.471   3.187  14.126 -0.0694 -0.7888  0.2244
   21MPD2    H7  333   4.476   3.089  14.154 -0.8586 -1.4012 -1.7640
   22TCq2    C1  334   4.072   3.112  14.449 -0.2143 -0.3728 -0.0963
   22TCq2    O2  335   4.086   3.012  14.379 -0.0304 -0.3635  0.2751
   22TCq2    C2  336   4.020   3.080  14.579  0.7986 -0.1838  0.8237
   22TCq2    C3  337   4.031   2.950  14.621  0.2966  0.1771 -0.1093
   22TCq2    C4  338   4.007   2.910  14.754 -0.4680 -0.3138  0.0173
   22TCq2    C5  339   3.949   3.001  14.839 -0.0541  0.1642  0.9791
   22TCq2    C6  340   3.924   3.135  14.793 -0.1553  0.7963 -0.2401
   22TCq2    C7  341   3.965   3.174  14.667 -1.0112  1.2400  0.0077
   22TCq2    C8  342   3.841   3.217  14.869  0.0630 -0.0200  0.4353
   22TCq2    O4  343   3.863   3.215  14.992  0.2153  0.5026 -0.1148
   22TCq2    C9  344   4.041   2.777  14.801 -0.0544  0.3513 -0.7489
   22TCq2    O5  345   4.120   2.714  14.722  0.1383 -0.2952  0.3939
   22TCq2    O6  346   3.999   2.742  14.916 -0.0874  0.0731 -0.0587
   22TCq2    H2  347   4.061   2.869  14.555  1.0477 -0.0145  0.4630
   22TCq2    H3  348   3.939   2.977  14.944  1.3011  1.9609  1.5354
   22TCq2    H4  349   3.961   3.278  14.634  1.1710  1.1025 -0.6666
   23MPD2     C  350   0.503   4.120  14.852  0.7821  0.1125  0.4729
   23MPD2    C1  351   0.635   4.148  14.828 -0.0237  0.5495 -0.1905
   23MPD2    C2  352   0.666   4.267  14.762  0.0419 -0.1431 -0.9582
   23MPD2    C3  353   0.571   4.361  14.725 -0.4247  0.1915 -0.3959
   23MPD2    C4  354   0.435   4.324  14.744  0.2159 -0.4542  0.1702
   23MPD2    C5  355   0.404   4.198  14.804  0.5691  0.1599  0.6361
   23MPD2     H  356   0.768   4.302  14.745  0.3207 -1.2216 -1.5251
   23MPD2    H1  357   0.348   4.381  14.712  0.7570 -0.8554 -2.0445
   23MPD2    H2  358   0.468   4.028  14.897  1.0782 -1.2367 -2.0483
   23MPD2    H3  359   0.300   4.179  14.825  0.8144 -0.8005  0.9651
   23MPD2     N  360   0.599   4.494  14.676  0.4698  0.1601  0.1105
   23MPD2    H5  361   0.524   4.560  14.662  1.2594  1.0216 -0.0425
   23MPD2    N1  362   0.732   4.042  14.844 -0.1378  0.2023  1.0985
   23MPD2    H7  363   0.825   4.073  14.815  0.1171 -1.4287  0.1770
   24TCq2    C1  364   0.725   4.544  14.641 -0.1139 -0.1971  0.1330
   24TCq2    O2  365   0.836   4.497  14.660 -0.6046 -0.3321 -0.7644
   24TCq2    C2  366   0.716   4.662  14.557  0.3921 -0.0647  0.6719
   24TCq2    C3  367   0.828   0.025  14.548  0.6439  0.3034 -0.5130
   24TCq2    C4  368   0.827   0.137  14.469  0.3101  0.6916 -0.3309
   24TCq2    C5  369   0.712   0.168  14.402 -0.9473  0.4183  0.5906
   24TCq2    C6  370   0.604   0.090  14.416 -0.0875 -0.2968  0.2342
   24TCq2    C7  371   0.601   4.693  14.491  1.0463  0.6315 -0.1177
   24TCq2    C8  372   0.489   0.119  14.331  0.2873 -0.2055  0.1436
   24TCq2    O4  373   0.515   0.197  14.241  0.4779 -0.3665 -0.1490
   24TCq2    C9  374   0.941   0.232  14.454 -0.0043  0.4404 -0.4033
   24TCq2    O5  375   0.915   0.334  14.392  0.1985 -0.2648 -0.3636
   24TCq2    O6  376   1.043   0.213  14.523  0.2961  0.2775 -0.5225
   24TCq2    H2  377   0.916   4.717  14.605  0.3203  0.1027 -0.0987
   24TCq2    H3  378   0.703   0.253  14.336  1.7078  1.2599  1.3014
   24TCq2    H4  379   0.520   4.622  14.495  0.6601  1.1810  1.8631
   25TMC2    C1  380   4.704   1.597  11.356  0.0761 -0.4978 -0.7195
   25TMC2    C2  381   0.032   1.720  11.314 -0.3806 -0.0680 -0.0865
   25TMC2    C3  382   4.686   1.829  11.377  0.0558  0.5682  0.3546
   25TMC2    C4  383   4.625   1.574  11.466 -0.6410 -0.2442 -0.3011
   25TMC2    C5  384   4.572   1.685  11.521  0.4729 -0.1625 -0.0412
   25TMC2    C6  385   4.591   1.813  11.475 -0.0312 -0.1957  0.1472
   25TMC2     C  386   0.075   1.485  11.323 -0.3089 -0.8486  0.5213
   25TMC2     O  387   0.197   1.489  11.342 -0.6502 -0.0142 -0.0153
   25TMC2     H  388   0.111   1.734  11.241 -1.0254  0.5250 -0.6653
   25TMC2    H1  389   4.618   1.473  11.504 -1.2576 -0.9897 -2.3904
   25TMC2    H2  390   4.543   1.901  11.516 -0.0580  0.5932 -1.5779
   25TMC2    C7  391   4.464   1.666  11.615 -0.0828  0.2794  0.2687
   25TMC2    C8  392   0.011   1.963  11.343  0.6616 -0.2090  0.4175
   25TMC2    O1  393   4.464   1.564  11.680  0.8388  0.6079 -0.8128
   25TMC2    O2  394   0.095   1.982  11.254  0.3520 -0.5427  0.0048
   25TMC2    O5  395   0.028   2.023  11.460  0.2706 -0.0383  0.3866
   25TMC2    H5  396   4.688   1.999  11.536 -0.6379 -1.6888 -0.8248
   26MPD2     C  397   0.157   1.041  11.070  0.3787 -0.6580 -0.3381
   26MPD2    C1  398   0.033   1.086  11.052 -0.0840  0.3087  0.0183
   26MPD2    C2  399   4.707   1.206  11.096 -0.3379 -0.0837  0.3447
   26MPD2    C3  400   0.069   1.283  11.169 -1.1484 -0.1732 -0.4443
   26MPD2    C4  401   0.200   1.251  11.182 -0.2557 -0.5053 -0.4019
   26MPD2    C5  402   0.244   1.127  11.133 -0.2233 -0.0332  0.0429
   26MPD2     H  403   4.604   1.236  11.076 -0.3872 -0.5381 -0.0766
   26MPD2    H1  404   0.273   1.317  11.229 -1.0287 -0.4365  0.7150
   26MPD2    H2  405   0.186   0.941  11.042  2.0737 -0.3736  0.3955
   26MPD2    H3  406   0.347   1.097  11.150  0.1686 -0.3502 -2.9924
   26MPD2     N  407   0.010   1.394  11.233  0.1490  0.2550  0.0048
   26MPD2    H5  408   4.629   1.408  11.214 -0.2242  0.1434  1.9207
   26MPD2    N1  409   4.663   1.000  10.972 -0.1949  0.2540 -0.2992
   26MPD2    H7  410   4.699   0.907  10.953 -0.2140  0.3831 -0.9735
   27TMC2    C1  411   3.601   3.846  12.613  0.1576  0.1860 -0.2144
   27TMC2    C2  412   3.740   3.836  12.585  0.7299 -0.6559  0.0296
   27TMC2    C3  413   3.830   3.827  12.686 -0.2342  0.3013  0.4068
   27TMC2    C4  414   3.557   3.837  12.744 -0.1755 -0.5308 -0.0378
   27TMC2    C5  415   3.652   3.835  12.842 -0.4274  0.1722  1.1981
   27TMC2    C6  416   3.787   3.831  12.822  0.2052  0.4437 -0.3840
   27TMC2     C  417   3.515   3.902  12.498 -0.2932 -1.0972 -0.9323
   27TMC2     O  418   3.559   3.935  12.390 -0.3266 -0.2052 -0.1352
   27TMC2     H  419   3.770   3.846  12.481 -1.1380 -0.1106 -0.4601
   27TMC2    H1  420   3.453   3.849  12.771 -0.3765 -1.2349 -0.5079
   27TMC2    H2  421   3.861   3.815  12.900  0.3524 -1.3008 -0.8836
   27TMC2    C7  422   3.597   3.780  12.960 -0.7883  0.1032  0.3936
   27TMC2    C8  423   3.969   3.823  12.658  0.2638 -0.7316  1.1426
   27TMC2    O1  424   3.509   3.694  12.959  0.4579  0.0088 -0.0180
   27TMC2    O2  425   4.003   3.894  12.570  0.0367  0.2121 -0.0775
   27TMC2    O5  426   4.048   3.780  12.758  0.5283  0.5876  0.0147
   27TMC2    H5  427   4.000   3.708  12.804  0.1735  1.2201  0.6438
   28MPD2     C  428   3.050   3.980  12.297 -0.1115  0.2924 -0.4174
   28MPD2    C1  429   3.038   3.891  12.399  0.0098 -0.2205 -0.9673
   28MPD2    C2  430   3.143   3.857  12.479  0.0961 -0.0291  0.6910
   28MPD2    C3  431   3.272   3.914  12.447  0.0811  0.0480 -0.7262
   28MPD2    C4  432   3.280   3.996  12.337 -0.3562  0.5625 -0.0933
   28MPD2    C5  433   3.167   4.036  12.266 -0.4086  1.0771 -0.4709
   28MPD2     H  434   3.130   3.797  12.569 -2.8296  2.7637  2.0789
   28MPD2    H1  435   3.378   4.033  12.310 -0.0052 -1.5073 -1.6367
   28MPD2    H2  436   2.964   4.010  12.238 -1.2625 -0.8934  0.6524
   28MPD2    H3  437   3.170   4.104  12.182  2.3341  0.5219 -0.8031
   28MPD2     N  438   3.380   3.886  12.536  0.3367 -0.1048 -0.1659
   28MPD2    H5  439   3.362   3.832  12.620 -2.0232 -0.6269 -0.9844
   28MPD2    N1  440   2.913   3.835  12.420 -0.2119  0.8375  0.1157
   28MPD2    H7  441   2.831   3.874  12.374  1.6443  2.1284 -2.0657
   29MPD2     C  442   2.341   1.200  14.374  0.1988 -0.4128 -0.6821
   29MPD2    C1  443   2.463   1.191  14.434  0.5799  0.5319  0.0455
   29MPD2    C2  444   2.499   1.295  14.527  0.2308  0.2988  0.3147
   29MPD2    C3  445   2.421   1.408  14.545 -0.5974  0.4643  0.1221
   29MPD2    C4  446   2.304   1.413  14.483  0.1272  0.1540  0.0644
   29MPD2    C5  447   2.262   1.312  14.409  0.3524 -0.5773 -0.0163
   29MPD2     H  448   2.595   1.284  14.577  1.8440 -0.2690 -2.9543
   29MPD2    H1  449   2.233   1.494  14.494 -2.4400 -2.0537 -0.2394
   29MPD2    H2  450   2.300   1.132  14.301 -0.3403 -2.3679  1.4410
   29MPD2    H3  451   2.167   1.299  14.358  1.5416  2.4341 -2.9761
   29MPD2     N  452   2.453   1.519  14.628 -0.0597 -0.5618  0.2691
   29MPD2    H5  453   2.385   1.593  14.630 -0.4107 -0.8003 -2.6955
   29MPD2    N1  454   2.532   1.067  14.414  0.0962 -0.7454 -0.3674
   29MPD2    H7  455   2.490   0.999  14.352  1.0854 -1.0271 -0.7301
   30TCq2    C1  456   2.554   1.515  14.716 -0.4373 -0.6936  0.3148
   30TCq2    O2  457   2.624   1.425  14.758 -0.2749  0.0448  0.3594
   30TCq2    C2  458   2.579   1.645  14.777  0.0041 -0.4829 -0.2235
   30TCq2    C3  459   2.636   1.639  14.900 -0.0501 -0.3930 -0.0010
   30TCq2    C4  460   2.670   1.761  14.961 -0.1160  0.3672  0.9313
   30TCq2    C5  461   2.668   1.872  14.886 -0.5278  0.1617 -0.4530
   30TCq2    C6  462   2.616   1.867  14.756  0.7172 -0.0768  0.2320
   30TCq2    C7  463   2.555   1.754  14.706  0.0568 -0.4814 -0.3542
   30TCq2    C8  464   2.646   1.978  14.661 -0.4332  0.6122  0.6587
   30TCq2    O4  465   2.584   1.993  14.557  0.1682  0.3059 -0.2161
   30TCq2    C9  466   2.726   1.769  15.096 -0.6112  0.5215 -0.1045
   30TCq2    O5  467   2.734   1.876  15.159 -0.0372 -0.0065  0.1847
   30TCq2    O6  468   2.714   1.663  15.163  0.3340 -0.3577  0.7413
   30TCq2    H2  469   2.629   1.551  14.962  1.5011  0.5519  1.5154
   30TCq2    H3  470   2.681   1.970  14.930 -1.1046  0.0370 -0.0166
   30TCq2    H4  471   2.519   1.755  14.604  0.0637  0.0892 -0.3537
   31MPD2     C  472   0.714   0.831  14.859 -0.3939 -0.0656  0.1666
   31MPD2    C1  473   0.622   0.782  14.771  0.2824 -0.5628  0.0873
   31MPD2    C2  474   0.590   0.646  14.776 -0.3200  0.1523 -0.8285
   31MPD2    C3  475   0.646   0.568  14.878  0.5314  0.3394  0.8975
   31MPD2    C4  476   0.733   0.626  14.969  0.5282  0.4277  0.4490
   31MPD2    C5  477   0.768   0.756  14.957  0.1736  0.5677  0.1825
   31MPD2     H  478   0.522   0.600  14.707 -1.9083  0.8588  0.2716
   31MPD2    H1  479   0.772   0.571  15.053 -1.4130 -1.5167  0.0799
   31MPD2    H2  480   0.727   0.937  14.878 -1.6283  0.6768 -3.0853
   31MPD2    H3  481   0.837   0.803  15.026  0.9849  0.2473 -0.4160
   31MPD2     N  482   0.624   0.434  14.883 -0.2557 -0.4986 -0.4254
   31MPD2    H5  483   0.660   0.376  14.958 -0.4565 -0.6305 -0.4292
   31MPD2    N1  484   0.564   0.864  14.670  0.3040 -0.1680  0.5393
   31MPD2    H7  485   0.596   0.959  14.653  0.8026 -0.5154 -0.4281
   32TCq2    C1  486   0.543   0.355  14.800  0.9514 -0.0125  0.5455
   32TCq2    O2  487   0.521   0.372  14.681  0.0196  0.3035 -0.8746
   32TCq2    C2  488   0.485   0.237  14.858 -0.2465 -0.7164 -0.1098
   32TCq2    C3  489   0.403   0.172  14.772 -0.6680 -0.0243  0.8290
   32TCq2    C4  490   0.327   0.076  14.823  0.5096  0.0340  0.1932
   32TCq2    C5  491   0.308   0.058  14.952  0.5163 -0.4640  0.2137
   32TCq2    C6  492   0.382   0.135  15.037 -0.7842 -0.9875 -0.4111
   32TCq2    C7  493   0.481   0.211  14.998 -0.1821  0.3403 -0.6548
   32TCq2    C8  494   0.390   0.092  15.169  0.1647 -0.2089  0.6546
   32TCq2    O4  495   0.505   0.068  15.204 -0.1430 -0.2477 -0.8595
   32TCq2    C9  496   0.267   4.700  14.731  0.3139  0.7808 -0.7634
   32TCq2    O5  497   0.166   4.635  14.767 -0.3842 -0.5911 -0.2149
   32TCq2    O6  498   0.331   4.679  14.624 -0.0671  0.4384 -0.5163
   32TCq2    H2  499   0.403   0.183  14.664  0.7608 -0.2567  0.8082
   32TCq2    H3  500   0.236   4.699  14.979 -0.3240  1.0087  2.1467
   32TCq2    H4  501   0.543   0.259  15.073  0.2777 -0.1731 -0.7081
   33MPD2     C  502   0.941   2.389  10.101  0.1168  0.1422  0.1164
   33MPD2    C1  503   0.822   2.327  10.129 -0.3649 -0.2327 -0.0643
   33MPD2    C2  504   0.734   2.303  10.026 -0.5610  0.1351  0.1903
   33MPD2    C3  505   0.779   2.325   9.899 -0.2218  0.0378  0.0345
   33MPD2    C4  506   0.908   2.369   9.871  0.6054  0.0998 -0.3966
   33MPD2    C5  507   0.981   2.406   9.973  0.4140  0.4882 -0.0056
   33MPD2     H  508   0.630   2.282  10.047 -0.3354 -0.4490  0.7018
   33MPD2    H1  509   0.936   2.397   9.770  1.8174 -0.2446 -0.1589
   33MPD2    H2  510   1.009   2.425  10.177  0.8347 -2.1069  0.5396
   33MPD2    H3  511   1.077   2.453   9.955 -0.2689  1.4476 -1.1373
   33MPD2     N  512   0.693   2.331   9.791  0.1914 -0.2294 -0.1597
   33MPD2    H5  513   0.726   2.386   9.713  1.5348 -0.3579  0.3041
   33MPD2    N1  514   0.793   2.318  10.269 -0.2648  0.1315 -0.1939
   33MPD2    H7  515   0.871   2.350  10.325 -0.2457 -1.2332  0.5706
   34TCq2    C1  516   0.571   2.265   9.771 -0.6982  0.7421 -0.3734
   34TCq2    O2  517   0.511   2.181   9.836 -0.0402  0.3207  0.3245
   34TCq2    C2  518   0.505   2.307   9.654 -0.3945 -0.0531  0.4451
   34TCq2    C3  519   0.494   2.214   9.557 -0.0056  0.0524 -0.3509
   34TCq2    C4  520   0.469   2.255   9.430  0.4904 -0.0205  0.9909
   34TCq2    C5  521   0.477   2.384   9.392  0.6436  0.3871  0.3135
   34TCq2    C6  522   0.492   2.473   9.487 -0.0174 -1.1049 -0.3987
   34TCq2    C7  523   0.517   2.437   9.618  0.7881 -0.2275  0.4009
   34TCq2    C8  524   0.572   2.593   9.456  0.5995  0.2150  0.4860
   34TCq2    O4  525   0.566   2.685   9.541 -0.2632  0.0609  0.3937
   34TCq2    C9  526   0.455   2.149   9.336 -0.3745 -0.2606 -0.1048
   34TCq2    O5  527   0.486   2.170   9.215  0.0249 -0.1118  0.3133
   34TCq2    O6  528   0.416   2.037   9.381 -0.0325 -0.0676 -0.1374
   34TCq2    H2  529   0.492   2.107   9.577 -1.4835  0.3585  1.2202
   34TCq2    H3  530   0.445   2.407   9.291  2.2612  0.9653 -0.0582
   34TCq2    H4  531   0.527   2.514   9.694  4.0026  1.6892 -1.9946
   35MPD2     C  532   1.761   3.720  11.706  0.7811  0.0902 -0.1682
   35MPD2    C1  533   1.798   3.656  11.823 -0.2801 -0.0923 -0.5560
   35MPD2    C2  534   1.700   3.582  11.896  0.1959  0.5756  0.0613
   35MPD2    C3  535   1.577   3.565  11.849 -0.5617  0.0266 -0.3992
   35MPD2    C4  536   1.545   3.626  11.728 -1.2185 -0.1843 -0.4430
   35MPD2    C5  537   1.633   3.704  11.659  0.0487 -0.0296  0.3303
   35MPD2     H  538   1.717   3.540  11.995  2.9331  0.4005 -0.4778
   35MPD2    H1  539   1.452   3.617  11.673 -0.2315  2.9031 -2.6102
   35MPD2    H2  540   1.835   3.771  11.645  0.0829  1.9346  0.5153
   35MPD2    H3  541   1.605   3.745  11.562 -1.0335 -1.2424  0.1190
   35MPD2     N  542   1.476   3.481  11.913  0.1759  0.1578 -0.8415
   35MPD2    H5  543   1.509   3.419  11.987  0.2096  0.2696 -0.7636
   35MPD2    N1  544   1.934   3.663  11.860 -0.3222 -0.2381 -0.7948
   35MPD2    H7  545   1.995   3.719  11.801 -2.0239  2.0050 -0.4015
   36TCq2    C1  546   1.342   3.486  11.891 -0.0005 -0.3503  0.1341
   36TCq2    O2  547   1.265   3.575  11.844 -0.1676  0.4391 -0.3784
   36TCq2    C2  548   1.271   3.367  11.930  0.7948  0.8047 -0.2571
   36TCq2    C3  549   1.139   3.355  11.887 -0.1986  0.4648 -0.4170
   36TCq2    C4  550   1.086   3.231  11.851 -0.0084  0.4016 -0.7066
   36TCq2    C5  551   1.160   3.117  11.864  0.2058 -0.2870  1.6510
   36TCq2    C6  552   1.282   3.128  11.929  0.4955  0.3601 -1.0597
   36TCq2    C7  553   1.339   3.250  11.965  0.2024 -0.5691  0.0211
   36TCq2    C8  554   1.356   3.007  11.931 -0.3423  0.1627  0.2087
   36TCq2    O4  555   1.340   2.930  11.837  0.2670 -0.4467  0.2741
   36TCq2    C9  556   0.968   3.240  11.782  0.0292  0.0280  0.1975
   36TCq2    O5  557   0.902   3.351  11.790  0.2842 -0.0019 -0.4062
   36TCq2    O6  558   0.917   3.132  11.741 -0.7474  0.2440 -0.2505
   36TCq2    H2  559   1.086   3.444  11.854 -0.8780  0.1898 -0.0516
   36TCq2    H3  560   1.122   3.030  11.812 -0.7152  0.5651  0.9102
   36TCq2    H4  561   1.446   3.254  11.979  0.3402 -3.0688 -0.2538
   37TMC2    C1  562   4.574   4.227  11.383 -0.0298  0.6358 -0.3576
   37TMC2    C2  563   4.559   4.218  11.253  0.2889  0.3077 -0.6260
   37TMC2    C3  564   4.660   4.161  11.176 -0.5475  0.3473  0.9728
   37TMC2    C4  565   4.684   4.189  11.451  0.1276 -0.2306  0.3287
   37TMC2    C5  566   0.069   4.149  11.369 -1.0074 -0.5550  0.2941
   37TMC2    C6  567   0.059   4.111  11.241  0.1718  0.4388  0.7484
   37TMC2     C  568   4.467   4.308  11.450  0.0775  0.3950 -0.0022
   37TMC2     O  569   4.389   4.370  11.383 -0.5354  0.1764 -0.3520
   37TMC2     H  570   4.466   4.246  11.204 -0.2692  0.6888  0.6370
   37TMC2    H1  571   4.701   4.225  11.552 -0.3314 -0.1714  0.3878
   37TMC2    H2  572   0.138   4.067  11.181 -1.7488 -0.3852 -1.1696
   37TMC2    C7  573   0.203   4.177  11.424 -0.2794  0.4669  0.0057
   37TMC2    C8  574   4.675   4.204  11.041 -0.2995 -0.4470 -0.2279
   37TMC2    O1  575   0.207   4.221  11.537 -0.3883 -0.1577  0.1730
   37TMC2    O2  576   0.067   4.199  10.993  0.4679  0.0459  0.0079
   37TMC2    O5  577   4.561   4.272  10.996 -0.0434 -0.3191 -0.6302
   37TMC2    H5  578   4.473   4.229  10.993  0.6386 -1.7165 -0.6750
   38MPD2     C  579   4.077   4.301  11.785 -0.5338  0.4709 -0.1312
   38MPD2    C1  580   4.188   4.255  11.847 -0.2891  0.4125  0.1596
   38MPD2    C2  581   4.310   4.252  11.779 -0.4946 -0.3413 -0.0487
   38MPD2    C3  582   4.320   4.281  11.645  0.6990  0.4826  0.0918
   38MPD2    C4  583   4.205   4.310  11.580  0.0739 -0.4810 -0.0087
   38MPD2    C5  584   4.086   4.318  11.648 -0.3366  0.3476  0.1367
   38MPD2     H  585   4.397   4.221  11.836 -1.0191  0.4592  1.1802
   38MPD2    H1  586   4.188   4.333  11.476  3.4451 -1.3125 -0.7491
   38MPD2    H2  587   3.978   4.307  11.829 -1.4414  0.4067 -2.1712
   38MPD2    H3  588   3.998   4.345  11.591 -0.2860  0.1492 -0.0362
   38MPD2     N  589   4.439   4.254  11.572  0.3535  0.6772 -0.0259
   38MPD2    H5  590   4.516   4.201  11.611 -0.6885 -0.1113  0.9652
   38MPD2    N1  591   4.184   4.197  11.981  0.8330  0.8315 -0.3008
   38MPD2    H7  592   4.275   4.160  12.009 -0.5708 -1.9112  0.5510
   39MPD2     C  593   3.279   0.990   1.611  0.0293 -0.2724  0.0501
   39MPD2    C1  594   3.229   1.053   1.727 -0.0998  0.1261  0.3355
   39MPD2    C2  595   3.093   1.080   1.737  0.3943 -0.6515  0.3141
   39MPD2    C3  596   3.018   1.057   1.621  0.4722  0.6259 -0.4004
   39MPD2    C4  597   3.072   1.014   1.505 -0.5582  0.2234 -0.2918
   39MPD2    C5  598   3.201   0.973   1.501 -0.5655 -0.5488 -0.4903
   39MPD2     H  599   3.044   1.129   1.820  2.6767  0.5003  0.9590
   39MPD2    H1  600   3.013   0.964   1.429  2.2985 -0.8330 -1.8256
   39MPD2    H2  601   3.382   0.958   1.601  0.1690  0.1317  0.1767
   39MPD2    H3  602   3.250   0.925   1.418  3.0142  0.8157  0.8210
   39MPD2     N  603   2.874   1.070   1.615 -1.1230 -0.2379  0.3629
   39MPD2    H5  604   2.846   1.062   1.518 -1.1246  1.5283  0.2059
   39MPD2    N1  605   3.325   1.081   1.832 -0.0060  0.2789  0.2778
   39MPD2    H7  606   3.419   1.056   1.802  0.0293  0.7646 -0.0070
   40TCq2    C1  607   3.296   1.132   1.959  0.2209 -0.1354  0.6442
   40TCq2    O2  608   3.186   1.169   2.003  0.1935 -0.3171 -0.7740
   40TCq2    C2  609   3.411   1.154   2.042  1.0577  0.3038 -0.6947
   40TCq2    C3  610   3.523   1.078   2.016 -0.7392 -0.2060 -0.1184
   40TCq2    C4  611   3.641   1.110   2.083 -1.0515  0.0418  0.1051
   40TCq2    C5  612   3.648   1.221   2.172 -0.4292  0.5570 -0.4378
   40TCq2    C6  613   3.534   1.294   2.188  0.6314 -0.7519  0.6621
   40TCq2    C7  614   3.413   1.262   2.124  0.8469 -0.5599  0.4604
   40TCq2    C8  615   3.558   1.428   2.245 -0.0585 -0.1183 -0.2418
   40TCq2    O4  616   3.638   1.437   2.334 -0.0418  0.0087  0.4990
   40TCq2    C9  617   3.749   1.025   2.066  1.2559 -0.8201  0.4373
   40TCq2    O5  618   3.744   0.933   1.979  0.3574  0.7362 -0.2243
   40TCq2    O6  619   3.844   1.034   2.154  0.0844 -0.0108 -0.3863
   40TCq2    H2  620   3.523   0.983   1.964 -0.7998 -0.6531  0.6996
   40TCq2    H3  621   3.740   1.261   2.213 -0.0655  0.2622 -0.9747
   40TCq2    H4  622   3.319   1.316   2.136  1.5674  0.9029 -0.4971
   41TMC2    C1  623   2.113   4.296  13.403 -0.0629  0.0963  0.7930
   41TMC2    C2  624   2.076   4.402  13.486  0.1366 -0.2010 -0.2087
   41TMC2    C3  625   2.015   4.511  13.433  0.3902 -0.7221 -0.6100
   41TMC2    C4  626   2.111   4.308  13.264  0.3766  0.4108  0.2875
   41TMC2    C5  627   2.046   4.420  13.219  0.4060  0.0683 -0.2019
   41TMC2    C6  628   1.984   4.519  13.300  0.4526  0.0508  0.4425
   41TMC2     C  629   2.135   4.163  13.458  0.3158 -0.2334 -0.5711
   41TMC2     O  630   2.111   4.078  13.373 -0.2304  0.0856 -0.1406
   41TMC2     H  631   2.084   4.389  13.594  3.2664 -0.2767 -0.4375
   41TMC2    H1  632   2.157   4.231  13.203  1.3272  1.7631 -0.7043
   41TMC2    H2  633   1.917   4.591  13.253  0.9426 -1.6457 -2.8550
   41TMC2    C7  634   2.028   4.450  13.079 -0.1191 -1.0930  0.6583
   41TMC2    C8  635   1.996   4.620  13.519  0.0654  0.3821 -0.3778
   41TMC2    O1  636   1.973   4.552  13.039 -0.4080 -0.7006 -0.0382
   41TMC2    O2  637   1.985   4.596  13.640 -0.0761  0.7047  0.3667
   41TMC2    O5  638   1.978   0.016  13.453  0.5366 -0.5683 -0.1506
   41TMC2    H5  639   2.035   0.018  13.374 -2.6632  0.6873 -2.4122
   42MPD2     C  640   2.160   3.917  13.618 -0.8944  0.6802 -0.5131
   42MPD2    C1  641   2.137   4.042  13.675  0.9312 -0.5018 -0.9377
   42MPD2    C2  642   2.105   4.052  13.810 -0.6966 -0.0720  0.3643
   42MPD2    C3  643   2.079   3.939  13.891  0.8643 -0.0824 -0.6648
   42MPD2    C4  644   2.113   3.820  13.836  0.7172  0.5954 -0.4329
   42MPD2    C5  645   2.148   3.813  13.707  0.7501  0.1778 -0.8261
   42MPD2     H  646   2.089   4.153  13.847  0.0604 -0.0572  0.6310
   42MPD2    H1  647   2.103   3.726  13.890 -1.9308  0.8743 -0.4555
   42MPD2    H2  648   2.193   3.897  13.517 -1.1978 -1.4945 -0.1846
   42MPD2    H3  649   2.170   3.711  13.677 -0.6412 -0.5645  0.6832
   42MPD2     N  650   2.036   3.947  14.028 -0.5051 -0.1542 -0.1601
   42MPD2    H5  651   2.035   3.861  14.081  0.0202 -2.7518 -4.4250
   42MPD2    N1  652   2.147   4.159  13.596 -0.7454 -0.5441  0.4124
   42MPD2    H7  653   2.149   4.251  13.639  1.6427 -1.6516  2.6988
   43MPD2     C  654   2.708   1.968   0.830 -0.1334 -0.4265 -0.4286
   43MPD2    C1  655   2.830   1.957   0.887  0.2195 -0.6318 -0.2409
   43MPD2    C2  656   2.865   2.045   0.986 -0.6104  0.5150  0.2395
   43MPD2    C3  657   2.772   2.132   1.031 -0.2454 -0.1863 -0.3091
   43MPD2    C4  658   2.650   2.140   0.973 -0.2045 -0.9626  0.2154
   43MPD2    C5  659   2.622   2.064   0.867  0.2837 -0.2240 -1.1344
   43MPD2     H  660   2.959   2.040   1.040  0.3746 -0.8428 -1.5917
   43MPD2    H1  661   2.580   2.212   1.015  0.4624 -0.2986  0.1897
   43MPD2    H2  662   2.678   1.893   0.757  0.3699 -1.3072  0.2725
   43MPD2    H3  663   2.527   2.058   0.816  0.6286 -1.4965 -1.6106
   43MPD2     N  664   2.787   2.220   1.140  0.2913  0.7041  0.5135
   43MPD2    H5  665   2.711   2.286   1.153 -0.1223  0.5787 -1.2522
   43MPD2    N1  666   2.913   1.846   0.857 -0.1530  0.8844  0.3463
   43MPD2    H7  667   2.995   1.838   0.916 -0.2420  1.0327  0.4904
   44TCq2    C1  668   2.999   2.426   1.649 -0.5687  0.4026  0.2566
   44TCq2    O2  669   3.095   2.348   1.652 -0.4249 -0.6112 -0.5086
   44TCq2    C2  670   2.922   2.436   1.531 -0.4866 -0.2467 -0.2843
   44TCq2    C3  671   2.840   2.543   1.507 -0.7131  0.1184 -0.1477
   44TCq2    C4  672   2.773   2.553   1.385  0.0589 -0.0786 -0.2723
   44TCq2    C5  673   2.778   2.449   1.296 -0.1911  0.1344  0.3010
   44TCq2    C6  674   2.865   2.346   1.321  0.0258 -0.2960 -0.5314
   44TCq2    C7  675   2.936   2.334   1.439 -0.4382 -0.6074  0.5261
   44TCq2    C8  676   2.896   2.239   1.221  0.1174  0.9643 -0.1049
   44TCq2    O4  677   3.008   2.186   1.217 -0.3769  0.1000  0.0700
   44TCq2    C9  678   2.692   2.665   1.353 -0.6249 -0.2035 -0.5095
   44TCq2    O5  679   2.621   2.650   1.254 -0.1057 -0.3301 -0.2529
   44TCq2    O6  680   2.721   2.771   1.405 -0.1720  0.1373 -0.7768
   44TCq2    H2  681   2.820   2.617   1.583  3.0279  0.3082  0.6471
   44TCq2    H3  682   2.724   2.457   1.202 -0.7650 -0.1675  0.6075
   44TCq2    H4  683   3.008   2.254   1.453 -0.5156 -0.6680  0.5790
   45TMC2    C1  684   3.975   4.150   9.370 -0.2004  0.0465 -0.7125
   45TMC2    C2  685   3.977   4.122   9.234 -0.3715 -0.6202  0.6077
   45TMC2    C3  686   3.993   4.222   9.149  0.6016 -0.1737 -0.7958
   45TMC2    C4  687   3.980   4.279   9.410 -0.1373 -0.7287 -0.0710
   45TMC2    C5  688   4.000   4.378   9.325  0.4151  0.7025  0.0052
   45TMC2    C6  689   4.004   4.353   9.188  0.0428 -0.2162 -0.3150
   45TMC2     C  690   3.969   4.046   9.475  0.0443  0.7019  0.5418
   45TMC2     O  691   4.011   4.077   9.586 -0.1742 -0.1701  0.3221
   45TMC2     H  692   4.002   4.026   9.190  1.1368  0.0420  0.0443
   45TMC2    H1  693   3.977   4.297   9.517 -2.1091  0.9254 -0.4035
   45TMC2    H2  694   4.000   4.437   9.120 -0.3472 -1.0694 -1.3379
   45TMC2    C7  695   4.071   4.496   9.380  0.8561 -0.1222 -0.0753
   45TMC2    C8  696   4.006   4.193   9.010  0.5700  0.5135  0.3774
   45TMC2    O1  697   4.104   4.487   9.498 -0.1780 -0.4825  0.0581
   45TMC2    O2  698   4.049   4.284   8.936  0.2007 -0.3872 -0.3997
   45TMC2    O5  699   3.896   4.121   8.980  0.1595 -0.0622  0.4198
   45TMC2    H5  700   3.860   4.071   9.057 -0.2445 -0.8390 -0.2701
   46MPD2     C  701   3.954   3.800   9.641  0.9873  0.2309  0.4658
   46MPD2    C1  702   3.877   3.823   9.525 -0.4067 -0.0277 -0.0940
   46MPD2    C2  703   3.789   3.723   9.482  0.2363  0.2931  0.7435
   46MPD2    C3  704   3.778   3.600   9.557  0.3297  0.2069 -0.0587
   46MPD2    C4  705   3.858   3.584   9.670 -0.6312 -0.2286 -0.3563
   46MPD2    C5  706   3.936   3.688   9.708  0.2540 -0.0334  0.3239
   46MPD2     H  707   3.739   3.726   9.385  0.8307 -0.6775  0.4012
   46MPD2    H1  708   3.868   3.498   9.735  0.7875 -0.8664 -1.4030
   46MPD2    H2  709   4.037   3.863   9.671  1.5409 -0.7338  0.9655
   46MPD2    H3  710   4.006   3.675   9.790 -1.5682 -2.6328  1.4926
   46MPD2     N  711   3.686   3.500   9.526  0.2387  0.5061  0.0529
   46MPD2    H5  712   3.620   3.514   9.450  0.5875  1.5032 -0.0769
   46MPD2    N1  713   3.896   3.940   9.439  0.6207  0.4915  0.0601
   46MPD2    H7  714   3.845   3.942   9.352 -1.5007 -1.9281  1.2498
   47TMC2    C1  715   1.479   4.495   9.422 -0.2464  0.1913  0.2448
   47TMC2    C2  716   1.531   4.476   9.300 -0.2862  0.2146 -0.5644
   47TMC2    C3  717   1.445   4.450   9.200 -1.4016  0.3419 -0.2224
   47TMC2    C4  718   1.344   4.497   9.457  0.1998 -0.0029  0.3128
   47TMC2    C5  719   1.259   4.484   9.348 -0.6315 -0.4127  0.2602
   47TMC2    C6  720   1.311   4.453   9.226  0.0942  0.2274 -0.7841
   47TMC2     C  721   1.581   4.510   9.529 -0.3860  0.1132  0.4832
   47TMC2     O  722   1.531   4.545   9.634 -0.0481  0.2638  0.0742
   47TMC2     H  723   1.636   4.483   9.275  0.1485  2.1146  1.7269
   47TMC2    H1  724   1.308   4.527   9.555  0.2953  1.1362 -0.0061
   47TMC2    H2  725   1.247   4.420   9.145  0.6275 -1.9059 -0.3233
   47TMC2    C7  726   1.118   4.461   9.369  0.1755  0.0145 -0.3524
   47TMC2    C8  727   1.494   4.403   9.069 -0.1419  0.0716  0.4788
   47TMC2    O1  728   1.044   4.436   9.268 -0.0903  0.3140 -0.2883
   47TMC2    O2  729   1.605   4.446   9.034  0.1443  0.1896  0.1860
   47TMC2    O5  730   1.424   4.292   9.027  0.0729  0.3657  0.0615
   47TMC2    H5  731   1.362   4.259   9.095  1.0698  2.1486  1.8528
   48MPD2     C  732   1.819   4.523   9.692  0.2105  0.6774  0.1295
   48MPD2    C1  733   1.793   4.428   9.599 -0.0982  0.4340 -0.0234
   48MPD2    C2  734   1.879   4.312   9.599  0.2347 -0.7669 -0.4048
   48MPD2    C3  735   1.962   4.287   9.704  0.1316  0.0035  0.1468
   48MPD2    C4  736   1.975   4.384   9.805  0.4686  0.8278  0.3566
   48MPD2    C5  737   1.908   4.503   9.788 -0.4866  0.0114 -0.8805
   48MPD2     H  738   1.862   4.228   9.532  1.4075  0.8785 -2.7697
   48MPD2    H1  739   2.034   4.360   9.892 -2.0404  0.2007  1.8791
   48MPD2    H2  740   1.773   4.621   9.702 -1.8868 -0.4147  1.1377
   48MPD2    H3  741   1.915   4.589   9.854  1.4405 -0.7339 -0.1076
   48MPD2     N  742   2.010   4.156   9.720 -0.3637 -0.1881 -0.2424
   48MPD2    H5  743   1.982   4.092   9.646  0.0613 -0.5244 -0.1138
   48MPD2    N1  744   1.689   4.438   9.507 -0.7491  0.4527 -0.0729
   48MPD2    H7  745   1.677   4.361   9.443 -2.9805  0.4067  0.3803
   49MPD2     C  746   0.213   2.237  10.472 -0.5235 -0.4777  0.2670
   49MPD2    C1  747   0.079   2.268  10.451 -0.8474  0.2171  0.8082
   49MPD2    C2  748   4.693   2.192  10.500  0.2422 -0.0906 -0.9757
   49MPD2    C3  749   0.003   2.089  10.581 -0.3601  0.2273  0.4396
   49MPD2    C4  750   0.134   2.052  10.609 -0.2623 -0.7525  0.0774
   49MPD2    C5  751   0.236   2.128  10.550 -0.5577  0.0841 -0.1490
   49MPD2     H  752   4.589   2.220  10.494 -0.0579 -0.8923  0.5798
   49MPD2    H1  753   0.152   1.974  10.682 -0.5456 -1.6443 -0.8074
   49MPD2    H2  754   0.289   2.298  10.424 -0.3800  0.0490  1.1424
   49MPD2    H3  755   0.340   2.100  10.564 -0.0905  1.2104 -1.2830
   49MPD2     N  756   4.620   2.019  10.644 -0.4366 -0.5129 -0.5619
   49MPD2    H5  757   4.648   1.938  10.698  3.4706 -0.0675 -1.8721
   49MPD2    N1  758   0.040   2.397  10.384  0.3121  0.1824  0.4143
   49MPD2    H7  759   4.658   2.405  10.369  0.0182  0.1309  2.4557
   50TCq2    C1  760   0.123   2.496  10.339 -1.3163 -0.8409  0.2113
   50TCq2    O2  761   0.240   2.514  10.374 -0.6416 -0.3709  0.0667
   50TCq2    C2  762   0.059   2.600  10.252 -0.1034  0.5587  0.1609
   50TCq2    C3  763   0.133   2.717  10.231  0.5957 -0.1406 -0.1944
   50TCq2    C4  764   0.125   2.779  10.109 -0.0370 -0.2854 -0.1962
   50TCq2    C5  765   0.038   2.733  10.012  0.7009  0.4299 -0.5657
   50TCq2    C6  766   4.685   2.617  10.039 -0.0061  0.4883 -0.3502
   50TCq2    C7  767   4.696   2.545  10.155  0.0038  0.3868 -0.0891
   50TCq2    C8  768   4.582   2.581   9.945  0.2010  0.3648 -0.2400
   50TCq2    O4  769   4.552   2.667   9.862  0.1705 -0.1764  0.5165
   50TCq2    C9  770   0.213   2.888  10.089  0.6639  0.0828 -0.5718
   50TCq2    O5  771   0.198   2.957   9.985  0.0385  0.0285 -0.0352
   50TCq2    O6  772   0.282   2.927  10.189  0.1890 -0.6200 -0.0655
   50TCq2    H2  773   0.209   2.752  10.300  1.1214 -0.9270 -0.3785
   50TCq2    H3  774   0.050   2.781   9.916  1.1111 -0.7140 -1.0912
   50TCq2    H4  775   4.626   2.465  10.178  1.3151 -0.8729 -0.5225
   51MPD2     C  776   0.105   0.125   1.917 -0.3595 -0.5642  0.2635
   51MPD2    C1  777   0.159   0.165   1.797  0.4123  0.4713  0.4428
   51MPD2    C2  778   0.133   0.296   1.761  0.1012 -0.0623  0.3015
   51MPD2    C3  779   0.060   0.393   1.829  0.0830  0.2041  0.3495
   51MPD2    C4  780   0.002   0.351   1.947 -0.5182  0.0017  0.5306
   51MPD2    C5  781   0.024   0.218   1.985  0.9683  0.0760  0.2165
   51MPD2     H  782   0.183   0.330   1.671 -1.5797  1.0351 -0.2113
   51MPD2    H1  783   4.658   0.420   2.004 -0.4115 -1.3117  2.2434
   51MPD2    H2  784   0.114   0.027   1.962  0.7090  0.4510  2.2290
   51MPD2    H3  785   4.692   0.192   2.078 -0.7290  0.7609 -0.5009
   51MPD2     N  786   0.052   0.527   1.786  0.1639 -0.0941  0.3046
   51MPD2    H5  787   0.014   0.596   1.850 -1.0093 -2.2522  1.9164
   51MPD2    N1  788   0.247   0.085   1.724  0.1679  0.3633  0.0586
   51MPD2    H7  789   0.299   0.118   1.643 -0.0448 -2.2888 -1.1728
   52TCq2    C1  790   0.093   0.582   1.671 -0.2493 -0.2113  0.0951
   52TCq2    O2  791   0.138   0.530   1.571  0.2496 -0.8660  0.2639
   52TCq2    C2  792   0.057   0.718   1.673 -0.4133 -0.9683  0.5049
   52TCq2    C3  793   4.683   0.767   1.585 -0.2918  0.0323 -0.7762
   52TCq2    C4  794   4.672   0.902   1.580  0.3060  0.5919  0.5560
   52TCq2    C5  795   0.021   0.984   1.663 -0.0889  0.5997 -0.1225
   52TCq2    C6  796   0.123   0.930   1.740 -0.4121 -0.1949  0.0417
   52TCq2    C7  797   0.144   0.796   1.740  0.3214  0.4422 -0.2370
   52TCq2    C8  798   0.219   1.021   1.796 -0.5545  0.4208 -0.2991
   52TCq2    O4  799   0.194   1.142   1.792 -0.2137 -0.0903  0.4786
   52TCq2    C9  800   4.598   0.958   1.468  0.0405  0.5594  0.5444
   52TCq2    O5  801   4.566   0.890   1.368  0.1806 -0.6768  0.6209
   52TCq2    O6  802   4.562   1.080   1.484 -0.1803  0.1009  0.0424
   52TCq2    H2  803   4.638   0.701   1.512 -1.2292  1.7626 -1.7646
   52TCq2    H3  804   0.020   1.089   1.637 -1.6850  0.5776 -0.1279
   52TCq2    H4  805   0.209   0.723   1.786  1.8960  2.4935  0.7549
   53TMC2    C1  806   0.827   4.287  11.767 -0.3757 -0.1669  0.6496
   53TMC2    C2  807   0.941   4.345  11.811  0.2141 -1.1006 -0.6907
   53TMC2    C3  808   0.990   4.295  11.927  0.0825  0.7367 -0.8965
   53TMC2    C4  809   0.762   4.182  11.836 -0.1911 -0.0697  0.1340
   53TMC2    C5  810   0.814   4.143  11.952  0.3876 -0.0935  0.4384
   53TMC2    C6  811   0.929   4.194  12.002 -0.4020 -0.4638 -0.0137
   53TMC2     C  812   0.789   4.335  11.631  0.1643 -0.5435  0.1759
   53TMC2     O  813   0.875   4.400  11.574  0.0849 -0.0373 -0.0194
   53TMC2     H  814   0.988   4.423  11.753 -2.1781  0.3367 -0.6982
   53TMC2    H1  815   0.669   4.146  11.794  1.0873 -2.5394 -0.5490
   53TMC2    H2  816   0.952   4.176  12.106 -0.0362  1.6499  0.2670
   53TMC2    C7  817   0.709   4.106  12.046 -0.3146  0.1944  0.2185
   53TMC2    C8  818   1.115   4.333  11.979 -0.0442 -0.1017  0.5671
   53TMC2    O1  819   0.593   4.152  12.025 -0.2279  0.5383 -0.2606
   53TMC2    O2  820   1.140   4.332  12.103  0.0940 -0.4818  0.9745
   53TMC2    O5  821   1.201   4.353  11.881 -0.4935 -0.9552 -0.1673
   53TMC2    H5  822   1.164   4.345  11.791 -1.0071  2.1037 -0.2069
   54MPD2     C  823   0.679   4.322  11.361  0.2332  0.0192 -0.1961
   54MPD2    C1  824   0.615   4.272  11.471 -0.0278  0.5041  0.1379
   54MPD2    C2  825   0.487   4.231  11.458  0.0899 -0.1919 -0.3384
   54MPD2    C3  826   0.423   4.222  11.336  0.0879  0.3536 -1.1602
   54MPD2    C4  827   0.493   4.253  11.220 -0.1372 -0.7852  0.0092
   54MPD2    C5  828   0.625   4.302  11.239 -0.2910 -0.2898 -0.4018
   54MPD2     H  829   0.435   4.208  11.550 -0.5527  0.6366 -0.4913
   54MPD2    H1  830   0.454   4.253  11.119  2.0998  0.3267 -0.8555
   54MPD2    H2  831   0.786   4.341  11.358  0.0630  0.9077 -0.5294
   54MPD2    H3  832   0.684   4.323  11.151  1.0033 -0.0254  0.5198
   54MPD2     N  833   0.289   4.186  11.320 -0.1847  0.5512  1.0587
   54MPD2    H5  834   0.253   4.178  11.226  1.3822  3.4616  0.2142
   54MPD2    N1  835   0.674   4.274  11.599 -0.1676 -0.0714 -0.5005
   54MPD2    H7  836   0.630   4.225  11.676 -0.8301  1.2278 -0.0441
   55MPD2     C  837   1.014   2.227   0.122 -0.0256  0.0929 -0.0604
   55MPD2    C1  838   0.991   2.124   0.215 -0.8497 -0.4953 -1.1718
   55MPD2    C2  839   0.890   2.135   0.313 -0.0345 -0.0714  0.2866
   55MPD2    C3  840   0.822   2.256   0.326 -0.2526 -0.0929  0.2446
   55MPD2    C4  841   0.840   2.348   0.231 -0.0774  0.2624 -0.2243
   55MPD2    C5  842   0.932   2.330   0.130  0.2285  0.7106  0.2477
   55MPD2     H  843   0.866   2.064   0.391 -3.2150 -1.4699 -1.9533
   55MPD2    H1  844   0.782   2.440   0.235  0.1402  0.4258 -0.8950
   55MPD2    H2  845   1.097   2.235   0.053 -0.6661  2.0981 -0.5984
   55MPD2    H3  846   0.953   2.422   0.076  1.8469 -0.5467 -1.2575
   55MPD2     N  847   0.731   2.275   0.430  0.4122  0.0814 -0.7101
   55MPD2    H5  848   0.727   2.191   0.488 -0.0087  0.7075  0.1753
   55MPD2    N1  849   1.065   2.011   0.187 -0.1941  0.1673 -0.8354
   55MPD2    H7  850   1.111   2.010   0.096  2.6482 -4.2213  0.6378
   56TCq2    C1  851   1.074   1.903   0.271 -0.0284 -0.3954 -0.0225
   56TCq2    O2  852   1.019   1.883   0.380 -0.2112 -0.2197  0.0334
   56TCq2    C2  853   1.157   1.797   0.223  0.6368  0.3464 -0.0663
   56TCq2    C3  854   1.217   1.797   0.098  0.4392 -0.5739 -0.8027
   56TCq2    C4  855   1.301   1.697   0.061 -0.3654 -0.2702 -0.8148
   56TCq2    C5  856   1.325   1.593   0.148  0.8599 -0.6016  0.0844
   56TCq2    C6  857   1.264   1.591   0.262 -0.1485  0.2362 -0.0641
   56TCq2    C7  858   1.183   1.694   0.310 -0.0166 -0.4751  0.1304
   56TCq2    C8  859   1.271   1.459   0.323  0.1792 -0.5046 -0.5073
   56TCq2    O4  860   1.316   1.366   0.259  0.3539 -0.9825 -0.7470
   56TCq2    C9  861   1.347   1.692  17.598  0.2169 -0.4158 -0.3340
   56TCq2    O5  862   1.390   1.582  17.554  0.2437  0.2868  0.1824
   56TCq2    O6  863   1.318   1.787  17.522 -0.5062  0.0832 -0.4943
   56TCq2    H2  864   1.197   1.876   0.027 -0.6145 -0.1757 -0.0662
   56TCq2    H3  865   1.386   1.507   0.121  0.4338 -1.7205  2.7370
   56TCq2    H4  866   1.123   1.677   0.399 -1.4627  2.4613 -0.2953
   57TMC2    C1  867   4.012   2.998  13.058  0.7763 -0.4884  0.1267
   57TMC2    C2  868   3.880   2.993  13.008 -0.7398 -0.2348  0.4635
   57TMC2    C3  869   3.862   3.088  12.917  0.4512 -0.5835 -0.3294
   57TMC2    C4  870   4.103   3.084  13.009 -0.4687  0.9354 -0.4282
   57TMC2    C5  871   4.082   3.176  12.906 -0.2395 -0.3520  0.1400
   57TMC2    C6  872   3.956   3.167  12.859 -1.1326  0.4330 -0.6758
   57TMC2     C  873   4.029   2.969  13.197 -0.2122  0.7025  0.5797
   57TMC2     O  874   4.106   3.036  13.261 -0.3698 -0.3634 -0.0898
   57TMC2     H  875   3.796   2.944  13.055  0.3108 -2.5305 -0.0330
   57TMC2    H1  876   4.200   3.100  13.055 -0.5128 -0.3099  0.0939
   57TMC2    H2  877   3.932   3.216  12.765 -0.3241 -0.2489 -1.2351
   57TMC2    C7  878   4.191   3.231  12.823  0.6758  0.5069  0.3486
   57TMC2    C8  879   3.733   3.085  12.861 -0.0975  0.1363 -0.0764
   57TMC2    O1  880   4.157   3.313  12.741 -0.1960  0.6362  0.6335
   57TMC2    O2  881   3.663   2.983  12.863 -0.0552 -0.1472 -0.1476
   57TMC2    O5  882   3.702   3.201  12.797 -0.3915 -0.9268  0.1055
   57TMC2    H5  883   3.761   3.277  12.816 -3.2224  0.5311  3.1559
   58MPD2     C  884   3.835   2.776  13.642 -0.4068  0.2051 -0.2447
   58MPD2    C1  885   3.931   2.874  13.623 -0.5771  0.3810  0.4761
   58MPD2    C2  886   3.960   2.916  13.495  0.6142 -0.3633  0.1696
   58MPD2    C3  887   3.902   2.845  13.389  0.0977 -0.0204  0.2510
   58MPD2    C4  888   3.811   2.740  13.411  0.2793 -0.4553  0.1310
   58MPD2    C5  889   3.775   2.705  13.540 -0.0418  0.1192  0.2446
   58MPD2     H  890   4.027   2.999  13.478  2.6506 -1.9926  0.1023
   58MPD2    H1  891   3.785   2.682  13.324 -0.1810  1.3577 -0.9381
   58MPD2    H2  892   3.793   2.756  13.740  0.4614  1.2468  0.3331
   58MPD2    H3  893   3.706   2.623  13.559  0.0994 -0.3486 -1.2550
   58MPD2     N  894   3.930   2.881  13.248 -0.3477 -0.0207  0.8794
   58MPD2    H5  895   3.900   2.820  13.173  1.2341  0.1411  0.1157
   58MPD2    N1  896   3.986   2.951  13.729 -0.1651 -0.3017 -0.5596
   58MPD2    H7  897   4.028   3.040  13.704  1.0100 -0.9459 -0.8919
   59MPD2     C  898   2.792   3.105  13.341 -0.2917  0.5069  0.1169
   59MPD2    C1  899   2.842   3.169  13.232  0.8270 -0.1105  0.1936
   59MPD2    C2  900   2.914   3.282  13.244  0.1050 -0.4836 -0.7688
   59MPD2    C3  901   2.930   3.338  13.371  0.0779 -0.1137  0.3328
   59MPD2    C4  902   2.876   3.270  13.480 -0.7819  0.6141  0.0675
   59MPD2    C5  903   2.809   3.155  13.467  0.7316  0.3341 -0.8460
   59MPD2     H  904   2.943   3.333  13.152  0.7499 -3.9040 -2.4492
   59MPD2    H1  905   2.863   3.310  13.580  0.8972 -0.8445  0.8774
   59MPD2    H2  906   2.721   3.024  13.340  2.2870 -1.7404  0.8852
   59MPD2    H3  907   2.757   3.109  13.551  0.5034 -2.1399 -2.3258
   59MPD2     N  908   3.006   3.457  13.400  0.2419  0.4204 -0.5356
   59MPD2    H5  909   3.020   3.480  13.498 -2.2328  0.9820 -0.3242
   59MPD2    N1  910   2.828   3.118  13.100  0.6292 -0.8654 -0.3016
   59MPD2    H7  911   2.861   3.167  13.018 -1.5692 -1.0443 -1.2961
   60TCq2    C1  912   2.757   3.006  13.067  0.3503  0.7694 -0.0296
   60TCq2    O2  913   2.677   2.937  13.134  0.1623 -0.3500  0.4000
   60TCq2    C2  914   2.759   2.969  12.925  0.2648  0.9995  0.2122
   60TCq2    C3  915   2.660   2.881  12.879  0.9704  0.1716 -0.0274
   60TCq2    C4  916   2.623   2.883  12.748 -0.4894 -0.0896  0.1597
   60TCq2    C5  917   2.679   2.972  12.663 -0.1959 -0.3746 -0.4382
   60TCq2    C6  918   2.766   3.058  12.710  0.3373  0.1451  0.2433
   60TCq2    C7  919   2.814   3.056  12.834 -0.6327  0.9552  1.0163
   60TCq2    C8  920   2.811   3.155  12.615 -0.6786 -0.4829  0.8227
   60TCq2    O4  921   2.916   3.214  12.640  0.4409  0.4340  0.0119
   60TCq2    C9  922   2.523   2.794  12.693 -0.3814 -0.3060 -0.0548
   60TCq2    O5  923   2.522   2.777  12.568  0.0069 -0.1860 -0.1782
   60TCq2    O6  924   2.466   2.718  12.778 -0.2152 -0.2683  0.4397
   60TCq2    H2  925   2.617   2.803  12.942  1.5827 -0.2280 -0.1052
   60TCq2    H3  926   2.640   2.973  12.562  1.4543  0.9046 -1.0524
   60TCq2    H4  927   2.898   3.121  12.857  1.6561 -1.5223 -0.2660
   61MPD2     C  928   2.123   4.533  15.914  0.8834 -0.2565 -0.4283
   61MPD2    C1  929   2.094   4.663  15.870 -0.8650  0.2873 -0.4669
   61MPD2    C2  930   2.130   4.693  15.734 -0.7417  0.6606 -0.3952
   61MPD2    C3  931   2.198   4.602  15.650 -0.7874  0.0160 -0.3898
   61MPD2    C4  932   2.223   4.473  15.692  0.2937 -0.3115  0.1705
   61MPD2    C5  933   2.186   4.442  15.823 -0.0050 -0.5085  0.2342
   61MPD2     H  934   2.118   0.074  15.690 -0.8555  0.2835 -1.2138
   61MPD2    H1  935   2.284   4.397  15.646 -0.0509 -1.8615  2.2732
   61MPD2    H2  936   2.093   4.500  16.013  2.7954  2.6078  1.0992
   61MPD2    H3  937   2.206   4.341  15.857  2.6084  0.6085  2.0196
   61MPD2     N  938   2.242   4.646  15.526  0.6925 -0.7851  0.4656
   61MPD2    H5  939   2.226   0.024  15.497 -2.6564 -1.3976  0.1999
   61MPD2    N1  940   2.022   0.047  15.943 -0.1099 -0.0861  0.0451
   61MPD2    H7  941   2.008   0.131  15.888 -1.7477 -0.5982 -0.3338
   62TCq2    C1  942   1.988   0.031  16.074 -0.0878 -0.2572 -0.9894
   62TCq2    O2  943   2.011   4.649  16.145  0.0866  0.1429  0.0645
   62TCq2    C2  944   1.918   0.149  16.129  0.4974  0.0143 -0.2934
   62TCq2    C3  945   1.841   0.137  16.248 -0.2031 -0.6286 -0.4102
   62TCq2    C4  946   1.749   0.238  16.272  0.4085 -0.0326 -0.1544
   62TCq2    C5  947   1.754   0.353  16.212 -0.2975 -0.7911  0.2181
   62TCq2    C6  948   1.832   0.369  16.105  0.5896 -0.4413 -0.4886
   62TCq2    C7  949   1.902   0.268  16.058 -0.2226  0.0084  0.1970
   62TCq2    C8  950   1.815   0.488  16.013 -0.6949  0.0061 -1.0303
   62TCq2    O4  951   1.848   0.475  15.896  0.1280  0.0163 -0.4647
   62TCq2    C9  952   1.652   0.210  16.377  0.0569  0.8173 -0.1906
   62TCq2    O5  953   1.579   0.302  16.418  0.3626  1.1503 -0.2535
   62TCq2    O6  954   1.643   0.089  16.414 -0.4596 -0.0424  0.4379
   62TCq2    H2  955   1.839   0.045  16.305 -2.6269  2.0565  3.9191
   62TCq2    H3  956   1.666   0.415  16.225 -0.1216 -0.4705 -0.0979
   62TCq2    H4  957   1.984   0.287  15.989 -0.2442 -0.1957  0.1147
   63TMC2    C1  958   1.764   4.478  10.312  0.3499 -0.0563  0.4403
   63TMC2    C2  959   1.746   4.519  10.445  0.0030 -0.0678  0.5906
   63TMC2    C3  960   1.814   4.639  10.479 -0.3152  0.5888  0.1165
   63TMC2    C4  961   1.842   4.542  10.225 -0.6461 -0.2913  0.4063
   63TMC2    C5  962   1.911   4.649  10.265 -0.3168  0.9887 -0.3136
   63TMC2    C6  963   1.898   4.700  10.395 -0.1517  0.2548  0.2741
   63TMC2     C  964   1.696   4.358  10.262  0.3941  0.4737 -0.1883
   63TMC2     O  965   1.662   4.355  10.141 -0.2146 -0.5066  0.2931
   63TMC2     H  966   1.676   4.476  10.516 -0.8569  1.1946  0.5143
   63TMC2    H1  967   1.854   4.506  10.123  1.2092  0.8531  0.2243
   63TMC2    H2  968   1.953   0.069  10.430  0.4476 -0.8357  1.9848
   63TMC2    C7  969   1.958   0.027  10.165  0.0696 -0.3919 -0.3895
   63TMC2    C8  970   1.780   4.700  10.605 -0.1787  0.3752  0.0287
   63TMC2    O1  971   1.900   0.027  10.057 -0.0230  0.4295 -0.3543
   63TMC2    O2  972   1.859   0.032  10.683 -0.3259  0.5582  0.2051
   63TMC2    O5  973   1.644   4.710  10.602 -0.2324  0.0974 -0.4526
   63TMC2    H5  974   1.613   4.679  10.515 -0.9160 -0.6873  0.0745
   64MPD2     C  975   1.375   3.968  10.355 -0.8972 -0.0833  0.2810
   64MPD2    C1  976   1.439   3.995  10.471  0.0283  0.0444 -0.1873
   64MPD2    C2  977   1.532   4.096  10.480 -1.0095  0.2591 -0.3203
   64MPD2    C3  978   1.558   4.177  10.366 -0.0111 -0.4036  0.1480
   64MPD2    C4  979   1.490   4.147  10.251  0.5683  0.9742  0.9276
   64MPD2    C5  980   1.393   4.051  10.252 -0.0186  0.2400 -0.2741
   64MPD2     H  981   1.578   4.110  10.577 -0.5718 -1.9062 -0.2210
   64MPD2    H1  982   1.488   4.207  10.161  1.3161  1.9989  1.6008
   64MPD2    H2  983   1.323   3.876  10.330 -0.8736  0.5502 -2.1664
   64MPD2    H3  984   1.339   4.038  10.159 -3.1465  2.0480  1.3044
   64MPD2     N  985   1.657   4.276  10.369  0.4664 -0.3335  0.5137
   64MPD2    H5  986   1.707   4.292  10.456 -2.1561  2.1956  1.5516
   64MPD2    N1  987   1.421   3.918  10.583  0.4208 -0.0231  0.6288
   64MPD2    H7  988   1.504   3.914  10.642  0.5515  3.2874  0.6784
   65MPD2     C  989   2.501   4.377  15.987  0.4781 -0.2503 -0.0684
   65MPD2    C1  990   2.527   4.357  15.853  0.3699 -0.8001  0.1292
   65MPD2    C2  991   2.487   4.237  15.795  0.1713  0.7366 -0.0324
   65MPD2    C3  992   2.430   4.137  15.864  0.4973 -0.1760  0.2094
   65MPD2    C4  993   2.413   4.147  16.005  0.3195 -0.3711 -0.2828
   65MPD2    C5  994   2.443   4.272  16.054  0.1730  0.2487  0.3718
   65MPD2     H  995   2.504   4.221  15.690 -0.9081  0.4205 -0.1535
   65MPD2    H1  996   2.378   4.071  16.073 -0.4121 -1.1675 -1.5462
   65MPD2    H2  997   2.536   4.464  16.041 -0.1637  0.5793 -0.9996
   65MPD2    H3  998   2.425   4.293  16.159  1.2280  0.5544  0.4949
   65MPD2     N  999   2.396   4.008  15.813 -0.0488 -0.7524 -0.0822
   65MPD2    H5 1000   2.368   3.941  15.884 -1.4381 -0.2035 -0.1221
   65MPD2    N1 1001   2.571   4.455  15.770  0.3731 -0.4066  0.0498
   65MPD2    H7 1002   2.580   4.419  15.675 -0.1084  1.4765 -0.7106
   66TCq2    C1 1003   2.595   4.583  15.805  0.7060  0.8044  0.2415
   66TCq2    O2 1004   2.577   4.641  15.909 -0.0835 -0.1597 -0.6739
   66TCq2    C2 1005   2.603   4.666  15.686 -0.3135  0.3491 -0.1289
   66TCq2    C3 1006   2.640   4.615  15.563 -0.6159  0.1212 -0.0349
   66TCq2    C4 1007   2.694   4.698  15.470  0.2951 -0.0584  0.3860
   66TCq2    C5 1008   2.718   0.112  15.492  0.8786 -0.3388 -0.0697
   66TCq2    C6 1009   2.666   0.161  15.610  0.6918 -0.1693 -0.5822
   66TCq2    C7 1010   2.608   0.079  15.705  0.5713  0.7700 -0.5204
   66TCq2    C8 1011   2.692   0.299  15.645  0.3413 -1.0626 -0.2305
   66TCq2    O4 1012   2.684   0.387  15.560 -0.7571 -0.2442  0.7244
   66TCq2    C9 1013   2.732   4.640  15.344  0.0551  0.1583  0.6465
   66TCq2    O5 1014   2.681   4.531  15.306  0.1758  0.7823 -0.1868
   66TCq2    O6 1015   2.803   0.002  15.279  0.6790 -0.2279  0.4636
   66TCq2    H2 1016   2.658   4.511  15.540  0.2415  0.4255 -0.7447
   66TCq2    H3 1017   2.757   0.180  15.418  0.2163 -0.3641 -0.4397
   66TCq2    H4 1018   2.564   0.118  15.796  0.9214 -1.5844  0.6879
   67MPD2     C 1019   2.812   3.377  13.973  0.3750  0.4853 -0.1115
   67MPD2    C1 1020   2.707   3.366  14.062  0.1551 -0.1029 -0.2254
   67MPD2    C2 1021   2.598   3.295  14.013  0.4550 -0.3112 -0.1576
   67MPD2    C3 1022   2.594   3.237  13.892  0.4970 -0.0255  0.0376
   67MPD2    C4 1023   2.708   3.246  13.809 -0.4632 -0.2507 -0.8561
   67MPD2    C5 1024   2.825   3.315  13.846 -0.6247  0.4281 -1.0022
   67MPD2     H 1025   2.508   3.277  14.071  0.2413  1.4833  0.0656
   67MPD2    H1 1026   2.705   3.222  13.703  0.3511 -0.0796 -0.9152
   67MPD2    H2 1027   2.896   3.440  14.000  0.3866  0.7238 -0.7105
   67MPD2    H3 1028   2.909   3.321  13.779  2.2447 -0.6783  2.4713
   67MPD2     N 1029   2.471   3.175  13.863 -0.2901  0.7442 -0.1823
   67MPD2    H5 1030   2.399   3.163  13.934  0.0713  0.1082  0.0824
   67MPD2    N1 1031   2.709   3.405  14.200 -0.2871 -0.0368 -0.6073
   67MPD2    H7 1032   2.642   3.360  14.262 -0.1819 -1.1624 -1.3056
   68TCq2    C1 1033   2.814   3.464  14.265 -0.0918 -0.0479  0.4845
   68TCq2    O2 1034   2.917   3.515  14.226 -0.4352 -0.6072  0.1762
   68TCq2    C2 1035   2.778   3.479  14.405  0.6799  0.0557 -0.5024
   68TCq2    C3 1036   2.648   3.517  14.438  0.0220  0.2164  0.0023
   68TCq2    C4 1037   2.626   3.562  14.568  0.1277  0.9554  0.1940
   68TCq2    C5 1038   2.727   3.558  14.661 -0.6101  0.0941  0.3027
   68TCq2    C6 1039   2.854   3.525  14.618 -0.2288  0.0234 -0.5970
   68TCq2    C7 1040   2.878   3.491  14.491  0.1819  0.6735  0.0975
   68TCq2    C8 1041   2.960   3.527  14.715 -0.1149  1.2059  0.0655
   68TCq2    O4 1042   3.058   3.455  14.685  0.5401  0.3020 -0.1319
   68TCq2    C9 1043   2.494   3.603  14.608  0.6645  0.0144  0.7009
   68TCq2    O5 1044   2.475   3.633  14.730 -0.0123 -0.4900 -0.0796
   68TCq2    O6 1045   2.396   3.601  14.528  0.2375 -0.0238  0.7450
   68TCq2    H2 1046   2.573   3.537  14.363 -0.2698 -0.7703  0.0298
   68TCq2    H3 1047   2.707   3.565  14.767 -0.5411 -0.7783  0.3746
   68TCq2    H4 1048   2.980   3.464  14.465  0.1663 -0.7598  1.5365
   69TMC2    C1 1049   4.653   4.665  12.545 -0.6708  0.6112 -0.8371
   69TMC2    C2 1050   4.524   4.633  12.536 -0.1525  0.1594 -0.1928
   69TMC2    C3 1051   4.461   4.643  12.414  0.1024  0.2793 -0.2941
   69TMC2    C4 1052   0.010   4.704  12.441  0.2659  0.6287 -0.1469
   69TMC2    C5 1053   4.658   0.008  12.322  0.0690 -0.0839  0.1603
   69TMC2    C6 1054   4.524   4.696  12.304 -0.1642 -0.9027 -0.1097
   69TMC2     C 1055   0.005   4.603  12.658 -0.4021 -0.2014 -0.0429
   69TMC2     O 1056   4.648   4.543  12.730 -0.0265  0.4348  0.0629
   69TMC2     H 1057   4.469   4.600  12.623  1.6567 -0.5693  0.6595
   69TMC2    H1 1058   0.115   0.014  12.445  0.0958  0.6993  3.4025
   69TMC2    H2 1059   4.470   4.709  12.211  0.2600  1.2039 -0.0578
   69TMC2    C7 1060   0.028   0.051  12.206 -0.2806  0.3130  0.1384
   69TMC2    C8 1061   4.316   4.633  12.404  0.3681  0.5550 -0.5396
   69TMC2    O1 1062   0.150   0.048  12.214  0.5208 -0.1778  0.0255
   69TMC2    O2 1063   4.243   4.696  12.329 -0.5031 -0.0329 -0.3399
   69TMC2    O5 1064   4.282   4.507  12.450  0.1218  0.2114 -0.1977
   69TMC2    H5 1065   4.364   4.456  12.464 -0.7011 -0.5230  1.9263
   70MPD2     C 1066   0.358   4.538  12.685  0.4727 -0.4285 -0.4924
   70MPD2    C1 1067   0.223   4.528  12.714 -0.5415 -0.1591 -0.1248
   70MPD2    C2 1068   0.176   4.433  12.807 -0.0603  0.1878 -0.7654
   70MPD2    C3 1069   0.265   4.346  12.862  1.2161  0.0072 -0.1874
   70MPD2    C4 1070   0.402   4.364  12.830  0.4112 -0.1348 -0.2938
   70MPD2    C5 1071   0.448   4.458  12.744 -0.0145  0.6995  0.2725
   70MPD2     H 1072   0.073   4.429  12.841  0.0322  1.0879 -0.3756
   70MPD2    H1 1073   0.473   4.304  12.885  0.4542 -2.9549 -3.4135
   70MPD2    H2 1074   0.398   4.611  12.615  0.0002  0.2766 -0.0259
   70MPD2    H3 1075   0.556   4.461  12.732  0.0460  0.7480  0.8143
   70MPD2     N 1076   0.235   4.223  12.931  0.4374  0.2194 -0.3148
   70MPD2    H5 1077   0.313   4.160  12.950 -0.0506 -0.5757 -0.9760
   70MPD2    N1 1078   0.139   4.616  12.652  0.1181  0.1728 -0.4245
   70MPD2    H7 1079   0.176   4.695  12.601 -2.9856  1.0752 -1.2615
   71TMC2    C1 1080   2.966   0.749   1.800 -0.4776  0.5373  0.8062
   71TMC2    C2 1081   3.094   0.761   1.844 -0.5732 -0.2828  0.2965
   71TMC2    C3 1082   3.108   0.804   1.972  0.1429 -0.0096 -0.2628
   71TMC2    C4 1083   2.866   0.749   1.890  0.0661  0.0001  0.5019
   71TMC2    C5 1084   2.884   0.783   2.021  0.5111 -0.0436  0.2749
   71TMC2    C6 1085   3.008   0.821   2.061  0.1400 -0.5574 -0.6750
   71TMC2     C 1086   2.930   0.713   1.665  0.1493  0.1429 -0.3295
   71TMC2     O 1087   2.814   0.722   1.632 -0.0909  0.3325  0.1942
   71TMC2     H 1088   3.179   0.762   1.777  0.3651 -2.3323  1.4526
   71TMC2    H1 1089   2.765   0.743   1.852  0.6364  2.3498 -1.4038
   71TMC2    H2 1090   3.034   0.848   2.162  0.0736 -3.2591  0.0473
   71TMC2    C7 1091   2.774   0.773   2.113 -0.1470  0.7382 -0.1569
   71TMC2    C8 1092   3.241   0.807   2.025  0.4038  0.4462  0.0340
   71TMC2    O1 1093   2.802   0.789   2.231 -0.5837  0.6591  0.1371
   71TMC2    O2 1094   3.267   0.871   2.128  0.4312  0.5287  0.1293
   71TMC2    O5 1095   3.294   0.687   2.001 -0.3936 -0.2838 -0.0543
   71TMC2    H5 1096   3.266   0.637   1.921 -0.3545 -0.9105  0.3212
   72MPD2     C 1097   3.011   0.391   1.274 -0.7140 -0.1025  0.1256
   72MPD2    C1 1098   2.917   0.496   1.286 -0.8108 -0.5502  0.0651
   72MPD2    C2 1099   2.932   0.589   1.385 -0.5991  0.3140  0.3181
   72MPD2    C3 1100   3.033   0.575   1.480  0.1488 -0.0338 -0.5038
   72MPD2    C4 1101   3.123   0.473   1.467 -0.3096  0.2491 -0.4083
   72MPD2    C5 1102   3.108   0.379   1.368 -0.1622  0.3243 -0.3275
   72MPD2     H 1103   2.866   0.675   1.390 -0.5858  0.3180  0.4243
   72MPD2    H1 1104   3.206   0.460   1.535 -0.4534  0.3780 -0.2064
   72MPD2    H2 1105   3.008   0.316   1.196 -1.7842  0.1371 -0.0588
   72MPD2    H3 1106   3.174   0.295   1.350  0.3333  0.9251 -1.3556
   72MPD2     N 1107   3.040   0.650   1.602  0.3273 -0.3011 -0.2327
   72MPD2    H5 1108   3.121   0.639   1.663  0.1740  0.1271  0.0426
   72MPD2    N1 1109   2.810   0.515   1.196 -0.4763 -0.2493 -0.0882
   72MPD2    H7 1110   2.756   0.600   1.207 -1.0424 -0.6953  0.6266
   73TMC2    C1 1111   2.092   2.097  14.171 -1.1241 -0.6319  0.0246
   73TMC2    C2 1112   1.982   2.173  14.191  0.1235 -0.0730 -0.5107
   73TMC2    C3 1113   2.007   2.306  14.190 -0.2292 -0.7828 -0.5439
   73TMC2    C4 1114   2.221   2.152  14.183 -0.1511 -0.1080  0.4215
   73TMC2    C5 1115   2.237   2.282  14.172 -0.0777 -0.1875 -0.3839
   73TMC2    C6 1116   2.126   2.362  14.171  0.4663 -0.8240 -0.0289
   73TMC2     C 1117   2.088   1.990  14.071  0.0179  0.2857  0.0502
   73TMC2     O 1118   2.197   1.942  14.036  0.0231 -0.1935  0.0630
   73TMC2     H 1119   1.880   2.137  14.195 -0.4366  1.3788 -1.7473
   73TMC2    H1 1120   2.310   2.091  14.194  0.5693  0.9943  0.7240
   73TMC2    H2 1121   2.139   2.470  14.162 -2.4585 -0.5519 -0.9835
   73TMC2    C7 1122   2.328   2.307  14.063  0.8143 -0.4174  0.8287
   73TMC2    C8 1123   1.889   2.387  14.184 -1.2699  0.3669 -0.7298
   73TMC2    O1 1124   2.360   2.420  14.026  0.2808 -0.3068  0.0098
   73TMC2    O2 1125   1.820   2.412  14.284 -0.3242 -0.7996 -0.1811
   73TMC2    O5 1126   1.836   2.375  14.060 -0.2790  0.1881  0.7880
   73TMC2    H5 1127   1.903   2.338  13.998  0.3245  1.8181  0.4850
   74MPD2     C 1128   1.910   1.744  13.659  0.7386  0.2683  0.2401
   74MPD2    C1 1129   2.040   1.759  13.708  0.0856 -0.0558  0.6218
   74MPD2    C2 1130   2.068   1.839  13.814 -0.6472 -0.3804  0.7185
   74MPD2    C3 1131   1.962   1.901  13.879 -0.1539 -0.0277 -0.6149
   74MPD2    C4 1132   1.836   1.891  13.824 -0.4418  0.0949 -0.5616
   74MPD2    C5 1133   1.808   1.823  13.710  0.1257 -0.2509  0.2698
   74MPD2     H 1134   2.173   1.851  13.842 -0.6788 -1.1669  1.1831
   74MPD2    H1 1135   1.752   1.936  13.875 -1.0947 -1.1474 -0.5185
   74MPD2    H2 1136   1.887   1.676  13.579  1.1606  0.7985 -0.3349
   74MPD2    H3 1137   1.706   1.813  13.673  0.1400  1.1759 -0.1692
   74MPD2     N 1138   1.970   1.979  13.999 -0.4101  0.4529  0.3159
   74MPD2    H5 1139   1.886   2.023  14.035 -0.9216 -0.6301  0.4361
   74MPD2    N1 1140   2.141   1.686  13.640 -0.2431  0.0223  0.0664
   74MPD2    H7 1141   2.115   1.642  13.552  0.8215 -1.7090  0.6186
   75TCq2    C1 1142   2.452   3.110  13.749 -0.7672  0.2035  0.0128
   75TCq2    O2 1143   2.528   3.076  13.662 -0.3409 -0.1404 -0.1130
   75TCq2    C2 1144   2.319   3.056  13.749 -0.0052  0.5029  0.8674
   75TCq2    C3 1145   2.245   3.077  13.861  0.1132 -0.4566 -0.2534
   75TCq2    C4 1146   2.127   3.012  13.870  0.7640  0.4922 -0.4049
   75TCq2    C5 1147   2.087   2.926  13.775  0.3939 -0.5812  0.1883
   75TCq2    C6 1148   2.167   2.900  13.670  0.2697  0.1082  0.5467
   75TCq2    C7 1149   2.280   2.971  13.651 -0.3384 -0.3309  0.3671
   75TCq2    C8 1150   2.126   2.806  13.569 -0.4519 -0.1283 -0.3532
   75TCq2    O4 1151   2.198   2.816  13.470  0.3896  0.4691 -0.0083
   75TCq2    C9 1152   2.040   3.038  13.985 -0.3063 -0.1697 -0.6947
   75TCq2    O5 1153   1.949   2.953  14.006 -0.5584 -0.1613  0.5222
   75TCq2    O6 1154   2.051   3.153  14.041  0.0831  0.0137 -0.2737
   75TCq2    H2 1155   2.261   3.149  13.940  3.0231 -0.0694 -1.2283
   75TCq2    H3 1156   1.985   2.891  13.786  0.5377 -1.4215 -1.1906
   75TCq2    H4 1157   2.343   2.967  13.563  1.4121  1.0048  1.5428
   76MPD2     C 1158   1.181   0.099  11.625  0.6647  0.6993 -0.6452
   76MPD2    C1 1159   1.105   4.702  11.613 -0.3007  0.5306  0.5192
   76MPD2    C2 1160   1.169   4.577  11.598 -0.7100 -0.1704  1.0340
   76MPD2    C3 1161   1.312   4.575  11.606 -0.1941  0.2480  0.1486
   76MPD2    C4 1162   1.381   4.694  11.631 -0.0921 -0.3933 -0.8895
   76MPD2    C5 1163   1.315   0.097  11.646  0.4420 -0.0719  0.1992
   76MPD2     H 1164   1.114   4.484  11.584  1.4816 -1.2909 -0.1469
   76MPD2    H1 1165   1.487   4.696  11.652 -0.2448  0.4349 -0.1664
   76MPD2    H2 1166   1.136   0.197  11.640 -0.4015  0.1402 -0.1797
   76MPD2    H3 1167   1.369   0.188  11.668  1.1099 -0.5576  0.5488
   76MPD2     N 1168   1.392   4.462  11.600 -0.4397 -0.1190 -0.3049
   76MPD2    H5 1169   1.490   4.466  11.626 -0.6822 -1.6962  0.8983
   76MPD2    N1 1170   0.961   4.692  11.609 -0.6200 -0.4251  0.0234
   76MPD2    H7 1171   0.917   4.607  11.575 -0.6832  0.4080 -1.9779
   77TCq2    C1 1172   1.345   4.331  11.587 -0.7166  0.6627  0.4592
   77TCq2    O2 1173   1.231   4.293  11.611 -0.5702  0.1415  0.1032
   77TCq2    C2 1174   1.446   4.227  11.592  1.0229 -0.2172  0.1204
   77TCq2    C3 1175   1.577   4.264  11.571  0.5447 -0.2506  1.4282
   77TCq2    C4 1176   1.671   4.184  11.618 -0.7847  0.2431  0.2019
   77TCq2    C5 1177   1.646   4.075  11.696 -0.4159  0.2169 -0.3086
   77TCq2    C6 1178   1.514   4.036  11.708 -0.2540  1.0518  0.0388
   77TCq2    C7 1179   1.410   4.112  11.655 -0.2815 -0.2791  0.2946
   77TCq2    C8 1180   1.481   3.951  11.820  0.4926  0.5604  0.5411
   77TCq2    O4 1181   1.360   3.928  11.827 -0.6307  0.0659  0.1500
   77TCq2    C9 1182   1.813   4.209  11.577  0.6977  0.7256 -0.3791
   77TCq2    O5 1183   1.888   4.113  11.596 -0.0404  0.0795  1.1084
   77TCq2    O6 1184   1.827   4.296  11.490 -0.9776 -0.1981 -0.3261
   77TCq2    H2 1185   1.604   4.357  11.524  1.3146 -1.9343 -1.4938
   77TCq2    H3 1186   1.729   4.018  11.737 -0.6300  0.0019 -0.1702
   77TCq2    H4 1187   1.306   4.089  11.675 -0.1053 -0.3961  1.0811
   78MPD1     C 1188   3.163   4.328   1.603 -0.5509  0.3049 -0.7914
   78MPD1    C1 1189   3.290   4.383   1.599 -0.0574 -0.2329  0.3237
   78MPD1    C2 1190   3.372   4.362   1.718 -0.2064 -0.3497  0.1072
   78MPD1    C3 1191   3.320   4.284   1.818 -0.0402  0.4832  0.5018
   78MPD1    C4 1192   3.192   4.235   1.807 -0.3090  0.3923 -0.2543
   78MPD1    C5 1193   3.113   4.248   1.696  0.1870 -0.4540  0.5047
   78MPD1     H 1194   3.470   4.409   1.720 -0.5964  0.4281  1.0899
   78MPD1    H1 1195   3.145   4.173   1.882 -0.2829  0.5883 -0.0772
   78MPD1    H2 1196   3.094   4.342   1.521 -1.2154 -0.2542 -0.3319
   78MPD1    H3 1197   3.012   4.209   1.681  0.7223 -1.0666 -1.4743
   78MPD1     N 1198   3.373   4.265   1.950 -0.1595 -0.0811  0.5686
   78MPD1    H5 1199   3.323   4.197   2.006 -0.4668 -0.9736 -0.7966
   78MPD1    N1 1200   3.331   4.469   1.498  0.2728 -0.1555  0.4443
   78MPD1    H6 1201   3.432   4.465   1.498  0.2826  0.2939 -2.3160
   78MPD1    H7 1202   3.300   4.433   1.408  1.1929  2.2500 -0.8118
   79TCq2    C1 1203   3.497   4.309   1.992  0.5341  0.5483 -0.7645
   79TCq2    O2 1204   3.578   4.376   1.935  0.0011  0.0651  0.5290
   79TCq2    C2 1205   3.536   4.252   2.127  0.4736  0.7789  0.1857
   79TCq2    C3 1206   3.475   4.144   2.196  0.0250  0.0247  0.1507
   79TCq2    C4 1207   3.531   4.096   2.311 -0.1250  0.4871 -0.4707
   79TCq2    C5 1208   3.650   4.150   2.364 -0.5049  0.0213  0.1981
   79TCq2    C6 1209   3.705   4.261   2.293 -0.3012 -0.6583  0.6848
   79TCq2    C7 1210   3.647   4.306   2.183 -0.0288 -0.1472 -0.2636
   79TCq2    C8 1211   3.846   4.299   2.328  0.4205 -0.0755 -0.4707
   79TCq2    O4 1212   3.903   4.336   2.229 -0.2678  0.0629 -0.2981
   79TCq2    C9 1213   3.471   3.991   2.385  0.0434 -0.4110  0.2911
   79TCq2    O5 1214   3.358   3.961   2.348 -0.1494 -0.0491  0.5597
   79TCq2    O6 1215   3.539   3.957   2.487  0.1255 -0.3298 -0.4417
   79TCq2    H2 1216   3.386   4.095   2.156 -1.3075  1.8680  0.8840
   79TCq2    H3 1217   3.699   4.114   2.453 -0.6189 -1.2500 -0.2553
   79TCq2    H4 1218   3.679   4.393   2.127  2.9600 -2.2350 -1.7457
   80MPD2     C 1219   0.133   3.795  12.539  0.0234  0.6460  0.3148
   80MPD2    C1 1220   0.122   3.837  12.412 -0.4880  0.4237  0.3248
   80MPD2    C2 1221   0.005   3.905  12.371 -0.2228 -0.5479 -0.4004
   80MPD2    C3 1222   4.610   3.909  12.454 -0.4201 -0.0919 -0.3729
   80MPD2    C4 1223   4.624   3.854  12.580 -0.5326 -0.3530  0.2067
   80MPD2    C5 1224   0.025   3.797  12.620 -0.1914  0.9430 -0.2181
   80MPD2     H 1225   4.709   3.952  12.274 -0.1440 -1.5321 -0.8899
   80MPD2    H1 1226   4.540   3.855  12.648 -1.7257  0.8505 -1.2845
   80MPD2    H2 1227   0.226   3.760  12.584 -0.4540  0.6520  1.3048
   80MPD2    H3 1228   0.029   3.745  12.715 -1.2571 -1.0583 -1.2766
   80MPD2     N 1229   4.479   3.948  12.416  0.4720 -0.4514 -0.6942
   80MPD2    H5 1230   4.412   3.932  12.491  1.5127  1.6488  0.6599
   80MPD2    N1 1231   0.226   3.814  12.323  0.9670 -0.0080  0.2090
   80MPD2    H7 1232   0.211   3.856  12.232 -1.6005 -0.6159  0.3304
   81TCq2    C1 1233   0.340   3.749  12.351 -0.5288  0.2898  0.2856
   81TCq2    O2 1234   0.395   3.717  12.458  0.2380 -0.0634  0.4995
   81TCq2    C2 1235   0.434   3.749  12.246  0.3595 -0.0955 -0.1631
   81TCq2    C3 1236   0.568   3.724  12.273  0.6257  0.4171 -0.9273
   81TCq2    C4 1237   0.659   3.719  12.172 -0.1519 -0.0054 -0.2556
   81TCq2    C5 1238   0.619   3.730  12.043  0.3563  0.6978  0.0009
   81TCq2    C6 1239   0.489   3.731  12.018  0.5819 -0.1000  0.3230
   81TCq2    C7 1240   0.388   3.741  12.113  0.4461  0.3413 -0.3559
   81TCq2    C8 1241   0.457   3.679  11.884 -0.6965  0.5799  0.1028
   81TCq2    O4 1242   0.531   3.708  11.792 -0.0122 -0.0100  0.0852
   81TCq2    C9 1243   0.798   3.699  12.209  0.0494 -0.0717  0.0373
   81TCq2    O5 1244   0.882   3.700  12.115  0.1390 -0.1963 -0.0399
   81TCq2    O6 1245   0.829   3.671  12.328  0.5934 -0.3240  0.1389
   81TCq2    H2 1246   0.596   3.716  12.378 -0.0561 -0.0837 -0.7850
   81TCq2    H3 1247   0.696   3.726  11.967  0.9508  1.7731  0.5514
   81TCq2    H4 1248   0.287   3.772  12.092  0.0161 -1.3065 -0.6959
   82MPD2     C 1249   2.810   3.429  11.081 -0.1436  0.1940 -0.0876
   82MPD2    C1 1250   2.813   3.294  11.072 -0.0411 -0.5460 -0.4195
   82MPD2    C2 1251   2.896   3.223  11.154 -0.1466 -0.5800  0.0896
   82MPD2    C3 1252   2.980   3.275  11.251  0.1957 -0.2787  0.9551
   82MPD2    C4 1253   2.972   3.410  11.258  0.8047  0.6572  0.0691
   82MPD2    C5 1254   2.899   3.486  11.176  0.0568 -0.5340 -0.7177
   82MPD2     H 1255   2.887   3.115  11.146  0.5819 -0.5297 -1.4806
   82MPD2    H1 1256   3.036   3.464  11.328  2.0757  0.7262 -1.1417
   82MPD2    H2 1257   2.752   3.500  11.024 -0.2407  0.5127  0.4057
   82MPD2    H3 1258   2.904   3.592  11.196  1.5417 -0.9854  1.3510
   82MPD2     N 1259   3.066   3.200  11.338  0.1641 -0.2864  0.1427
   82MPD2    H5 1260   3.110   3.251  11.413 -0.3458 -1.1738  1.0412
   82MPD2    N1 1261   2.729   3.237  10.972 -1.0327 -0.1630 -0.7039
   82MPD2    H7 1262   2.676   3.299  10.911 -0.2875  0.3674 -0.7999
   83TCq2    C1 1263   3.109   3.068  11.314 -0.0058  0.1693 -0.8843
   83TCq2    O2 1264   3.061   2.999  11.226  0.5742 -0.8111  0.2581
   83TCq2    C2 1265   3.190   3.007  11.412  0.7509 -0.1273  0.0549
   83TCq2    C3 1266   3.245   3.083  11.519  0.3544  1.4803 -0.6813
   83TCq2    C4 1267   3.304   3.015  11.626  0.2904  0.8174 -0.1273
   83TCq2    C5 1268   3.297   2.877  11.626  0.3649  0.7962  0.5193
   83TCq2    C6 1269   3.243   2.814  11.514  0.0382  0.3151 -1.1768
   83TCq2    C7 1270   3.185   2.868  11.414 -0.7385 -0.0907  0.2132
   83TCq2    C8 1271   3.215   2.674  11.519  0.3298  0.6175 -0.2450
   83TCq2    O4 1272   3.197   2.627  11.630 -0.0021  0.0219  0.2369
   83TCq2    C9 1273   3.384   3.080  11.725 -0.2599 -0.3736  0.2533
   83TCq2    O5 1274   3.424   3.006  11.823  0.3438  0.2927 -0.2768
   83TCq2    O6 1275   3.425   3.199  11.712 -1.0875  0.2992  0.3448
   83TCq2    H2 1276   3.248   3.191  11.511 -2.0542  1.5954  0.1473
   83TCq2    H3 1277   3.335   2.807  11.700  0.3702 -0.1238 -0.3591
   83TCq2    H4 1278   3.118   2.808  11.353  0.5495 -0.0343 -1.2654
   84TCq2    C1 1279   4.484   2.049  10.649 -0.1151  0.2766  0.5451
   84TCq2    O2 1280   4.433   2.154  10.616  0.0327 -0.3721 -0.0412
   84TCq2    C2 1281   4.400   1.954  10.714  0.2776  0.2424  0.0681
   84TCq2    C3 1282   4.423   1.824  10.707 -0.6441 -0.0264 -0.6441
   84TCq2    C4 1283   4.359   1.735  10.785  0.0642 -0.0915 -0.2849
   84TCq2    C5 1284   4.269   1.778  10.877  0.4412  0.0193 -0.0258
   84TCq2    C6 1285   4.221   1.911  10.867 -0.1043 -0.0483 -0.1439
   84TCq2    C7 1286   4.288   1.997  10.785 -0.1189  0.7465  0.0468
   84TCq2    C8 1287   4.140   1.967  10.971 -0.2804  0.8645  0.2956
   84TCq2    O4 1288   4.140   2.088  10.989  0.9281 -0.8920  0.0352
   84TCq2    C9 1289   4.387   1.591  10.789  0.0100  0.4780 -0.2680
   84TCq2    O5 1290   4.481   1.547  10.722  0.4816 -0.3761  0.2715
   84TCq2    O6 1291   4.330   1.526  10.887 -0.6285 -0.1481  0.3590
   84TCq2    H2 1292   4.503   1.781  10.648  1.5477  1.7484  1.0441
   84TCq2    H3 1293   4.211   1.707  10.935 -0.1737 -1.3683 -2.3060
   84TCq2    H4 1294   4.277   2.104  10.797  0.4927  0.8670 -0.4643
   85MPD2     C 1295   4.233   0.475  16.099  0.3575 -0.0986 -0.3997
   85MPD2    C1 1296   4.356   0.425  16.145 -0.0815  0.0391 -0.5564
   85MPD2    C2 1297   4.476   0.501  16.117 -0.2608  0.2045  0.0078
   85MPD2    C3 1298   4.463   0.628  16.052  0.0176  0.2978 -0.0895
   85MPD2    C4 1299   4.336   0.671  16.022  0.7177  0.1199  0.4833
   85MPD2    C5 1300   4.226   0.596  16.034 -0.3434  0.1177  0.6701
   85MPD2     H 1301   4.573   0.454  16.132 -0.1366  0.8038  1.1656
   85MPD2    H1 1302   4.320   0.767  15.974 -0.5970 -0.0623  0.5716
   85MPD2    H2 1303   4.139   0.424  16.109  0.6121 -0.7085 -1.1326
   85MPD2    H3 1304   4.126   0.631  16.010  0.8180  1.4755 -2.2248
   85MPD2     N 1305   4.585   0.695  16.013 -0.0770  0.0466  0.2230
   85MPD2    H5 1306   4.665   0.651  16.056  0.8485  0.0287 -1.5022
   85MPD2    N1 1307   4.374   0.294  16.194 -0.4157 -0.4997  0.0101
   85MPD2    H7 1308   4.462   0.254  16.224 -0.1419 -0.0320 -0.1803
   86TCq2    C1 1309   4.587   0.798  15.928  0.2195  0.1522 -0.8342
   86TCq2    O2 1310   4.489   0.858  15.882  0.3902 -0.4313  0.2028
   86TCq2    C2 1311   4.717   0.837  15.885  0.1616 -0.0190 -0.8180
   86TCq2    C3 1312   0.010   0.958  15.822 -0.6935 -0.4960 -0.5674
   86TCq2    C4 1313   0.125   0.990  15.752 -0.6603 -0.0879 -0.1169
   86TCq2    C5 1314   0.219   0.894  15.728  0.3891 -0.2723 -0.3262
   86TCq2    C6 1315   0.202   0.779  15.801 -0.7424 -0.0736 -0.3556
   86TCq2    C7 1316   0.104   0.746  15.887  0.3173 -0.5615 -0.2387
   86TCq2    C8 1317   0.287   0.671  15.762  0.0181  0.2373 -0.0317
   86TCq2    O4 1318   0.338   0.603  15.853 -0.6004 -0.1800  0.8627
   86TCq2    C9 1319   0.141   1.119  15.684  0.4098  0.0936 -0.3320
   86TCq2    O5 1320   0.046   1.200  15.710  0.4631  0.0461 -0.6178
   86TCq2    O6 1321   0.240   1.130  15.610 -0.2427  0.2703 -0.4933
   86TCq2    H2 1322   4.657   1.037  15.844  1.3659  0.8066  1.3659
   86TCq2    H3 1323   0.313   0.916  15.679  0.7953  2.0357  1.4661
   86TCq2    H4 1324   0.089   0.644  15.920 -2.4338 -0.4099 -0.9846
   87MPD2     C 1325   2.251   3.459   1.530  0.9236 -0.0276  0.5265
   87MPD2    C1 1326   2.324   3.526   1.626  0.2498 -0.0477  0.1779
   87MPD2    C2 1327   2.258   3.634   1.684  0.9465 -0.4800  0.7000
   87MPD2    C3 1328   2.124   3.664   1.664 -0.5485 -0.5184  0.1006
   87MPD2    C4 1329   2.057   3.586   1.581  0.0097 -1.1404  0.4161
   87MPD2    C5 1330   2.119   3.483   1.519 -0.2567 -0.5201 -1.1410
   87MPD2     H 1331   2.322   3.707   1.735  0.1922  0.5906  0.1095
   87MPD2    H1 1332   1.950   3.599   1.572  0.0971  0.0285  1.1089
   87MPD2    H2 1333   2.286   3.368   1.483  1.4025  0.8221 -0.7578
   87MPD2    H3 1334   2.059   3.411   1.464  0.2109 -3.0308  1.6499
   87MPD2     N 1335   2.061   3.789   1.700  0.0013 -0.4259  0.3732
   87MPD2    H5 1336   1.974   3.815   1.654  0.1821 -0.5145 -0.0214
   87MPD2    N1 1337   2.458   3.483   1.650 -0.1402 -0.6103  0.0205
   87MPD2    H7 1338   2.491   3.407   1.592 -3.1874 -0.4550 -1.9031
   88TCq2    C1 1339   2.532   3.523   1.762 -1.4331  0.2202 -0.3350
   88TCq2    O2 1340   2.513   3.617   1.837  0.1509 -0.2017  0.3469
   88TCq2    C2 1341   2.663   3.453   1.772  0.3598 -0.1695 -0.0748
   88TCq2    C3 1342   2.749   3.516   1.854 -0.4753  1.1932 -0.2666
   88TCq2    C4 1343   2.876   3.472   1.862  0.2347 -0.2176 -1.1383
   88TCq2    C5 1344   2.908   3.349   1.813  0.7797 -0.6114  0.4726
   88TCq2    C6 1345   2.813   3.277   1.752 -0.3552 -0.2917  0.2614
   88TCq2    C7 1346   2.688   3.330   1.725 -0.1934 -0.0763 -0.1215
   88TCq2    C8 1347   2.859   3.159   1.688 -0.4766  0.4578  0.0323
   88TCq2    O4 1348   2.805   3.139   1.579  0.2879 -0.4708 -0.0070
   88TCq2    C9 1349   2.982   3.545   1.938 -0.0627  0.5179 -0.5841
   88TCq2    O5 1350   2.946   3.637   2.012 -0.0839  0.1507 -0.2751
   88TCq2    O6 1351   3.102   3.508   1.911  1.3087 -0.2659  0.3135
   88TCq2    H2 1352   2.720   3.605   1.910 -2.2372 -0.2087  1.0269
   88TCq2    H3 1353   3.007   3.307   1.825  0.5518 -1.3081 -0.1102
   88TCq2    H4 1354   2.617   3.268   1.672 -1.3692 -1.5826  3.2163
   89MPD2     C 1355   3.531   1.719   2.323 -0.2024 -0.2786  0.1967
   89MPD2    C1 1356   3.448   1.659   2.235 -0.4677 -0.0397 -0.3382
   89MPD2    C2 1357   3.335   1.727   2.200 -0.5744  0.2698  0.8813
   89MPD2    C3 1358   3.318   1.864   2.227  0.5249 -0.1739 -0.4856
   89MPD2    C4 1359   3.416   1.929   2.294  0.1423 -0.0286 -0.3984
   89MPD2    C5 1360   3.517   1.855   2.351 -0.2120  0.1314 -0.1751
   89MPD2     H 1361   3.260   1.682   2.136  0.0279 -1.3186  1.3037
   89MPD2    H1 1362   3.412   2.036   2.310 -1.4510 -0.4360  1.9006
   89MPD2    H2 1363   3.613   1.666   2.371 -0.7875 -0.8985  0.5013
   89MPD2    H3 1364   3.580   1.904   2.424 -0.4354  1.8582 -1.1229
   89MPD2     N 1365   3.199   1.931   2.174  0.3862 -0.2961  0.5107
   89MPD2    H5 1366   3.139   1.864   2.126 -0.0765  1.2781 -1.1162
   89MPD2    N1 1367   3.469   1.525   2.189  0.5101 -0.3360  0.6589
   89MPD2    H7 1368   3.405   1.475   2.128 -0.0354 -1.8268  2.4364
   90TCq2    C1 1369   3.174   2.062   2.186  0.3422 -1.2147  0.0475
   90TCq2    O2 1370   3.218   2.142   2.263 -0.2682  0.4339 -0.3484
   90TCq2    C2 1371   3.051   2.097   2.117 -0.7297 -0.2700  0.4172
   90TCq2    C3 1372   2.988   2.207   2.163  0.1282 -1.0599  0.6860
   90TCq2    C4 1373   2.881   2.259   2.100 -0.0584  0.5026  1.1236
   90TCq2    C5 1374   2.830   2.188   1.997 -0.1260  0.8185 -0.3066
   90TCq2    C6 1375   2.893   2.074   1.945  0.2459 -0.9007 -0.2435
   90TCq2    C7 1376   3.007   2.028   2.005 -0.7996 -0.4832 -0.4009
   90TCq2    C8 1377   2.859   2.017   1.819 -0.7652  0.6319 -0.5169
   90TCq2    O4 1378   2.743   2.028   1.782  0.3449  0.8338 -0.2948
   90TCq2    C9 1379   2.808   2.376   2.143 -0.1372  0.1036 -0.3573
   90TCq2    O5 1380   2.841   2.425   2.256 -0.3170  0.4789  0.6764
   90TCq2    O6 1381   2.696   2.409   2.090 -0.8727  0.3266  0.7893
   90TCq2    H2 1382   3.021   2.267   2.247 -2.2393  1.9138 -0.4486
   90TCq2    H3 1383   2.752   2.233   1.937 -2.2318 -1.3532  0.8059
   90TCq2    H4 1384   3.071   1.950   1.966  0.5463  0.6226 -0.4048
   91TMC2    C1 1385   0.293   1.886  16.265  0.1532 -0.1900  0.6812
   91TMC2    C2 1386   0.262   1.949  16.142 -0.5278 -0.3786  0.2418
   91TMC2    C3 1387   0.133   1.997  16.141  0.1353 -0.2781  0.1116
   91TMC2    C4 1388   0.200   1.862  16.364  0.1574 -0.1511  0.0854
   91TMC2    C5 1389   0.074   1.913  16.355  1.2878  0.2496 -0.7671
   91TMC2    C6 1390   0.042   1.979  16.239 -0.0920 -0.1303 -0.8743
   91TMC2     C 1391   0.382   1.776  16.257 -1.0016  0.1242 -0.6547
   91TMC2     O 1392   0.338   1.664  16.277 -0.4091  0.0907 -0.1021
   91TMC2     H 1393   0.340   1.976  16.071  1.9930 -1.0611  2.7509
   91TMC2    H1 1394   0.229   1.801  16.449  2.1624  0.1729 -0.3569
   91TMC2    H2 1395   4.668   2.034  16.226 -1.2251 -1.8031  0.0260
   91TMC2    C7 1396   4.685   1.870  16.449 -0.1515  0.7729  0.3492
   91TMC2    C8 1397   0.106   2.100  16.048 -0.4130  0.9808  0.3623
   91TMC2    O1 1398   0.001   1.848  16.564  0.6284  0.3015  0.3306
   91TMC2    O2 1399   0.182   2.191  16.020 -0.0293 -0.1082 -0.0047
   91TMC2    O5 1400   4.706   2.066  15.986 -0.4653 -0.2063  0.4273
   91TMC2    H5 1401   4.681   1.975  16.014  0.4643 -0.5882  0.0357
   92MPD2     C 1402   0.614   1.621  16.184 -0.3114 -0.0750 -0.5315
   92MPD2    C1 1403   0.613   1.753  16.222  0.4840  0.0102  0.2211
   92MPD2    C2 1404   0.733   1.820  16.240  0.4130  0.6302 -0.4914
   92MPD2    C3 1405   0.856   1.759  16.214  0.9986  0.0742  0.0118
   92MPD2    C4 1406   0.850   1.633  16.154 -0.4278 -0.0991  0.0700
   92MPD2    C5 1407   0.732   1.570  16.140  0.9336  0.6561  0.1315
   92MPD2     H 1408   0.734   1.921  16.279  0.0225  0.6521 -0.5343
   92MPD2    H1 1409   0.935   1.572  16.127  0.5571  0.9467  0.8032
   92MPD2    H2 1410   0.520   1.568  16.170 -0.0242  0.0555 -2.9070
   92MPD2    H3 1411   0.726   1.472  16.095  2.8891 -0.5640  2.5545
   92MPD2     N 1412   0.984   1.823  16.237  0.0982  0.3418  0.3048
   92MPD2    H5 1413   0.977   1.914  16.282 -0.5620  0.0487  0.7929
   92MPD2    N1 1414   0.503   1.830  16.244  0.1553  0.1786 -0.4068
   92MPD2    H7 1415   0.517   1.928  16.264  0.2172  0.2812 -0.9333
   93MPD2     C 1416   1.755   1.359  13.918  0.4581  0.0075  0.9197
   93MPD2    C1 1417   1.740   1.484  13.976 -0.1516 -0.1238  0.4154
   93MPD2    C2 1418   1.620   1.548  13.958 -0.2648 -0.1652 -0.0641
   93MPD2    C3 1419   1.516   1.477  13.896 -0.2633 -0.0078  0.4284
   93MPD2    C4 1420   1.535   1.357  13.825  0.3421 -0.0373  0.4232
   93MPD2    C5 1421   1.657   1.295  13.838 -0.1702  0.3713 -0.9705
   93MPD2     H 1422   1.607   1.648  13.997 -1.5432 -1.2394  2.2915
   93MPD2    H1 1423   1.458   1.304  13.770  0.7962 -0.3704  0.1014
   93MPD2    H2 1424   1.844   1.296  13.924  0.0920 -0.5829  0.2185
   93MPD2    H3 1425   1.683   1.201  13.791  0.7498 -0.7658  1.7969
   93MPD2     N 1426   1.380   1.524  13.892 -0.5692 -0.2720  0.1144
   93MPD2    H5 1427   1.307   1.467  13.850 -0.5617 -0.5159  0.4242
   93MPD2    N1 1428   1.839   1.555  14.042  0.0208  0.1884 -0.0801
   93MPD2    H7 1429   1.816   1.643  14.087  0.0049 -0.3593  0.9948
   94TCq2    C1 1430   1.971   1.518  14.042  1.2853  0.6330  0.0268
   94TCq2    O2 1431   2.027   1.424  13.987  0.2381  0.0333 -0.0808
   94TCq2    C2 1432   2.041   1.616  14.127 -0.0480  0.8820 -0.2785
   94TCq2    C3 1433   1.967   1.685  14.226 -0.4226 -0.0977  0.4103
   94TCq2    C4 1434   2.038   1.752  14.323 -0.2107  0.3302  0.0095
   94TCq2    C5 1435   2.176   1.747  14.328  0.3215 -0.0747  0.2947
   94TCq2    C6 1436   2.241   1.689  14.220 -0.2509 -0.1894  0.8398
   94TCq2    C7 1437   2.173   1.628  14.117  0.3778  0.6670  0.5891
   94TCq2    C8 1438   2.386   1.699  14.223  0.5943 -0.6936 -0.5932
   94TCq2    O4 1439   2.453   1.720  14.322  0.2030 -0.3995  0.1560
   94TCq2    C9 1440   1.968   1.812  14.437  0.4173 -0.5275 -0.0834
   94TCq2    O5 1441   2.040   1.859  14.528  0.4468  1.3119  0.0719
   94TCq2    O6 1442   1.843   1.835  14.419  0.2902  0.3770  0.2101
   94TCq2    H2 1443   1.861   1.677  14.247 -1.1676  1.1423 -2.9344
   94TCq2    H3 1444   2.237   1.780  14.411  0.1175  1.0870 -0.0203
   94TCq2    H4 1445   2.214   1.573  14.033  1.0116 -0.4924  1.6509
   95TMC2    C1 1446   1.823   3.388  16.410  0.2232  0.6564 -0.1146
   95TMC2    C2 1447   1.717   3.292  16.418  0.0656  0.1010 -0.2307
   95TMC2    C3 1448   1.669   3.259  16.543  0.7333 -0.3146 -0.2254
   95TMC2    C4 1449   1.873   3.450  16.517  0.6391  0.3008 -0.3602
   95TMC2    C5 1450   1.824   3.408  16.641  0.2806 -0.4088  0.0393
   95TMC2    C6 1451   1.722   3.315  16.655 -0.2823 -0.2342 -0.6506
   95TMC2     C 1452   1.884   3.409  16.282 -0.3251 -0.1965  0.1756
   95TMC2     O 1453   1.961   3.507  16.261 -0.1984 -0.2088  0.2381
   95TMC2     H 1454   1.677   3.244  16.330  0.5435  1.1518 -1.0274
   95TMC2    H1 1455   1.954   3.523  16.509  1.0941 -0.3528 -1.7040
   95TMC2    H2 1456   1.678   3.276  16.746 -1.3482  0.3634 -0.9094
   95TMC2    C7 1457   1.912   3.434  16.753 -0.2922  0.4843  0.1472
   95TMC2    C8 1458   1.551   3.184  16.556 -0.1407 -0.7083  0.2682
   95TMC2    O1 1459   2.033   3.430  16.730 -0.2620  0.2417 -0.0453
   95TMC2    O2 1460   1.513   3.147  16.664  0.3297 -0.1746 -0.2381
   95TMC2    O5 1461   1.473   3.227  16.455  0.6249 -0.6355  0.0640
   95TMC2    H5 1462   1.516   3.296  16.399 -0.1870 -0.1392  0.0442
   96MPD2     C 1463   1.968   3.251  15.781  1.0790 -0.9015 -0.1911
   96MPD2    C1 1464   2.017   3.360  15.853  0.0863 -0.5524  0.1723
   96MPD2    C2 1465   1.974   3.381  15.984 -0.3178 -0.5172 -0.3872
   96MPD2    C3 1466   1.887   3.296  16.053  0.0197  0.3147 -0.2373
   96MPD2    C4 1467   1.835   3.188  15.981 -0.3042  0.0549 -0.0601
   96MPD2    C5 1468   1.880   3.172  15.853  0.2703 -0.2200  0.3297
   96MPD2     H 1469   2.009   3.467  16.040  0.4242 -0.7073 -0.5492
   96MPD2    H1 1470   1.766   3.117  16.026 -0.9832  1.6807  1.4529
   96MPD2    H2 1471   1.994   3.232  15.678 -0.7847 -0.3754 -0.7530
   96MPD2    H3 1472   1.840   3.089  15.796 -0.6624  1.4924 -1.5167
   96MPD2     N 1473   1.843   3.313  16.192 -0.1014 -0.2952  0.2118
   96MPD2    H5 1474   1.791   3.232  16.225 -1.3043  0.4944  0.2374
   96MPD2    N1 1475   2.092   3.447  15.774  0.2550 -0.0534 -0.4413
   96MPD2    H7 1476   2.136   3.415  15.688 -1.3483  0.0145 -1.2928
   97MPD2     C 1477   4.486   0.286   1.661 -0.2389  0.7374  0.2310
   97MPD2    C1 1478   4.427   0.404   1.612  0.7046 -0.0928  0.0322
   97MPD2    C2 1479   4.411   0.417   1.473 -0.1266  0.1403  0.5207
   97MPD2    C3 1480   4.443   0.311   1.394  0.2297 -0.4778 -0.2389
   97MPD2    C4 1481   4.487   0.191   1.446  0.0748 -0.9491 -0.8615
   97MPD2    C5 1482   4.513   0.184   1.581 -0.5220 -0.5080  0.2795
   97MPD2     H 1483   4.361   0.506   1.436 -1.0307  1.0163  3.8230
   97MPD2    H1 1484   4.503   0.099   1.391  4.2038  0.4142 -1.8790
   97MPD2    H2 1485   4.503   0.264   1.766  0.1238 -0.5137 -0.0875
   97MPD2    H3 1486   4.540   0.088   1.624  1.0893 -0.8366 -1.4527
   97MPD2     N 1487   4.442   0.313   1.258 -0.7728 -0.4744 -0.1440
   97MPD2    H5 1488   4.469   0.228   1.210  0.8951 -1.9365  3.4183
   97MPD2    N1 1489   4.414   0.500   1.706  0.0743  0.4567  0.3084
   97MPD2    H7 1490   4.450   0.485   1.799  1.1658  0.0667 -0.1759
   98TCq2    C1 1491   4.409   0.423   1.181  0.5343 -0.7868  0.5195
   98TCq2    O2 1492   4.359   0.534   1.207 -0.0515  0.3252 -0.4311
   98TCq2    C2 1493   4.399   0.390   1.038  0.7800  0.4346 -0.8602
   98TCq2    C3 1494   4.327   0.283   0.995 -0.6331 -0.4540 -0.0468
   98TCq2    C4 1495   4.265   0.285   0.871 -0.3961 -0.0396 -0.7899
   98TCq2    C5 1496   4.266   0.396   0.786  0.2376  0.3181 -0.0733
   98TCq2    C6 1497   4.331   0.507   0.845 -0.0244 -0.4970 -0.1030
   98TCq2    C7 1498   4.397   0.505   0.965 -0.2123 -0.2853  0.0988
   98TCq2    C8 1499   4.374   0.616   0.767 -0.4204  0.0178  0.1168
   98TCq2    O4 1500   4.480   0.665   0.800  0.0720 -0.8081 -0.3695
   98TCq2    C9 1501   4.227   0.162   0.812  0.8412 -0.8388 -0.5962
   98TCq2    O5 1502   4.264   0.060   0.878 -0.5282 -0.1098  0.0197
   98TCq2    O6 1503   4.151   0.167   0.712  0.5952 -0.2113  0.5986
   98TCq2    H2 1504   4.323   0.199   1.064  0.4233 -0.1779  0.3634
   98TCq2    H3 1505   4.221   0.401   0.687  0.9928 -1.8806 -0.5337
   98TCq2    H4 1506   4.441   0.594   1.008 -0.3751  1.1826 -2.7874
   99MPD2     C 1507   3.204   2.612   2.089  0.4803  0.1277  0.2101
   99MPD2    C1 1508   3.069   2.657   2.089 -0.2657 -0.0592  0.0731
   99MPD2    C2 1509   2.991   2.619   1.971 -0.1569 -0.0831  0.0528
   99MPD2    C3 1510   3.043   2.540   1.869  0.0577 -0.2589 -0.1039
   99MPD2    C4 1511   3.179   2.506   1.875 -0.0293  0.1171  0.0495
   99MPD2    C5 1512   3.259   2.537   1.985 -0.0749  0.1541  0.3013
   99MPD2     H 1513   2.886   2.646   1.970  0.2147  1.3856  1.4344
   99MPD2    H1 1514   3.227   2.444   1.800 -0.0765 -0.8280  0.7860
   99MPD2    H2 1515   3.275   2.645   2.163 -1.0744  2.9435  0.4625
   99MPD2    H3 1516   3.362   2.505   1.992 -0.2105 -0.4369 -0.4142
   99MPD2     N 1517   2.971   2.511   1.755 -0.5145 -0.2962 -0.1357
   99MPD2    H5 1518   2.876   2.543   1.743  0.0634  1.7570  0.8389
   99MPD2    N1 1519   3.016   2.756   2.178  0.2228 -0.4320  0.0875
   99MPD2    H7 1520   2.929   2.798   2.145 -0.6502 -2.5911 -0.3689
  100TCq2    C1 1521   3.094   2.831   2.265 -1.2367 -0.4893  0.1141
  100TCq2    O2 1522   3.216   2.824   2.285 -0.0315 -0.1000 -0.0928
  100TCq2    C2 1523   3.024   2.930   2.341 -0.4354 -0.6454 -0.2514
  100TCq2    C3 1524   3.095   3.015   2.422 -0.7172 -0.2724  0.1862
  100TCq2    C4 1525   3.023   3.097   2.507 -0.0343 -0.3495 -0.0195
  100TCq2    C5 1526   2.889   3.099   2.505  0.4182  0.6878 -0.6291
  100TCq2    C6 1527   2.823   3.024   2.416 -0.7854 -0.6921 -0.2566
  100TCq2    C7 1528   2.885   2.929   2.338  0.4093  0.1406 -0.4276
  100TCq2    C8 1529   2.682   3.050   2.403 -0.1233  0.6990  0.5565
  100TCq2    O4 1530   2.625   3.140   2.470  0.6781 -0.3910  0.5249
  100TCq2    C9 1531   3.088   3.180   2.597  0.4723  0.4762 -0.5001
  100TCq2    O5 1532   3.213   3.187   2.604 -0.0096 -0.0407 -0.4154
  100TCq2    O6 1533   3.013   3.238   2.686 -0.3154 -0.2685 -0.0172
  100TCq2    H2 1534   3.203   3.012   2.424 -0.6848  0.8638  0.0812
  100TCq2    H3 1535   2.845   3.181   2.560 -2.6003 -0.4875 -1.2871
  100TCq2    H4 1536   2.835   2.856   2.276 -1.4941  1.3219 -0.2639
  101MPD2     C 1537   3.194   4.120  12.762 -0.3077  0.3052  0.3778
  101MPD2    C1 1538   3.310   4.129  12.829  0.3670  0.1810 -0.7483
  101MPD2    C2 1539   3.317   4.080  12.958  0.0040  0.0337 -0.2855
  101MPD2    C3 1540   3.208   4.017  13.017 -0.8081  0.2759 -0.1896
  101MPD2    C4 1541   3.093   4.019  12.953  0.0265 -0.1877 -0.1693
  101MPD2    C5 1542   3.080   4.064  12.822  0.7275 -0.4026  0.2167
  101MPD2     H 1543   3.407   4.090  13.017 -0.8846 -1.8915  1.4080
  101MPD2    H1 1544   3.013   3.961  12.998 -0.6967 -0.7541 -2.1499
  101MPD2    H2 1545   3.191   4.164  12.663  0.8587  0.0633  0.2350
  101MPD2    H3 1546   2.992   4.055  12.759 -1.8938  1.7545  3.5278
  101MPD2     N 1547   3.216   3.944  13.136  0.1283  0.2019  0.0986
  101MPD2    H5 1548   3.132   3.898  13.169  0.6859  0.7294  2.2341
  101MPD2    N1 1549   3.421   4.180  12.755 -0.3650  0.2639  0.3834
  101MPD2    H7 1550   3.398   4.222  12.665  0.2355  0.0756  0.1464
  102TCq2    C1 1551   3.993   4.216  12.630  0.1101 -0.5580 -0.3800
  102TCq2    O2 1552   4.054   4.277  12.545 -0.0440 -0.0974 -0.0789
  102TCq2    C2 1553   3.856   4.182  12.612  0.0841 -0.1315 -0.1458
  102TCq2    C3 1554   3.811   4.213  12.483 -0.2506 -0.3589 -0.3075
  102TCq2    C4 1555   3.677   4.240  12.461 -0.2559 -0.1119  0.3095
  102TCq2    C5 1556   3.596   4.249  12.573  0.1441 -0.1535 -0.8713
  102TCq2    C6 1557   3.645   4.221  12.700 -0.2661  0.3770 -0.0348
  102TCq2    C7 1558   3.771   4.175  12.715  0.3752  0.7833  0.3477
  102TCq2    C8 1559   3.550   4.182  12.803  0.1621  0.0990 -0.3883
  102TCq2    O4 1560   3.594   4.124  12.898 -0.3050 -0.2930  0.1980
  102TCq2    C9 1561   3.635   4.275  12.326  1.0835  0.1734  0.4118
  102TCq2    O5 1562   3.511   4.311  12.323  0.5179 -0.0144 -0.4510
  102TCq2    O6 1563   3.731   4.307  12.251 -0.1761  0.1818 -0.7396
  102TCq2    H2 1564   3.883   4.209  12.402  2.6297 -1.1094  2.2770
  102TCq2    H3 1565   3.493   4.274  12.550  0.8555  1.7479 -1.9993
  102TCq2    H4 1566   3.803   4.155  12.817  0.3236 -0.7198  0.0692
  103TMC2    C1 1567   2.066   3.812  12.335 -0.2895  0.6250  0.0429
  103TMC2    C2 1568   2.082   3.681  12.371  0.2830  0.6078  0.0133
  103TMC2    C3 1569   2.116   3.648  12.496  0.0631  0.5498  0.6568
  103TMC2    C4 1570   2.105   3.911  12.414  0.3317  0.0792 -1.0826
  103TMC2    C5 1571   2.142   3.877  12.544  0.4050 -0.0765 -0.6055
  103TMC2    C6 1572   2.136   3.745  12.591  0.3484 -0.5366 -0.1629
  103TMC2     C 1573   1.951   3.849  12.260  0.0344  0.3845  0.0840
  103TMC2     O 1574   1.938   3.961  12.211  0.0305 -0.2957  0.0137
  103TMC2     H 1575   2.067   3.605  12.295 -3.2765 -1.4027  2.7464
  103TMC2    H1 1576   2.082   4.011  12.379  1.3200  0.9327  0.7021
  103TMC2    H2 1577   2.181   3.712  12.684  0.2594  0.0654  0.0946
  103TMC2    C7 1578   2.145   3.986  12.635  0.9800  0.8149  0.2236
  103TMC2    C8 1579   2.146   3.508  12.532  0.0980 -0.1355 -0.1858
  103TMC2    O1 1580   2.125   3.949  12.752 -0.6839 -0.0232  0.1459
  103TMC2    O2 1581   2.260   3.495  12.570 -0.4122  0.3459  0.0036
  103TMC2    O5 1582   2.094   3.436  12.428 -0.1296 -0.0628 -0.1344
  103TMC2    H5 1583   1.997   3.445  12.428 -0.2505 -1.3487 -1.0654
  104MPD2     C 1584   1.612   3.689  12.230  0.2515  0.7967 -0.0451
  104MPD2    C1 1585   1.718   3.771  12.201  0.3160  0.1587 -0.5931
  104MPD2    C2 1586   1.699   3.856  12.095 -0.9354  0.0767  0.3416
  104MPD2    C3 1587   1.586   3.853  12.023  1.0505 -1.2053 -0.8892
  104MPD2    C4 1588   1.482   3.769  12.056 -1.1548 -0.5630 -0.6565
  104MPD2    C5 1589   1.496   3.695  12.167  0.1423  0.3228 -0.2297
  104MPD2     H 1590   1.784   3.915  12.060  0.1370 -2.1129 -0.7414
  104MPD2    H1 1591   1.387   3.768  12.005 -2.0014 -2.3781  0.9404
  104MPD2    H2 1592   1.616   3.625  12.318 -1.7674  2.1517  1.0289
  104MPD2    H3 1593   1.415   3.636  12.208 -1.3452  1.5149 -1.4180
  104MPD2     N 1594   1.587   3.935  11.911 -0.4640 -0.1484 -0.2684
  104MPD2    H5 1595   1.673   3.979  11.882  1.0712 -2.2314  1.0877
  104MPD2    N1 1596   1.847   3.758  12.268 -0.2983  0.1846 -0.1985
  104MPD2    H7 1597   1.867   3.681  12.330 -2.0704 -0.1823 -0.0764
  105MPD2     C 1598   3.647   2.919   0.447 -0.0072 -0.8665 -0.1677
  105MPD2    C1 1599   3.514   2.940   0.430  0.1655  0.3785  0.1947
  105MPD2    C2 1600   3.428   2.919   0.533 -0.6752  0.7457  0.7113
  105MPD2    C3 1601   3.469   2.873   0.657 -0.0209  0.4115  0.7675
  105MPD2    C4 1602   3.604   2.852   0.672  0.5175  0.3349 -0.1282
  105MPD2    C5 1603   3.682   2.861   0.560  0.1197 -0.5016  0.6939
  105MPD2     H 1604   3.325   2.946   0.514 -0.9285  0.2200  1.3519
  105MPD2    H1 1605   3.645   2.815   0.765 -1.6066 -3.5521 -0.7367
  105MPD2    H2 1606   3.722   2.935   0.370  1.1458  1.1612  1.3642
  105MPD2    H3 1607   3.790   2.851   0.562  0.4051  2.0504 -1.4574
  105MPD2     N 1608   3.381   2.842   0.758 -0.1386 -0.0462  0.2501
  105MPD2    H5 1609   3.283   2.844   0.731 -0.2824  1.7246  0.9060
  105MPD2    N1 1610   3.460   3.021   0.323 -0.2628  0.0128 -0.7255
  105MPD2    H7 1611   3.364   3.054   0.330  0.0977  0.6681  1.1733
  106TCq2    C1 1612   3.408   2.816   0.885 -1.0336  0.9045 -0.4239
  106TCq2    O2 1613   3.518   2.822   0.938  0.1022 -0.3057  0.4677
  106TCq2    C2 1614   3.291   2.793   0.965  0.1998  0.0939  0.1280
  106TCq2    C3 1615   3.171   2.778   0.899  0.1043  0.6342  0.5152
  106TCq2    C4 1616   3.058   2.755   0.978  0.3100 -0.7005  0.0020
  106TCq2    C5 1617   3.065   2.755   1.113  0.5848 -0.6584 -0.1388
  106TCq2    C6 1618   3.184   2.757   1.175 -0.5416 -0.7464  0.2148
  106TCq2    C7 1619   3.298   2.779   1.101 -0.6641 -0.3097 -0.2278
  106TCq2    C8 1620   3.194   2.737   1.318  0.2720 -0.6124 -0.6532
  106TCq2    O4 1621   3.299   2.687   1.353 -0.0415  0.3309  0.2201
  106TCq2    C9 1622   2.935   2.720   0.908  0.0991 -0.8277 -0.5089
  106TCq2    O5 1623   2.838   2.713   0.980 -0.3003 -0.4855 -0.1534
  106TCq2    O6 1624   2.931   2.721   0.784  0.0470  0.1300  0.7609
  106TCq2    H2 1625   3.169   2.760   0.793  0.0051  1.7917  0.3190
  106TCq2    H3 1626   2.977   2.734   1.173  0.4898  1.7395  0.5544
  106TCq2    H4 1627   3.391   2.794   1.154  0.3131 -0.0375 -2.0360
  107TMC2    C1 1628   3.858   2.368  11.788  0.4381  0.2131 -0.0833
  107TMC2    C2 1629   3.928   2.469  11.732  0.1846 -0.3116 -0.1704
  107TMC2    C3 1630   3.975   2.442  11.611  0.7978 -0.3457  0.5784
  107TMC2    C4 1631   3.821   2.252  11.721  0.2863 -0.2967 -1.1461
  107TMC2    C5 1632   3.881   2.225  11.602  0.0907  0.5975 -0.5734
  107TMC2    C6 1633   3.952   2.327  11.536  0.6734 -0.2706  0.8039
  107TMC2     C 1634   3.803   2.382  11.917 -0.0329  0.7363  0.1957
  107TMC2     O 1635   3.791   2.279  11.985 -0.3246 -0.1835 -0.5269
  107TMC2     H 1636   3.968   2.554  11.786  1.1280 -1.6111  1.1672
  107TMC2    H1 1637   3.755   2.178  11.764  0.4701  0.3317  0.2257
  107TMC2    H2 1638   3.996   2.318  11.438  2.4892 -3.3042  1.9069
  107TMC2    C7 1639   3.844   2.104  11.530 -0.4379  0.2427 -0.4287
  107TMC2    C8 1640   4.045   2.559  11.548  0.1716 -0.0427  0.0200
  107TMC2    O1 1641   3.760   2.035  11.579 -0.1982  0.0262 -0.1665
  107TMC2    O2 1642   4.018   2.672  11.586 -0.1730 -0.0537 -0.1928
  107TMC2    O5 1643   4.162   2.512  11.505 -0.3265  0.1461  0.4866
  107TMC2    H5 1644   4.169   2.414  11.515  0.9545  0.1273 -0.5073
  108MPD2     C 1645   3.596   2.668  12.026  0.2560  0.0049  0.1546
  108MPD2    C1 1646   3.669   2.557  12.048  0.1586  0.0824  0.2153
  108MPD2    C2 1647   3.663   2.491  12.165  0.0654  0.1025 -0.7247
  108MPD2    C3 1648   3.568   2.528  12.254 -0.1725 -0.4528 -0.5811
  108MPD2    C4 1649   3.486   2.638  12.224 -0.6166  0.0146 -0.0652
  108MPD2    C5 1650   3.505   2.710  12.111 -0.4553  0.5137 -0.2114
  108MPD2     H 1651   3.719   2.398  12.175 -0.7499 -0.4613 -1.3617
  108MPD2    H1 1652   3.410   2.675  12.292 -0.3946  0.9392 -0.3282
  108MPD2    H2 1653   3.598   2.723  11.933  0.1464 -0.5458 -0.1711
  108MPD2    H3 1654   3.443   2.797  12.092  1.0967  1.5902 -0.4118
  108MPD2     N 1655   3.541   2.461  12.373 -0.2914 -0.2946 -0.6121
  108MPD2    H5 1656   3.452   2.486  12.414  0.3350 -0.7954  1.0834
  108MPD2    N1 1657   3.755   2.513  11.942 -0.3809 -0.1989 -0.3468
  108MPD2    H7 1658   3.767   2.577  11.864  1.5918 -0.0229  0.1133
  109MPD2     C 1659   0.196   4.587   2.619 -1.1803 -0.0112  0.5072
  109MPD2    C1 1660   0.178   4.649   2.494  0.0239 -0.6311 -0.4817
  109MPD2    C2 1661   0.245   0.048   2.460 -0.0846  0.5235  0.2482
  109MPD2    C3 1662   0.319   0.110   2.563 -0.7167  0.2604  0.2056
  109MPD2    C4 1663   0.341   0.044   2.676 -0.6567  0.2530 -0.5221
  109MPD2    C5 1664   0.287   4.646   2.705  0.2725  0.2913 -0.6091
  109MPD2     H 1665   0.211   0.111   2.379 -0.9015 -0.1989  0.0315
  109MPD2    H1 1666   0.395   0.098   2.753  0.9784 -1.4546 -0.4569
  109MPD2    H2 1667   0.153   4.498   2.661  0.6401 -0.6369  1.0217
  109MPD2    H3 1668   0.304   4.606   2.804 -0.8619  0.0462 -0.5172
  109MPD2     N 1669   0.379   0.233   2.536 -0.1141 -0.0413  0.1632
  109MPD2    H5 1670   0.352   0.279   2.450 -1.2773 -0.8461  0.0971
  109MPD2    N1 1671   0.084   4.577   2.415 -0.0616  0.1611 -0.1437
  109MPD2    H7 1672   0.020   4.514   2.462 -0.9727  0.1424 -1.4154
  110TCq2    C1 1673   0.465   0.306   2.618  0.0067  0.0529 -0.0250
  110TCq2    O2 1674   0.542   0.267   2.702 -0.1583 -0.2303  0.5526
  110TCq2    C2 1675   0.500   0.434   2.556 -0.0398  0.3177  0.0460
  110TCq2    C3 1676   0.626   0.466   2.542 -0.9873 -0.7690 -0.4801
  110TCq2    C4 1677   0.661   0.562   2.449 -0.0329  0.0118 -0.7543
  110TCq2    C5 1678   0.560   0.630   2.385  0.7232 -0.3153 -0.0740
  110TCq2    C6 1679   0.431   0.601   2.406  0.0807  0.1741  0.6968
  110TCq2    C7 1680   0.398   0.489   2.478  0.2374 -0.5482  0.1709
  110TCq2    C8 1681   0.325   0.661   2.337  0.2854  0.1021 -0.0483
  110TCq2    O4 1682   0.228   0.591   2.313 -0.4478 -0.7382 -0.1020
  110TCq2    C9 1683   0.801   0.592   2.425  0.3672  0.5241  0.2404
  110TCq2    O5 1684   0.838   0.646   2.320 -0.2201  0.5746 -0.3132
  110TCq2    O6 1685   0.879   0.537   2.509 -0.1954 -0.1085 -0.7550
  110TCq2    H2 1686   0.709   0.409   2.581 -0.3824 -0.4324 -1.2708
  110TCq2    H3 1687   0.589   0.707   2.315 -0.4143  1.0700  0.9754
  110TCq2    H4 1688   0.294   0.469   2.498 -0.1988  3.0011  1.5846
  111TMC2    C1 1689   4.565   4.626  11.433 -0.2240 -0.9645 -0.8413
  111TMC2    C2 1690   4.631   4.613  11.313 -0.6386  0.1532  0.1193
  111TMC2    C3 1691   0.035   4.560  11.315  0.2906  0.5795  0.9753
  111TMC2    C4 1692   4.616   4.584  11.552  0.2407 -0.0506  0.7220
  111TMC2    C5 1693   0.026   4.535  11.550  0.4811 -0.3824 -0.1312
  111TMC2    C6 1694   0.094   4.523  11.434 -0.4725  0.5881  0.2574
  111TMC2     C 1695   4.438   4.693  11.436  0.1349  0.1907 -0.0463
  111TMC2     O 1696   4.402   0.033  11.535  0.2647 -0.1050 -0.1945
  111TMC2     H 1697   4.590   4.645  11.218 -0.9884  0.6162  0.4287
  111TMC2    H1 1698   4.550   4.586  11.639 -0.5470 -3.7357  0.2074
  111TMC2    H2 1699   0.184   4.464  11.430 -0.5286  0.7377 -3.0683
  111TMC2    C7 1700   0.066   4.480  11.682  0.0206  0.1711  0.0257
  111TMC2    C8 1701   0.101   4.536  11.182 -0.3459 -0.2001  0.1469
  111TMC2    O1 1702   4.695   4.453  11.763  0.8660  0.1276 -0.2868
  111TMC2    O2 1703   0.041   4.560  11.081 -0.5048  0.0271 -0.0833
  111TMC2    O5 1704   0.207   4.462  11.194 -0.4365  0.3176 -0.1788
  111TMC2    H5 1705   0.266   4.501  11.263  0.9491 -1.1276 -0.5541
  112MPD2     C 1706   3.973   0.075  11.247  0.5343  0.7767 -0.1224
  112MPD2    C1 1707   4.046   0.026  11.148  0.0591  0.4684  0.2125
  112MPD2    C2 1708   4.174   4.706  11.178 -0.2966  0.3036 -0.7669
  112MPD2    C3 1709   4.230   4.711  11.306 -0.2601 -0.4488  0.7402
  112MPD2    C4 1710   4.160   0.058  11.400  0.5248  1.2715 -0.1482
  112MPD2    C5 1711   4.035   0.094  11.367 -0.0598 -0.5728 -0.3153
  112MPD2     H 1712   4.240   4.674  11.098  1.2153 -0.1621  0.6892
  112MPD2    H1 1713   4.183   0.077  11.505  0.7699  1.4816 -0.2398
  112MPD2    H2 1714   3.871   0.108  11.240  0.8353  1.3502 -1.8579
  112MPD2    H3 1715   3.971   0.124  11.450  1.0654 -0.1218  0.3817
  112MPD2     N 1716   4.366   4.672  11.323 -0.1850 -0.0714 -0.6507
  112MPD2    H5 1717   4.410   4.617  11.249  1.8416 -0.1226  0.6020
  112MPD2    N1 1718   4.001   0.012  11.016 -0.7737  0.0546 -0.1572
  112MPD2    H7 1719   4.074   4.693  10.955  0.2593 -0.5610  1.4504
  113MPD2     C 1720   2.329   2.964   1.429 -0.3864 -0.2693 -0.0585
  113MPD2    C1 1721   2.205   3.009   1.457  0.3738  0.9652  0.0560
  113MPD2    C2 1722   2.103   2.941   1.399 -0.4210 -0.1156  0.2752
  113MPD2    C3 1723   2.118   2.831   1.318  0.7412  0.2302 -0.7744
  113MPD2    C4 1724   2.241   2.793   1.282 -0.5277  0.1517 -0.1551
  113MPD2    C5 1725   2.354   2.857   1.345  0.0005  0.5918  0.0170
  113MPD2     H 1726   2.001   2.965   1.429 -0.4894 -0.1907  0.1014
  113MPD2    H1 1727   2.256   2.708   1.217  1.6499  1.0462 -0.8340
  113MPD2    H2 1728   2.422   2.991   1.479  0.9391 -0.2252 -2.5265
  113MPD2    H3 1729   2.451   2.814   1.323  0.6788  1.2407  1.7455
  113MPD2     N 1730   2.003   2.756   1.275  0.4254 -0.7432 -0.0869
  113MPD2    H5 1731   2.013   2.661   1.240  0.5747 -0.7199 -0.1102
  113MPD2    N1 1732   2.178   3.092   1.566 -0.4348  0.4213 -0.0977
  113MPD2    H7 1733   2.080   3.105   1.590 -0.3827  0.4455  0.0997
  114TCq2    C1 1734   1.872   2.803   1.283  0.2894  0.8209  0.5576
  114TCq2    O2 1735   1.824   2.914   1.292 -0.2667 -0.0036 -0.4953
  114TCq2    C2 1736   1.778   2.695   1.245  0.2009 -0.6172 -0.6982
  114TCq2    C3 1737   1.672   2.728   1.168 -0.0557  0.5172 -0.1064
  114TCq2    C4 1738   1.576   2.633   1.140  0.3175  0.3815 -0.2664
  114TCq2    C5 1739   1.583   2.510   1.202  0.2201 -0.1043 -0.2131
  114TCq2    C6 1740   1.706   2.476   1.270 -0.2032 -0.7488 -0.5313
  114TCq2    C7 1741   1.803   2.571   1.304  0.2490  0.7295  0.2489
  114TCq2    C8 1742   1.729   2.341   1.309 -0.2789  0.5980  0.8595
  114TCq2    O4 1743   1.815   2.324   1.396  0.5286 -0.6812 -0.1774
  114TCq2    C9 1744   1.475   2.666   1.049 -0.1372  0.2326 -0.0120
  114TCq2    O5 1745   1.387   2.588   1.019  0.3771  0.0864 -0.5364
  114TCq2    O6 1746   1.491   2.782   0.995 -0.3305  0.2091  0.0187
  114TCq2    H2 1747   1.661   2.823   1.118 -1.4895  0.3513 -0.1181
  114TCq2    H3 1748   1.513   2.440   1.158 -1.1332  0.2216  1.4173
  114TCq2    H4 1749   1.888   2.548   1.367  1.4751 -0.1049 -1.7015
  115TMC2    C1 1750   2.845   1.082   0.559  0.2592  0.5466  0.2687
  115TMC2    C2 1751   2.744   1.157   0.517 -0.0051  0.4395  0.4018
  115TMC2    C3 1752   2.761   1.295   0.511  0.7180  0.2148 -0.1279
  115TMC2    C4 1753   2.966   1.131   0.610  0.6169  0.1175  0.4810
  115TMC2    C5 1754   2.974   1.268   0.600 -0.2989 -0.9072 -0.4613
  115TMC2    C6 1755   2.879   1.351   0.550  1.1066 -0.2304 -0.1364
  115TMC2     C 1756   2.818   0.938   0.562  0.4455  0.0282  0.4285
  115TMC2     O 1757   2.717   0.906   0.503  0.2136  0.3999  0.1150
  115TMC2     H 1758   2.648   1.115   0.488  0.6254 -0.8243  0.1523
  115TMC2    H1 1759   3.053   1.068   0.619  1.6479  1.3973 -0.6408
  115TMC2    H2 1760   2.892   1.459   0.548  0.4339 -0.1645 -0.8536
  115TMC2    C7 1761   3.110   1.305   0.564  0.1858  0.7990 -0.3530
  115TMC2    C8 1762   2.676   1.375   0.419 -0.2119  0.4533 -0.2120
  115TMC2    O1 1763   3.199   1.289   0.648  0.6682 -0.2692  0.5251
  115TMC2    O2 1764   2.610   1.322   0.326 -0.2211 -0.5032 -0.2972
  115TMC2    O5 1765   2.678   1.503   0.453  0.0756 -0.0531  0.0649
  115TMC2    H5 1766   2.704   1.503   0.547 -1.1027 -3.1682  0.3832
  116MPD2     C 1767   2.874   0.449   0.696 -0.0261 -0.7219 -0.3580
  116MPD2    C1 1768   2.792   0.505   0.597  0.0784  0.6079  0.1088
  116MPD2    C2 1769   2.816   0.637   0.571  0.2682  1.0927 -0.0606
  116MPD2    C3 1770   2.905   0.715   0.645  0.4351 -1.3637  0.9780
  116MPD2    C4 1771   2.991   0.653   0.735  0.5040  0.5889 -0.2326
  116MPD2    C5 1772   2.969   0.522   0.766  0.1027 -0.4229  0.2528
  116MPD2     H 1773   2.748   0.691   0.506 -0.4047  1.2547  0.7920
  116MPD2    H1 1774   3.061   0.705   0.798  1.0297  1.8164 -1.8447
  116MPD2    H2 1775   2.879   0.346   0.730  1.2962 -0.0743  1.4621
  116MPD2    H3 1776   3.031   0.475   0.841  0.4180  0.0345  0.2863
  116MPD2     N 1777   2.910   0.860   0.635  0.0915 -0.7195 -0.4834
  116MPD2    H5 1778   2.977   0.909   0.693  0.6024  0.3884 -2.0231
  116MPD2    N1 1779   2.695   0.418   0.535 -0.2727 -0.4232 -0.0734
  116MPD2    H7 1780   2.695   0.325   0.575  0.0438  0.4920  2.0354
  117TMC2    C1 1781   1.324   1.961  14.265 -0.3929  0.1688 -0.1021
  117TMC2    C2 1782   1.388   1.909  14.370 -0.4494 -0.5044 -0.8034
  117TMC2    C3 1783   1.517   1.939  14.390  0.7638  0.4829 -0.4888
  117TMC2    C4 1784   1.382   2.014  14.156 -0.4849 -0.1633 -0.3381
  117TMC2    C5 1785   1.513   2.038  14.177 -0.1481 -0.1095  0.4360
  117TMC2    C6 1786   1.580   2.006  14.293 -0.2601 -0.4483  0.4106
  117TMC2     C 1787   1.180   1.952  14.268  0.2019 -0.3410  0.4638
  117TMC2     O 1788   1.121   1.880  14.350 -0.0227 -0.2522 -0.5514
  117TMC2     H 1789   1.338   1.879  14.462  0.1902  0.4092 -0.1594
  117TMC2    H1 1790   1.328   2.031  14.064 -0.0496 -1.0206 -0.7554
  117TMC2    H2 1791   1.687   2.022  14.301 -0.4642  0.5721  1.1430
  117TMC2    C7 1792   1.601   2.071  14.067 -0.8566 -0.5293  0.4869
  117TMC2    C8 1793   1.546   1.972  14.529 -0.8493  0.2524 -0.5583
  117TMC2    O1 1794   1.718   2.044  14.077  0.5659 -0.4422 -0.4969
  117TMC2    O2 1795   1.466   2.034  14.598  0.2494 -0.2094  0.2092
  117TMC2    O5 1796   1.685   1.993  14.534  0.1503 -0.7863  0.1464
  117TMC2    H5 1797   1.732   1.943  14.465 -0.5069 -1.2706  0.0471
  118MPD2     C 1798   1.507   2.151  13.725  0.1531  1.0230  0.0168
  118MPD2    C1 1799   1.588   2.153  13.837 -0.2903  0.5062  0.0126
  118MPD2    C2 1800   1.717   2.183  13.822  0.2719  0.5499 -0.0722
  118MPD2    C3 1801   1.773   2.192  13.695  0.1179  0.7568  0.0336
  118MPD2    C4 1802   1.700   2.175  13.585  0.0674 -0.5366 -0.1939
  118MPD2    C5 1803   1.563   2.159  13.599 -0.4510  0.6116  0.4244
  118MPD2     H 1804   1.778   2.191  13.912 -0.1265 -0.1710  0.2648
  118MPD2    H1 1805   1.748   2.194  13.490  0.2278  1.9612  0.4050
  118MPD2    H2 1806   1.400   2.140  13.723  0.1560  1.5021 -2.3762
  118MPD2    H3 1807   1.506   2.160  13.507 -0.9617 -1.2447  0.7202
  118MPD2     N 1808   1.911   2.222  13.670  0.4772  0.1439  0.4121
  118MPD2    H5 1809   1.940   2.229  13.573  0.3155  2.0248  0.4881
  118MPD2    N1 1810   1.531   2.102  13.956  0.0441  0.4025 -0.0116
  118MPD2    H7 1811   1.432   2.116  13.967 -0.2158 -1.5771  0.2689
  119MPD2     C 1812   4.162   3.691  13.775  0.3517  0.9360 -0.7867
  119MPD2    C1 1813   4.162   3.554  13.758 -0.7570  0.3906  0.6150
  119MPD2    C2 1814   4.131   3.501  13.634 -0.2314  0.1875 -0.3932
  119MPD2    C3 1815   4.098   3.591  13.528 -0.3719  0.3695 -0.0033
  119MPD2    C4 1816   4.110   3.722  13.549  0.7101 -0.1396  0.0040
  119MPD2    C5 1817   4.141   3.777  13.671  0.6129 -0.2423  0.0546
  119MPD2     H 1818   4.134   3.394  13.619  1.8690  0.1230  0.3792
  119MPD2    H1 1819   4.091   3.786  13.463 -2.5946  0.9275  1.5270
  119MPD2    H2 1820   4.179   3.738  13.871 -1.9234 -0.4255  0.2727
  119MPD2    H3 1821   4.142   3.885  13.685 -0.5858 -0.0918 -1.0535
  119MPD2     N 1822   4.048   3.545  13.404 -0.1410 -0.2261 -0.6100
  119MPD2    H5 1823   4.024   3.612  13.332  3.4002  0.0555 -1.5547
  119MPD2    N1 1824   4.186   3.467  13.864 -0.0199  0.2858 -1.0254
  119MPD2    H7 1825   4.183   3.505  13.958 -2.5229  1.2164 -1.4639
  120TCq2    C1 1826   4.064   3.410  13.367 -0.3282 -0.6799  0.2589
  120TCq2    O2 1827   4.114   3.311  13.416  0.4524  0.3989 -0.5076
  120TCq2    C2 1828   3.985   3.379  13.255 -0.8055 -0.4511 -0.0737
  120TCq2    C3 1829   3.980   3.463  13.139  0.4729  0.1825  0.1071
  120TCq2    C4 1830   3.880   3.434  13.052  0.1973 -0.7096  0.1160
  120TCq2    C5 1831   3.772   3.354  13.088  0.7164  0.1989 -0.5506
  120TCq2    C6 1832   3.780   3.274  13.207  0.2741 -0.1844  0.5766
  120TCq2    C7 1833   3.888   3.286  13.286  0.5390 -0.1615  0.0831
  120TCq2    C8 1834   3.688   3.165  13.229  0.2358  0.3223 -0.1204
  120TCq2    O4 1835   3.599   3.163  13.152  0.4337 -0.0121 -0.4394
  120TCq2    C9 1836   3.880   3.491  12.923  0.2871 -0.3338  0.9103
  120TCq2    O5 1837   3.804   3.434  12.846  0.2997 -0.2066  0.1826
  120TCq2    O6 1838   3.960   3.585  12.895  0.2315 -0.4916 -0.5659
  120TCq2    H2 1839   4.065   3.525  13.115  0.5242  0.6374  1.4271
  120TCq2    H3 1840   3.689   3.340  13.020  0.6558 -2.8247  0.1457
  120TCq2    H4 1841   3.905   3.235  13.380 -0.0074 -1.2385 -0.4049
  121TMC2    C1 1842   0.735   0.523  13.800  0.3215 -0.2678 -0.3112
  121TMC2    C2 1843   0.855   0.455  13.779  0.5908 -0.6273 -0.1095
  121TMC2    C3 1844   0.868   0.326  13.831  0.1109 -0.6062  1.0497
  121TMC2    C4 1845   0.627   0.458  13.854  0.1097  0.1509 -0.1392
  121TMC2    C5 1846   0.641   0.328  13.896 -0.3720 -0.3789 -0.0818
  121TMC2    C6 1847   0.765   0.268  13.883 -0.6620 -0.3822 -0.3161
  121TMC2     C 1848   0.719   0.653  13.733 -0.2151  0.6915 -0.1879
  121TMC2     O 1849   0.630   0.729  13.773  0.0678 -0.2429  0.4125
  121TMC2     H 1850   0.938   0.505  13.732  0.5265 -1.6603 -1.3225
  121TMC2    H1 1851   0.542   0.523  13.871 -0.8598 -1.0187 -0.5337
  121TMC2    H2 1852   0.775   0.166  13.919 -2.6664  0.2318  2.0005
  121TMC2    C7 1853   0.530   0.237  13.874 -0.1256 -0.4534 -1.7058
  121TMC2    C8 1854   0.996   0.262  13.824  0.0336  0.0533 -0.0803
  121TMC2    O1 1855   0.540   0.116  13.880 -0.5327 -0.0087 -0.4711
  121TMC2    O2 1856   1.065   0.275  13.722  0.4041 -0.5976  0.3810
  121TMC2    O5 1857   1.051   0.270  13.950 -0.2183 -0.0346  0.2383
  121TMC2    H5 1858   0.984   0.290  14.018 -0.0038 -2.4766  1.1746
  122MPD2     C 1859   0.764   0.887  13.577  0.2198 -0.1856 -0.3454
  122MPD2    C1 1860   0.783   0.762  13.529 -0.4495  0.6387  0.2887
  122MPD2    C2 1861   0.799   0.743  13.397  0.5493 -0.4886  0.2605
  122MPD2    C3 1862   0.799   0.850  13.308  0.5383 -0.5320  0.0058
  122MPD2    C4 1863   0.764   0.979  13.361 -0.2764  0.2357  0.2633
  122MPD2    C5 1864   0.745   0.993  13.490  0.6244 -0.3428  0.0057
  122MPD2     H 1865   0.822   0.645  13.357  0.2772 -0.0280 -1.0037
  122MPD2    H1 1866   0.733   1.063  13.299  0.9585 -0.5439 -1.4184
  122MPD2    H2 1867   0.758   0.916  13.682  1.9348  1.1728 -0.6168
  122MPD2    H3 1868   0.716   1.091  13.527  3.1006  0.8232 -1.1345
  122MPD2     N 1869   0.830   0.831  13.170 -0.3151  0.2127 -0.3064
  122MPD2    H5 1870   0.826   0.911  13.108 -1.1004  0.1867 -0.2855
  122MPD2    N1 1871   0.777   0.648  13.608 -0.3800  0.7093  0.7719
  122MPD2    H7 1872   0.812   0.563  13.565  2.2797  0.3860  3.5294
  123MPD2     C 1873   3.543   2.696   9.426 -0.5393  0.1280  0.2346
  123MPD2    C1 1874   3.639   2.730   9.520 -0.2993  0.0356 -0.8577
  123MPD2    C2 1875   3.715   2.838   9.487 -0.1055  0.3778  0.3570
  123MPD2    C3 1876   3.688   2.920   9.383 -0.4644  0.9508  0.0283
  123MPD2    C4 1877   3.585   2.885   9.300 -0.0141  0.2014 -0.2324
  123MPD2    C5 1878   3.514   2.772   9.312  0.3276  0.5456  0.5846
  123MPD2     H 1879   3.789   2.871   9.559 -0.5009 -1.9307  1.8330
  123MPD2    H1 1880   3.553   2.954   9.223 -2.5361  0.8038  1.3472
  123MPD2    H2 1881   3.476   2.612   9.443 -0.2748  0.0521  0.9273
  123MPD2    H3 1882   3.432   2.751   9.244  0.6906  0.3909  0.1919
  123MPD2     N 1883   3.757   3.040   9.368 -1.0315  0.6649 -0.1942
  123MPD2    H5 1884   3.837   3.065   9.425 -2.1870 -0.9534  2.1209
  123MPD2    N1 1885   3.663   2.639   9.625  0.1442 -0.5883  0.1039
  123MPD2    H7 1886   3.588   2.571   9.641 -0.8365  0.4159 -0.2662
  124TCq2    C1 1887   3.724   3.137   9.274  0.3055 -0.0462  0.2205
  124TCq2    O2 1888   3.632   3.149   9.195 -0.3306  0.0447  0.3203
  124TCq2    C2 1889   3.821   3.239   9.265  0.3932 -0.4186  0.3999
  124TCq2    C3 1890   3.797   3.351   9.189  0.2913 -0.1110 -0.0807
  124TCq2    C4 1891   3.863   3.472   9.211  0.1467 -0.1537  0.2844
  124TCq2    C5 1892   3.966   3.488   9.300 -0.0121  0.4291  1.3606
  124TCq2    C6 1893   3.990   3.376   9.372  0.4724 -0.1790 -0.0473
  124TCq2    C7 1894   3.914   3.258   9.359  0.0899  0.1694  0.5514
  124TCq2    C8 1895   4.085   3.374   9.483 -0.0846  0.3051  0.1405
  124TCq2    O4 1896   4.100   3.278   9.555  0.5215  0.0313 -0.2209
  124TCq2    C9 1897   3.825   3.587   9.131  0.4930 -0.1758 -1.2209
  124TCq2    O5 1898   3.714   3.583   9.070 -0.0274 -0.3453  0.1976
  124TCq2    O6 1899   3.892   3.695   9.151 -0.0953  0.2202 -0.2042
  124TCq2    H2 1900   3.724   3.350   9.109 -0.5011  0.9701  0.6138
  124TCq2    H3 1901   4.007   3.587   9.316  0.7202  1.2863 -6.0654
  124TCq2    H4 1902   3.949   3.168   9.409  2.8325  1.1200  0.3682
  125TMC2    C1 1903   0.184   4.173   9.365 -0.2524  0.2395  0.7798
  125TMC2    C2 1904   0.211   4.144   9.231 -0.4474  0.4656  0.3305
  125TMC2    C3 1905   0.344   4.159   9.188  0.2106 -0.5607  0.1038
  125TMC2    C4 1906   0.276   4.223   9.453  0.4947 -0.3714 -0.1362
  125TMC2    C5 1907   0.399   4.253   9.401 -0.1162 -0.5374 -0.5869
  125TMC2    C6 1908   0.437   4.219   9.268  0.4181 -0.1846 -0.4274
  125TMC2     C 1909   0.062   4.124   9.421  1.0411 -0.1250  0.2791
  125TMC2     O 1910   0.007   4.029   9.371 -0.6959  0.2043 -1.1595
  125TMC2     H 1911   0.127   4.110   9.172 -1.4318  2.5453  0.5211
  125TMC2    H1 1912   0.256   4.245   9.558  3.1032 -0.4116  0.3868
  125TMC2    H2 1913   0.534   4.245   9.227  0.0476  1.8062 -0.0568
  125TMC2    C7 1914   0.488   4.324   9.499 -0.3354 -0.5666 -0.2121
  125TMC2    C8 1915   0.384   4.132   9.054 -0.6549 -0.0315 -0.1131
  125TMC2    O1 1916   0.438   4.373   9.601 -0.5186  0.7574 -0.0607
  125TMC2    O2 1917   0.371   4.030   8.991  0.0106 -0.6563 -0.3455
  125TMC2    O5 1918   0.395   4.258   8.995  0.1367 -0.2820 -0.2508
  125TMC2    H5 1919   0.388   4.330   9.061  0.6708 -1.1494  0.7539
  126MPD1     C 1920   4.392   4.146   9.756  0.0774 -1.3813  0.3074
  126MPD1    C1 1921   4.490   4.235   9.807 -0.0813 -0.5200 -0.4152
  126MPD1    C2 1922   4.611   4.239   9.732  0.0040  0.0949 -0.0872
  126MPD1    C3 1923   4.624   4.172   9.612 -0.1023 -0.4949 -0.0930
  126MPD1    C4 1924   4.521   4.087   9.570  0.4673  0.2748 -0.1961
  126MPD1    C5 1925   4.415   4.070   9.650 -0.0619 -0.3460 -1.0582
  126MPD1     H 1926   4.696   4.298   9.766 -0.6103  1.4522 -0.8859
  126MPD1    H1 1927   4.521   4.043   9.471  0.4751  1.4398 -0.7141
  126MPD1    H2 1928   4.305   4.129   9.818 -0.4783 -2.5960 -0.8062
  126MPD1    H3 1929   4.337   4.001   9.621  1.0605 -2.6914  1.5190
  126MPD1     N 1930   0.026   4.186   9.540  0.1845 -0.0461 -0.3798
  126MPD1    H5 1931   0.081   4.268   9.563 -0.0432  0.2104 -0.7351
  126MPD1    N1 1932   4.469   4.290   9.934 -0.2105 -0.2408  0.0558
  126MPD1    H6 1933   4.529   4.367   9.965 -0.6634  0.5011 -0.9122
  126MPD1    H7 1934   4.377   4.331   9.947 -0.0494 -0.2456  1.1505
  127MPD2     C 1935   1.519   3.500   9.419  0.3884  0.1578 -0.3890
  127MPD2    C1 1936   1.529   3.451   9.549 -0.4418  0.0101 -0.4136
  127MPD2    C2 1937   1.631   3.489   9.633  0.1073  0.3371  0.0480
  127MPD2    C3 1938   1.727   3.577   9.583  0.1717 -0.3339 -0.8497
  127MPD2    C4 1939   1.723   3.613   9.451  0.5179 -0.1048  0.4178
  127MPD2    C5 1940   1.622   3.578   9.371  1.3007 -0.2679  0.7065
  127MPD2     H 1941   1.639   3.444   9.731  1.1168 -1.7570 -0.9993
  127MPD2    H1 1942   1.801   3.669   9.401 -0.8984  1.4636 -0.0190
  127MPD2    H2 1943   1.439   3.480   9.349  0.4461 -0.2962 -0.3258
  127MPD2    H3 1944   1.629   3.611   9.268 -1.1881 -0.3452  0.5080
  127MPD2     N 1945   1.827   3.628   9.670  0.5031 -0.6638  0.4015
  127MPD2    H5 1946   1.821   3.601   9.767 -0.4399  0.3050  0.6077
  127MPD2    N1 1947   1.422   3.361   9.579  0.5109  0.1283 -0.5073
  127MPD2    H7 1948   1.349   3.354   9.509  0.8934  0.4806 -0.9410
  128TCq2    C1 1949   1.408   3.294   9.700  0.1063 -0.2325  0.2491
  128TCq2    O2 1950   1.475   3.304   9.802  0.0681 -0.1603  0.2770
  128TCq2    C2 1951   1.296   3.206   9.696 -0.5645 -0.0786 -0.6874
  128TCq2    C3 1952   1.229   3.194   9.817 -0.4834  0.7412  0.5320
  128TCq2    C4 1953   1.136   3.093   9.821  0.2881 -0.7864 -0.3967
  128TCq2    C5 1954   1.108   3.015   9.714 -0.1124 -0.0913 -0.5592
  128TCq2    C6 1955   1.165   3.039   9.591  0.0304 -0.0059 -0.0822
  128TCq2    C7 1956   1.262   3.133   9.585  0.0735  0.0037 -0.8031
  128TCq2    C8 1957   1.122   2.971   9.469  0.0621  0.3426  0.1524
  128TCq2    O4 1958   1.182   3.010   9.368 -0.0518  0.2860 -0.0280
  128TCq2    C9 1959   1.070   3.061   9.954  0.2468  0.3311  0.2743
  128TCq2    O5 1960   1.104   3.123  10.053 -0.1468  0.0855  0.4686
  128TCq2    O6 1961   0.975   2.978   9.947 -0.1937 -0.2491  0.5000
  128TCq2    H2 1962   1.249   3.256   9.904  0.3716  0.2590  0.6811
  128TCq2    H3 1963   1.034   2.937   9.726  1.9231 -1.6767  1.6848
  128TCq2    H4 1964   1.310   3.144   9.488 -0.4254  1.6115 -0.8710
  129MPD2     C 1965   0.581   3.892   2.060  0.4814  0.4084 -0.8762
  129MPD2    C1 1966   0.470   3.970   2.088 -0.7361  0.2794  0.1645
  129MPD2    C2 1967   0.435   4.075   2.003  0.4821  0.3927 -0.3357
  129MPD2    C3 1968   0.521   4.101   1.897  0.0580  0.1680  0.7860
  129MPD2    C4 1969   0.629   4.026   1.868  0.6902 -0.4169  0.0930
  129MPD2    C5 1970   0.656   3.926   1.950 -0.5223  0.4249 -0.7078
  129MPD2     H 1971   0.364   4.153   2.029 -0.0154 -1.0609  2.6640
  129MPD2    H1 1972   0.697   4.042   1.784  1.6889 -3.0348  0.3875
  129MPD2    H2 1973   0.627   3.824   2.131  2.1838  0.7238 -1.6782
  129MPD2    H3 1974   0.744   3.870   1.921 -0.9692 -0.3322 -0.5975
  129MPD2     N 1975   0.478   4.205   1.807  0.4745  0.4259  0.3085
  129MPD2    H5 1976   0.391   4.255   1.821 -0.2401 -0.0985 -2.2281
  129MPD2    N1 1977   0.387   3.947   2.197  1.0190 -0.3833  0.0635
  129MPD2    H7 1978   0.311   4.013   2.200  1.7737  0.5013 -0.4047
  130TCq2    C1 1979   0.411   3.853   2.297  0.4735  0.7525  0.6414
  130TCq2    O2 1980   0.509   3.778   2.315  0.6205  0.0342 -0.2131
  130TCq2    C2 1981   0.304   3.849   2.398 -0.7280  0.0936  0.2832
  130TCq2    C3 1982   0.340   3.799   2.519 -0.1121 -0.2098 -0.2092
  130TCq2    C4 1983   0.243   3.794   2.612 -0.0480 -1.0649  0.5724
  130TCq2    C5 1984   0.132   3.869   2.601 -0.3194  0.2508 -0.0791
  130TCq2    C6 1985   0.095   3.917   2.470 -0.4896 -0.0450 -0.0150
  130TCq2    C7 1986   0.184   3.906   2.367  0.0681 -0.5282  0.8800
  130TCq2    C8 1987   4.675   3.944   2.433 -0.0941 -0.2806 -0.6488
  130TCq2    O4 1988   4.662   4.019   2.335 -0.3877  0.0941  0.1345
  130TCq2    C9 1989   0.269   3.746   2.746 -0.0267  0.5903  0.0411
  130TCq2    O5 1990   0.177   3.752   2.833 -0.4794  0.0162 -0.7321
  130TCq2    O6 1991   0.377   3.687   2.767 -0.1036 -0.0696  0.3167
  130TCq2    H2 1992   0.422   3.728   2.524  1.1916  1.4566  2.7005
  130TCq2    H3 1993   0.062   3.853   2.682 -1.0225  0.4794 -0.6417
  130TCq2    H4 1994   0.153   3.935   2.267  1.9939 -1.5553 -0.0186
  131MPD2     C 1995   4.161   2.769  10.507 -0.0840  0.2037 -0.2981
  131MPD2    C1 1996   4.143   2.857  10.404 -0.4908 -1.0133 -0.3833
  131MPD2    C2 1997   4.063   2.809  10.296  0.9964 -0.4267 -0.2111
  131MPD2    C3 1998   3.999   2.690  10.301  0.1949  0.0878  0.0992
  131MPD2    C4 1999   4.011   2.613  10.412 -0.1348  0.3278  0.4937
  131MPD2    C5 2000   4.082   2.659  10.521 -0.3723 -0.6040 -0.4426
  131MPD2     H 2001   4.043   2.873  10.211 -0.7320  1.8318  1.9144
  131MPD2    H1 2002   3.959   2.518  10.416  0.8032 -0.1608  1.1901
  131MPD2    H2 2003   4.211   2.798  10.598 -0.6259  1.0613 -0.2753
  131MPD2    H3 2004   4.096   2.588  10.601 -0.9933 -1.5902 -1.2102
  131MPD2     N 2005   3.909   2.665  10.199  0.3336  0.3854 -0.5177
  131MPD2    H5 2006   3.912   2.735  10.126 -1.4018  0.2985 -0.6566
  131MPD2    N1 2007   4.208   2.977  10.406  0.0972 -0.3558  0.2143
  131MPD2    H7 2008   4.271   2.993  10.483 -0.0990 -0.4067  0.3854
  132TCq2    C1 2009   4.242   3.555  10.269 -0.2737 -0.3699 -0.2300
  132TCq2    O2 2010   4.135   3.561  10.211  0.1888  0.2890 -0.0754
  132TCq2    C2 2011   4.273   3.437  10.338  0.0613  0.2310 -0.0404
  132TCq2    C3 2012   4.367   3.439  10.432 -0.2593  0.8740  0.4246
  132TCq2    C4 2013   4.405   3.317  10.486  0.8748 -0.6460  0.2903
  132TCq2    C5 2014   4.351   3.201  10.447  0.1869  0.3801 -0.3822
  132TCq2    C6 2015   4.251   3.208  10.359  0.4626  0.9726 -0.3864
  132TCq2    C7 2016   4.213   3.326  10.293  0.1352  0.0935 -0.2206
  132TCq2    C8 2017   4.181   3.084  10.323  0.1337 -0.7060  0.0744
  132TCq2    O4 2018   4.104   3.094  10.231 -0.1508  0.5524 -0.0584
  132TCq2    C9 2019   4.504   3.313  10.591 -0.1720  0.1113  0.6259
  132TCq2    O5 2020   4.536   3.200  10.642  0.0693 -0.2623  0.3868
  132TCq2    O6 2021   4.560   3.424  10.604  0.2853  0.0755 -0.1916
  132TCq2    H2 2022   4.405   3.525  10.485  2.3890  0.6739 -1.1528
  132TCq2    H3 2023   4.388   3.113  10.498  0.0343  0.1757 -0.6207
  132TCq2    H4 2024   4.126   3.320  10.228  0.9753 -0.3737 -1.3073
  133MPD2     C 2025   3.372   2.594   9.866  0.1604 -0.0182 -0.0136
  133MPD2    C1 2026   3.326   2.618   9.737  0.3982  0.1846  0.6208
  133MPD2    C2 2027   3.336   2.742   9.691  0.2830 -0.1784 -0.6143
  133MPD2    C3 2028   3.381   2.852   9.764 -0.3011 -0.4442  0.8254
  133MPD2    C4 2029   3.426   2.829   9.893 -0.6123  0.2996  0.0342
  133MPD2    C5 2030   3.431   2.698   9.937  0.1816 -0.4045 -0.4028
  133MPD2     H 2031   3.300   2.762   9.591 -0.4851  1.1104 -0.0747
  133MPD2    H1 2032   3.467   2.897   9.967  0.0394  0.5085 -0.5191
  133MPD2    H2 2033   3.376   2.492   9.903  0.1492 -0.0982 -0.2333
  133MPD2    H3 2034   3.474   2.676  10.034 -0.4875 -0.7015 -0.1787
  133MPD2     N 2035   3.399   2.980   9.715  0.1623  0.5629  0.0496
  133MPD2    H5 2036   3.462   3.039   9.769  0.9850 -0.1437 -0.1565
  133MPD2    N1 2037   3.289   2.505   9.662  0.4013  0.3664  0.5633
  133MPD2    H7 2038   3.312   2.413   9.699 -0.2546  0.4583  1.2064
  134TCq2    C1 2039   3.244   2.506   9.533  0.7328 -0.2962  0.1393
  134TCq2    O2 2040   3.233   2.595   9.450 -0.2168  0.1836 -0.5126
  134TCq2    C2 2041   3.238   2.369   9.484  0.2206 -0.0921  0.1635
  134TCq2    C3 2042   3.223   2.362   9.350  0.8804 -0.5328 -0.9267
  134TCq2    C4 2043   3.200   2.242   9.294  0.0786  0.2623 -0.0839
  134TCq2    C5 2044   3.177   2.132   9.369  0.4354  0.5289 -0.1128
  134TCq2    C6 2045   3.193   2.148   9.507  0.2376  0.5133 -0.9665
  134TCq2    C7 2046   3.221   2.267   9.570 -0.1563 -0.3749  0.5643
  134TCq2    C8 2047   3.194   2.031   9.592  0.5225  0.2969  0.0996
  134TCq2    O4 2048   3.188   2.058   9.710 -0.4419  0.0110  0.1485
  134TCq2    C9 2049   3.192   2.233   9.154  0.4216 -0.6386  0.0997
  134TCq2    O5 2050   3.171   2.123   9.102  0.0214  0.4576 -0.0465
  134TCq2    O6 2051   3.193   2.347   9.093  0.5105  0.1113  0.1032
  134TCq2    H2 2052   3.253   2.441   9.283  1.7341 -1.1973 -1.3240
  134TCq2    H3 2053   3.148   2.038   9.323 -0.4899  0.7420  0.0424
  134TCq2    H4 2054   3.235   2.270   9.677 -1.2835  1.6649  0.6404
  135MPD2     C 2055   1.627   0.080   9.152 -0.5837 -0.3119 -0.2317
  135MPD2    C1 2056   1.631   0.073   9.289  0.0609  0.0434  0.7307
  135MPD2    C2 2057   1.751   0.042   9.358 -0.3178  0.1057  0.1531
  135MPD2    C3 2058   1.867   0.021   9.278  0.0403 -0.0481  0.5938
  135MPD2    C4 2059   1.848   0.006   9.135  0.2223 -0.0642  0.5093
  135MPD2    C5 2060   1.733   0.040   9.072 -0.0486 -0.8163 -0.2445
  135MPD2     H 2061   1.758   0.043   9.466 -1.5648 -2.2443  0.2699
  135MPD2    H1 2062   1.932   4.691   9.075  0.1889  4.2760 -1.8987
  135MPD2    H2 2063   1.540   0.101   9.091 -1.5181 -1.2585  0.7727
  135MPD2    H3 2064   1.719   0.032   8.965  0.2884  0.0430 -0.3519
  135MPD2     N 2065   1.992   4.715   9.331 -0.1551 -0.6027 -0.3559
  135MPD2    H5 2066   2.057   4.661   9.275 -1.4042 -1.0107 -1.4310
  135MPD2    N1 2067   1.519   0.101   9.370  0.2323  0.1516 -0.2913
  135MPD2    H7 2068   1.537   0.091   9.469  1.4592 -0.9688 -0.6244
  136TCq2    C1 2069   1.396   0.149   9.323  0.5782  0.6737 -0.1556
  136TCq2    O2 2070   1.377   0.187   9.209  0.1937 -0.0669 -0.3814
  136TCq2    C2 2071   1.297   0.171   9.430 -0.0374 -0.3715 -0.2019
  136TCq2    C3 2072   1.303   0.094   9.546  0.5077  0.2185  0.2310
  136TCq2    C4 2073   1.195   0.092   9.627  0.0838  0.3747 -0.2437
  136TCq2    C5 2074   1.089   0.175   9.602  0.9265  0.4479  0.1054
  136TCq2    C6 2075   1.088   0.259   9.489 -0.2681 -0.0776 -0.1238
  136TCq2    C7 2076   1.192   0.254   9.402  0.3904 -0.0201 -0.3864
  136TCq2    C8 2077   0.987   0.352   9.456  0.1280  0.4826 -0.7829
  136TCq2    O4 2078   1.019   0.435   9.373  0.1951 -0.5478 -0.1937
  136TCq2    C9 2079   1.201   0.017   9.748 -0.9069  0.7552 -0.6571
  136TCq2    O5 2080   1.294   4.650   9.764  0.1296 -0.2218 -0.2959
  136TCq2    O6 2081   1.110   0.026   9.833 -0.1385 -0.1886  0.6083
  136TCq2    H2 2082   1.386   0.028   9.569  0.2389  0.6450  2.3581
  136TCq2    H3 2083   1.004   0.173   9.670  0.2763  0.7533 -0.7050
  136TCq2    H4 2084   1.181   0.304   9.306  2.6164  0.8450 -0.1981
  137MPD2     C 2085   1.135   4.227  10.095  0.4125 -0.3144  0.8649
  137MPD2    C1 2086   1.146   4.293   9.969 -0.3548 -0.3708  0.6362
  137MPD2    C2 2087   1.160   4.432   9.970 -0.3595  0.2005  0.3118
  137MPD2    C3 2088   1.183   4.501  10.088  0.2193 -0.9922 -0.4070
  137MPD2    C4 2089   1.188   4.430  10.209 -0.1985  0.1441 -0.8164
  137MPD2    C5 2090   1.157   4.298  10.212  0.6569  0.4345  0.1896
  137MPD2     H 2091   1.151   4.489   9.878 -0.4682  0.1261  0.2755
  137MPD2    H1 2092   1.208   4.473  10.307 -1.1931 -2.3747  0.5089
  137MPD2    H2 2093   1.119   4.120  10.098  1.5775 -0.5170  0.0573
  137MPD2    H3 2094   1.152   4.240  10.304 -3.5145  0.3048 -0.1333
  137MPD2     N 2095   1.175   4.648  10.086 -0.0103  0.2472 -0.4492
  137MPD2    H5 2096   1.138   4.693  10.003  0.9575  0.5122 -0.7392
  137MPD2    N1 2097   1.126   4.218   9.849 -0.7295  0.5105 -0.0507
  137MPD2    H7 2098   1.086   4.125   9.850 -1.3631  0.7647 -1.2406
  138TCq2    C1 2099   1.190   4.244   9.740  0.0113 -0.1890 -0.4213
  138TCq2    O2 2100   1.260   4.341   9.719  0.6397  0.6738 -0.1083
  138TCq2    C2 2101   1.181   4.140   9.644 -0.5354  0.3203 -0.6406
  138TCq2    C3 2102   1.266   4.150   9.542 -0.1415  0.1342  0.0266
  138TCq2    C4 2103   1.243   4.098   9.421 -0.4512 -0.2285  0.1469
  138TCq2    C5 2104   1.129   4.022   9.398 -0.7569 -0.0236 -0.5728
  138TCq2    C6 2105   1.029   4.023   9.503  0.4986 -0.9953 -0.4206
  138TCq2    C7 2106   1.064   4.071   9.627  0.0472 -0.4345 -0.3791
  138TCq2    C8 2107   0.898   3.965   9.470  0.6142 -0.1596 -0.2211
  138TCq2    O4 2108   0.885   3.925   9.352 -0.0820 -0.2900  0.3162
  138TCq2    C9 2109   1.336   4.113   9.309 -0.4726 -1.0117 -0.1355
  138TCq2    O5 2110   1.461   4.119   9.336  0.4375  0.1869 -0.4230
  138TCq2    O6 2111   1.288   4.157   9.203 -0.5598 -0.2170  0.2432
  138TCq2    H2 2112   1.346   4.223   9.548 -0.5074  0.6632 -1.8517
  138TCq2    H3 2113   1.107   3.991   9.296  1.4539 -0.3058 -0.9669
  138TCq2    H4 2114   0.983   4.091   9.696 -0.1882  2.8351 -1.5964
  139TMC2    C1 2115   0.816   3.206  13.823  0.4131 -0.0359 -0.3625
  139TMC2    C2 2116   0.886   3.285  13.909 -0.1071 -0.4217  0.2358
  139TMC2    C3 2117   0.815   3.378  13.979 -0.4815  0.4354  0.7631
  139TMC2    C4 2118   0.681   3.218  13.808  0.1852  1.1249  0.0868
  139TMC2    C5 2119   0.617   3.313  13.883  0.7619 -0.4071  0.3739
  139TMC2    C6 2120   0.682   3.397  13.968  0.1349 -0.1434  0.4486
  139TMC2     C 2121   0.880   3.100  13.745 -0.9351 -0.5732 -0.3937
  139TMC2     O 2122   0.803   3.026  13.685  0.1123 -0.1570 -0.5398
  139TMC2     H 2123   0.991   3.278  13.934 -0.5972 -0.0570  2.3870
  139TMC2    H1 2124   0.631   3.159  13.732  3.0116 -0.5699 -0.4573
  139TMC2    H2 2125   0.627   3.474  14.020  0.9864 -0.2883  1.5613
  139TMC2    C7 2126   0.479   3.348  13.844  1.0138 -0.3607  0.7154
  139TMC2    C8 2127   0.901   3.473  14.056 -0.6152 -0.1870  0.7874
  139TMC2    O1 2128   0.434   3.462  13.861 -0.7166 -0.0603  0.7140
  139TMC2    O2 2129   1.009   3.430  14.092 -0.2291  0.8860 -0.0926
  139TMC2    O5 2130   0.889   3.591  14.000 -0.2966 -0.0317 -0.6712
  139TMC2    H5 2131   0.810   3.591  13.942  0.0912 -2.7216 -1.1807
  140MPD2     C 2132   1.229   3.005  13.748  0.1273 -0.5053  0.0404
  140MPD2    C1 2133   1.098   3.006  13.707 -0.5137 -0.0192  0.7445
  140MPD2    C2 2134   1.060   2.916  13.613  0.0680 -0.5921 -0.0222
  140MPD2    C3 2135   1.146   2.825  13.572 -0.4678  0.0024  0.4497
  140MPD2    C4 2136   1.277   2.811  13.620  0.1849 -0.2058 -0.2447
  140MPD2    C5 2137   1.315   2.903  13.716  0.4399  0.1868  0.8236
  140MPD2     H 2138   0.967   2.922  13.558  0.7333  2.8935 -0.7692
  140MPD2    H1 2139   1.346   2.742  13.573  0.8639  0.5958 -0.4201
  140MPD2    H2 2140   1.259   3.081  13.820 -2.0023 -1.0559  1.5312
  140MPD2    H3 2141   1.418   2.905  13.749  0.0142  0.6463  2.1397
  140MPD2     N 2142   1.097   2.743  13.460 -0.0140 -0.0177  0.1462
  140MPD2    H5 2143   1.014   2.772  13.409  0.0763  1.6529  0.9594
  140MPD2    N1 2144   1.015   3.106  13.760 -0.1950 -0.8643  0.1525
  140MPD2    H7 2145   1.057   3.176  13.821 -0.5906  0.1829 -0.7626
  141TCq2    C1 2146   1.998   4.069  14.093 -0.0687 -0.1246  0.8384
  141TCq2    O2 2147   1.981   4.178  14.039  0.3241 -0.4903  0.9047
  141TCq2    C2 2148   1.975   4.047  14.228  0.0963  0.0555  0.3224
  141TCq2    C3 2149   2.046   3.951  14.302  0.3934  0.0384 -0.2449
  141TCq2    C4 2150   2.041   3.962  14.441  0.0375  0.4953  0.4590
  141TCq2    C5 2151   1.980   4.066  14.509  0.2575  0.5929  0.3308
  141TCq2    C6 2152   1.923   4.162  14.426  0.6280 -0.4396  0.1034
  141TCq2    C7 2153   1.913   4.150  14.290 -0.0196 -0.2962  0.2601
  141TCq2    C8 2154   1.902   4.294  14.479  0.0306 -0.3195 -0.3577
  141TCq2    O4 2155   1.828   4.366  14.413  0.0558 -0.2907 -0.1960
  141TCq2    C9 2156   2.118   3.869  14.520  0.6284  0.4528 -0.3073
  141TCq2    O5 2157   2.140   3.760  14.468 -0.2617 -0.1078 -0.1296
  141TCq2    O6 2158   2.146   3.896  14.641  0.3298  0.1529 -0.3936
  141TCq2    H2 2159   2.100   3.872  14.250  0.8673 -0.5158  1.0815
  141TCq2    H3 2160   1.982   4.083  14.616  1.8931 -0.0019  0.4012
  141TCq2    H4 2161   1.866   4.231  14.234  0.5892  0.3896  0.7447
  142MPD2     C 2162   4.414   2.452  10.392  0.3241  0.2252 -0.2377
  142MPD2    C1 2163   4.359   2.501  10.274 -0.4360 -0.2563 -0.7892
  142MPD2    C2 2164   4.392   2.630  10.225  0.5621 -0.3651  0.0270
  142MPD2    C3 2165   4.478   2.707  10.300 -0.1946  0.1707  0.2793
  142MPD2    C4 2166   4.518   2.667  10.426 -0.4662  0.1187  0.9059
  142MPD2    C5 2167   4.480   2.540  10.472  0.7548  0.4000  0.1412
  142MPD2     H 2168   4.356   2.671  10.132  2.6712  1.2947 -0.0621
  142MPD2    H1 2169   4.585   2.727  10.488  0.1621  1.9449 -1.5544
  142MPD2    H2 2170   4.399   2.347  10.416  0.5548  0.4465  0.8376
  142MPD2    H3 2171   4.519   2.494  10.562  0.9417 -0.1284 -0.2057
  142MPD2     N 2172   4.506   2.838  10.273  0.0916  0.5414 -0.4066
  142MPD2    H5 2173   4.574   2.869  10.341 -1.4087 -1.2189  1.9191
  142MPD2    N1 2174   4.290   2.410  10.180  0.5385  0.0755 -0.7214
  142MPD2    H7 2175   4.292   2.312  10.205 -0.2487  0.0980 -0.5859
  143TCq2    C1 2176   4.475   2.916  10.159  0.2567 -0.3528 -0.7008
  143TCq2    O2 2177   4.397   2.897  10.065 -0.3821  0.0299 -0.2356
  143TCq2    C2 2178   4.535   3.052  10.158  0.1220 -0.5098  0.8220
  143TCq2    C3 2179   4.657   3.071  10.220 -0.5972 -0.5852 -0.1311
  143TCq2    C4 2180   4.692   3.198  10.240 -0.2091 -0.2025  0.0070
  143TCq2    C5 2181   4.652   3.299  10.165 -0.1151 -0.1191 -0.3924
  143TCq2    C6 2182   4.544   3.278  10.082 -0.4344 -0.2546 -0.4620
  143TCq2    C7 2183   4.476   3.155  10.086  0.2046  0.4503  0.5574
  143TCq2    C8 2184   4.490   3.391  10.009 -0.0656  0.4304  0.2360
  143TCq2    O4 2185   4.550   3.493  10.038  0.3495 -0.1948 -0.4108
  143TCq2    C9 2186   0.082   3.225  10.330  0.5376  0.6368  0.3133
  143TCq2    O5 2187   0.078   3.346  10.357  0.1790  0.3223  0.4561
  143TCq2    O6 2188   0.138   3.133  10.393 -0.2018  0.2904  0.4381
  143TCq2    H2 2189   4.718   2.991  10.262 -0.2518 -1.8038 -2.9763
  143TCq2    H3 2190   4.704   3.393  10.182 -0.3029  0.0052 -0.5097
  143TCq2    H4 2191   4.379   3.133  10.043  1.3079 -0.0995 -1.6360
  144MPD2     C 2192   1.716   2.346   0.866 -0.4479 -0.3060  0.3069
  144MPD2    C1 2193   1.706   2.211   0.851 -0.2318 -0.3747  0.2726
  144MPD2    C2 2194   1.821   2.134   0.888 -0.6055 -1.1069  0.6510
  144MPD2    C3 2195   1.941   2.197   0.920  0.6007  0.4551 -0.3511
  144MPD2    C4 2196   1.940   2.331   0.934  0.0374  0.6289 -0.0031
  144MPD2    C5 2197   1.831   2.404   0.909  0.1283  0.3628 -0.6884
  144MPD2     H 2198   1.824   2.027   0.871  0.5135 -1.3361  2.2279
  144MPD2    H1 2199   2.029   2.384   0.966  0.2990 -0.8487  1.7730
  144MPD2    H2 2200   1.631   2.409   0.844 -0.0203  0.7633  1.7570
  144MPD2    H3 2201   1.845   2.511   0.910 -0.5525  0.4591 -2.1005
  144MPD2     N 2202   2.069   2.129   0.915  0.4593 -0.0101 -0.6088
  144MPD2    H5 2203   2.150   2.181   0.947 -0.4841  0.5714  0.8414
  144MPD2    N1 2204   1.590   2.139   0.812  0.2632 -0.2349 -0.2993
  144MPD2    H7 2205   1.602   2.038   0.810 -0.3670 -0.3595  2.1512
  145TCq2    C1 2206   2.094   1.993   0.889  0.0016 -0.3423 -0.9670
  145TCq2    O2 2207   2.021   1.906   0.843  0.0418 -0.0547 -0.4387
  145TCq2    C2 2208   2.237   1.967   0.911  0.2907 -0.4293  0.3008
  145TCq2    C3 2209   2.279   1.845   0.855  0.0018  0.2781 -0.7272
  145TCq2    C4 2210   2.389   1.785   0.911 -0.6204 -0.3740 -0.1401
  145TCq2    C5 2211   2.449   1.834   1.021 -0.0195  0.7285  0.1479
  145TCq2    C6 2212   2.399   1.944   1.082  0.7352  0.7987 -0.2754
  145TCq2    C7 2213   2.295   2.019   1.026  0.0070  0.1112  0.5248
  145TCq2    C8 2214   2.471   1.982   1.200  0.9141  0.2813 -0.1243
  145TCq2    O4 2215   2.545   1.899   1.261  0.2300  0.4477 -0.0660
  145TCq2    C9 2216   2.432   1.653   0.871  0.3633  0.3734 -0.4062
  145TCq2    O5 2217   2.532   1.600   0.927 -0.5201 -0.2091 -0.7894
  145TCq2    O6 2218   2.351   1.597   0.793 -0.0662 -0.2421  0.7781
  145TCq2    H2 2219   2.229   1.800   0.770 -1.2429 -1.5576  0.9797
  145TCq2    H3 2220   2.539   1.791   1.063 -0.1384  0.3610  0.0198
  145TCq2    H4 2221   2.245   2.096   1.084  2.6729  2.0205  0.3291
  146TMC2    C1 2222   3.170   0.633  12.354  0.8893 -0.0715 -0.2956
  146TMC2    C2 2223   3.077   0.713  12.288 -0.9237 -0.3808 -0.0739
  146TMC2    C3 2224   3.070   0.704  12.153  0.1089  0.6447 -0.4246
  146TMC2    C4 2225   3.253   0.550  12.288 -0.3671  0.8746  0.2948
  146TMC2    C5 2226   3.241   0.539  12.153  0.1699  0.0146 -0.9339
  146TMC2    C6 2227   3.153   0.616  12.088  0.2198 -0.5468  0.1932
  146TMC2     C 2228   3.159   0.618  12.499  0.3983  0.9153 -0.2090
  146TMC2     O 2229   3.208   0.517  12.547 -0.4835  0.9060 -0.4006
  146TMC2     H 2230   2.995   0.757  12.343 -1.0955 -1.6185  0.6809
  146TMC2    H1 2231   3.330   0.498  12.344  0.5530  1.0108 -0.8223
  146TMC2    H2 2232   3.148   0.620  11.980 -1.2355 -0.0478  0.2805
  146TMC2    C7 2233   3.351   0.475  12.076 -0.3065  0.1239 -0.0560
  146TMC2    C8 2234   2.999   0.810  12.083  0.3734 -0.0496  0.6294
  146TMC2    O1 2235   3.385   0.529  11.971 -0.1575  0.2631  0.8059
  146TMC2    O2 2236   2.973   0.787  11.967  0.8924 -0.6213  0.1868
  146TMC2    O5 2237   3.028   0.933  12.135  0.3667  0.1995  0.4144
  146TMC2    H5 2238   3.066   0.926  12.225  2.3726  0.3790 -0.4164
  147MPD2     C 2239   3.782   0.211  12.054  0.3740  0.0707  0.3232
  147MPD2    C1 2240   3.737   0.204  12.187  0.8961  0.0173 -0.4683
  147MPD2    C2 2241   3.620   0.269  12.229 -0.0821  0.4033  0.2593
  147MPD2    C3 2242   3.540   0.322  12.124 -0.1124 -0.2781 -0.5090
  147MPD2    C4 2243   3.587   0.320  11.991 -0.4225  0.8816  1.0067
  147MPD2    C5 2244   3.706   0.265  11.958 -0.9078  0.4122 -0.4299
  147MPD2     H 2245   3.591   0.281  12.332 -0.2665  2.1508  0.0089
  147MPD2    H1 2246   3.535   0.360  11.905 -0.3491  1.6977  1.3417
  147MPD2    H2 2247   3.879   0.175  12.025  1.0045  2.0091 -0.0259
  147MPD2    H3 2248   3.731   0.275  11.853  0.0355  1.1622 -0.1252
  147MPD2     N 2249   3.420   0.384  12.156  0.4182 -0.6909  0.1139
  147MPD2    H5 2250   3.390   0.363  12.251  0.2975  1.6543  0.5982
  147MPD2    N1 2251   3.828   0.153  12.282 -0.0013 -0.3943  0.4841
  147MPD2    H7 2252   3.922   0.128  12.253 -0.7918 -2.4154 -0.3427
  148MPD2     C 2253   3.307   4.168   9.818  0.4840 -0.0653  0.1066
  148MPD2    C1 2254   3.374   4.108   9.925  0.0095  0.3446 -0.2484
  148MPD2    C2 2255   3.336   3.985   9.969  0.0086 -0.3605  0.1611
  148MPD2    C3 2256   3.241   3.911   9.905 -0.6175 -0.0849 -0.3917
  148MPD2    C4 2257   3.173   3.966   9.797  0.2423 -0.1281 -0.9231
  148MPD2    C5 2258   3.201   4.095   9.767 -0.3040  0.5192 -0.1447
  148MPD2     H 2259   3.392   3.951  10.055 -0.5106 -0.2027  0.5598
  148MPD2    H1 2260   3.087   3.917   9.752  1.0531 -1.0386 -1.4838
  148MPD2    H2 2261   3.330   4.263   9.771 -1.6199  0.2458 -0.2961
  148MPD2    H3 2262   3.148   4.144   9.686 -1.0790 -0.8145 -0.4402
  148MPD2     N 2263   3.202   3.782   9.949 -0.3499 -0.0173 -0.5885
  148MPD2    H5 2264   3.134   3.728   9.897  0.5568 -1.4356 -0.2954
  148MPD2    N1 2265   3.472   4.169  10.003  0.1696 -0.2613 -0.2432
  148MPD2    H7 2266   3.492   4.118  10.089  2.0133  0.8633 -0.0252
  149TCq2    C1 2267   3.544   4.276   9.970 -0.0942  0.1789 -0.0931
  149TCq2    O2 2268   3.548   4.350   9.871  0.5409  0.3644 -0.7993
  149TCq2    C2 2269   3.649   4.299  10.067 -0.3203  0.2474 -0.2789
  149TCq2    C3 2270   3.696   4.428  10.083  0.1908  0.9674  1.0937
  149TCq2    C4 2271   3.794   4.466  10.173  1.0262  0.1125 -0.4761
  149TCq2    C5 2272   3.822   4.373  10.269  0.6743  0.5055 -0.0969
  149TCq2    C6 2273   3.778   4.242  10.246  0.5757  0.3237 -0.2309
  149TCq2    C7 2274   3.683   4.204  10.153 -0.6704 -0.1957 -0.4866
  149TCq2    C8 2275   3.803   4.131  10.336 -0.6032 -0.5566  0.1443
  149TCq2    O4 2276   3.719   4.042  10.339 -0.0807  0.3881 -0.1708
  149TCq2    C9 2277   3.810   4.606  10.217  0.0853  0.0221 -0.4176
  149TCq2    O5 2278   3.813   4.637  10.338  0.2390 -0.0700 -0.1374
  149TCq2    O6 2279   3.784   4.687  10.122  0.0034 -0.0973  0.5330
  149TCq2    H2 2280   3.645   4.510  10.034 -3.7222 -1.2837  1.3382
  149TCq2    H3 2281   3.880   4.399  10.357 -0.6003  2.4488  0.1613
  149TCq2    H4 2282   3.667   4.102  10.121 -1.2068 -0.9518  2.1831
  150MPD2     C 2283   0.823   3.249  12.178 -0.2656  0.0084 -0.3844
  150MPD2    C1 2284   0.813   3.115  12.148 -1.0478  0.4253 -0.7764
  150MPD2    C2 2285   0.917   3.026  12.173  1.0014  0.0830  0.3447
  150MPD2    C3 2286   1.030   3.080  12.230  0.7188  0.1563  0.1917
  150MPD2    C4 2287   1.041   3.217  12.251  0.2782 -0.5080  0.2946
  150MPD2    C5 2288   0.943   3.307  12.223  0.1969 -0.1458  0.6897
  150MPD2     H 2289   0.904   2.921  12.150 -0.5091  0.3131  0.1570
  150MPD2    H1 2290   1.134   3.260  12.287  0.1915  1.0927 -1.4085
  150MPD2    H2 2291   0.740   3.318  12.160 -1.8250 -1.4221  1.2817
  150MPD2    H3 2292   0.950   3.413  12.241  1.4576  0.1999 -1.8820
  150MPD2     N 2293   1.137   2.996  12.259 -0.2639  0.6599  0.4388
  150MPD2    H5 2294   1.119   2.896  12.266 -0.3745  0.8925  3.6536
  150MPD2    N1 2295   0.700   3.074  12.069  0.8463  0.7657 -0.0890
  150MPD2    H7 2296   0.631   3.145  12.051  1.8831  1.4438 -1.3907
  151TCq2    C1 2297   1.270   3.033  12.290  0.4545 -0.0765  0.3684
  151TCq2    O2 2298   1.317   3.148  12.295  0.1811 -0.0236  0.0495
  151TCq2    C2 2299   1.355   2.919  12.327 -1.0149 -0.2087  0.4148
  151TCq2    C3 2300   1.331   2.799  12.265  0.0177  0.0432 -0.1259
  151TCq2    C4 2301   1.422   2.703  12.297 -0.9470  0.1112 -1.0526
  151TCq2    C5 2302   1.531   2.727  12.379  0.5966 -0.6358  0.0419
  151TCq2    C6 2303   1.547   2.846  12.438  0.4441 -0.0820  0.0063
  151TCq2    C7 2304   1.460   2.946  12.410  0.2751  0.5223  0.3352
  151TCq2    C8 2305   1.677   2.891  12.493  0.0342  0.8908 -0.9746
  151TCq2    O4 2306   1.705   3.008  12.483 -0.0537 -0.1863  0.0945
  151TCq2    C9 2307   1.414   2.580  12.232  0.0146 -0.1044  0.2048
  151TCq2    O5 2308   1.495   2.487  12.259 -0.0136  0.3924  0.4611
  151TCq2    O6 2309   1.316   2.564  12.153 -0.0530 -0.4308 -0.5632
  151TCq2    H2 2310   1.245   2.780  12.202  1.0755  0.5916 -1.7053
  151TCq2    H3 2311   1.601   2.646  12.394 -0.4289 -1.2206  1.6323
  151TCq2    H4 2312   1.465   3.041  12.461 -3.9077  1.1950 -0.4707
  152MPD2     C 2313   0.287   2.641  12.353 -0.1119 -0.0812  0.8606
  152MPD2    C1 2314   0.337   2.763  12.309  0.0883  0.6272  0.0318
  152MPD2    C2 2315   0.253   2.854  12.241 -0.0848 -0.0976 -0.0124
  152MPD2    C3 2316   0.124   2.811  12.205  0.0114 -0.1438  0.1113
  152MPD2    C4 2317   0.083   2.689  12.254 -0.1479 -0.3321 -0.8098
  152MPD2    C5 2318   0.166   2.609  12.325  0.1581 -0.0805  0.3912
  152MPD2     H 2319   0.284   2.954  12.215  1.1320 -0.5493 -0.2635
  152MPD2    H1 2320   4.700   2.652  12.237  0.4022 -1.7831 -0.8785
  152MPD2    H2 2321   0.351   2.567  12.401  1.7466  2.5946  2.4961
  152MPD2    H3 2322   0.129   2.519  12.374 -2.0083  1.2286  1.1150
  152MPD2     N 2323   0.038   2.898  12.134 -0.3371  0.5989 -0.1741
  152MPD2    H5 2324   0.076   2.986  12.098  0.4629  0.2292 -0.2333
  152MPD2    N1 2325   0.467   2.793  12.353  0.0223 -0.1925 -0.4017
  152MPD2    H7 2326   0.524   2.715  12.384  1.3775  0.0104 -2.4104
  153TCq2    C1 2327   0.522   2.918  12.363  0.6145  0.4880  0.1982
  153TCq2    O2 2328   0.473   3.030  12.347 -0.4578  0.4453 -0.1195
  153TCq2    C2 2329   0.663   2.911  12.411 -0.2723  0.2903  0.1228
  153TCq2    C3 2330   0.738   2.794  12.389 -0.4254 -0.1741 -0.0362
  153TCq2    C4 2331   0.871   2.795  12.415  0.7662 -0.1265 -0.4273
  153TCq2    C5 2332   0.931   2.910  12.478  0.2432 -0.0507  0.2760
  153TCq2    C6 2333   0.849   3.018  12.517  0.0047 -0.5733  0.2737
  153TCq2    C7 2334   0.720   3.025  12.468  0.3893 -0.3954 -0.1475
  153TCq2    C8 2335   0.918   3.139  12.560 -0.2201 -0.7509 -0.0952
  153TCq2    O4 2336   0.873   3.249  12.540 -0.6337  0.4399 -0.0494
  153TCq2    C9 2337   0.953   2.685  12.370  0.0823  0.2964 -0.1973
  153TCq2    O5 2338   1.073   2.720  12.362  0.0940 -0.5877 -0.2246
  153TCq2    O6 2339   0.892   2.592  12.311 -0.6413 -0.0643 -0.4068
  153TCq2    H2 2340   0.703   2.709  12.331  0.1581 -0.4139 -0.0339
  153TCq2    H3 2341   1.035   2.904  12.510  0.6302 -0.7668 -1.1456
  153TCq2    H4 2342   0.659   3.113  12.486  0.2117 -0.3239 -1.1214
  154MPD2     C 2343   1.767   3.035   0.704  0.4072 -0.3296 -0.2419
  154MPD2    C1 2344   1.810   3.018   0.832  0.0378  0.1121 -0.9363
  154MPD2    C2 2345   1.753   3.090   0.930 -0.4732 -0.1283 -0.6270
  154MPD2    C3 2346   1.657   3.186   0.900 -0.3485 -0.2866  0.1447
  154MPD2    C4 2347   1.619   3.202   0.765 -0.1856  0.1606  1.4182
  154MPD2    C5 2348   1.671   3.127   0.668  0.2499 -0.1230 -0.1567
  154MPD2     H 2349   1.782   3.082   1.034  0.2619 -0.2432 -0.8398
  154MPD2    H1 2350   1.553   3.278   0.725 -1.6793 -2.2109 -0.6716
  154MPD2    H2 2351   1.804   2.970   0.625  1.4362 -0.7943  0.6235
  154MPD2    H3 2352   1.643   3.139   0.563  0.2748 -1.4142 -0.3117
  154MPD2     N 2353   1.593   3.258   1.007  0.8657  0.5031  0.1958
  154MPD2    H5 2354   1.607   3.235   1.105  2.4798 -0.8083 -0.3514
  154MPD2    N1 2355   1.904   2.914   0.854 -0.5359  0.3649  0.0490
  154MPD2    H7 2356   1.925   2.859   0.771  0.5911  1.0599 -0.1295
  155TCq2    C1 2357   1.999   2.913   0.951 -0.1280 -0.5377 -0.6664
  155TCq2    O2 2358   2.018   2.998   1.035  0.1456 -0.7754  0.2330
  155TCq2    C2 2359   2.094   2.815   0.933  0.8232 -0.0460 -0.1313
  155TCq2    C3 2360   2.226   2.843   0.957 -0.2003  0.1209  0.6952
  155TCq2    C4 2361   2.322   2.769   0.896 -0.2246 -0.4600 -0.0432
  155TCq2    C5 2362   2.293   2.656   0.827  0.1680  0.2928  0.0653
  155TCq2    C6 2363   2.161   2.642   0.792 -0.2675 -0.3525  0.1963
  155TCq2    C7 2364   2.062   2.715   0.843  0.5587 -0.0322 -0.4290
  155TCq2    C8 2365   2.143   2.514   0.729 -0.6542 -0.8654  0.3010
  155TCq2    O4 2366   2.227   2.423   0.742  0.0799 -0.4907  0.1600
  155TCq2    C9 2367   2.458   2.786   0.941 -0.7556  0.1481  0.0682
  155TCq2    O5 2368   2.534   2.684   0.944 -0.1887 -0.1234  0.0350
  155TCq2    O6 2369   2.492   2.896   0.989  0.0674  0.2091 -0.6481
  155TCq2    H2 2370   2.254   2.930   1.015 -2.3523  1.2240  0.0518
  155TCq2    H3 2371   2.377   2.592   0.804  1.2698  1.5288  0.6272
  155TCq2    H4 2372   1.963   2.670   0.844 -0.4469  2.2313  0.6453
  156MPD2     C 2373   1.128   0.944  12.155 -0.1156 -0.3360 -0.0377
  156MPD2    C1 2374   1.063   0.963  12.033 -0.2537 -0.0651 -0.2357
  156MPD2    C2 2375   0.924   0.972  12.025 -0.6194 -0.3091  0.3730
  156MPD2    C3 2376   0.852   0.966  12.147  0.5227 -0.4092  0.2804
  156MPD2    C4 2377   0.919   0.943  12.262  0.9839  0.9175  0.2044
  156MPD2    C5 2378   1.054   0.936  12.265  0.4869  0.8994 -0.6021
  156MPD2     H 2379   0.868   0.966  11.933 -2.2427 -0.7571  1.3745
  156MPD2    H1 2380   0.870   0.932  12.358  0.7409  0.1305 -0.0161
  156MPD2    H2 2381   1.236   0.935  12.148  0.0548  1.9691 -0.4893
  156MPD2    H3 2382   1.109   0.903  12.352 -0.6394  0.5272 -0.0379
  156MPD2     N 2383   0.710   0.964  12.142  0.1180 -0.7435  0.3305
  156MPD2    H5 2384   0.670   0.975  12.050  0.3504  0.4805  0.3667
  156MPD2    N1 2385   1.147   0.960  11.918 -0.3664 -0.3141 -0.0403
  156MPD2    H7 2386   1.244   0.932  11.929 -0.7167 -1.5317 -0.0285
  157TCq2    C1 2387   1.104   0.982  11.791 -0.7760  0.0930 -0.1176
  157TCq2    O2 2388   1.004   1.039  11.753 -0.1094 -0.2213 -0.3269
  157TCq2    C2 2389   1.204   0.950  11.690 -0.3112 -0.4340  0.8483
  157TCq2    C3 2390   1.296   0.853  11.729  0.0366 -0.3912 -0.3958
  157TCq2    C4 2391   1.396   0.818  11.645 -0.4757 -0.8944  0.2707
  157TCq2    C5 2392   1.396   0.865  11.518 -0.1354 -0.9093  0.3631
  157TCq2    C6 2393   1.292   0.948  11.474 -0.8616 -0.2737 -0.1364
  157TCq2    C7 2394   1.196   0.990  11.563  0.7831  0.1594  0.1416
  157TCq2    C8 2395   1.270   0.965  11.335  0.7160 -0.1685  0.0803
  157TCq2    O4 2396   1.190   1.049  11.296  0.1182 -0.3611 -0.8830
  157TCq2    C9 2397   1.485   0.709  11.687  0.4951 -0.1419  0.9031
  157TCq2    O5 2398   1.555   0.650  11.605 -0.3515  0.2712 -0.1772
  157TCq2    O6 2399   1.472   0.675  11.809  0.0841  0.4040 -1.1190
  157TCq2    H2 2400   1.298   0.818  11.831 -1.4085 -0.9114 -0.5546
  157TCq2    H3 2401   1.473   0.825  11.453 -0.0793 -2.6670  1.5083
  157TCq2    H4 2402   1.099   1.021  11.524 -0.4992 -1.7839  1.7496
  158TMC2    C1 2403   0.691   4.408  13.285 -0.1817 -0.6688 -0.3563
  158TMC2    C2 2404   0.735   4.461  13.163 -0.7189 -0.6298 -0.6705
  158TMC2    C3 2405   0.644   4.504  13.071 -0.0008  0.3499  0.6419
  158TMC2    C4 2406   0.556   4.399  13.315  0.0002 -1.0253  0.0429
  158TMC2    C5 2407   0.473   4.451  13.220 -0.0273 -0.2450 -0.2856
  158TMC2    C6 2408   0.511   4.496  13.098  0.3916 -0.2438 -0.1926
  158TMC2     C 2409   0.788   4.384  13.392 -0.4198  0.1136 -0.4343
  158TMC2     O 2410   0.904   4.410  13.361  0.1449  0.3464 -0.0398
  158TMC2     H 2411   0.837   4.496  13.150 -0.3356 -0.0541  4.0964
  158TMC2    H1 2412   0.513   4.378  13.412 -2.1760  0.5994 -0.5912
  158TMC2    H2 2413   0.445   4.542  13.026  0.7391  0.8999  0.2137
  158TMC2    C7 2414   0.329   4.424  13.222 -0.7394  0.6976 -0.6903
  158TMC2    C8 2415   0.674   4.632  13.007  0.6370  0.3432 -0.5241
  158TMC2    O1 2416   0.269   4.520  13.173 -0.0768  0.2782 -0.0030
  158TMC2    O2 2417   0.590   0.008  12.988 -0.8090 -0.1288 -0.1064
  158TMC2    O5 2418   0.788   4.622  12.939 -0.0768  0.1449 -0.2039
  158TMC2    H5 2419   0.842   4.540  12.940  1.8748  1.4466  1.2861
  159MPD2     C 2420   0.953   4.240  13.850  0.8914 -0.7664  0.3717
  159MPD2    C1 2421   0.824   4.188  13.836 -0.4534  0.1479 -0.1767
  159MPD2    C2 2422   0.752   4.220  13.725 -0.0534 -0.1114  0.3224
  159MPD2    C3 2423   0.816   4.273  13.609  0.1184  0.1494 -0.5849
  159MPD2    C4 2424   0.945   4.317  13.627  0.8198  0.6905  0.0716
  159MPD2    C5 2425   1.014   4.303  13.743  0.5887 -0.0419  0.3434
  159MPD2     H 2426   0.646   4.200  13.716 -0.1721  1.2429 -1.1861
  159MPD2    H1 2427   1.002   4.370  13.552 -1.0240 -1.0464 -2.5487
  159MPD2    H2 2428   1.002   4.233  13.947  1.5448  1.5154  0.2141
  159MPD2    H3 2429   1.112   4.349  13.753  0.3866  0.4405  0.0875
  159MPD2     N 2430   0.741   4.308  13.498 -0.1728  0.0392  0.1124
  159MPD2    H5 2431   0.643   4.285  13.504 -0.2806  1.0095  2.1068
  159MPD2    N1 2432   0.754   4.128  13.944  0.4290 -0.3235 -0.7153
  159MPD2    H7 2433   0.662   4.097  13.915  0.2360  0.5878 -1.0609
  160TMC2    C1 2434   1.278   1.807   1.496 -0.5029  0.5950 -0.1672
  160TMC2    C2 2435   1.299   1.825   1.624 -0.6524 -0.1386  0.5377
  160TMC2    C3 2436   1.315   1.952   1.677 -0.2499  0.4792  0.1118
  160TMC2    C4 2437   1.274   1.915   1.415  0.3543  0.2979  0.1868
  160TMC2    C5 2438   1.293   2.042   1.469  0.6077  0.1824 -0.1972
  160TMC2    C6 2439   1.315   2.064   1.602  0.4638  1.0775 -0.3890
  160TMC2     C 2440   1.161   1.726   1.469 -0.1812  0.1121  0.3454
  160TMC2     O 2441   1.152   1.613   1.524 -0.4768  0.3679 -0.1771
  160TMC2     H 2442   1.325   1.734   1.676  1.3201 -0.6518 -1.3718
  160TMC2    H1 2443   1.246   1.895   1.312  1.2903  0.3238 -0.0793
  160TMC2    H2 2444   1.320   2.164   1.644 -0.1198  0.5224  0.9997
  160TMC2    C7 2445   1.188   2.134   1.413 -0.2130 -0.3309  0.0937
  160TMC2    C8 2446   1.378   1.946   1.807  0.4174  0.3024 -0.2863
  160TMC2    O1 2447   1.120   2.078   1.330  0.6344  0.5097  0.2452
  160TMC2    O2 2448   1.430   1.843   1.844 -0.4730  0.3858 -0.9668
  160TMC2    O5 2449   1.362   2.056   1.879 -0.3230  0.2108  0.2446
  160TMC2    H5 2450   1.295   2.118   1.843  0.1800  0.9573  0.5991
  161MPD2     C 2451   0.871   1.657   1.461  0.4701 -0.3213  0.2000
  161MPD2    C1 2452   0.923   1.779   1.428 -0.4478  0.0502  0.7872
  161MPD2    C2 2453   0.838   1.887   1.408 -0.3959  0.7192  0.0068
  161MPD2    C3 2454   0.705   1.865   1.402 -1.1437 -0.0803 -0.0389
  161MPD2    C4 2455   0.651   1.741   1.428  0.1545  0.8331 -0.6843
  161MPD2    C5 2456   0.737   1.638   1.462 -0.2044  0.5759 -0.0280
  161MPD2     H 2457   0.876   1.986   1.384 -0.8231  0.8043 -0.3171
  161MPD2    H1 2458   0.544   1.723   1.423  0.3298 -0.2973 -0.3970
  161MPD2    H2 2459   0.933   1.574   1.492 -0.6172 -1.0769  0.3499
  161MPD2    H3 2460   0.697   1.540   1.486 -0.4053  0.4888 -0.7080
  161MPD2     N 2461   0.611   1.970   1.374  0.0741  0.0423 -0.0498
  161MPD2    H5 2462   0.513   1.948   1.361 -0.0028 -0.1207  0.7936
  161MPD2    N1 2463   1.063   1.810   1.427 -0.0185 -0.4883 -0.3674
  161MPD2    H7 2464   1.086   1.906   1.403 -1.9296 -0.0805 -0.6280
  162TMC2    C1 2465   4.619   4.351   1.151 -0.1959  0.0061  0.2829
  162TMC2    C2 2466   4.590   4.459   1.079 -0.5273 -0.2651 -0.3485
  162TMC2    C3 2467   4.608   4.580   1.131 -0.0399  0.6165  1.2095
  162TMC2    C4 2468   4.643   4.355   1.290 -0.9760  0.2155  0.1489
  162TMC2    C5 2469   4.636   4.485   1.346  0.2511 -0.4167 -0.6447
  162TMC2    C6 2470   4.632   4.595   1.261  0.3225 -0.8043  0.3237
  162TMC2     C 2471   4.552   4.235   1.103 -0.1406  0.0667  0.5890
  162TMC2     O 2472   4.476   4.256   1.009 -0.1353  0.1736  0.8246
  162TMC2     H 2473   4.569   4.444   0.973 -2.8096 -0.3873  0.1262
  162TMC2    H1 2474   4.674   4.274   1.355  1.1592  1.0622  0.1826
  162TMC2    H2 2475   4.639   4.695   1.303 -0.1231  0.2218 -2.0480
  162TMC2    C7 2476   4.640   4.514   1.483  0.2348 -0.0369 -0.8990
  162TMC2    C8 2477   4.543   4.698   1.067 -0.0529  0.0919 -0.3557
  162TMC2    O1 2478   4.673   4.625   1.510  0.3358  0.3327  0.6695
  162TMC2    O2 2479   4.551   0.097   1.105  0.2061 -0.1601  0.3299
  162TMC2    O5 2480   4.449   4.634   0.993  0.3254  0.5116  0.4084
  162TMC2    H5 2481   4.389   4.697   0.946 -0.0935 -1.0623 -1.1778
  163MPD2     C 2482   4.432   3.742   1.113 -0.4427  0.0665  0.2095
  163MPD2    C1 2483   4.426   3.834   1.015 -0.6932  1.0912 -0.4063
  163MPD2    C2 2484   4.474   3.960   1.035  0.2293  0.4009 -0.3326
  163MPD2    C3 2485   4.540   3.994   1.149  0.5815 -0.1787  0.1153
  163MPD2    C4 2486   4.568   3.893   1.239 -0.2363 -0.4223  0.0317
  163MPD2    C5 2487   4.511   3.763   1.224 -0.2303  0.2375  0.8227
  163MPD2     H 2488   4.448   4.043   0.971 -1.1291 -0.7940 -1.3381
  163MPD2    H1 2489   4.622   3.906   1.332  0.4767 -0.2014 -0.4105
  163MPD2    H2 2490   4.380   3.647   1.107 -1.4556  0.5012  2.2101
  163MPD2    H3 2491   4.518   3.688   1.302 -1.1776  1.5826  2.2007
  163MPD2     N 2492   4.579   4.126   1.174  0.1672 -1.4026  0.1401
  163MPD2    H5 2493   4.621   4.149   1.263  3.1244 -0.0271 -1.6187
  163MPD2    N1 2494   4.339   3.801   0.904  0.6303  0.5895 -0.7754
  163MPD2    H7 2495   4.291   3.711   0.907  0.0369  0.8877 -1.5129
  164TCq2    C1 2496   3.930   3.847  10.870 -0.2195  0.5620 -0.5738
  164TCq2    O2 2497   3.808   3.828  10.866 -0.0853  0.0031  0.6567
  164TCq2    C2 2498   3.983   3.988  10.868  0.8384 -0.3480  0.1344
  164TCq2    C3 2499   4.116   4.018  10.895  0.8987 -0.6749  0.0667
  164TCq2    C4 2500   4.141   4.153  10.906 -0.7969  0.5851 -0.1914
  164TCq2    C5 2501   4.038   4.245  10.902 -0.0829 -0.3989  0.3171
  164TCq2    C6 2502   3.909   4.211  10.879  0.7963 -0.5464 -0.5261
  164TCq2    C7 2503   3.883   4.083  10.858  0.0847  0.4352  0.2462
  164TCq2    C8 2504   3.797   4.283  10.926 -0.1412 -0.1117 -0.3521
  164TCq2    O4 2505   3.691   4.270  10.866  0.6694 -0.5895 -0.3807
  164TCq2    C9 2506   4.270   4.205  10.949 -0.2331  0.3180 -0.3751
  164TCq2    O5 2507   4.278   4.323  10.993 -0.1276  0.2370  0.0526
  164TCq2    O6 2508   4.358   4.122  10.979  0.7339 -0.2425  0.1970
  164TCq2    H2 2509   4.204   3.955  10.910  1.3135 -0.0144  0.4205
  164TCq2    H3 2510   4.054   4.350  10.923 -1.3327 -0.2706  0.6251
  164TCq2    H4 2511   3.784   4.058  10.822 -0.1297  1.9355 -0.1956
  165MPD2     C 2512   0.524   0.959   1.995 -0.3817 -0.0226  0.0568
  165MPD2    C1 2513   0.437   1.019   1.899 -0.5517 -0.4640  1.1106
  165MPD2    C2 2514   0.478   1.145   1.862 -0.1810  0.1404 -0.2183
  165MPD2    C3 2515   0.595   1.200   1.912 -0.3630 -0.1072  0.3096
  165MPD2    C4 2516   0.680   1.127   1.996  0.2999 -0.4131  0.7232
  165MPD2    C5 2517   0.633   1.010   2.044  0.7667  0.4689 -0.1572
  165MPD2     H 2518   0.420   1.198   1.787  2.0227 -0.3494 -2.2632
  165MPD2    H1 2519   0.777   1.168   2.024 -0.1128 -0.1942  1.8071
  165MPD2    H2 2520   0.492   0.865   2.039 -0.6393  1.0071  2.0425
  165MPD2    H3 2521   0.688   0.954   2.119  0.7965  0.6436 -0.0486
  165MPD2     N 2522   0.642   1.326   1.873  0.2491 -0.2151 -0.0134
  165MPD2    H5 2523   0.723   1.356   1.925 -0.0516 -3.7868  2.4976
  165MPD2    N1 2524   0.320   0.949   1.856  0.2584  0.2024  0.1715
  165MPD2    H7 2525   0.308   0.849   1.871  0.1968  0.3394  1.0559
  166TCq2    C1 2526   0.573   1.422   1.807 -0.1881  0.1365  0.4853
  166TCq2    O2 2527   0.464   1.417   1.756 -0.5175 -1.0252  0.4398
  166TCq2    C2 2528   0.649   1.545   1.787 -0.3147 -0.9122  0.0607
  166TCq2    C3 2529   0.585   1.666   1.782  0.0573  0.7201  0.5715
  166TCq2    C4 2530   0.648   1.786   1.779  0.0710  0.1154  0.0118
  166TCq2    C5 2531   0.787   1.777   1.793 -0.3109 -0.0582  0.4238
  166TCq2    C6 2532   0.852   1.659   1.794 -0.1175  0.6577 -0.1154
  166TCq2    C7 2533   0.782   1.545   1.816  0.6978 -0.3302 -0.2328
  166TCq2    C8 2534   0.989   1.671   1.857  0.6636 -0.3236  0.2627
  166TCq2    O4 2535   1.055   1.766   1.825 -0.0190 -0.4492  0.1178
  166TCq2    C9 2536   0.573   1.912   1.790  0.3298 -0.1055  0.3098
  166TCq2    O5 2537   0.452   1.890   1.810 -0.5071  0.2565  0.1102
  166TCq2    O6 2538   0.625   2.026   1.776  0.5399  0.1660 -0.0805
  166TCq2    H2 2539   0.477   1.670   1.773  0.4844  3.2775 -3.7289
  166TCq2    H3 2540   0.839   1.871   1.805 -1.6309  0.6920  0.3461
  166TCq2    H4 2541   0.840   1.454   1.822  0.6311 -0.3607 -0.0442
  167TMC2    C1 2542   3.394   3.325  13.518 -0.3780 -0.4880 -0.3703
  167TMC2    C2 2543   3.346   3.309  13.645 -0.1742 -0.1910 -0.0366
  167TMC2    C3 2544   3.242   3.228  13.671 -0.4828  0.2358  0.1906
  167TMC2    C4 2545   3.344   3.253  13.414 -0.4122 -0.1640 -0.1555
  167TMC2    C5 2546   3.239   3.164  13.447  0.0791  0.2182 -0.2315
  167TMC2    C6 2547   3.187   3.164  13.568 -0.2877 -0.4288 -0.2653
  167TMC2     C 2548   3.504   3.416  13.501 -0.4446 -0.8200 -1.0077
  167TMC2     O 2549   3.562   3.448  13.606 -0.2400  0.1948  0.1976
  167TMC2     H 2550   3.354   3.384  13.724  0.4129 -0.7356  0.4243
  167TMC2    H1 2551   3.390   3.253  13.316 -3.9595  2.6286 -1.8300
  167TMC2    H2 2552   3.105   3.095  13.583 -0.4709 -0.4163 -1.2387
  167TMC2    C7 2553   3.175   3.077  13.344 -0.5069  0.3063 -0.5909
  167TMC2    C8 2554   3.184   3.219  13.803  0.5152 -0.0416  0.1109
  167TMC2    O1 2555   3.099   2.989  13.385  0.1761  0.7024 -0.1679
  167TMC2    O2 2556   3.070   3.183  13.827 -0.2344 -0.0247 -1.0497
  167TMC2    O5 2557   3.297   3.208  13.882  0.4973  0.7380  0.2849
  167TMC2    H5 2558   3.380   3.228  13.833 -0.2468  0.5817 -1.0163
  168MPD2     C 2559   3.677   3.660  13.458  0.1381 -0.0494  0.8824
  168MPD2    C1 2560   3.602   3.594  13.359  0.0254 -0.2402 -0.4742
  168MPD2    C2 2561   3.611   3.645  13.230  0.0641  0.3793 -0.0280
  168MPD2    C3 2562   3.686   3.758  13.201  0.1428 -0.3202 -0.3826
  168MPD2    C4 2563   3.764   3.818  13.294  0.1137  0.4048  0.4602
  168MPD2    C5 2564   3.760   3.766  13.421  0.1207 -0.1090  0.3737
  168MPD2     H 2565   3.533   3.599  13.169  1.3119 -0.2463 -1.1384
  168MPD2    H1 2566   3.809   3.914  13.272  1.5676  0.3096  3.1202
  168MPD2    H2 2567   3.674   3.627  13.561  0.1065 -0.9519  0.5935
  168MPD2    H3 2568   3.828   3.806  13.495  0.2591  0.4014 -0.0286
  168MPD2     N 2569   3.677   3.818  13.070 -0.6878  0.1881  0.0140
  168MPD2    H5 2570   3.729   3.901  13.043  1.1861 -0.0188  3.0358
  168MPD2    N1 2571   3.514   3.484  13.382 -0.2785  0.2649  0.6163
  168MPD2    H7 2572   3.459   3.458  13.301 -0.2629  0.4048  0.5607
  169MPD1     C 2573   2.413   3.562   9.884  0.2030 -0.6527  0.3941
  169MPD1    C1 2574   2.397   3.583   9.746 -0.6731  0.9606  0.5426
  169MPD1    C2 2575   2.294   3.518   9.684 -0.7041  0.6861 -0.9432
  169MPD1    C3 2576   2.212   3.432   9.751 -0.6581  0.0335 -0.2847
  169MPD1    C4 2577   2.234   3.410   9.888 -0.1831 -1.3056 -0.3643
  169MPD1    C5 2578   2.332   3.473   9.952 -0.2862  0.0043  0.8028
  169MPD1     H 2579   2.293   3.531   9.576  1.2589 -1.4724 -1.2271
  169MPD1    H1 2580   2.181   3.336   9.947 -0.5108  0.0981  1.0838
  169MPD1    H2 2581   2.490   3.612   9.942 -0.7976  0.8949  0.4120
  169MPD1    H3 2582   2.360   3.452  10.055  0.4139  2.9809  1.2204
  169MPD1     N 2583   2.107   3.371   9.688  1.0529 -0.2350  0.2330
  169MPD1    H5 2584   2.107   3.382   9.587 -1.6721 -0.0933  0.2475
  169MPD1    N1 2585   2.498   3.641   9.662 -0.2304  0.4936  0.0441
  169MPD1    H6 2586   2.450   3.684   9.584  1.4320  0.6009 -0.9250
  169MPD1    H7 2587   2.547   3.714   9.713  1.8338  0.0233 -1.2764
  170MPD1     C 2588   4.313   1.078  12.864 -0.3008 -0.0247 -0.1614
  170MPD1    C1 2589   4.437   1.107  12.918 -0.3069  0.5159 -0.0433
  170MPD1    C2 2590   4.441   1.213  13.008 -0.4822 -0.4424  0.3059
  170MPD1    C3 2591   4.326   1.279  13.050 -0.4908  0.0521 -0.2764
  170MPD1    C4 2592   4.209   1.255  12.986  0.9554 -0.0089  0.0900
  170MPD1    C5 2593   4.199   1.150  12.901 -0.2953 -0.4825  0.1138
  170MPD1     H 2594   4.534   1.247  13.054 -0.0779 -0.3012 -0.6232
  170MPD1    H1 2595   4.125   1.320  13.006  0.6334  0.6360 -3.3846
  170MPD1    H2 2596   4.298   0.996  12.795  0.0267 -1.0926  1.0355
  170MPD1    H3 2597   4.104   1.136  12.852  1.0141 -3.2266 -1.6468
  170MPD1     N 2598   4.337   1.369  13.155 -0.0075 -0.2143  0.1212
  170MPD1    H5 2599   4.433   1.399  13.172 -0.4622  0.6646  1.1579
  170MPD1    N1 2600   4.547   1.030  12.897  0.0067  0.2158  0.5632
  170MPD1    H6 2601   4.548   0.964  12.820 -1.1684  1.4936 -0.5514
  170MPD1    H7 2602   4.631   1.086  12.903  0.7653 -1.1465  2.5364
  171MPD1     C 2603   3.151   2.972  15.542 -0.0944  0.1692 -0.0620
  171MPD1    C1 2604   3.260   2.886  15.543 -0.6280  0.3103  0.5417
  171MPD1    C2 2605   3.241   2.766  15.611  0.5153 -0.7726  0.5710
  171MPD1    C3 2606   3.116   2.730  15.660 -0.1445  0.3914 -0.1570
  171MPD1    C4 2607   3.013   2.820  15.650  0.1009  0.0120 -0.6301
  171MPD1    C5 2608   3.033   2.940  15.588  0.7971  0.2798 -0.1056
  171MPD1     H 2609   3.331   2.706  15.622  0.1680 -0.9321  2.5018
  171MPD1    H1 2610   2.911   2.800  15.679 -0.1356  3.6577  0.9534
  171MPD1    H2 2611   3.167   3.072  15.502  2.0274  0.7759  2.2807
  171MPD1    H3 2612   2.948   3.002  15.564  0.7674  0.4310  0.3928
  171MPD1     N 2613   3.083   2.603  15.722  0.2232 -0.5356  0.2380
  171MPD1    H5 2614   2.998   2.590  15.777  0.2184  1.6142  0.7109
  171MPD1    N1 2615   3.389   2.932  15.495 -0.0110 -0.3093 -0.5984
  171MPD1    H6 2616   3.376   2.994  15.415 -0.1471  0.1188 -0.2523
  171MPD1    H7 2617   3.447   2.855  15.463  1.7100  0.5087  0.5527
  172MPD1     C 2618   1.977   1.585   0.453  0.5347 -0.5498  0.4343
  172MPD1    C1 2619   2.018   1.684   0.544  0.0656 -0.3028  0.4386
  172MPD1    C2 2620   2.114   1.774   0.503 -0.0615  0.3739 -0.5712
  172MPD1    C3 2621   2.160   1.789   0.375  0.0268  0.1789 -0.0172
  172MPD1    C4 2622   2.107   1.696   0.282 -0.3725 -0.1692 -0.1129
  172MPD1    C5 2623   2.028   1.595   0.327  0.0404 -0.1053  0.4212
  172MPD1     H 2624   2.152   1.844   0.576  1.5120  0.1235 -1.1387
  172MPD1    H1 2625   2.131   1.699   0.177  0.0125  2.3987  0.0458
  172MPD1    H2 2626   1.908   1.506   0.477 -1.0469 -0.0559 -2.4530
  172MPD1    H3 2627   1.987   1.526   0.254 -2.2841 -1.5364  3.0615
  172MPD1     N 2628   2.257   1.882   0.327 -0.3927 -0.9110  0.2292
  172MPD1    H5 2629   2.284   1.879   0.229  0.7738 -0.2922  0.5386
  172MPD1    N1 2630   1.993   1.665   0.684 -0.2119 -0.2740  0.6182
  172MPD1    H6 2631   2.001   1.754   0.732  2.0582 -0.2265  0.1613
  172MPD1    H7 2632   1.906   1.619   0.710 -1.2602  0.6468 -1.2993
  173MPD1     C 2633   2.876   1.760  14.491  0.1302  0.3877  0.4170
  173MPD1    C1 2634   2.869   1.630  14.533  0.1746  0.5701 -0.2911
  173MPD1    C2 2635   2.985   1.567  14.578  0.6211  0.6273  0.0852
  173MPD1    C3 2636   3.098   1.639  14.620 -0.4019 -0.0319 -0.2501
  173MPD1    C4 2637   3.093   1.775  14.597  0.8481  0.1931  0.5898
  173MPD1    C5 2638   2.990   1.830  14.525  0.9691 -0.3495 -0.5783
  173MPD1     H 2639   2.998   1.460  14.586  2.7631  1.0377  2.1265
  173MPD1    H1 2640   3.176   1.842  14.613  0.6205  0.7154 -0.3590
  173MPD1    H2 2641   2.803   1.812  14.430 -1.4833 -2.8960 -0.4548
  173MPD1    H3 2642   2.995   1.930  14.483  1.0611  0.4719  1.3975
  173MPD1     N 2643   3.218   1.571  14.668  0.4713  0.1977  0.3594
  173MPD1    H5 2644   3.206   1.474  14.697  0.5249  0.4556  1.2530
  173MPD1    N1 2645   2.763   1.546  14.483 -0.2134 -0.8090  0.4646
  173MPD1    H6 2646   2.674   1.593  14.498 -0.8617 -2.6777  2.4546
  173MPD1    H7 2647   2.750   1.458  14.533  0.7926 -1.5429 -0.5653
  174MPD1     C 2648   4.188   1.372  14.474 -0.1678 -0.0037  0.9505
  174MPD1    C1 2649   4.189   1.406  14.607 -0.2971 -0.4903 -0.6156
  174MPD1    C2 2650   4.072   1.447  14.665 -0.0899 -0.4371  0.9493
  174MPD1    C3 2651   3.955   1.464  14.596  0.2871  0.1881 -1.0022
  174MPD1    C4 2652   3.964   1.444  14.462 -0.6850  0.0475 -0.4043
  174MPD1    C5 2653   4.079   1.394  14.405  0.4922  0.7576  0.5932
  174MPD1     H 2654   4.083   1.458  14.772  1.6883 -1.4778  0.8798
  174MPD1    H1 2655   3.873   1.467  14.407 -1.0886  0.4525  0.4377
  174MPD1    H2 2656   4.278   1.344  14.420  0.0918  3.4179 -0.3813
  174MPD1    H3 2657   4.084   1.368  14.300  2.2502  2.3205  0.2871
  174MPD1     N 2658   3.828   1.496  14.647 -0.3003 -0.1848  0.6828
  174MPD1    H5 2659   3.747   1.519  14.591  0.3683 -1.1931 -0.7245
  174MPD1    N1 2660   4.297   1.371  14.689  0.0718  0.6331 -0.2226
  174MPD1    H6 2661   4.308   1.418  14.779 -0.4997 -4.2559  2.4737
  174MPD1    H7 2662   4.389   1.362  14.646  0.1357 -0.7346  0.1708
  175MPD1     C 2663   2.004   2.599  15.501 -0.4256 -0.1507  0.0838
  175MPD1    C1 2664   1.872   2.587  15.526 -0.4683  0.5944 -0.0498
  175MPD1    C2 2665   1.825   2.598  15.654 -0.6221  0.3794 -0.2130
  175MPD1    C3 2666   1.911   2.633  15.759  0.2729 -0.0003 -0.7539
  175MPD1    C4 2667   2.042   2.665  15.723 -0.1258  0.2167 -0.0141
  175MPD1    C5 2668   2.086   2.642  15.596 -0.0199 -0.2360 -0.0797
  175MPD1     H 2669   1.719   2.585  15.673 -0.8024 -1.4132 -2.3795
  175MPD1    H1 2670   2.110   2.703  15.799 -2.1840  3.3856  0.2111
  175MPD1    H2 2671   2.053   2.573  15.407  1.0754  0.1903  0.7686
  175MPD1    H3 2672   2.189   2.663  15.572  0.1937  1.3424  2.2496
  175MPD1     N 2673   1.867   2.663  15.894  0.1333 -0.3339 -0.0688
  175MPD1    H5 2674   1.947   2.649  15.954  0.2626 -4.9781 -1.3315
  175MPD1    N1 2675   1.781   2.578  15.418 -0.6723  0.2681  0.1956
  175MPD1    H6 2676   1.831   2.553  15.332 -1.1461 -1.3479  0.3895
  175MPD1    H7 2677   1.712   2.506  15.438  1.4180 -1.9493 -0.4676
  176MPD1     C 2678   3.797   3.480  17.349 -0.3354 -0.1984 -0.1336
  176MPD1    C1 2679   3.663   3.501  17.363 -0.4398  0.5471 -0.4510
  176MPD1    C2 2680   3.614   3.632  17.361  0.0382 -0.0837 -0.2366
  176MPD1    C3 2681   3.707   3.736  17.386  0.3061 -0.0162 -0.1018
  176MPD1    C4 2682   3.842   3.708  17.374  0.2454 -0.2969  0.0314
  176MPD1    C5 2683   3.884   3.584  17.347  0.2821 -0.5620  0.3360
  176MPD1     H 2684   3.507   3.642  17.377  0.2372  1.0168  0.3853
  176MPD1    H1 2685   3.911   3.789  17.392 -1.6580  0.9175  1.9356
  176MPD1    H2 2686   3.844   3.385  17.328  0.4469  0.4233 -1.2349
  176MPD1    H3 2687   3.990   3.562  17.333 -0.1214 -0.3764 -3.0861
  176MPD1     N 2688   3.646   3.860  17.418  0.1792 -0.4762  1.0048
  176MPD1    H5 2689   3.546   3.861  17.435 -0.3755  0.4657 -2.3609
  176MPD1    N1 2690   3.571   3.394  17.356  0.0322 -0.5886  0.2880
  176MPD1    H6 2691   3.605   3.308  17.397  0.9164 -0.6106 -0.4823
  176MPD1    H7 2692   3.483   3.407  17.406  0.0718 -0.4537  0.3220
  177MPD1     C 2693   2.020   3.425  10.498  0.2647  1.1351  0.3651
  177MPD1    C1 2694   1.907   3.400  10.421  0.1953  1.0367  0.4579
  177MPD1    C2 2695   1.889   3.475  10.300  0.1822  0.7654 -0.0132
  177MPD1    C3 2696   1.989   3.562  10.256 -0.3246 -0.8010 -0.4711
  177MPD1    C4 2697   2.103   3.573  10.331  0.0951  0.0939  0.8227
  177MPD1    C5 2698   2.119   3.506  10.446 -0.3681 -0.5199 -0.0143
  177MPD1     H 2699   1.797   3.475  10.243 -0.1089 -0.1981  0.4650
  177MPD1    H1 2700   2.196   3.627  10.315  0.4085 -0.3245  1.2151
  177MPD1    H2 2701   2.035   3.388  10.599 -0.1118 -2.3069 -0.8215
  177MPD1    H3 2702   2.202   3.525  10.512 -2.1044  1.0512  1.6930
  177MPD1     N 2703   1.970   3.637  10.135 -0.5660  0.0219  0.2048
  177MPD1    H5 2704   1.891   3.608  10.077 -1.0049 -0.4242  1.0236
  177MPD1    N1 2705   1.805   3.317  10.479  0.5560  0.2011  0.6325
  177MPD1    H6 2706   1.844   3.240  10.532  0.8275  0.4389  0.7749
  177MPD1    H7 2707   1.720   3.287  10.432  0.8423 -0.3182  0.4496
  178MPD1     C 2708   4.436   1.340  17.573  0.0434 -0.6112 -0.3770
  178MPD1    C1 2709   4.545   1.298  17.493  0.0138  0.1979 -0.6891
  178MPD1    C2 2710   4.564   1.163  17.486  0.2317  0.0306 -0.4574
  178MPD1    C3 2711   4.472   1.072  17.544 -0.1083 -0.2035 -0.3694
  178MPD1    C4 2712   4.366   1.117  17.619  0.2181  0.2718 -0.2734
  178MPD1    C5 2713   4.350   1.250  17.633  0.3640  0.6609 -0.0769
  178MPD1     H 2714   4.656   1.143  17.432 -0.0012  0.4541 -1.0150
  178MPD1    H1 2715   4.308   1.045   0.000  1.8374 -0.0944  0.9427
  178MPD1    H2 2716   4.412   1.444  17.587  1.0469 -0.4573  0.1577
  178MPD1    H3 2717   4.258   1.288   0.003 -0.3996 -0.5055 -0.6563
  178MPD1     N 2718   4.506   0.931  17.550 -0.8523  0.7349 -0.6818
  178MPD1    H5 2719   4.453   0.869  17.610 -0.0729  1.8387  1.1860
  178MPD1    N1 2720   4.642   1.385  17.436  0.2021 -0.3601 -0.5856
  178MPD1    H6 2721   4.683   1.358  17.347 -1.3553 -1.7162 -0.8856
  178MPD1    H7 2722   4.599   1.477  17.425  0.8910  0.1733  1.1528
  179MPD1     C 2723   3.957   3.954  16.502 -0.6283 -0.2252  0.1297
  179MPD1    C1 2724   3.996   4.017  16.384  0.8143  0.2418 -0.2486
  179MPD1    C2 2725   4.000   3.936  16.268  0.0024  0.5921  0.7177
  179MPD1    C3 2726   3.963   3.806  16.271 -0.5620 -0.7949  0.2658
  179MPD1    C4 2727   3.946   3.749  16.400 -0.9006  0.4146  0.0811
  179MPD1    C5 2728   3.950   3.820  16.517 -0.2350  0.7570  0.3470
  179MPD1     H 2729   4.022   3.986  16.175  3.6660 -1.6087  0.4128
  179MPD1    H1 2730   3.931   3.642  16.405 -0.6827  0.4296  1.0027
  179MPD1    H2 2731   3.941   4.009  16.594  4.5407 -1.6285  1.8591
  179MPD1    H3 2732   3.923   3.779  16.613  1.2466  0.8590  0.8101
  179MPD1     N 2733   3.956   3.727  16.155  0.3090  0.9824 -0.0194
  179MPD1    H5 2734   3.941   3.627  16.169 -1.3342  1.5676  2.4043
  179MPD1    N1 2735   4.013   4.152  16.375 -0.1225  0.7326 -0.8228
  179MPD1    H6 2736   4.060   4.190  16.293 -0.3282  0.0079 -1.2669
  179MPD1    H7 2737   4.055   4.188  16.461  1.3907  0.0678 -1.2970
  180MPD1     C 2738   3.034   0.919  14.802 -0.0080 -0.1515 -0.3079
  180MPD1    C1 2739   3.163   0.917  14.761  0.6643 -0.0555 -0.1863
  180MPD1    C2 2740   3.216   0.801  14.702 -0.2593  0.1112 -0.5401
  180MPD1    C3 2741   3.133   0.691  14.683  0.2106  0.4350  0.2000
  180MPD1    C4 2742   2.995   0.700  14.716 -0.0875 -0.1552 -0.8261
  180MPD1    C5 2743   2.948   0.819  14.775  0.1584  0.7111 -0.9108
  180MPD1     H 2744   3.320   0.796  14.671 -0.5950  0.8917 -1.7935
  180MPD1    H1 2745   2.925   0.620  14.693  1.1126 -1.2261 -0.7743
  180MPD1    H2 2746   2.993   1.007  14.852 -2.6203 -1.5480  0.0299
  180MPD1    H3 2747   2.844   0.838  14.797  0.2367  1.3074 -1.0571
  180MPD1     N 2748   3.191   0.574  14.635  0.4234  0.6257  0.0700
  180MPD1    H5 2749   3.289   0.576  14.612  0.8221  2.9083  1.9767
  180MPD1    N1 2750   3.245   1.042  14.765 -0.7564  0.2909  0.4670
  180MPD1    H6 2751   3.339   1.020  14.796 -0.2274  1.8583 -0.0270
  180MPD1    H7 2752   3.207   1.104  14.836  1.1493  0.5735  1.2343
  181MPD1     C 2753   0.920   1.871  10.024  0.3054 -0.3928  0.5718
  181MPD1    C1 2754   1.025   1.780  10.011  0.6164  0.7928  0.0729
  181MPD1    C2 2755   1.131   1.810   9.927  0.2846 -0.0102 -0.3267
  181MPD1    C3 2756   1.136   1.919   9.845 -0.5615 -0.3117  0.4846
  181MPD1    C4 2757   1.043   2.017   9.878 -0.0880 -0.1727 -0.6552
  181MPD1    C5 2758   0.939   1.989   9.959  0.6583 -0.9874  0.0898
  181MPD1     H 2759   1.192   1.724   9.904 -1.2123 -1.1934  0.0798
  181MPD1    H1 2760   1.041   2.108   9.819  1.8598 -0.2467 -0.8459
  181MPD1    H2 2761   0.829   1.847  10.076 -1.1417  2.1538 -0.7761
  181MPD1    H3 2762   0.869   2.069   9.977  1.9814 -0.0924  1.1816
  181MPD1     N 2763   1.235   1.949   9.752  0.1871  0.2907  0.2881
  181MPD1    H5 2764   1.235   2.038   9.702  0.4170  0.7741  1.1401
  181MPD1    N1 2765   1.008   1.649  10.069 -0.3272 -0.3051  0.0794
  181MPD1    H6 2766   0.946   1.650  10.150  0.7090 -0.9816  0.8676
  181MPD1    H7 2767   1.091   1.593  10.089  1.3510  2.2975  0.3431
  182MPD1     C 2768   2.449   0.775   1.733  0.8718  0.2304 -0.1627
  182MPD1    C1 2769   2.448   0.703   1.616 -0.2238 -0.1928 -0.1911
  182MPD1    C2 2770   2.337   0.713   1.538 -0.1493  0.3889  0.4116
  182MPD1    C3 2771   2.234   0.801   1.570  0.0356  0.4882 -0.1399
  182MPD1    C4 2772   2.241   0.867   1.691 -0.0892  0.4686  0.1917
  182MPD1    C5 2773   2.350   0.850   1.773  0.2406 -0.8355 -0.2476
  182MPD1     H 2774   2.329   0.665   1.441 -1.5118 -1.9550  1.6751
  182MPD1    H1 2775   2.155   0.923   1.726  1.6744  2.9453  0.5855
  182MPD1    H2 2776   2.529   0.764   1.805  0.8673  0.0483 -0.1869
  182MPD1    H3 2777   2.348   0.895   1.871  0.1132  0.0427 -0.6484
  182MPD1     N 2778   2.130   0.832   1.481  0.7176  1.2109 -0.0926
  182MPD1    H5 2779   2.049   0.883   1.514  0.1809 -0.1476  0.6807
  182MPD1    N1 2780   2.555   0.625   1.572 -0.5533  0.2572 -0.0351
  182MPD1    H6 2781   2.554   0.613   1.471 -1.8087 -0.0964  0.0164
  182MPD1    H7 2782   2.647   0.664   1.591 -0.3814 -1.1359  1.9268
  183MPD1     C 2783   2.436   0.792   9.005  0.0180 -0.4436 -0.2453
  183MPD1    C1 2784   2.522   0.704   9.061 -0.1926 -0.1927 -0.0372
  183MPD1    C2 2785   2.630   0.761   9.131  0.3756  0.6571 -0.1189
  183MPD1    C3 2786   2.650   0.899   9.125  0.0816 -0.2459 -0.0203
  183MPD1    C4 2787   2.573   0.978   9.040 -1.0386  0.5685  0.2577
  183MPD1    C5 2788   2.462   0.925   8.991  0.6410  0.8385 -0.2336
  183MPD1     H 2789   2.697   0.703   9.193 -0.9299 -0.3998  0.3144
  183MPD1    H1 2790   2.584   1.083   9.017  4.2430  0.0722  0.4086
  183MPD1    H2 2791   2.339   0.755   8.972 -0.2314  0.9988 -1.1302
  183MPD1    H3 2792   2.405   0.988   8.923  1.6557  0.7356 -1.1831
  183MPD1     N 2793   2.759   0.950   9.200  0.6952 -0.0299  0.5145
  183MPD1    H5 2794   2.809   0.885   9.259  0.3943 -0.7729 -0.0547
  183MPD1    N1 2795   2.494   0.571   9.076  0.1971  0.0265 -0.2255
  183MPD1    H6 2796   2.583   0.522   9.077  1.0593  1.7207  3.4604
  183MPD1    H7 2797   2.431   0.536   9.003  1.1005 -0.5207 -0.7435
  184MPD1     C 2798   0.711   3.384  10.338 -0.0370  0.0728 -0.0097
  184MPD1    C1 2799   0.650   3.465  10.243 -0.4725 -0.8883  0.7071
  184MPD1    C2 2800   0.723   3.504  10.132  0.4971  0.0161 -0.0071
  184MPD1    C3 2801   0.850   3.455  10.108  0.1348 -0.4271 -0.5210
  184MPD1    C4 2802   0.908   3.369  10.202  0.4907  0.7581  0.0073
  184MPD1    C5 2803   0.839   3.339  10.315 -0.3189 -0.1080  0.2213
  184MPD1     H 2804   0.687   3.584  10.068  0.1454 -0.0436  0.1157
  184MPD1    H1 2805   1.004   3.324  10.182 -0.3216 -0.2834 -1.5419
  184MPD1    H2 2806   0.668   3.360  10.434 -1.2603  0.4803 -0.4614
  184MPD1    H3 2807   0.884   3.271  10.387  0.6421  1.2639  0.9248
  184MPD1     N 2808   0.919   3.505   9.998  0.2056  0.6225  0.6219
  184MPD1    H5 2809   0.871   3.558   9.926 -0.6781 -0.9278  0.0690
  184MPD1    N1 2810   0.537   3.542  10.277  0.6362  0.5778  0.1024
  184MPD1    H6 2811   0.466   3.493  10.330 -0.4929  2.3997  0.2556
  184MPD1    H7 2812   0.488   3.568  10.192 -0.2296 -1.5496 -0.0566
  185MPD1     C 2813   0.549   3.545   9.280 -0.0837  0.8023  0.2458
  185MPD1    C1 2814   0.672   3.580   9.224  0.0983  0.6449  0.5399
  185MPD1    C2 2815   0.782   3.578   9.312  0.0421 -0.7941  0.2295
  185MPD1    C3 2816   0.763   3.575   9.451  0.3344 -0.1624  0.2383
  185MPD1    C4 2817   0.637   3.560   9.501 -0.4749 -0.4462 -0.0165
  185MPD1    C5 2818   0.533   3.539   9.413 -0.0278 -0.6373  0.3908
  185MPD1     H 2819   0.882   3.584   9.270  1.0355 -0.6430  2.5661
  185MPD1    H1 2820   0.617   3.555   9.607  2.2754 -0.4833  0.4982
  185MPD1    H2 2821   0.464   3.513   9.221 -0.9283  0.9042  1.3992
  185MPD1    H3 2822   0.431   3.525   9.447 -1.0223  2.3406 -1.4084
  185MPD1     N 2823   0.869   3.572   9.548 -0.0886  0.0126 -0.3158
  185MPD1    H5 2824   0.846   3.582   9.647  0.6123 -0.9304 -0.0561
  185MPD1    N1 2825   0.687   3.575   9.083 -0.2167  0.1675 -0.4873
  185MPD1    H6 2826   0.767   3.627   9.048  0.9857 -1.5281 -0.2402
  185MPD1    H7 2827   0.607   3.617   9.037  0.2210  2.0120  0.4349
  186MPD1     C 2828   4.374   3.609  15.749 -0.2978  0.1399  0.4656
  186MPD1    C1 2829   4.387   3.526  15.858  0.5954 -0.2584 -0.3497
  186MPD1    C2 2830   4.373   3.577  15.987  0.0292  0.2356 -0.5650
  186MPD1    C3 2831   4.353   3.709  16.007 -0.3799  0.3870  0.3359
  186MPD1    C4 2832   4.323   3.785  15.895  0.2428  0.1155  0.0068
  186MPD1    C5 2833   4.328   3.734  15.770  0.2610  0.1076 -0.0099
  186MPD1     H 2834   4.380   3.505  16.068  2.4269  0.2265 -0.8023
  186MPD1    H1 2835   4.294   3.889  15.898  1.1865  0.3458  1.1959
  186MPD1    H2 2836   4.392   3.569  15.650 -1.6565  1.5689 -0.3807
  186MPD1    H3 2837   4.298   3.802  15.692  0.2341 -0.1659 -0.2348
  186MPD1     N 2838   4.338   3.782  16.131  0.0147  0.2980  0.1554
  186MPD1    H5 2839   4.319   3.882  16.136 -1.7780  0.0168 -0.7576
  186MPD1    N1 2840   4.441   3.401  15.826 -0.1401  0.0645  0.2192
  186MPD1    H6 2841   4.471   3.373  15.732 -1.0895  1.6382 -0.5485
  186MPD1    H7 2842   4.414   3.322  15.885 -1.7032  0.5855  0.2000
  187MPD1     C 2843   4.219   0.466   0.344 -0.7630 -0.1733  0.2929
  187MPD1    C1 2844   4.287   0.550   0.264  0.5255 -0.5375  0.0209
  187MPD1    C2 2845   4.221   0.618   0.162  0.2266  0.0302  0.4730
  187MPD1    C3 2846   4.085   0.609   0.142  0.3478  0.4159 -0.3696
  187MPD1    C4 2847   4.020   0.508   0.219  0.6218  0.9575 -0.4667
  187MPD1    C5 2848   4.087   0.445   0.322  0.4229 -0.4679 -0.3751
  187MPD1     H 2849   4.278   0.682   0.096  0.7410  0.0964  0.9843
  187MPD1    H1 2850   3.914   0.487   0.207  0.7815 -1.0021  1.5470
  187MPD1    H2 2851   4.275   0.395   0.405  0.9770  0.3592 -0.6863
  187MPD1    H3 2852   4.031   0.372   0.379 -2.1917  1.4343 -0.5424
  187MPD1     N 2853   4.006   0.687   0.056 -0.7294  0.8338  0.2421
  187MPD1    H5 2854   3.908   0.680   0.082 -1.1216 -1.0019 -1.7063
  187MPD1    N1 2855   4.430   0.543   0.268  0.8806 -0.3159  0.5781
  187MPD1    H6 2856   4.459   0.635   0.234  0.1512 -0.3192 -0.0696
  187MPD1    H7 2857   4.464   0.507   0.356  0.7930 -1.3131  0.2005
  188MPD1     C 2858   4.194   0.881   9.452  0.4384  0.3727 -0.1103
  188MPD1    C1 2859   4.305   0.804   9.471  0.4074  0.9242  0.3457
  188MPD1    C2 2860   4.281   0.669   9.500  0.6083 -0.4004 -0.1343
  188MPD1    C3 2861   4.153   0.628   9.520  0.2214  0.1458  0.2695
  188MPD1    C4 2862   4.043   0.712   9.504  0.0429  0.8140  0.2807
  188MPD1    C5 2863   4.064   0.844   9.468 -0.0242 -0.4631 -0.2379
  188MPD1     H 2864   4.354   0.591   9.517 -1.2218 -1.8601  0.9793
  188MPD1    H1 2865   3.938   0.684   9.503  0.0847  0.7043 -0.5575
  188MPD1    H2 2866   4.202   0.979   9.406  0.1294  0.2156 -0.4996
  188MPD1    H3 2867   3.983   0.911   9.440  0.5414  0.9859  1.5665
  188MPD1     N 2868   4.115   0.494   9.539 -0.2103  0.4951  1.1950
  188MPD1    H5 2869   4.018   0.463   9.540  0.5188 -1.7755  0.9408
  188MPD1    N1 2870   4.434   0.860   9.440 -0.3841 -0.7108  0.6966
  188MPD1    H6 2871   4.434   0.961   9.442 -0.6172 -0.7027  0.3998
  188MPD1    H7 2872   4.512   0.824   9.494  0.0318  1.2875  1.3960
  189MPD1     C 2873   0.732   1.044   0.538 -0.5655  0.9215 -0.7227
  189MPD1    C1 2874   0.642   0.947   0.585  0.4701  0.4675  0.1794
  189MPD1    C2 2875   0.519   1.004   0.617 -0.4065  0.1163  0.0567
  189MPD1    C3 2876   0.478   1.136   0.589 -0.6521 -0.5943 -0.2522
  189MPD1    C4 2877   0.576   1.222   0.535 -0.0424 -0.3723 -0.3040
  189MPD1    C5 2878   0.703   1.177   0.512  0.2183 -0.7754  0.6690
  189MPD1     H 2879   0.437   0.941   0.651 -1.0842  1.6785  1.3150
  189MPD1    H1 2880   0.558   1.326   0.510 -1.2471  0.0868  2.4842
  189MPD1    H2 2881   0.837   1.019   0.529 -0.1566  2.6847 -0.8175
  189MPD1    H3 2882   0.776   1.241   0.466 -1.3160  0.4274 -0.0957
  189MPD1     N 2883   0.350   1.167   0.624 -0.2999 -0.3659 -0.4437
  189MPD1    H5 2884   0.292   1.091   0.658 -1.0662  1.2091  1.7268
  189MPD1    N1 2885   0.684   0.819   0.614  0.0723 -0.5035 -0.4296
  189MPD1    H6 2886   0.604   0.755   0.618 -0.3437 -0.0684 -1.7917
  189MPD1    H7 2887   0.742   0.789   0.536 -1.5919  0.0806 -1.8946
  190MPD1     C 2888   3.478   0.613  16.022  0.9309  0.3613 -1.0305
  190MPD1    C1 2889   3.469   0.483  16.073 -0.2990 -0.5843 -0.3501
  190MPD1    C2 2890   3.579   0.399  16.052  0.1387 -0.2743 -0.0948
  190MPD1    C3 2891   3.685   0.442  15.969  0.0402 -0.2010  0.5248
  190MPD1    C4 2892   3.683   0.572  15.926  0.0481  0.5348 -0.4824
  190MPD1    C5 2893   3.589   0.655  15.962 -0.0444 -0.0076 -0.8310
  190MPD1     H 2894   3.582   0.296  16.086  1.6764 -0.0257  0.5264
  190MPD1    H1 2895   3.772   0.607  15.876  0.4029  2.5002  1.5150
  190MPD1    H2 2896   3.406   0.691  16.043  1.5536  0.6586 -0.0000
  190MPD1    H3 2897   3.595   0.758  15.929 -0.1222  0.1917 -0.2241
  190MPD1     N 2898   3.790   0.350  15.953  0.9525 -0.1045 -0.6848
  190MPD1    H5 2899   3.776   0.260  15.998 -1.6476 -1.7658 -4.8385
  190MPD1    N1 2900   3.354   0.442  16.139 -0.5223  0.2164 -0.0881
  190MPD1    H6 2901   3.269   0.491  16.110 -1.5599 -1.2412  0.4290
  190MPD1    H7 2902   3.332   0.342  16.139 -2.9877  0.7695  3.1659
  191MPD1     C 2903   3.292   1.551  13.073 -0.7832 -0.8229  0.2900
  191MPD1    C1 2904   3.363   1.524  12.953  0.9158 -0.6422 -0.0580
  191MPD1    C2 2905   3.300   1.556  12.833  0.3459  0.7829  0.1372
  191MPD1    C3 2906   3.167   1.593  12.824  0.4086  0.4512 -1.2947
  191MPD1    C4 2907   3.106   1.621  12.941 -0.0088  0.8965 -0.4308
  191MPD1    C5 2908   3.165   1.599  13.066  0.8700  0.7812  0.3009
  191MPD1     H 2909   3.362   1.549  12.745  1.2319 -0.1880  0.8328
  191MPD1    H1 2910   3.008   1.668  12.946  0.0625  0.9208  0.8300
  191MPD1    H2 2911   3.327   1.535  13.175  0.5137  0.4172  0.0420
  191MPD1    H3 2912   3.106   1.625  13.153  0.5747  1.8651 -0.2221
  191MPD1     N 2913   3.117   1.632  12.697  0.9674  0.6122 -0.2656
  191MPD1    H5 2914   3.180   1.613  12.620 -2.4319 -1.8095 -2.4623
  191MPD1    N1 2915   3.506   1.511  12.961  0.0743  0.4444 -0.0006
  191MPD1    H6 2916   3.552   1.462  12.884 -0.2520  0.0969  0.0289
  191MPD1    H7 2917   3.533   1.462  13.046  0.1815  1.9803  0.8534
  192MPD1     C 2918   2.371   1.423  11.981 -0.2528  0.7906 -0.2401
  192MPD1    C1 2919   2.408   1.372  12.097  0.6100  0.1580 -0.3014
  192MPD1    C2 2920   2.508   1.444  12.168  0.8857  0.3503 -0.5898
  192MPD1    C3 2921   2.560   1.565  12.119 -0.7322  0.5690  0.1490
  192MPD1    C4 2922   2.529   1.600  11.994  0.1702  0.3449 -0.0232
  192MPD1    C5 2923   2.426   1.537  11.929 -0.2889 -1.3254 -0.1108
  192MPD1     H 2924   2.559   1.408  12.256 -0.0480  1.4985  0.4069
  192MPD1    H1 2925   2.570   1.696  11.965 -1.3917  1.4390  1.3419
  192MPD1    H2 2926   2.288   1.382  11.926 -0.3198  0.6558 -0.0378
  192MPD1    H3 2927   2.403   1.565  11.826  1.7377  1.4212  0.1716
  192MPD1     N 2928   2.668   1.625  12.180  0.0612 -0.3034 -0.0798
  192MPD1    H5 2929   2.707   1.696  12.120 -0.3941 -0.9981 -1.1921
  192MPD1    N1 2930   2.369   1.244  12.134  0.2875 -0.0402 -0.1339
  192MPD1    H6 2931   2.398   1.171  12.069 -0.9530 -1.3315  0.7614
  192MPD1    H7 2932   2.387   1.222  12.232  0.3207 -3.4414 -0.9041
  193MPD1     C 2933   3.003   2.129  16.863  0.1928  0.1198  0.4993
  193MPD1    C1 2934   2.925   2.197  16.952  0.0758  0.3200  0.4802
  193MPD1    C2 2935   2.984   2.272  17.052 -0.2160  0.2237  0.4597
  193MPD1    C3 2936   3.119   2.308  17.039  0.0595  0.0862  0.7013
  193MPD1    C4 2937   3.193   2.251  16.944 -0.3634 -0.1013  0.4515
  193MPD1    C5 2938   3.135   2.158  16.859 -0.2416 -0.0679  0.2523
  193MPD1     H 2939   2.918   2.290  17.136 -0.9092 -2.6112  0.5280
  193MPD1    H1 2940   3.296   2.275  16.918  0.3526 -2.4202  1.0451
  193MPD1    H2 2941   2.958   2.052  16.801  3.8862 -0.3357 -1.6149
  193MPD1    H3 2942   3.189   2.124  16.771 -0.9663 -1.1171  0.2218
  193MPD1     N 2943   3.176   2.401  17.123  0.9499 -0.1766  0.6493
  193MPD1    H5 2944   3.278   2.402  17.122  0.9507 -1.0573 -0.3705
  193MPD1    N1 2945   2.789   2.165  16.976 -0.4361  0.0006 -0.0819
  193MPD1    H6 2946   2.744   2.245  17.020  0.2959  0.4525 -0.1588
  193MPD1    H7 2947   2.742   2.147  16.887  0.0080 -0.1093 -0.2947
  194MPD1     C 2948   0.229   4.704  17.159  0.0184  0.0742 -0.5872
  194MPD1    C1 2949   0.332   4.701  17.067 -0.6656  0.8076 -0.3413
  194MPD1    C2 2950   0.414   4.594  17.076 -0.0849 -0.3801 -0.3949
  194MPD1    C3 2951   0.390   4.488  17.164 -0.4957  0.1077  0.2338
  194MPD1    C4 2952   0.283   4.497  17.250  0.4679 -0.0083 -0.4968
  194MPD1    C5 2953   0.203   4.606  17.250  0.0575  0.1353  0.2591
  194MPD1     H 2954   0.499   4.604  17.009  0.2880 -3.2197 -0.3495
  194MPD1    H1 2955   0.261   4.412  17.313 -4.5755  0.3803 -1.7440
  194MPD1    H2 2956   0.173   0.078  17.172  1.0245  0.6192 -0.0924
  194MPD1    H3 2957   0.124   4.611  17.325  1.0598  1.8684  1.2066
  194MPD1     N 2958   0.478   4.384  17.190  0.6670 -0.1030 -0.2120
  194MPD1    H5 2959   0.461   4.332  17.276  1.0299 -2.1107 -1.3544
  194MPD1    N1 2960   0.368   0.099  16.998  0.5163  0.2324  0.6757
  194MPD1    H6 2961   0.287   0.154  16.970  0.5267 -0.4026 -0.6110
  194MPD1    H7 2962   0.431   0.090  16.918  2.5622  0.3652  2.2678
  195MPD1     C 2963   3.034   1.031   0.273  0.4397 -0.3224 -0.5828
  195MPD1    C1 2964   2.931   0.950   0.218  0.1989  0.7160 -0.2448
  195MPD1    C2 2965   2.951   0.810   0.221 -0.3720  0.2701 -0.1967
  195MPD1    C3 2966   3.051   0.756   0.304  0.3474  0.0120 -0.3461
  195MPD1    C4 2967   3.135   0.842   0.374  0.0675  0.4408 -0.5307
  195MPD1    C5 2968   3.132   0.973   0.348  0.1292 -0.1606 -0.3657
  195MPD1     H 2969   2.876   0.746   0.176 -2.0810  0.1629  2.7396
  195MPD1    H1 2970   3.206   0.800   0.446 -1.5626 -0.1370  0.7425
  195MPD1    H2 2971   3.032   1.138   0.257 -0.6176  0.0113  1.6983
  195MPD1    H3 2972   3.203   1.042   0.393 -0.6121 -0.2895  1.0135
  195MPD1     N 2973   3.070   0.619   0.328 -0.5601  0.1292  0.3252
  195MPD1    H5 2974   3.133   0.590   0.403  0.5353  2.2009  0.1980
  195MPD1    N1 2975   2.837   1.012   0.140  0.2331  0.2785  0.7388
  195MPD1    H6 2976   2.827   1.109   0.169 -1.6402 -0.1371  1.5252
  195MPD1    H7 2977   2.751   0.958   0.142  0.3794 -0.0021 -0.5594
  196MPD1     C 2978   2.244   4.663   0.581  0.0304  0.2669 -0.1168
  196MPD1    C1 2979   2.223   0.072   0.544  0.1437  0.1554 -0.1310
  196MPD1    C2 2980   2.291   0.175   0.604  0.0514 -0.3424  0.0136
  196MPD1    C3 2981   2.374   0.158   0.715  0.7960  0.3057 -0.1300
  196MPD1    C4 2982   2.390   0.024   0.756  0.1707  0.2822 -0.1036
  196MPD1    C5 2983   2.328   4.640   0.686  0.1086  0.2906 -0.5813
  196MPD1     H 2984   2.268   0.273   0.564  2.6145  0.8651  1.4921
  196MPD1    H1 2985   2.451   4.706   0.838 -1.7982  0.6527  1.4978
  196MPD1    H2 2986   2.198   4.574   0.538  0.8457  0.5711 -1.6208
  196MPD1    H3 2987   2.344   4.538   0.720 -1.1545  1.3872  3.2672
  196MPD1     N 2988   2.435   0.259   0.791 -0.5107  0.0042  0.0837
  196MPD1    H5 2989   2.494   0.224   0.866 -0.9150  2.7671  1.7012
  196MPD1    N1 2990   2.138   0.095   0.435  0.1787  0.0461 -0.1169
  196MPD1    H6 2991   2.101   0.189   0.424 -0.6356 -0.0539  1.6433
  196MPD1    H7 2992   2.069   0.023   0.414  2.3876 -2.7706  2.2468
  197MPD1     C 2993   1.363   2.612  17.553 -0.1025  0.4561 -0.0064
  197MPD1    C1 2994   1.467   2.535  17.592  0.2823  0.4063  0.7932
  197MPD1    C2 2995   1.579   2.542  17.509 -0.9959 -0.0968 -0.4279
  197MPD1    C3 2996   1.591   2.626  17.395 -0.5742  0.1536 -0.5939
  197MPD1    C4 2997   1.478   2.694  17.351  0.1447 -0.0614  0.5653
  197MPD1    C5 2998   1.373   2.695  17.436 -0.6697  0.5840 -0.0313
  197MPD1     H 2999   1.662   2.481  17.542 -0.1330  0.8559 -0.8251
  197MPD1    H1 3000   1.463   2.750  17.259  1.9049 -0.5424 -0.0097
  197MPD1    H2 3001   1.277   2.631  17.617 -0.8764 -0.9849 -0.6053
  197MPD1    H3 3002   1.290   2.760  17.413 -0.2343  0.5363 -1.7386
  197MPD1     N 3003   1.699   2.621  17.310  0.3301  0.5237 -0.1879
  197MPD1    H5 3004   1.692   2.676  17.225  0.1624  0.2470 -0.3536
  197MPD1    N1 3005   1.457   2.464   0.043  0.7287 -0.9005 -0.3744
  197MPD1    H6 3006   1.519   2.383   0.033  1.3914 -0.5100  0.5330
  197MPD1    H7 3007   1.365   2.429   0.068  0.3938 -0.4564 -1.0081
  198MPD1     C 3008   3.148   1.447  15.890  0.3386 -0.6187 -0.3341
  198MPD1    C1 3009   3.213   1.319  15.893 -0.1932  0.1702 -0.0666
  198MPD1    C2 3010   3.349   1.313  15.928  0.0075 -0.9124 -0.1544
  198MPD1    C3 3011   3.417   1.430  15.955 -0.8331 -0.1630 -0.2304
  198MPD1    C4 3012   3.356   1.550  15.928  0.0660 -0.6785  0.7340
  198MPD1    C5 3013   3.222   1.557  15.898  0.0879 -0.4832  0.1643
  198MPD1     H 3014   3.402   1.220  15.945  1.0077 -0.1906  0.6086
  198MPD1    H1 3015   3.410   1.644  15.936 -1.1120  0.0407  0.1970
  198MPD1    H2 3016   3.042   1.459  15.869  0.3816 -0.5494 -0.5030
  198MPD1    H3 3017   3.182   1.657  15.884  0.9521 -0.2193 -0.4350
  198MPD1     N 3018   3.554   1.425  15.991 -0.0194 -0.5351  0.0932
  198MPD1    H5 3019   3.590   1.330  15.998 -0.5043 -0.6936  0.4426
  198MPD1    N1 3020   3.131   1.201  15.896  0.1225 -0.1195 -0.4799
  198MPD1    H6 3021   3.182   1.116  15.872 -1.0419 -0.4978 -1.6117
  198MPD1    H7 3022   3.050   1.207  15.834  0.5827 -0.3109 -1.1066
  199MPD1     C 3023   0.631   3.262   9.904 -0.2735 -0.2616 -0.1216
  199MPD1    C1 3024   0.533   3.263   9.807 -0.3038  0.0379  0.0053
  199MPD1    C2 3025   0.569   3.256   9.669 -1.2472 -0.7587 -0.7599
  199MPD1    C3 3026   0.702   3.239   9.638  0.3104  0.0090  0.5774
  199MPD1    C4 3027   0.790   3.226   9.740 -0.3150 -0.3744 -0.0665
  199MPD1    C5 3028   0.762   3.238   9.872  0.2442 -0.4252  0.2523
  199MPD1     H 3029   0.500   3.267   9.587 -0.7719 -0.5529 -1.1389
  199MPD1    H1 3030   0.890   3.191   9.719  0.1878  1.3529 -0.5650
  199MPD1    H2 3031   0.604   3.280  10.008 -0.1529 -0.3516 -0.0748
  199MPD1    H3 3032   0.839   3.229   9.949 -1.2702 -1.5992  1.6318
  199MPD1     N 3033   0.726   3.219   9.493  0.4665 -0.6562 -0.3078
  199MPD1    H5 3034   0.646   3.204   9.433  1.7355  0.5501 -2.2779
  199MPD1    N1 3035   0.398   3.304   9.830 -0.2495  0.2019 -0.3929
  199MPD1    H6 3036   0.328   3.268   9.766 -0.6563  0.0809  0.1186
  199MPD1    H7 3037   0.366   3.271   9.921  0.7404 -1.3002 -0.5866
  200MPD1     C 3038   4.324   2.360  15.272 -0.4434 -0.6763  0.8607
  200MPD1    C1 3039   4.442   2.372  15.337 -0.0467  0.2665 -1.5495
  200MPD1    C2 3040   4.564   2.363  15.262 -0.2997 -0.0279 -0.4002
  200MPD1    C3 3041   4.572   2.366  15.121  0.0237 -0.0741 -0.1906
  200MPD1    C4 3042   4.449   2.379  15.063 -0.2185 -0.7893 -0.0761
  200MPD1    C5 3043   4.334   2.372  15.134 -0.0829 -0.4579 -1.0063
  200MPD1     H 3044   4.656   2.351  15.318 -0.3161 -1.0953 -0.6076
  200MPD1    H1 3045   4.423   2.374  14.958  1.1066 -0.4058 -0.4255
  200MPD1    H2 3046   4.242   2.340  15.339 -0.8771  0.7150  0.7571
  200MPD1    H3 3047   4.242   2.389  15.078 -1.1708 -0.0064  0.8970
  200MPD1     N 3048   4.698   2.359  15.053 -0.2685 -0.2501  0.5296
  200MPD1    H5 3049   0.062   2.372  15.111  0.7256  1.0019 -1.1594
  200MPD1    N1 3050   4.446   2.376  15.476 -0.0660 -0.6373 -0.4024
  200MPD1    H6 3051   4.369   2.433  15.513  0.4099  0.2880 -0.8291
  200MPD1    H7 3052   4.534   2.407  15.516 -0.1456 -0.4968 -0.3322
  201MPD1     C 3053   1.913   1.321  13.570 -0.4267  0.1457 -0.4150
  201MPD1    C1 3054   1.919   1.200  13.506  0.6645  0.5540 -0.1844
  201MPD1    C2 3055   2.018   1.109  13.542 -0.1741  0.0585 -0.1101
  201MPD1    C3 3056   2.125   1.140  13.629 -0.1801 -0.1528 -0.0560
  201MPD1    C4 3057   2.125   1.272  13.680  0.2340  0.4245 -0.1263
  201MPD1    C5 3058   2.011   1.354  13.657  0.1534  0.0394  0.4317
  201MPD1     H 3059   2.010   1.009  13.499  1.6733 -0.3228  0.4392
  201MPD1    H1 3060   2.196   1.309  13.752  0.9906  0.2523 -0.7843
  201MPD1    H2 3061   1.838   1.398  13.555 -0.3945  0.7189  2.3474
  201MPD1    H3 3062   2.014   1.451  13.705  0.9621 -0.4426  1.3620
  201MPD1     N 3063   2.217   1.040  13.667  0.3280  0.0948 -0.1777
  201MPD1    H5 3064   2.206   0.945  13.633  1.9571 -0.4871  0.8781
  201MPD1    N1 3065   1.815   1.164  13.424  0.7736 -0.2994 -0.0909
  201MPD1    H6 3066   1.768   1.237  13.371 -0.7345 -0.9478  0.3289
  201MPD1    H7 3067   1.824   1.082  13.365  1.2027  0.2644 -0.8036
  202MPD1     C 3068   2.363   0.105   9.201 -0.4867 -0.1141 -0.7060
  202MPD1    C1 3069   2.398   4.696   9.226 -0.0775  0.0336  0.1256
  202MPD1    C2 3070   2.529   4.685   9.266 -0.1031  0.3076 -0.3827
  202MPD1    C3 3071   2.593   0.074   9.339 -0.2887 -0.1969  0.1725
  202MPD1    C4 3072   2.540   0.202   9.336  0.4543 -0.0697 -0.1476
  202MPD1    C5 3073   2.424   0.217   9.261  0.2074  0.8017 -0.6395
  202MPD1     H 3074   2.557   4.580   9.269  0.1418  0.3577 -0.9158
  202MPD1    H1 3075   2.594   0.293   9.363  1.3766 -0.8241  0.5671
  202MPD1    H2 3076   2.273   0.139   9.151 -1.2803 -0.0009  0.8012
  202MPD1    H3 3077   2.378   0.315   9.260 -0.8427  0.3134  1.4958
  202MPD1     N 3078   2.723   0.061   9.401 -0.5541 -0.4962 -0.6543
  202MPD1    H5 3079   2.768   0.150   9.419  0.3353 -1.2570  0.8377
  202MPD1    N1 3080   2.349   4.603   9.135  0.1373  0.2842 -0.1449
  202MPD1    H6 3081   2.376   4.508   9.161 -0.2467 -0.1268 -1.2312
  202MPD1    H7 3082   2.249   4.599   9.115  0.2371  0.0655 -0.6089
  203MPD1     C 3083   0.744   2.177  12.227  0.3504 -0.6742 -0.2009
  203MPD1    C1 3084   0.731   2.072  12.320  0.9001  0.5484  0.4314
  203MPD1    C2 3085   0.769   1.946  12.280  0.4408  0.1080  0.0814
  203MPD1    C3 3086   0.814   1.921  12.154 -0.2509  0.1079  0.0937
  203MPD1    C4 3087   0.837   2.028  12.069  1.0281  0.4445 -0.0725
  203MPD1    C5 3088   0.803   2.151  12.105  0.0837  0.1545 -0.6248
  203MPD1     H 3089   0.742   1.866  12.348  1.8779 -0.7499 -0.3442
  203MPD1    H1 3090   0.885   2.014  11.973 -0.0742  0.7220 -0.6599
  203MPD1    H2 3091   0.710   2.277  12.250 -0.5698 -1.2553  0.9179
  203MPD1    H3 3092   0.812   2.236  12.038  0.3966 -0.4670 -1.3769
  203MPD1     N 3093   0.836   1.784  12.117  0.2954  0.2745  0.3429
  203MPD1    H5 3094   0.810   1.710  12.181  0.0335 -0.6791 -0.8648
  203MPD1    N1 3095   0.663   2.085  12.444  0.1731  0.1653 -0.3839
  203MPD1    H6 3096   0.678   2.179  12.482  1.5351 -0.4855  0.6754
  203MPD1    H7 3097   0.704   2.018  12.509 -1.1706  0.7132  1.0254
  204MPD1     C 3098   0.770   2.957   0.497  0.4941  0.4890  0.4853
  204MPD1    C1 3099   0.758   2.827   0.521 -0.0392  0.1971 -0.2088
  204MPD1    C2 3100   0.708   2.746   0.421 -0.1097 -0.0803  0.0382
  204MPD1    C3 3101   0.670   2.799   0.296  1.0960  0.8057 -0.6192
  204MPD1    C4 3102   0.670   2.936   0.285 -0.1181 -0.2585 -0.4962
  204MPD1    C5 3103   0.730   3.013   0.381  0.8930  0.1547 -0.9428
  204MPD1     H 3104   0.695   2.640   0.439 -0.1551  0.3723  2.6281
  204MPD1    H1 3105   0.629   2.985   0.197  0.7429 -0.5169 -1.0461
  204MPD1    H2 3106   0.805   3.027   0.573  1.4050  0.4127  0.1350
  204MPD1    H3 3107   0.746   3.120   0.371 -2.5091  0.6198 -1.4974
  204MPD1     N 3108   0.629   2.709   0.201  0.5290 -0.2255  0.1169
  204MPD1    H5 3109   0.639   2.609   0.214  2.6834  0.1308  1.1899
  204MPD1    N1 3110   0.797   2.777   0.648 -0.2502  0.2013 -0.0076
  204MPD1    H6 3111   0.817   2.677   0.644 -1.8646 -0.1280  0.0969
  204MPD1    H7 3112   0.862   2.826   0.709  0.7094 -1.1926  0.0873
  205MPD1     C 3113   1.225   1.308  16.950  0.3146  0.5201  0.7948
  205MPD1    C1 3114   1.286   1.405  17.029  0.1371 -0.5456  0.6722
  205MPD1    C2 3115   1.224   1.449  17.145 -0.9738  0.8362 -0.3137
  205MPD1    C3 3116   1.113   1.390  17.198 -0.4087  0.1256 -0.7723
  205MPD1    C4 3117   1.055   1.292  17.116 -0.6194 -1.4139 -0.1016
  205MPD1    C5 3118   1.103   1.256  16.990  0.3203 -0.2550 -0.0880
  205MPD1     H 3119   1.266   1.536  17.193 -0.1050 -0.2425  0.8697
  205MPD1    H1 3120   0.956   1.252  17.131 -1.3745  0.0668 -1.1988
  205MPD1    H2 3121   1.268   1.292  16.851  1.0665 -0.0032  1.2029
  205MPD1    H3 3122   1.046   1.188  16.929  1.6744 -0.2844 -1.3170
  205MPD1     N 3123   1.047   1.424  17.323 -0.7823  0.1316 -0.0564
  205MPD1    H5 3124   0.981   1.352  17.349  1.3071 -2.4795 -1.9518
  205MPD1    N1 3125   1.395   1.473  16.971 -0.4218  0.4181 -0.0840
  205MPD1    H6 3126   1.451   1.531  17.033 -0.9522 -0.7204  1.4822
  205MPD1    H7 3127   1.461   1.419  16.916 -0.4096  1.3323 -0.9556
  206MPD1     C 3128   0.643   4.195  16.636 -0.3660 -0.8950 -0.1785
  206MPD1    C1 3129   0.584   4.315  16.605  0.1726 -0.6378 -0.6415
  206MPD1    C2 3130   0.570   4.350  16.473  0.4826  0.2071 -0.1903
  206MPD1    C3 3131   0.604   4.258  16.371 -0.7801 -0.1671 -0.4727
  206MPD1    C4 3132   0.645   4.131  16.406  0.5342  0.2576  0.6226
  206MPD1    C5 3133   0.662   4.102  16.541 -0.1831  0.2793  0.4715
  206MPD1     H 3134   0.530   4.449  16.459 -3.6845 -1.2901  1.2410
  206MPD1    H1 3135   0.655   4.052  16.333 -0.5202 -0.9826  1.8153
  206MPD1    H2 3136   0.637   4.165  16.740  0.1517 -0.0613  0.0910
  206MPD1    H3 3137   0.689   4.002  16.575  1.0826  1.1533  2.0177
  206MPD1     N 3138   0.598   4.293  16.236  0.7770 -0.0668 -0.0415
  206MPD1    H5 3139   0.622   4.222  16.167 -2.8789 -1.9054  0.5907
  206MPD1    N1 3140   0.559   4.407  16.710 -0.2266  0.2037  0.7093
  206MPD1    H6 3141   0.489   4.480  16.700 -0.1354  0.0375 -1.2394
  206MPD1    H7 3142   0.567   4.372  16.805  2.2425 -1.5179 -0.1086
  207MPD1     C 3143   3.575   2.230   9.388 -0.8674 -0.1157 -0.9094
  207MPD1    C1 3144   3.668   2.329   9.387  0.5920 -0.1794 -0.2931
  207MPD1    C2 3145   3.765   2.316   9.482  0.4162 -0.3547 -0.2073
  207MPD1    C3 3146   3.757   2.219   9.586 -0.5353 -0.1208  0.0635
  207MPD1    C4 3147   3.659   2.131   9.586  0.6107  0.0820 -0.0047
  207MPD1    C5 3148   3.568   2.139   9.487  0.2836 -0.1942  0.3017
  207MPD1     H 3149   3.857   2.371   9.465 -0.5105  1.8094  1.8244
  207MPD1    H1 3150   3.639   2.045   9.649  0.7789 -0.1208 -0.2295
  207MPD1    H2 3151   3.506   2.217   9.306  0.3194 -3.7197 -1.3173
  207MPD1    H3 3152   3.493   2.061   9.478 -1.2708  1.3107  0.1791
  207MPD1     N 3153   3.855   2.201   9.678  0.1884 -0.3336  0.2142
  207MPD1    H5 3154   3.840   2.126   9.745  0.2544  0.0601  0.6708
  207MPD1    N1 3155   3.690   2.384   9.260 -0.7005 -0.0448  0.0871
  207MPD1    H6 3156   3.747   2.468   9.263 -0.7402  0.0490 -2.0702
  207MPD1    H7 3157   3.599   2.400   9.218 -0.2375 -0.9352 -1.2418
  208MPD1     C 3158   2.066   1.386   0.062 -0.4132 -0.5412 -0.3176
  208MPD1    C1 3159   2.098   1.295   0.166 -1.0009 -0.1904 -0.1571
  208MPD1    C2 3160   1.998   1.202   0.204  0.0150 -0.1374  1.0668
  208MPD1    C3 3161   1.892   1.171   0.123  0.0473 -0.0316  0.0974
  208MPD1    C4 3162   1.877   1.248   0.006 -0.0906 -0.3618 -0.0517
  208MPD1    C5 3163   1.965   1.348  17.653 -0.0248 -0.4554  0.1021
  208MPD1     H 3164   2.028   1.135   0.283  2.7150  1.0651  1.0454
  208MPD1    H1 3165   1.792   1.242  17.613 -0.6718  2.7084  0.4373
  208MPD1    H2 3166   2.135   1.464   0.030  1.0803 -1.5570  0.4064
  208MPD1    H3 3167   1.940   1.407  17.565  0.2474 -2.2630 -1.1915
  208MPD1     N 3168   1.810   1.063   0.162 -0.5484  0.0499 -0.1017
  208MPD1    H5 3169   1.820   1.035   0.259  1.5344 -1.0132 -0.6388
  208MPD1    N1 3170   2.211   1.314   0.245  0.1316 -0.1803 -0.3405
  208MPD1    H6 3171   2.289   1.344   0.187 -0.1929 -1.1137 -1.2524
  208MPD1    H7 3172   2.235   1.226   0.289 -0.2035  0.7522  1.7310
  209MPD1     C 3173   0.087   0.802   9.590 -0.3262  0.1358  0.7926
  209MPD1    C1 3174   4.703   0.725   9.645 -0.4952 -0.3276 -0.3295
  209MPD1    C2 3175   4.599   0.793   9.706 -0.1503  0.3730  0.0660
  209MPD1    C3 3176   4.611   0.925   9.737 -0.0504  0.2765  0.1938
  209MPD1    C4 3177   0.000   1.000   9.692 -0.3056  0.1405 -0.2321
  209MPD1    C5 3178   0.094   0.935   9.611 -0.4401  0.6020 -0.1814
  209MPD1     H 3179   4.511   0.735   9.732  0.2910  0.1952  1.1458
  209MPD1    H1 3180   0.016   1.106   9.705  1.8422 -0.3685  1.3183
  209MPD1    H2 3181   0.168   0.764   9.528  1.0681  3.9049  0.3024
  209MPD1    H3 3182   0.183   0.990   9.582 -0.7118  1.9872  1.6185
  209MPD1     N 3183   4.511   0.985   9.820 -0.3638  0.1827 -0.6820
  209MPD1    H5 3184   4.438   0.925   9.856  0.9290 -1.8545 -1.4812
  209MPD1    N1 3185   4.692   0.590   9.616 -0.0805 -0.1978 -0.1094
  209MPD1    H6 3186   0.073   0.566   9.614 -0.6130 -2.2678 -1.5488
  209MPD1    H7 3187   4.630   0.535   9.675  0.1353 -0.2569  0.0620
  210MPD1     C 3188   4.101   0.537  10.382  1.0785 -0.4197  0.0199
  210MPD1    C1 3189   4.096   0.654  10.447  0.5854 -0.3738 -1.0435
  210MPD1    C2 3190   4.140   0.761  10.378  0.1784 -0.2082  0.5555
  210MPD1    C3 3191   4.213   0.759  10.260  0.4100  0.0500  0.7421
  210MPD1    C4 3192   4.230   0.635  10.199  0.0496 -0.1679  0.4321
  210MPD1    C5 3193   4.162   0.532  10.256 -0.3504  0.0292 -0.2714
  210MPD1     H 3194   4.129   0.860  10.420  0.3401  0.2696 -0.5313
  210MPD1    H1 3195   4.282   0.631  10.104 -1.3248 -0.7853 -0.2826
  210MPD1    H2 3196   4.067   0.444  10.425 -0.0589 -0.3251 -0.6862
  210MPD1    H3 3197   4.172   0.437  10.205  1.6993  0.6241 -0.9527
  210MPD1     N 3198   4.264   0.871  10.200  0.1222  0.1553 -0.0977
  210MPD1    H5 3199   4.294   0.848  10.106 -1.9581  0.6724 -0.8935
  210MPD1    N1 3200   4.006   0.668  10.560  0.4636 -0.5865  0.2648
  210MPD1    H6 3201   4.007   0.761  10.603 -1.2290 -0.2174 -0.5060
  210MPD1    H7 3202   4.011   0.591  10.626 -1.3211  1.7270  3.1126
  211MPD1     C 3203   1.885   1.766  15.835  0.2171 -0.7027  0.3963
  211MPD1    C1 3204   1.766   1.722  15.795 -0.2014  0.1882  0.6165
  211MPD1    C2 3205   1.662   1.740  15.880 -0.0666  0.1230 -1.0217
  211MPD1    C3 3206   1.686   1.803  15.998  0.7995  0.1480  0.2162
  211MPD1    C4 3207   1.807   1.862  16.030 -0.7444 -0.1735  0.2856
  211MPD1    C5 3208   1.907   1.850  15.944  0.5216 -0.4186  0.0125
  211MPD1     H 3209   1.573   1.682  15.860 -0.0226 -0.5000  0.5532
  211MPD1    H1 3210   1.829   1.914  16.123  0.3628 -0.8817  0.4153
  211MPD1    H2 3211   1.972   1.750  15.772 -0.7353 -1.5711 -0.6940
  211MPD1    H3 3212   1.999   1.904  15.962  1.0373 -1.8103  1.4718
  211MPD1     N 3213   1.576   1.823  16.078 -0.4881 -0.5097  0.1945
  211MPD1    H5 3214   1.487   1.810  16.031  0.5893  0.2027 -2.0181
  211MPD1    N1 3215   1.755   1.637  15.680  0.2708  0.5017  0.4843
  211MPD1    H6 3216   1.820   1.675  15.611 -0.0068 -0.2603 -0.1992
  211MPD1    H7 3217   1.663   1.636  15.637 -0.0363 -3.1046  1.2464
  212MPD1     C 3218   0.267   0.378  16.655 -0.0181  0.2312  0.4630
  212MPD1    C1 3219   0.352   0.279  16.629  0.4361  0.2716  0.9957
  212MPD1    C2 3220   0.310   0.156  16.661  0.6408  0.5829  0.9571
  212MPD1    C3 3221   0.194   0.131  16.734  0.0351  0.3468  0.0952
  212MPD1    C4 3222   0.119   0.242  16.777  0.1459  0.2945 -1.0056
  212MPD1    C5 3223   0.162   0.363  16.736 -0.3509 -0.0913  0.7369
  212MPD1     H 3224   0.368   0.071  16.625 -2.2244 -1.2159  0.5669
  212MPD1    H1 3225   0.025   0.238  16.831  0.2449  0.9227 -0.7976
  212MPD1    H2 3226   0.288   0.474  16.609 -0.1568  0.1052  0.1336
  212MPD1    H3 3227   0.101   0.444  16.774  0.6966 -0.7324  3.8287
  212MPD1     N 3228   0.140   0.003  16.756 -0.2998 -0.1334 -0.0710
  212MPD1    H5 3229   0.041   4.717  16.782 -0.0941 -0.0826  0.7317
  212MPD1    N1 3230   0.449   0.295  16.521 -0.4738 -0.6814 -0.3342
  212MPD1    H6 3231   0.491   0.387  16.533 -0.4483 -0.9457  1.6339
  212MPD1    H7 3232   0.524   0.227  16.517  1.0852  1.0718 -1.0143
  213MPD1     C 3233   2.991   0.478  16.144 -0.4067 -0.0558 -0.1477
  213MPD1    C1 3234   2.996   0.427  16.009 -0.3671  0.2674  0.5839
  213MPD1    C2 3235   3.079   0.501  15.928  1.1958  0.9037 -0.3479
  213MPD1    C3 3236   3.106   0.634  15.954  0.1322  0.4474  0.5957
  213MPD1    C4 3237   3.058   0.696  16.067 -1.0062 -0.4153  0.5395
  213MPD1    C5 3238   3.004   0.617  16.166 -0.1397  0.4297 -0.5792
  213MPD1     H 3239   3.116   0.463  15.834 -2.8163  1.2175 -2.0317
  213MPD1    H1 3240   3.077   0.798  16.099 -2.2215 -0.5189  1.6079
  213MPD1    H2 3241   2.930   0.434  16.223  1.1492 -0.0641  1.0550
  213MPD1    H3 3242   2.984   0.672  16.257  2.3388 -1.2231  0.9564
  213MPD1     N 3243   3.189   0.699  15.861  0.0754  0.0123  0.2203
  213MPD1    H5 3244   3.210   0.643  15.778  0.6771 -0.3160  0.5955
  213MPD1    N1 3245   2.980   0.288  15.994 -0.6539 -0.5046 -0.2010
  213MPD1    H6 3246   2.954   0.273  15.896  0.6549 -2.8748 -0.1841
  213MPD1    H7 3247   2.910   0.239  16.050 -0.3553  0.1087  0.7040
  214MPD1     C 3248   3.224   0.522  15.030  0.8741  0.0128  0.6926
  214MPD1    C1 3249   3.331   0.591  15.068 -0.1855  0.4518  0.2148
  214MPD1    C2 3250   3.319   0.674  15.174 -0.3208 -0.2666  0.2358
  214MPD1    C3 3251   3.198   0.699  15.240  0.1628 -0.0824  0.3549
  214MPD1    C4 3252   3.084   0.622  15.197  0.1289 -0.6439  0.5577
  214MPD1    C5 3253   3.104   0.533  15.096 -0.3236  0.1973 -0.5399
  214MPD1     H 3254   3.407   0.720  15.216 -0.6360 -1.2699  1.9761
  214MPD1    H1 3255   2.990   0.616  15.250 -0.3576  1.4343 -0.0768
  214MPD1    H2 3256   3.233   0.457  14.944 -0.0337  2.0819 -0.9738
  214MPD1    H3 3257   3.020   0.470  15.068 -0.9755  1.0810 -0.5845
  214MPD1     N 3258   3.177   0.784  15.356 -0.0093  0.8284 -0.4823
  214MPD1    H5 3259   3.092   0.785  15.412  2.2038 -0.7159  2.8987
  214MPD1    N1 3260   3.457   0.573  15.008  0.3378  0.0925  0.1650
  214MPD1    H6 3261   3.518   0.649  15.038 -0.5770 -0.0446  2.4247
  214MPD1    H7 3262   3.446   0.571  14.907  2.6379  3.7382 -0.1620
  215MPD1     C 3263   3.774   0.876  10.162  0.9023 -0.1827 -0.0504
  215MPD1    C1 3264   3.815   0.827  10.285  0.1196  0.2289 -0.5459
  215MPD1    C2 3265   3.830   0.917  10.388 -0.7645 -0.0091 -0.1884
  215MPD1    C3 3266   3.863   1.047  10.360 -0.2768 -0.3930  0.0542
  215MPD1    C4 3267   3.851   1.093  10.236  0.2920 -0.7040  0.7713
  215MPD1    C5 3268   3.796   1.010  10.140 -0.3211  0.2459  0.0324
  215MPD1     H 3269   3.842   0.878  10.488  0.7547 -0.6400 -0.6146
  215MPD1    H1 3270   3.875   1.190  10.194  0.0336 -1.1777 -0.4585
  215MPD1    H2 3271   3.734   0.811  10.085  1.0214  1.0971 -1.1917
  215MPD1    H3 3272   3.769   1.053  10.044  3.5521  2.5809 -0.0243
  215MPD1     N 3273   3.907   1.124  10.465 -0.1067  0.1150  0.5856
  215MPD1    H5 3274   3.902   1.082  10.557 -0.5573 -1.2659 -0.0708
  215MPD1    N1 3275   3.804   0.693  10.319  0.6602  0.0070 -0.0045
  215MPD1    H6 3276   3.798   0.627  10.242  0.6914 -0.1872  0.1593
  215MPD1    H7 3277   3.883   0.665  10.377  1.7780 -0.0355 -1.5360
  216MPD1     C 3278   0.125   3.951   0.018  0.3331  0.0336 -0.1270
  216MPD1    C1 3279   0.173   3.895   0.129 -0.2714 -0.1933 -0.7981
  216MPD1    C2 3280   0.237   3.773   0.119  0.5222 -0.8478  0.0153
  216MPD1    C3 3281   0.229   3.703  17.673 -0.1045 -0.4544 -0.4788
  216MPD1    C4 3282   0.153   3.759  17.572  0.1515 -0.1490  0.0992
  216MPD1    C5 3283   0.096   3.881  17.584 -0.0616 -0.1900 -0.6032
  216MPD1     H 3284   0.294   3.733   0.202  0.3493  1.1544  1.1022
  216MPD1    H1 3285   0.128   3.695  17.488 -1.5375  1.4171 -0.5620
  216MPD1    H2 3286   0.083   4.051   0.022 -1.6276 -0.7675 -0.6291
  216MPD1    H3 3287   0.031   3.920  17.506 -1.2381 -0.5915  0.1895
  216MPD1     N 3288   0.310   3.589  17.660 -0.3164 -0.3648 -0.3852
  216MPD1    H5 3289   0.362   3.566   0.069  0.2546  3.0534  0.2006
  216MPD1    N1 3290   0.197   3.968   0.249 -0.3968 -0.1990  0.3403
  216MPD1    H6 3291   0.117   4.029   0.265  1.1251  1.2284  2.4561
  216MPD1    H7 3292   0.199   3.901   0.326  3.1351  0.5468  0.9169
  217MPD1     C 3293   2.186   3.898   9.315 -0.7326 -0.8687  0.2108
  217MPD1    C1 3294   2.283   3.942   9.410 -0.9929 -0.8193 -0.0984
  217MPD1    C2 3295   2.274   4.068   9.456 -0.3057 -0.7814 -0.6849
  217MPD1    C3 3296   2.185   4.163   9.404 -0.9988  0.4041  0.4681
  217MPD1    C4 3297   2.094   4.118   9.309 -0.2555 -0.3502 -0.1753
  217MPD1    C5 3298   2.091   3.985   9.274  0.0333  0.5743 -0.6604
  217MPD1     H 3299   2.344   4.107   9.529 -2.1273 -0.5586  0.9402
  217MPD1    H1 3300   2.018   4.188   9.277 -0.9927 -0.3133  1.6240
  217MPD1    H2 3301   2.174   3.797   9.280 -1.1179 -1.7457  2.9011
  217MPD1    H3 3302   2.022   3.951   9.198 -1.2139 -1.5070  1.4214
  217MPD1     N 3303   2.194   4.300   9.432 -0.6067  0.2283  0.5829
  217MPD1    H5 3304   2.125   4.353   9.379 -0.0700  1.8060  1.4633
  217MPD1    N1 3305   2.372   3.854   9.478  0.3871 -0.7416  0.5355
  217MPD1    H6 3306   2.388   3.771   9.420  0.0222  1.1452 -2.2750
  217MPD1    H7 3307   2.467   3.893   9.479  1.0447 -2.2630 -1.1460
  218MPD1     C 3308   2.530   0.586  11.982 -0.1091  0.3612 -0.2971
  218MPD1    C1 3309   2.611   0.645  11.883 -0.2220 -0.2046  0.0150
  218MPD1    C2 3310   2.673   0.762  11.906  0.3962  0.4612 -0.3498
  218MPD1    C3 3311   2.640   0.842  12.016  0.1720  0.1298  0.0962
  218MPD1    C4 3312   2.542   0.792  12.100 -0.0032  0.0388 -0.1429
  218MPD1    C5 3313   2.486   0.671  12.081 -0.3068  0.2281 -0.9906
  218MPD1     H 3314   2.738   0.797  11.826  0.8246  0.6116  0.0645
  218MPD1    H1 3315   2.506   0.859  12.178 -1.0595 -0.6482 -0.0336
  218MPD1    H2 3316   2.489   0.488  11.961 -0.1295 -0.1051  1.9155
  218MPD1    H3 3317   2.398   0.640  12.137 -0.8884  0.9491 -1.4939
  218MPD1     N 3318   2.694   0.966  12.046 -0.3362  0.0757 -0.6455
  218MPD1    H5 3319   2.771   0.991  11.985 -0.3289 -2.7298 -1.7895
  218MPD1    N1 3320   2.637   0.558  11.770  0.6165 -0.1015  0.1452
  218MPD1    H6 3321   2.551   0.516  11.736  0.9229 -1.8082  1.5303
  218MPD1    H7 3322   2.671   0.614  11.692  2.6236  0.0063  1.1180
  219MPD1     C 3323   3.441   1.365  11.689 -0.6897  0.0837 -0.5873
  219MPD1    C1 3324   3.317   1.303  11.653  0.0872  0.7180  0.2156
  219MPD1    C2 3325   3.213   1.311  11.740  0.0862  0.2652  0.2013
  219MPD1    C3 3326   3.233   1.372  11.862  0.3378 -0.5534 -0.0380
  219MPD1    C4 3327   3.354   1.420  11.897 -0.3417  0.1227 -0.1339
  219MPD1    C5 3328   3.455   1.424  11.806  0.2857 -0.6347  0.3712
  219MPD1     H 3329   3.121   1.275  11.697  0.5094 -0.5292 -0.0406
  219MPD1    H1 3330   3.367   1.463  11.995 -1.2154  2.3461 -0.9873
  219MPD1    H2 3331   3.528   1.363  11.624  0.4012 -0.2397  0.8655
  219MPD1    H3 3332   3.556   1.455  11.831  0.0494 -0.6852  1.4217
  219MPD1     N 3333   3.134   1.375  11.960  0.4550 -0.0597  0.3823
  219MPD1    H5 3334   3.142   1.434  12.042 -0.7924 -0.8555  1.0770
  219MPD1    N1 3335   3.291   1.247  11.521 -0.0015 -0.6945 -0.0611
  219MPD1    H6 3336   3.371   1.199  11.478  0.8446  1.2729 -0.6844
  219MPD1    H7 3337   3.210   1.187  11.506 -0.7464  0.4234 -0.4744
  220MPD1     C 3338   2.804   2.501   9.761  0.1514 -0.1533  0.2230
  220MPD1    C1 3339   2.847   2.381   9.712 -0.3678  0.5093  1.1716
  220MPD1    C2 3340   2.954   2.308   9.755  0.4148  0.0342 -0.3061
  220MPD1    C3 3341   3.028   2.351   9.860  0.6453 -0.4260  0.1654
  220MPD1    C4 3342   2.979   2.468   9.916  0.1228  1.0927  0.3529
  220MPD1    C5 3343   2.872   2.543   9.875  0.1996 -0.2454 -0.0712
  220MPD1     H 3344   2.987   2.216   9.709  2.7838  1.3424 -1.2190
  220MPD1    H1 3345   3.003   2.493  10.019 -1.3896  0.1407  0.9374
  220MPD1    H2 3346   2.719   2.553   9.718  0.5619 -0.9497 -1.5551
  220MPD1    H3 3347   2.839   2.621   9.942  1.6980  0.5693 -0.2971
  220MPD1     N 3348   3.123   2.270   9.919 -1.1520  0.1795 -0.4405
  220MPD1    H5 3349   3.136   2.177   9.882  1.4938  0.0001  0.9260
  220MPD1    N1 3350   2.779   2.334   9.598 -0.8744  0.5691 -0.2714
  220MPD1    H6 3351   2.684   2.370   9.604 -0.7773  0.7897 -0.0771
  220MPD1    H7 3352   2.793   2.234   9.583 -0.6229  0.3308  1.6735
  221MPD1     C 3353   0.523   0.856  17.069 -0.2441 -0.4980 -0.1255
  221MPD1    C1 3354   0.646   0.797  17.067  0.3681 -0.1674  0.2208
  221MPD1    C2 3355   0.740   0.853  16.980  0.0197 -0.3720  0.2407
  221MPD1    C3 3356   0.697   0.943  16.881 -0.4956 -0.1934 -0.0287
  221MPD1    C4 3357   0.569   0.983  16.870  0.5365 -0.4287 -0.2689
  221MPD1    C5 3358   0.488   0.944  16.973  0.3287 -0.0179 -0.4531
  221MPD1     H 3359   0.841   0.820  16.997  0.6750  1.2562 -0.5026
  221MPD1    H1 3360   0.540   1.058  16.797 -0.3734  0.2388  0.7836
  221MPD1    H2 3361   0.453   0.838  17.150  0.5038 -2.6256  0.0694
  221MPD1    H3 3362   0.388   0.985  16.984  1.5310  2.2913  1.8366
  221MPD1     N 3363   0.786   0.988  16.776 -0.2129  0.2252 -0.2698
  221MPD1    H5 3364   0.750   1.036  16.693 -0.8600  1.1349  0.5335
  221MPD1    N1 3365   0.678   0.718  17.179  0.8680 -0.9886 -0.0651
  221MPD1    H6 3366   0.762   0.661  17.182  2.1880  0.8695 -1.6189
  221MPD1    H7 3367   0.597   0.673  17.221  2.2781 -2.9879  0.4591
  222MPD1     C 3368   0.881   3.624   0.481  0.2596 -0.8627 -0.0551
  222MPD1    C1 3369   0.818   3.574   0.369  0.1385 -0.2893  0.0084
  222MPD1    C2 3370   0.741   3.667   0.297  0.5453  0.2160 -0.1009
  222MPD1    C3 3371   0.748   3.804   0.315  0.2516  0.6259 -0.0023
  222MPD1    C4 3372   0.812   3.849   0.430  0.0612 -0.0873  0.6458
  222MPD1    C5 3373   0.870   3.756   0.513 -0.3239  0.3719 -0.2698
  222MPD1     H 3374   0.685   3.623   0.215  1.1931  0.2888 -0.5920
  222MPD1    H1 3375   0.813   3.948   0.475  1.7801  0.1920 -0.0299
  222MPD1    H2 3376   0.928   3.564   0.558  0.7326 -0.1700  0.1932
  222MPD1    H3 3377   0.921   3.796   0.600  1.5257  0.9169 -1.6006
  222MPD1     N 3378   0.675   3.900   0.240 -0.0108 -0.4330 -0.2733
  222MPD1    H5 3379   0.674   3.997   0.269  0.8313 -1.0681  1.8375
  222MPD1    N1 3380   0.805   3.430   0.366 -0.1361 -0.2568  0.0883
  222MPD1    H6 3381   0.767   3.392   0.279  0.5810  0.5546 -0.5816
  222MPD1    H7 3382   0.901   3.396   0.365 -0.8003 -2.2059  0.5068
  223MPD1     C 3383   0.616   3.890  16.908  0.3156  0.0970  0.0365
  223MPD1    C1 3384   0.690   3.821  16.996 -0.2905  0.1142  0.2801
  223MPD1    C2 3385   0.651   3.832  17.134 -0.3600 -0.1945 -0.1567
  223MPD1    C3 3386   0.550   3.921  17.174 -0.6527 -0.0493  0.1240
  223MPD1    C4 3387   0.470   3.978  17.076 -0.0283  0.6746  1.1132
  223MPD1    C5 3388   0.512   3.970  16.947  0.2048  0.3726 -0.0900
  223MPD1     H 3389   0.704   3.782  17.214  0.6951 -0.5088 -1.0486
  223MPD1    H1 3390   0.389   4.047  17.098 -0.0713  1.1974 -0.6515
  223MPD1    H2 3391   0.634   3.858  16.805 -0.0035  1.2294 -0.3657
  223MPD1    H3 3392   0.459   4.023  16.869 -2.3786 -2.8542 -0.5232
  223MPD1     N 3393   0.542   3.941  17.309  0.4559 -0.5575 -0.0311
  223MPD1    H5 3394   0.608   3.897  17.372 -0.5638 -0.2838  1.2214
  223MPD1    N1 3395   0.781   3.725  16.945 -0.4703  0.1813 -0.0323
  223MPD1    H6 3396   0.851   3.696  17.014  1.6716  1.8012 -1.5184
  223MPD1    H7 3397   0.829   3.753  16.860 -0.9777 -1.1393 -0.7482
  224MPD1     C 3398   1.884   0.363   9.072 -0.0112  0.2719 -0.3096
  224MPD1    C1 3399   1.819   0.470   9.014 -0.2063 -0.0855 -0.5492
  224MPD1    C2 3400   1.869   0.595   9.021 -0.0912  0.0407 -1.0219
  224MPD1    C3 3401   1.978   0.618   9.105 -0.7088  0.0961 -0.2430
  224MPD1    C4 3402   2.037   0.514   9.172  0.4664  0.5725  0.2509
  224MPD1    C5 3403   1.987   0.388   9.162 -0.0028  0.0493  0.1976
  224MPD1     H 3404   1.829   0.682   8.969 -1.6819  0.7103  1.3475
  224MPD1    H1 3405   2.118   0.534   9.240  0.7168  1.3482 -0.2740
  224MPD1    H2 3406   1.851   0.261   9.057 -0.5182  0.2840  0.8149
  224MPD1    H3 3407   2.024   0.302   9.217 -1.1542 -0.0080  0.8851
  224MPD1     N 3408   2.034   0.746   9.138 -0.1421  0.6399 -0.3922
  224MPD1    H5 3409   2.115   0.748   9.199 -0.3576  1.0082 -0.1199
  224MPD1    N1 3410   1.712   0.438   8.924 -0.1630  0.3058  0.5565
  224MPD1    H6 3411   1.638   0.507   8.939  0.7945  1.1133  1.5537
  224MPD1    H7 3412   1.656   0.354   8.935 -1.2110  1.1713  1.8585
  225MPD1     C 3413   2.419   1.136  12.951  0.3530 -0.6815 -0.2294
  225MPD1    C1 3414   2.380   1.075  12.830  0.0101 -0.9408  0.3577
  225MPD1    C2 3415   2.330   1.155  12.730 -0.0401 -0.4603 -0.3595
  225MPD1    C3 3416   2.327   1.297  12.744  0.6428  0.1740  0.0364
  225MPD1    C4 3417   2.374   1.353  12.857  0.0763 -0.4182 -0.6655
  225MPD1    C5 3418   2.413   1.276  12.962 -0.8394 -0.1007  0.2977
  225MPD1     H 3419   2.296   1.101  12.642  0.3786 -2.5466  0.7703
  225MPD1    H1 3420   2.379   1.461  12.862 -0.2334 -0.5308  1.8530
  225MPD1    H2 3421   2.445   1.081  13.040 -1.1304 -0.1866  0.5228
  225MPD1    H3 3422   2.442   1.330  13.051 -1.5407 -0.8115  0.9654
  225MPD1     N 3423   2.290   1.389  12.647  0.3862 -0.2446 -0.6460
  225MPD1    H5 3424   2.312   1.485  12.671  1.6026 -0.7425  0.2085
  225MPD1    N1 3425   2.367   0.933  12.830 -0.4437 -0.5354 -0.7965
  225MPD1    H6 3426   2.368   0.908  12.731 -2.1599 -0.6217 -0.8015
  225MPD1    H7 3427   2.438   0.885  12.885 -0.4058  0.3856 -0.0510
  226MPD1     C 3428   2.703   2.733  10.216 -0.0328 -0.2215  0.5872
  226MPD1    C1 3429   2.818   2.670  10.249 -0.8409 -0.2706  0.6397
  226MPD1    C2 3430   2.830   2.532  10.234  0.0421  0.5937 -0.0677
  226MPD1    C3 3431   2.722   2.462  10.185 -0.5895 -0.1964  0.0979
  226MPD1    C4 3432   2.614   2.527  10.127  0.1429 -0.9287 -0.1576
  226MPD1    C5 3433   2.609   2.661  10.142  0.3275  0.0863  0.0984
  226MPD1     H 3434   2.920   2.476  10.259  0.6178  1.1513 -0.8844
  226MPD1    H1 3435   2.535   2.471  10.076  0.5661 -1.6289 -0.0444
  226MPD1    H2 3436   2.696   2.841  10.213 -0.8178 -0.3107 -0.9323
  226MPD1    H3 3437   2.522   2.712  10.102  0.4317  0.4374  0.3226
  226MPD1     N 3438   2.749   2.327  10.159  0.0987  0.4333  0.4520
  226MPD1    H5 3439   2.838   2.291  10.191 -1.4826 -3.1497  0.8168
  226MPD1    N1 3440   2.926   2.748  10.287  0.7079  0.2977 -0.2339
  226MPD1    H6 3441   2.905   2.842  10.322 -1.3937 -0.7379  1.3174
  226MPD1    H7 3442   2.987   2.714  10.361 -0.7848  0.2828  0.9843
  227MPD1     C 3443   2.514   1.328  10.400 -0.5987 -0.5520 -0.0151
  227MPD1    C1 3444   2.647   1.361  10.392 -0.0258  0.2612 -0.0279
  227MPD1    C2 3445   2.673   1.474  10.313  0.1062  0.7511 -0.1334
  227MPD1    C3 3446   2.581   1.567  10.273  1.2336 -0.9424 -0.0475
  227MPD1    C4 3447   2.455   1.544  10.312 -0.8988  0.1679  0.0911
  227MPD1    C5 3448   2.421   1.424  10.370 -1.4150  0.4649 -0.0770
  227MPD1     H 3449   2.778   1.484  10.286  0.0703  0.2917 -0.4561
  227MPD1    H1 3450   2.373   1.610  10.286  1.2076  2.1354 -1.5120
  227MPD1    H2 3451   2.481   1.235  10.445  0.3759 -0.1431  1.5493
  227MPD1    H3 3452   2.316   1.401  10.378 -1.5608  0.9340 -0.6608
  227MPD1     N 3453   2.618   1.669  10.191  0.2095 -0.1138 -0.0994
  227MPD1    H5 3454   2.706   1.657  10.141 -1.2979  1.2982 -3.1321
  227MPD1    N1 3455   2.743   1.256  10.410 -0.5647 -0.0821  0.1468
  227MPD1    H6 3456   2.711   1.189  10.480  0.0978 -0.2180  0.3160
  227MPD1    H7 3457   2.834   1.286  10.443 -2.3328  3.0529  2.2186
  228MPD1     C 3458   4.681   0.375  12.258  0.1450 -0.3976 -0.9755
  228MPD1    C1 3459   4.569   0.370  12.177  0.0281  0.2566  0.3464
  228MPD1    C2 3460   4.441   0.355  12.234 -0.2305  0.5350  0.1029
  228MPD1    C3 3461   4.433   0.332  12.374  0.6278 -0.5214 -0.0593
  228MPD1    C4 3462   4.549   0.330  12.448 -0.4703  0.6302  0.1514
  228MPD1    C5 3463   4.668   0.358  12.395  1.0616 -0.1776  0.3179
  228MPD1     H 3464   4.346   0.363  12.183  0.0611 -0.1578 -0.5453
  228MPD1    H1 3465   4.538   0.330  12.556  0.9034 -1.3447  0.2979
  228MPD1    H2 3466   0.064   0.393  12.222  0.0693  1.7200 -0.1644
  228MPD1    H3 3467   0.038   0.372  12.457  1.4396 -2.3489  0.2739
  228MPD1     N 3468   4.306   0.294  12.428 -0.8370 -0.2249  0.4230
  228MPD1    H5 3469   4.227   0.311  12.367  0.8268  0.5362 -1.5319
  228MPD1    N1 3470   4.578   0.400  12.040  0.1428  0.0875 -0.0591
  228MPD1    H6 3471   4.666   0.356  12.014  0.4882  1.1816 -0.7293
  228MPD1    H7 3472   4.503   0.370  11.979  1.1103  0.2891 -1.3449
  229MPD1     C 3473   3.516   3.864  14.369  0.4990 -0.5972  0.4547
  229MPD1    C1 3474   3.536   3.934  14.485  0.3755  0.4801 -0.1418
  229MPD1    C2 3475   3.631   3.893  14.576 -0.0919  0.2788  0.5119
  229MPD1    C3 3476   3.715   3.790  14.548  0.6614 -0.7196  0.3786
  229MPD1    C4 3477   3.701   3.723  14.426 -0.6529 -0.0443 -0.2537
  229MPD1    C5 3478   3.600   3.757  14.333  0.8074 -0.3379 -0.7270
  229MPD1     H 3479   3.632   3.947  14.670 -0.4663  0.4618  0.4129
  229MPD1    H1 3480   3.765   3.640  14.399 -0.3050  0.3486 -0.6364
  229MPD1    H2 3481   3.437   3.894  14.301  0.6285 -0.6684  0.2719
  229MPD1    H3 3482   3.597   3.703  14.240  0.5564 -2.5306  0.5568
  229MPD1     N 3483   3.822   3.759  14.630  0.5351  0.0967 -0.1605
  229MPD1    H5 3484   3.887   3.694  14.587 -0.4065 -1.5392  0.8582
  229MPD1    N1 3485   3.442   4.032  14.519  0.2020 -0.6278 -0.2087
  229MPD1    H6 3486   3.406   4.074  14.433  1.7640  2.7024  0.7630
  229MPD1    H7 3487   3.472   4.100  14.589  1.3002 -2.8126  1.4351
  230MPD1     C 3488   4.041   3.901  15.627  0.7007 -1.4538  0.0478
  230MPD1    C1 3489   4.012   3.995  15.530  0.6418  0.0431 -0.1448
  230MPD1    C2 3490   3.981   3.948  15.400 -0.2399 -0.6827  0.2419
  230MPD1    C3 3491   3.990   3.811  15.368 -0.0290  0.1929  0.2595
  230MPD1    C4 3492   4.010   3.724  15.468  0.0503  0.0173 -0.0365
  230MPD1    C5 3493   4.049   3.765  15.596 -0.6216 -0.8041  0.1417
  230MPD1     H 3494   3.959   4.023  15.326  1.9121 -1.1688 -0.8858
  230MPD1    H1 3495   4.021   3.618  15.448  0.6943 -0.1145  1.0126
  230MPD1    H2 3496   4.082   3.938  15.720  1.1939 -0.2499 -0.6518
  230MPD1    H3 3497   4.085   3.685  15.659  2.0634 -0.2662 -0.7306
  230MPD1     N 3498   3.989   3.769  15.232 -0.4099  0.0750 -0.0231
  230MPD1    H5 3499   3.976   3.845  15.166 -0.7315 -0.2901 -0.3781
  230MPD1    N1 3500   3.992   4.132  15.561  0.3427 -0.1577  0.3269
  230MPD1    H6 3501   4.024   4.190  15.484 -1.3070  0.0268 -0.2128
  230MPD1    H7 3502   4.047   4.160  15.642 -0.0249 -2.1211  1.2722
  231MPD1     C 3503   2.107   0.800  15.887  0.1283  0.8042  0.2717
  231MPD1    C1 3504   2.170   0.700  15.813 -0.4021  0.5598 -0.5707
  231MPD1    C2 3505   2.296   0.726  15.758 -0.0422  0.1477 -0.2733
  231MPD1    C3 3506   2.355   0.853  15.767 -0.4829  0.4027  0.1874
  231MPD1    C4 3507   2.286   0.954  15.835  0.1610  0.7255 -0.3321
  231MPD1    C5 3508   2.162   0.925  15.893  0.1615  0.0930  0.3862
  231MPD1     H 3509   2.342   0.650  15.697 -0.9730 -1.2396  0.7406
  231MPD1    H1 3510   2.330   1.053  15.839 -0.0180  0.7986 -0.1641
  231MPD1    H2 3511   2.015   0.782  15.942  0.3120 -0.7543  0.0713
  231MPD1    H3 3512   2.107   1.005  15.942  0.9871  1.9347 -1.6901
  231MPD1     N 3513   2.474   0.869  15.695 -0.7682 -0.2043  0.7098
  231MPD1    H5 3514   2.512   0.790  15.644  0.4749  0.4251  0.6772
  231MPD1    N1 3515   2.105   0.582  15.766 -0.4320 -0.2153  0.3229
  231MPD1    H6 3516   2.167   0.503  15.749 -0.0382  0.0547  0.5167
  231MPD1    H7 3517   2.040   0.546  15.835 -1.0089  0.1445 -0.0269
  232MPD1     C 3518   4.537   2.808   0.035 -0.5730 -0.7519 -0.5136
  232MPD1    C1 3519   4.594   2.723   0.125 -0.0045 -0.4086 -0.2429
  232MPD1    C2 3520   4.507   2.636   0.192  0.1946 -0.1446 -0.2866
  232MPD1    C3 3521   4.369   2.648   0.187 -0.0379 -0.0580  0.2383
  232MPD1    C4 3522   4.327   2.739   0.099  0.1359 -0.3014  0.0961
  232MPD1    C5 3523   4.406   2.818   0.021  0.1485 -0.2900  0.4520
  232MPD1     H 3524   4.549   2.567   0.264  1.5966  0.2014 -0.7643
  232MPD1    H1 3525   4.222   2.759   0.085  0.4613 -0.0028 -1.8648
  232MPD1    H2 3526   4.596   2.865  17.637 -0.0508  1.2047  1.4622
  232MPD1    H3 3527   4.352   2.885  17.629  1.8960  0.3420 -0.3169
  232MPD1     N 3528   4.290   2.562   0.263 -0.3049  0.3349 -0.6726
  232MPD1    H5 3529   4.337   2.504   0.332 -2.3909 -0.8503 -0.2454
  232MPD1    N1 3530   0.020   2.715   0.129  0.9389 -0.4159 -0.2653
  232MPD1    H6 3531   0.064   2.670   0.209 -0.4491 -1.2648  0.0316
  232MPD1    H7 3532   0.052   2.811   0.116 -0.7693  0.2965  0.7406
  233MPD1     C 3533   0.460   1.016   1.449 -0.2956  0.0287  0.6114
  233MPD1    C1 3534   0.502   1.150   1.436 -0.2603 -0.3109  0.3397
  233MPD1    C2 3535   0.631   1.179   1.480  0.2879 -0.8854  0.7291
  233MPD1    C3 3536   0.696   1.088   1.557 -0.7945  0.6641 -0.9363
  233MPD1    C4 3537   0.643   0.965   1.579 -1.0060  0.4204  0.4590
  233MPD1    C5 3538   0.513   0.937   1.535  0.6284  0.3314  0.6914
  233MPD1     H 3539   0.678   1.274   1.458  1.1752 -1.3246  0.6984
  233MPD1    H1 3540   0.690   0.887   1.638 -0.6293 -0.1192 -0.5537
  233MPD1    H2 3541   0.362   0.983   1.414 -0.0063 -0.7078  0.4958
  233MPD1    H3 3542   0.472   0.838   1.550 -0.6982  0.9322  1.0123
  233MPD1     N 3543   0.827   1.117   1.623  0.2322 -0.1096  0.0037
  233MPD1    H5 3544   0.861   1.053   1.693  0.3592  1.2060  1.1534
  233MPD1    N1 3545   0.434   1.237   1.348  0.3644  0.1456 -0.2713
  233MPD1    H6 3546   0.333   1.230   1.345  0.4175 -0.2321 -1.2329
  233MPD1    H7 3547   0.452   1.332   1.378  0.8521  0.4467 -1.5178
  234MPD1     C 3548   3.735   0.812   9.813  0.3586  0.6192  0.2845
  234MPD1    C1 3549   3.649   0.922   9.797 -0.0098  0.5687 -0.1486
  234MPD1    C2 3550   3.514   0.908   9.817  0.1078  1.1840 -0.0496
  234MPD1    C3 3551   3.462   0.781   9.840  0.0818 -0.1666 -0.3775
  234MPD1    C4 3552   3.544   0.677   9.869 -0.1047 -0.3445 -0.0787
  234MPD1    C5 3553   3.678   0.694   9.859  0.7157 -0.3567  0.1414
  234MPD1     H 3554   3.444   0.984   9.784 -0.5162  0.2650 -0.8497
  234MPD1    H1 3555   3.517   0.574   9.890  1.5100 -1.3660 -3.0965
  234MPD1    H2 3556   3.841   0.806   9.796  0.5966  1.2487  1.5783
  234MPD1    H3 3557   3.743   0.610   9.880 -0.4302 -0.8408  1.7764
  234MPD1     N 3558   3.316   0.772   9.851  0.2031 -1.0640 -1.0556
  234MPD1    H5 3559   3.274   0.859   9.818  2.7634 -0.4157 -2.6069
  234MPD1    N1 3560   3.693   1.043   9.732 -0.0648  0.5187  0.6593
  234MPD1    H6 3561   3.784   1.070   9.768  0.3889 -1.7742  1.1880
  234MPD1    H7 3562   3.637   1.126   9.749 -1.8341 -0.4762 -0.2515
  235MPD1     C 3563   3.637   1.737   9.937 -0.1886 -0.2974 -0.4278
  235MPD1    C1 3564   3.738   1.793  10.018 -0.1898  0.1067  0.1611
  235MPD1    C2 3565   3.735   1.930  10.044  0.0744 -0.3628  0.2518
  235MPD1    C3 3566   3.647   2.015   9.972 -0.6558  0.3963 -0.0871
  235MPD1    C4 3567   3.540   1.961   9.901 -0.1603 -0.0454 -0.0574
  235MPD1    C5 3568   3.543   1.823   9.886  0.0554 -0.2376  0.2676
  235MPD1     H 3569   3.819   1.979  10.092  0.2459  0.8823 -1.3129
  235MPD1    H1 3570   3.471   2.013   9.835  0.5566  0.8906 -0.0642
  235MPD1    H2 3571   3.640   1.635   9.899 -1.3107 -0.3229 -0.4610
  235MPD1    H3 3572   3.483   1.788   9.803  1.1104 -0.2788 -0.4766
  235MPD1     N 3573   3.656   2.160   9.990  0.0491 -0.0355 -0.1955
  235MPD1    H5 3574   3.728   2.197  10.050 -0.4652  0.7056 -0.0449
  235MPD1    N1 3575   3.839   1.710  10.075 -0.0031  0.0593 -0.0606
  235MPD1    H6 3576   3.917   1.759  10.119 -0.0587  0.9881 -0.9877
  235MPD1    H7 3577   3.866   1.634  10.013 -0.4744 -1.0383  1.0998
  236MPD1     C 3578   2.805   2.884   9.796 -0.4243  0.0011 -0.1945
  236MPD1    C1 3579   2.923   2.930   9.750 -0.0694  0.2358 -0.3464
  236MPD1    C2 3580   2.971   3.041   9.814 -0.5579 -0.0911  0.9347
  236MPD1    C3 3581   2.917   3.085   9.938  0.3825  0.1245 -0.5604
  236MPD1    C4 3582   2.808   3.027   9.987  0.2661 -0.5552  0.4407
  236MPD1    C5 3583   2.742   2.940   9.905  0.3269  0.3106  0.0150
  236MPD1     H 3584   3.058   3.094   9.777  1.1372 -3.0333  0.7038
  236MPD1    H1 3585   2.755   3.065  10.074  2.6937  0.4985  1.4480
  236MPD1    H2 3586   2.760   2.799   9.746  1.1238 -0.5266 -0.7231
  236MPD1    H3 3587   2.655   2.893   9.949 -0.1406  0.1633 -1.0678
  236MPD1     N 3588   2.972   3.198  10.012  0.3731  0.8267 -0.4327
  236MPD1    H5 3589   2.932   3.203  10.105 -0.8047 -0.2808 -0.8780
  236MPD1    N1 3590   2.967   2.889   9.623  0.2920 -0.8423  0.6783
  236MPD1    H6 3591   3.066   2.910   9.610 -0.5161  2.0263 -0.8845
  236MPD1    H7 3592   2.948   2.789   9.611  3.2024 -1.2959 -0.3505
  237MPD1     C 3593   2.915   2.369  15.431 -0.1815  0.4348 -0.3899
  237MPD1    C1 3594   2.794   2.376  15.492  1.1678  0.4481  0.5998
  237MPD1    C2 3595   2.703   2.276  15.462  0.1547 -0.1274 -0.0191
  237MPD1    C3 3596   2.725   2.176  15.370 -0.2311  0.2102  0.3720
  237MPD1    C4 3597   2.854   2.173  15.315  0.0672  0.0400 -0.0604
  237MPD1    C5 3598   2.949   2.270  15.351 -0.6688  0.6479 -0.4273
  237MPD1     H 3599   2.603   2.287  15.502 -0.7887  0.1645 -2.4785
  237MPD1    H1 3600   2.879   2.087  15.254  2.3074 -0.9866  2.2764
  237MPD1    H2 3601   2.993   2.434  15.469 -1.1570  1.6172 -0.3813
  237MPD1    H3 3602   3.052   2.254  15.322 -0.9322 -0.1914 -0.8819
  237MPD1     N 3603   2.631   2.075  15.335  0.5675  0.4694 -0.6689
  237MPD1    H5 3604   2.656   2.001  15.272 -1.4417 -0.9195  0.1445
  237MPD1    N1 3605   2.747   2.484  15.563  0.3681  0.0173 -0.2041
  237MPD1    H6 3606   2.833   2.522  15.600 -0.2917  1.1680  0.1384
  237MPD1    H7 3607   2.677   2.455  15.631 -0.5133 -1.1061 -1.5790
  238MPD1     C 3608   0.036   0.588  15.167 -0.2542  0.1713  0.4912
  238MPD1    C1 3609   4.647   0.551  15.252 -1.0974 -0.7430 -0.4102
  238MPD1    C2 3610   4.523   0.611  15.227  0.6846 -0.4429 -0.5929
  238MPD1    C3 3611   4.507   0.709  15.126 -0.1535 -0.6741  0.4743
  238MPD1    C4 3612   4.614   0.751  15.055  0.2067  0.9272  0.2823
  238MPD1    C5 3613   0.018   0.686  15.070  0.3149 -0.0716  0.2038
  238MPD1     H 3614   4.437   0.570  15.280  2.2679 -2.0252  0.7409
  238MPD1    H1 3615   4.614   0.832  14.983 -0.4935 -0.2266 -1.0345
  238MPD1    H2 3616   0.130   0.537  15.184 -0.6013 -1.0315 -1.3129
  238MPD1    H3 3617   0.106   0.722  15.019 -1.6154  1.3185 -2.1600
  238MPD1     N 3618   4.385   0.764  15.079  0.0202 -0.2864  0.0331
  238MPD1    H5 3619   4.385   0.835  15.007  1.7510  0.2610  0.5519
  238MPD1    N1 3620   4.662   0.438  15.335  0.8562 -0.1760  0.1030
  238MPD1    H6 3621   4.600   0.445  15.415  0.7805  2.7436 -0.2219
  238MPD1    H7 3622   0.038   0.442  15.377  1.1695  1.4541 -0.7603
  239MPD1     C 3623   4.685   1.545  15.051  0.5243 -0.2992  0.3750
  239MPD1    C1 3624   0.029   1.488  14.940 -0.2329 -0.0372  0.7203
  239MPD1    C2 3625   4.706   1.517  14.814  0.9536 -0.3512 -0.5896
  239MPD1    C3 3626   4.585   1.587  14.797 -0.1616  0.3009  0.5659
  239MPD1    C4 3627   4.525   1.650  14.903  0.5002 -0.0268 -0.2254
  239MPD1    C5 3628   4.577   1.627  15.031 -0.6649 -1.0063 -0.1846
  239MPD1     H 3629   0.044   1.471  14.733  0.7743 -1.3026 -0.1787
  239MPD1    H1 3630   4.441   1.716  14.880 -0.1170 -0.9080 -0.5113
  239MPD1    H2 3631   0.017   1.539  15.147 -0.3486 -0.4736  0.8149
  239MPD1    H3 3632   4.534   1.673  15.120 -2.8649 -0.4941 -1.5181
  239MPD1     N 3633   4.530   1.614  14.672 -0.0094  0.2660  0.1212
  239MPD1    H5 3634   4.440   1.662  14.675  0.1429  0.3410  3.4361
  239MPD1    N1 3635   0.136   1.400  14.965  0.4006 -0.7263 -0.7072
  239MPD1    H6 3636   0.139   1.360  15.058 -0.1213  0.7626 -0.0519
  239MPD1    H7 3637   0.129   1.330  14.892 -2.8181  0.1581 -1.2594
  240MPD1     C 3638   4.102   1.134  13.837  0.3096 -0.4526 -0.4628
  240MPD1    C1 3639   3.985   1.206  13.861  0.0837 -0.1113 -0.7641
  240MPD1    C2 3640   3.940   1.206  13.991  0.5489  0.5139 -0.1578
  240MPD1    C3 3641   3.991   1.128  14.090 -0.0910 -0.5340 -0.1051
  240MPD1    C4 3642   4.105   1.066  14.059 -0.8254  0.1354  0.5763
  240MPD1    C5 3643   4.155   1.058  13.933  0.2386 -0.1698 -0.0629
  240MPD1     H 3644   3.856   1.274  13.996 -0.4808 -0.9018  1.9927
  240MPD1    H1 3645   4.148   1.003  14.135  1.0567  1.1766  0.3714
  240MPD1    H2 3646   4.152   1.145  13.741  1.5170 -2.4045 -0.0638
  240MPD1    H3 3647   4.252   1.010  13.928  0.3742  0.1143 -0.1348
  240MPD1     N 3648   3.930   1.130  14.218  0.5743 -0.0308  0.0087
  240MPD1    H5 3649   3.839   1.174  14.227  0.3761  0.2078 -3.3220
  240MPD1    N1 3650   3.925   1.284  13.764 -0.0421 -0.2422 -0.3600
  240MPD1    H6 3651   3.832   1.317  13.787 -1.1204 -3.1974 -0.3954
  240MPD1    H7 3652   3.908   1.244  13.671  1.1058  2.8576 -1.9161
  241MPD1     C 3653   4.077   1.218  15.220  0.6548  0.3043  0.3795
  241MPD1    C1 3654   3.953   1.165  15.204 -0.1186  0.5148 -0.4130
  241MPD1    C2 3655   3.911   1.138  15.074 -0.6204  0.2912  0.7980
  241MPD1    C3 3656   3.976   1.196  14.962 -0.7248 -0.3361  0.0139
  241MPD1    C4 3657   4.086   1.276  14.984  0.8207 -0.1645 -0.0180
  241MPD1    C5 3658   4.135   1.279  15.113  0.2535 -0.0304  0.1127
  241MPD1     H 3659   3.814   1.093  15.055  0.1462 -2.1050  2.5321
  241MPD1    H1 3660   4.143   1.332  14.910  0.8683 -0.4837 -0.2222
  241MPD1    H2 3661   4.122   1.223  15.318  0.6121  0.0680  0.4099
  241MPD1    H3 3662   4.220   1.344  15.130  0.6704 -0.4780 -0.2449
  241MPD1     N 3663   3.924   1.191  14.829 -0.0322  0.1031 -0.1240
  241MPD1    H5 3664   3.982   1.240  14.762 -1.2480  0.5183 -0.8827
  241MPD1    N1 3665   3.880   1.105  15.310 -0.2910  0.1723  0.0450
  241MPD1    H6 3666   3.779   1.113  15.295 -0.3218 -1.1567 -0.4489
  241MPD1    H7 3667   3.898   1.158  15.395  0.5552 -0.2350  0.1200
  242MPD1     C 3668   3.455   0.216  15.784  0.7099  0.3404  0.6443
  242MPD1    C1 3669   3.353   0.139  15.740  0.4887  0.7094 -0.5294
  242MPD1    C2 3670   3.367   0.063  15.622 -0.3463  0.6434  0.2574
  242MPD1    C3 3671   3.484   0.087  15.546  0.3231  0.1614 -0.0943
  242MPD1    C4 3672   3.580   0.169  15.596 -0.3889 -0.4773 -0.6731
  242MPD1    C5 3673   3.571   0.233  15.718  0.2815  0.8703 -0.0770
  242MPD1     H 3674   3.289   4.716  15.584 -0.0665  0.6252 -0.2864
  242MPD1    H1 3675   3.668   0.184  15.535 -0.1099 -0.4393 -0.2636
  242MPD1    H2 3676   3.454   0.270  15.878  1.4107  1.2674  0.1142
  242MPD1    H3 3677   3.640   0.310  15.752 -0.4826  1.0494  1.0757
  242MPD1     N 3678   3.507   0.018  15.429  0.3259 -0.2118  0.1319
  242MPD1    H5 3679   3.600   0.020  15.387  0.5451  1.1360  0.6852
  242MPD1    N1 3680   3.241   0.110  15.824  0.4081 -0.1403  0.2062
  242MPD1    H6 3681   3.150   0.112  15.779 -0.2186 -0.2537  1.4634
  242MPD1    H7 3682   3.240   0.173  15.904  0.8549 -1.1619  1.0107
  243MPD1     C 3683   1.523   2.800  16.911  0.0737 -0.1694 -0.1104
  243MPD1    C1 3684   1.491   2.755  16.784 -0.6421  0.1324  0.2691
  243MPD1    C2 3685   1.361   2.743  16.747 -0.3867 -0.2444  0.2592
  243MPD1    C3 3686   1.267   2.800  16.828  0.2771 -0.4478  0.3474
  243MPD1    C4 3687   1.299   2.851  16.954  0.1022 -0.9468 -0.7197
  243MPD1    C5 3688   1.426   2.848  16.991 -0.0508  0.1065  0.2591
  243MPD1     H 3689   1.330   2.708  16.649  1.1972 -0.5635 -0.1202
  243MPD1    H1 3690   1.233   2.904  17.021 -1.2815  0.1960 -2.9708
  243MPD1    H2 3691   1.619   2.804  16.962 -1.0682 -0.1485  2.0310
  243MPD1    H3 3692   1.457   2.881  17.089  0.2705  0.0717  0.1680
  243MPD1     N 3693   1.134   2.805  16.767 -0.5749  0.4018  0.0540
  243MPD1    H5 3694   1.114   2.764  16.676  1.1890 -0.4662  0.0610
  243MPD1    N1 3695   1.590   2.698  16.701 -0.0351 -0.3602 -0.3741
  243MPD1    H6 3696   1.686   2.716  16.730 -0.4120 -1.4100  1.5456
  243MPD1    H7 3697   1.583   2.725  16.603 -1.7170  2.6982  0.5924
  244MPD1     C 3698   0.334   3.302  17.152 -0.3152 -0.1702 -0.1106
  244MPD1    C1 3699   0.465   3.338  17.135  0.5384 -0.0280  0.2450
  244MPD1    C2 3700   0.545   3.255  17.060 -0.4821  0.0897  0.6269
  244MPD1    C3 3701   0.503   3.134  17.012 -0.4271  0.6518 -0.1353
  244MPD1    C4 3702   0.374   3.099  17.046 -0.6581  1.0500 -0.3915
  244MPD1    C5 3703   0.291   3.182  17.109 -0.5083 -0.3573  0.0673
  244MPD1     H 3704   0.647   3.284  17.038 -0.1804 -1.3074  0.1976
  244MPD1    H1 3705   0.337   2.999  17.028 -1.0428  1.4818 -2.0247
  244MPD1    H2 3706   0.266   3.370  17.202  0.9126  0.0537  1.2588
  244MPD1    H3 3707   0.189   3.149  17.126 -0.7392  0.7998  0.9265
  244MPD1     N 3708   0.586   3.059  16.930  0.0644  0.7460  0.7505
  244MPD1    H5 3709   0.683   3.085  16.913  0.0051  0.6639  0.2987
  244MPD1    N1 3710   0.508   3.470  17.161 -0.0671  0.1953  0.5641
  244MPD1    H6 3711   0.606   3.464  17.185 -0.2380 -0.3288  1.1260
  244MPD1    H7 3712   0.456   3.511  17.238 -2.4927 -0.9826 -0.4332
  245MPD1     C 3713   2.561   3.549  13.061 -0.0541  0.3029 -0.1207
  245MPD1    C1 3714   2.492   3.584  13.173 -0.9634  0.4295 -0.2797
  245MPD1    C2 3715   2.540   3.674  13.260  0.7418 -0.2448  0.6172
  245MPD1    C3 3716   2.673   3.717  13.245 -0.0469  0.1044 -0.3395
  245MPD1    C4 3717   2.752   3.670  13.141  0.0486  0.3566  0.0443
  245MPD1    C5 3718   2.688   3.600  13.037  0.1968  0.6071 -0.4866
  245MPD1     H 3719   2.490   3.702  13.352 -1.4037  1.0354 -0.9592
  245MPD1    H1 3720   2.857   3.691  13.127  0.2364  0.0319  0.9746
  245MPD1    H2 3721   2.504   3.494  12.988 -1.5449  0.2105  1.1275
  245MPD1    H3 3722   2.746   3.579  12.949  1.2394  0.4916  0.2343
  245MPD1     N 3723   2.725   3.805  13.343  0.3229  0.0409 -0.1380
  245MPD1    H5 3724   2.669   3.830  13.424  0.8386  1.5836 -0.2490
  245MPD1    N1 3725   2.355   3.547  13.185  0.4263  0.2785  0.2326
  245MPD1    H6 3726   2.332   3.455  13.150 -1.6608  0.7029  0.4946
  245MPD1    H7 3727   2.322   3.549  13.282  0.6448 -0.2169  0.3178
  246MPD1     C 3728   3.297   1.537   9.714  0.7260 -0.6225  0.0213
  246MPD1    C1 3729   3.332   1.554   9.580 -0.9585 -1.0754 -0.1619
  246MPD1    C2 3730   3.314   1.682   9.524  0.2075  0.7373  0.2657
  246MPD1    C3 3731   3.243   1.784   9.596 -0.7857  0.0226  0.4588
  246MPD1    C4 3732   3.208   1.761   9.731  0.5487  0.3152  0.3313
  246MPD1    C5 3733   3.238   1.639   9.787 -0.2899 -0.2056 -0.1635
  246MPD1     H 3734   3.349   1.690   9.422  0.4406 -1.3279  0.1804
  246MPD1    H1 3735   3.160   1.833   9.797 -0.4558 -0.8346  0.8525
  246MPD1    H2 3736   3.310   1.440   9.760  1.5736 -1.6933 -2.4502
  246MPD1    H3 3737   3.213   1.615   9.890 -0.0350  1.1618  0.2113
  246MPD1     N 3738   3.226   1.909   9.531  0.4291  0.0571 -0.6982
  246MPD1    H5 3739   3.258   1.911   9.434 -0.2493  0.1830 -0.9150
  246MPD1    N1 3740   3.404   1.456   9.515  0.1715  0.2957 -0.4810
  246MPD1    H6 3741   3.392   1.453   9.414 -1.2019  0.1099 -0.3035
  246MPD1    H7 3742   3.395   1.362   9.551 -1.5240 -0.1857 -2.1797
  247MPD1     C 3743   2.015   3.406  17.257  0.1900 -0.4795 -0.6188
  247MPD1    C1 3744   2.099   3.396  17.150  0.7384  0.1533 -0.6085
  247MPD1    C2 3745   2.042   3.404  17.026 -0.1278  0.2892 -0.1726
  247MPD1    C3 3746   1.905   3.406  17.003 -0.2462  0.1490 -0.0887
  247MPD1    C4 3747   1.820   3.403  17.117 -0.2424 -0.6802 -0.1965
  247MPD1    C5 3748   1.878   3.407  17.242  0.0411  0.1150  0.2941
  247MPD1     H 3749   2.107   3.420  16.941  2.0895 -0.2256  1.4251
  247MPD1    H1 3750   1.714   3.421  17.125 -0.3784 -1.3710 -0.4912
  247MPD1    H2 3751   2.047   3.412  17.361  0.7603 -1.1465 -0.7533
  247MPD1    H3 3752   1.812   3.412  17.328  1.6389 -2.2557  1.6390
  247MPD1     N 3753   1.845   3.417  16.873  0.2829  0.8875  0.3516
  247MPD1    H5 3754   1.743   3.420  16.870  0.3816  2.0419 -1.8516
  247MPD1    N1 3755   2.233   3.424  17.181 -0.1192  0.6201 -0.5785
  247MPD1    H6 3756   2.297   3.410  17.103  2.5504  1.2834  1.4568
  247MPD1    H7 3757   2.265   3.375  17.265 -0.2248  1.4151 -0.0716
  248MPD1     C 3758   1.895   2.154   0.437  0.0708  1.0058  0.0485
  248MPD1    C1 3759   1.850   2.280   0.403  0.2613  0.2918 -0.6365
  248MPD1    C2 3760   1.909   2.393   0.466  0.1988  1.0323 -0.0911
  248MPD1    C3 3761   2.008   2.386   0.569  0.1154  0.4222  0.3978
  248MPD1    C4 3762   2.047   2.257   0.605  0.3233 -0.1198  0.9584
  248MPD1    C5 3763   1.988   2.146   0.539  1.0918  0.5759  0.3880
  248MPD1     H 3764   1.870   2.494   0.455  1.0544  1.5735  1.9446
  248MPD1    H1 3765   2.105   2.226   0.691  1.7880  0.9268  0.3304
  248MPD1    H2 3766   1.852   2.063   0.395  2.1934 -0.1801  0.4529
  248MPD1    H3 3767   2.028   2.050   0.568  1.2240  0.6879  0.5744
  248MPD1     N 3768   2.038   2.504   0.644  0.0395  0.0976 -0.4217
  248MPD1    H5 3769   1.984   2.587   0.623  1.2658  0.5565 -1.7462
  248MPD1    N1 3770   1.740   2.299   0.321 -0.3958 -0.8187  0.4638
  248MPD1    H6 3771   1.723   2.394   0.291  0.0619 -1.3043 -1.3149
  248MPD1    H7 3772   1.746   2.241   0.238 -2.0737 -2.7173  1.6554
  249MPD1     C 3773   4.331   2.233   9.661 -0.4658 -0.0785  0.7516
  249MPD1    C1 3774   4.376   2.165   9.765 -0.5110 -0.3941  0.9350
  249MPD1    C2 3775   4.447   2.234   9.856 -0.3573  0.9357 -0.2889
  249MPD1    C3 3776   4.471   2.372   9.851 -0.9747  0.4287  0.4325
  249MPD1    C4 3777   4.414   2.437   9.738 -0.3066 -0.4921  0.5632
  249MPD1    C5 3778   4.350   2.367   9.643  0.2506 -0.5997 -0.0927
  249MPD1     H 3779   4.480   2.178   9.943 -1.9768  0.9543  0.3418
  249MPD1    H1 3780   4.422   2.545   9.729 -0.4554 -0.6990 -1.8916
  249MPD1    H2 3781   4.287   2.181   9.577 -2.0933  1.1413  0.8458
  249MPD1    H3 3782   4.310   2.419   9.556  1.0824 -3.0665 -1.9380
  249MPD1     N 3783   4.550   2.445   9.949  0.5038  0.1855 -0.1408
  249MPD1    H5 3784   4.586   2.397  10.031 -0.5406 -1.0140 -0.3961
  249MPD1    N1 3785   4.357   2.025   9.774  0.4545 -0.6602 -0.0286
  249MPD1    H6 3786   4.272   1.990   9.731  0.0066 -1.4392  1.4562
  249MPD1    H7 3787   4.374   1.984   9.866 -1.3806  1.5134  1.2666
  250MPD2     C 3788   0.280   2.160  12.941  0.3284  0.3376  0.7855
  250MPD2    C1 3789   0.229   2.208  12.824  0.2361 -0.5963 -0.1478
  250MPD2    C2 3790   0.178   2.120  12.724  0.4600  0.6822  0.6592
  250MPD2    C3 3791   0.180   1.984  12.753  0.3132  0.7132 -0.2833
  250MPD2    C4 3792   0.236   1.940  12.874 -0.2955  0.0378  0.4301
  250MPD2    C5 3793   0.283   2.027  12.966 -0.0924  0.8211 -0.4932
  250MPD2     H 3794   0.131   2.166  12.638 -0.6091  0.2205  0.9930
  250MPD2    H1 3795   0.264   1.836  12.882 -1.3575 -0.2437  0.5297
  250MPD2    H2 3796   0.314   2.228  13.018 -1.0925 -0.0713  1.7888
  250MPD2    H3 3797   0.332   1.991  13.056 -2.5855  1.3823  1.0978
  250MPD2     N 3798   0.128   1.881  12.672 -0.3274  0.1969 -0.2061
  250MPD2    H5 3799   0.139   1.789  12.712 -0.7261 -0.5112 -1.7263
  250MPD2    N1 3800   0.227   2.348  12.803 -0.2600  0.6164 -0.1137
  250MPD2    H7 3801   0.275   2.404  12.873 -0.5746  0.0866  0.5162
  251TMC3    C1 3802   0.174   2.558  12.718 -0.2907  0.4315  0.0767
  251TMC3    C2 3803   0.066   2.642  12.697 -0.1173  0.0924 -0.1195
  251TMC3    C3 3804   0.094   2.776  12.704  0.3389 -0.1891  0.0613
  251TMC3    C4 3805   0.303   2.598  12.727  0.3636  0.1426 -0.4271
  251TMC3    C5 3806   0.325   2.732  12.725 -0.3999 -0.5476  0.3386
  251TMC3    C6 3807   0.223   2.824  12.722  0.5603 -0.3272 -0.0254
  251TMC3     C 3808   0.152   2.420  12.709  0.4690 -0.1030 -0.2892
  251TMC3     O 3809   0.061   2.387  12.633  0.2758  0.0403 -0.4107
  251TMC3     H 3810   4.681   2.608  12.685  0.4095 -1.7224  0.5540
  251TMC3    H1 3811   0.380   2.523  12.742 -1.3906 -1.4028  0.8680
  251TMC3    H2 3812   0.247   2.930  12.725  0.2187 -0.2206 -0.8458
  251TMC3    C7 3813   0.464   2.773  12.744 -0.0971 -0.2189  0.0374
  251TMC3    C8 3814   4.695   2.860  12.705  0.7257 -0.0837 -0.5343
  251TMC3    O1 3815   0.547   2.683  12.724 -0.2462 -0.0426 -0.1842
  251TMC3    O2 3816   4.596   2.801  12.749 -0.2234  0.6178  0.0478
  252TMC3    C1 3817   1.895   3.256   9.661  0.2903 -0.0074 -0.5290
  252TMC3    C2 3818   1.811   3.167   9.718  0.0428  0.6748  1.2335
  252TMC3    C3 3819   1.739   3.092   9.629 -0.1138 -0.4439 -0.6070
  252TMC3    C4 3820   1.913   3.278   9.525 -0.4575  0.0747  0.3654
  252TMC3    C5 3821   1.833   3.209   9.438 -0.1471  0.0512 -0.1194
  252TMC3    C6 3822   1.762   3.104   9.496 -0.1008  0.3122  0.2289
  252TMC3     C 3823   1.999   3.306   9.754  0.0712  0.0547 -0.1271
  252TMC3     O 3824   1.961   3.316   9.872 -0.5796  0.1646 -0.2623
  252TMC3     H 3825   1.792   3.172   9.825 -0.5447  0.9500  1.1132
  252TMC3    H1 3826   1.948   3.377   9.498  0.0186 -0.9381 -2.7598
  252TMC3    H2 3827   1.713   3.036   9.427  1.7564  0.2021 -0.9996
  252TMC3    C7 3828   1.780   3.263   9.308  0.2575  0.0944 -0.0463
  252TMC3    C8 3829   1.620   3.018   9.668  0.2726 -0.7013  0.0943
  252TMC3    O1 3830   1.853   3.342   9.244  1.0490  0.1294 -0.1859
  252TMC3    O2 3831   1.544   2.974   9.579  0.2393 -0.5941 -0.2396
  253MPD2     C 3832   2.085   2.246  15.287 -0.2258  0.0218 -0.2291
  253MPD2    C1 3833   1.960   2.201  15.322 -1.0963  1.0051  0.4403
  253MPD2    C2 3834   1.922   2.210  15.452 -0.1893 -0.2702 -0.2712
  253MPD2    C3 3835   1.994   2.266  15.552 -0.0077 -0.6515  0.2690
  253MPD2    C4 3836   2.127   2.292  15.518  0.5392  0.0232  0.0218
  253MPD2    C5 3837   2.162   2.291  15.386  0.0910  0.3883 -0.1050
  253MPD2     H 3838   1.825   2.164  15.466 -1.2015  1.9971  0.2111
  253MPD2    H1 3839   2.212   2.320  15.580 -0.5118  1.5926  0.7457
  253MPD2    H2 3840   2.119   2.242  15.184 -0.2709 -2.1905 -0.1580
  253MPD2    H3 3841   2.263   2.312  15.354  0.1038 -1.6600 -1.4314
  253MPD2     N 3842   1.952   2.258  15.685  0.1582 -0.0031  0.1396
  253MPD2    H5 3843   2.026   2.283  15.751  0.8504 -2.3440  0.2515
  253MPD2    N1 3844   1.869   2.143  15.237  0.0251 -0.4362 -0.8549
  253MPD2    H7 3845   1.777   2.126  15.276  1.0299 -2.2134  0.7373
  254TMC3    C1 3846   1.822   2.187  15.873 -0.4759  0.2161  1.0891
  254TMC3    C2 3847   1.697   2.188  15.924 -0.1400 -0.2617 -0.2079
  254TMC3    C3 3848   1.685   2.171  16.064  0.4764 -0.2379 -0.3731
  254TMC3    C4 3849   1.932   2.176  15.949 -0.0462  0.3333 -0.2566
  254TMC3    C5 3850   1.916   2.168  16.085 -0.0210  0.3988 -0.2864
  254TMC3    C6 3851   1.792   2.168  16.146  0.0152  0.1655  0.2009
  254TMC3     C 3852   1.837   2.198  15.731  0.2808  0.1124  0.1298
  254TMC3     O 3853   1.727   2.177  15.676 -0.3792 -0.4343 -0.6252
  254TMC3     H 3854   1.604   2.207  15.872  0.1736  2.3090  0.1707
  254TMC3    H1 3855   2.021   2.140  15.897  1.1540  0.4166  1.7259
  254TMC3    H2 3856   1.786   2.153  16.253 -0.2433  1.4243  0.3592
  254TMC3    C7 3857   2.027   2.122  16.164  0.0204  0.7461 -0.4143
  254TMC3    C8 3858   1.564   2.219  16.128  0.1791  0.1862 -0.7115
  254TMC3    O1 3859   1.993   2.040  16.246  0.0412  0.2395  0.2635
  254TMC3    O2 3860   1.572   2.244  16.247 -0.1512 -0.8004 -0.2984
  255MPD2     C 3861   0.535   0.592  10.469  0.3846 -0.0882 -0.4878
  255MPD2    C1 3862   0.563   0.590  10.334  0.5362  0.5630  0.2078
  255MPD2    C2 3863   0.685   0.562  10.287  0.3900 -0.0316  0.0084
  255MPD2    C3 3864   0.787   0.522  10.373  0.0959  0.1808 -0.1350
  255MPD2    C4 3865   0.762   0.536  10.511 -0.0631 -0.1742 -0.8483
  255MPD2    C5 3866   0.636   0.568  10.553  0.0582 -0.2492  0.3498
  255MPD2     H 3867   0.710   0.565  10.181  1.9938  1.3940  0.4223
  255MPD2    H1 3868   0.828   0.513  10.594  1.4117  2.8514 -1.1991
  255MPD2    H2 3869   0.437   0.628  10.498  0.7426 -0.6498  1.3651
  255MPD2    H3 3870   0.621   0.594  10.658 -0.6314 -0.3266  0.2715
  255MPD2     N 3871   0.916   0.478  10.317 -0.1816  0.2985 -0.1025
  255MPD2    H5 3872   0.920   0.479  10.216  0.6494 -0.6890 -0.0817
  255MPD2    N1 3873   0.452   0.616  10.239 -0.3328 -0.0618 -0.0263
  255MPD2    H7 3874   0.360   0.620  10.283 -0.1235 -2.2555  0.6433
  256TMC3    C1 3875   0.340   0.592  10.036  0.5322  0.0273  0.1318
  256TMC3    C2 3876   0.338   0.628   9.903 -0.7863  0.8675 -0.1022
  256TMC3    C3 3877   0.262   0.548   9.818  0.5945  0.6896 -0.0646
  256TMC3    C4 3878   0.268   0.482  10.079 -0.2566 -0.4543  0.3233
  256TMC3    C5 3879   0.195   0.404   9.995  0.0525 -0.6608  0.6989
  256TMC3    C6 3880   0.187   0.441   9.863  0.9958  0.5142  0.3350
  256TMC3     C 3881   0.461   0.623  10.100 -0.3906 -0.2172 -0.0046
  256TMC3     O 3882   0.563   0.636  10.034 -0.2857 -0.0424 -0.0837
  256TMC3     H 3883   0.397   0.707   9.860 -1.9509  2.2185  0.7950
  256TMC3    H1 3884   0.288   0.454  10.182  0.7208 -0.2495  0.1895
  256TMC3    H2 3885   0.137   0.376   9.792  3.0765  0.4402 -1.1035
  256TMC3    C7 3886   0.165   0.270  10.026 -0.0917  0.0930 -0.1837
  256TMC3    C8 3887   0.319   0.533   9.682  0.3158  0.4152  0.2350
  256TMC3    O1 3888   0.169   0.191   9.933 -0.4300  0.1416  0.2246
  256TMC3    O2 3889   0.251   0.524   9.582 -0.3064  0.2285  0.2597
  257MPD2     C 3890   4.243   2.268  13.017 -0.4354  0.1646  0.0879
  257MPD2    C1 3891   4.180   2.158  12.962 -1.0313 -0.0585  0.2298
  257MPD2    C2 3892   4.169   2.050  13.051 -0.1218  0.4996 -1.1512
  257MPD2    C3 3893   4.221   2.045  13.176 -0.5941 -0.6627 -0.5320
  257MPD2    C4 3894   4.283   2.159  13.233 -0.2670 -0.5347  0.7971
  257MPD2    C5 3895   4.287   2.269  13.152 -0.3406  0.1160  0.3617
  257MPD2     H 3896   4.140   1.950  13.021 -1.3116  0.5832 -0.2684
  257MPD2    H1 3897   4.318   2.167  13.335  2.0610  1.9003 -0.1989
  257MPD2    H2 3898   4.250   2.364  12.965  3.0043  1.2381  2.5142
  257MPD2    H3 3899   4.327   2.361  13.192 -0.9740 -0.3161  2.0192
  257MPD2     N 3900   4.222   1.921  13.246 -0.3453  0.3260  0.4418
  257MPD2    H5 3901   4.176   1.842  13.203  0.7751  0.3701 -0.8178
  257MPD2    N1 3902   4.137   2.153  12.830  0.2137  0.2920 -0.0338
  257MPD2    H7 3903   4.163   2.231  12.770 -0.0937  0.3007 -0.1590
  258TMC3    C1 3904   4.301   1.748  13.393 -0.4224 -0.2813  0.0531
  258TMC3    C2 3905   4.287   1.663  13.293 -0.0654  0.3610 -0.1149
  258TMC3    C3 3906   4.309   1.535  13.313  0.5848  0.9752  0.1247
  258TMC3    C4 3907   4.336   1.719  13.519 -0.3543  0.4302 -0.0436
  258TMC3    C5 3908   4.360   1.583  13.539  0.1062  0.0685  0.9739
  258TMC3    C6 3909   4.343   1.488  13.441 -0.4642 -0.2312  0.0604
  258TMC3     C 3910   4.286   1.894  13.366 -0.8617 -0.1167 -0.4138
  258TMC3     O 3911   4.317   1.975  13.451  0.1923  0.4073  0.5483
  258TMC3     H 3912   4.270   1.690  13.189  1.2063 -1.8130 -0.8940
  258TMC3    H1 3913   4.332   1.791  13.601  0.7540 -0.5852  0.8969
  258TMC3    H2 3914   4.345   1.383  13.465  0.1406 -0.2531 -0.0900
  258TMC3    C7 3915   4.309   1.539  13.668 -0.1031 -0.1932 -0.9080
  258TMC3    C8 3916   4.247   1.442  13.223  0.0757  0.0313 -0.0972
  258TMC3    O1 3917   4.226   1.611  13.727  0.3349 -0.0540 -0.0815
  258TMC3    O2 3918   4.127   1.457  13.215  0.0457 -0.3066  0.2690
  259MPD2     C 3919   3.542   2.705   2.102 -0.6161  0.4722  0.4006
  259MPD2    C1 3920   3.505   2.790   1.999  0.1107  0.2196 -0.6620
  259MPD2    C2 3921   3.554   2.761   1.871  0.6617  0.3172  0.8133
  259MPD2    C3 3922   3.639   2.661   1.848  0.1721  0.6740 -0.2562
  259MPD2    C4 3923   3.687   2.583   1.951  0.6869  0.8147  0.1798
  259MPD2    C5 3924   3.622   2.598   2.073  0.4581  0.2277  0.6855
  259MPD2     H 3925   3.515   2.820   1.789 -1.1667 -0.4936  1.0829
  259MPD2    H1 3926   3.756   2.499   1.940  0.3095  0.6342 -0.7696
  259MPD2    H2 3927   3.496   2.720   2.199 -1.4676 -1.1726  0.2586
  259MPD2    H3 3928   3.642   2.534   2.158 -0.3093  3.5222  3.3329
  259MPD2     N 3929   3.668   2.628   1.718  0.1896 -0.2455  0.4414
  259MPD2    H5 3930   3.615   2.667   1.641 -0.8136  1.0235  1.7687
  259MPD2    N1 3931   3.429   2.905   2.030  0.0497  0.2650  0.3516
  259MPD2    H7 3932   3.386   2.910   2.122 -1.8379 -2.2303 -0.3989
  260TMC3    C1 3933   3.761   2.499   1.539 -0.5998  0.2637 -0.5231
  260TMC3    C2 3934   3.884   2.493   1.480  0.7203 -0.6213 -0.1909
  260TMC3    C3 3935   3.885   2.470   1.345  0.2720 -0.0640  0.4595
  260TMC3    C4 3936   3.646   2.473   1.479  0.1348 -0.2867 -0.4951
  260TMC3    C5 3937   3.654   2.460   1.340  0.3582 -0.2906 -0.7421
  260TMC3    C6 3938   3.774   2.444   1.274  0.3976  0.0030  0.8148
  260TMC3     C 3939   3.758   2.528   1.681  0.7459 -0.3629 -0.4677
  260TMC3     O 3940   3.853   2.480   1.738  0.1286 -0.5256 -0.2078
  260TMC3     H 3941   3.978   2.489   1.534  0.1286 -0.8829  0.8212
  260TMC3    H1 3942   3.550   2.492   1.527  0.8326 -1.1800  1.2587
  260TMC3    H2 3943   3.780   2.446   1.166 -0.6572  0.0771  0.7582
  260TMC3    C7 3944   3.526   2.431   1.271  0.6570 -0.4077 -0.7559
  260TMC3    C8 3945   4.016   2.463   1.275 -0.0370  0.1999 -0.8473
  260TMC3    O1 3946   3.437   2.384   1.337 -0.3652 -0.4783 -0.3629
  260TMC3    O2 3947   4.107   2.434   1.348  0.1642  0.5786 -0.6503
  261MPD2     C 3948   0.147   1.483  12.027 -0.4220 -0.2140 -0.1424
  261MPD2    C1 3949   0.079   1.603  12.014  0.4052  0.2584 -0.0053
  261MPD2    C2 3950   0.106   1.694  11.914  0.8978 -0.0308 -0.6580
  261MPD2    C3 3951   0.191   1.657  11.810  0.1696  0.2357 -0.9373
  261MPD2    C4 3952   0.241   1.533  11.812 -0.2473  0.3674  0.4495
  261MPD2    C5 3953   0.219   1.446  11.916  0.1931  0.6173 -0.4994
  261MPD2     H 3954   0.060   1.793  11.919  1.3211  0.1109  0.3760
  261MPD2    H1 3955   0.295   1.495  11.726  1.7445  1.8004  1.0574
  261MPD2    H2 3956   0.148   1.406  12.103  0.9904  0.7410  0.8003
  261MPD2    H3 3957   0.272   1.352  11.926 -1.7742 -0.3024  1.0447
  261MPD2     N 3958   0.214   1.753  11.710 -0.3492 -0.0391 -0.7529
  261MPD2    H5 3959   0.164   1.839  11.731  0.2118  0.1450 -0.1638
  261MPD2    N1 3960   4.709   1.650  12.117 -0.0903 -0.0965 -0.2947
  261MPD2    H7 3961   4.671   1.743  12.101  1.0393  0.1896 -1.3931
  262TMC3    C1 3962   0.308   1.869  11.531  0.6206 -0.0715 -0.1857
  262TMC3    C2 3963   0.288   1.983  11.599  0.1730  0.0709  0.9115
  262TMC3    C3 3964   0.343   2.096  11.547  0.3167  0.3237 -0.5087
  262TMC3    C4 3965   0.371   1.859  11.411  0.2165 -0.7520 -0.4265
  262TMC3    C5 3966   0.424   1.974  11.361 -0.3383 -0.1713  0.1192
  262TMC3    C6 3967   0.415   2.092  11.429 -0.6076 -0.0887 -0.3363
  262TMC3     C 3968   0.299   1.745  11.604 -0.3777  0.6094  0.3791
  262TMC3     O 3969   0.384   1.655  11.581 -0.0972  0.1561  0.6940
  262TMC3     H 3970   0.237   1.998  11.693  0.1769  0.5225  0.8453
  262TMC3    H1 3971   0.383   1.763  11.363 -0.2581 -2.7186  3.3912
  262TMC3    H2 3972   0.454   2.178  11.377  0.2975  0.3024  0.9904
  262TMC3    C7 3973   0.513   1.976  11.241 -0.3315 -0.2022 -0.6403
  262TMC3    C8 3974   0.297   2.232  11.576  0.8133  1.0493  0.4585
  262TMC3    O1 3975   0.578   2.077  11.232  0.0737  0.4597 -0.2080
  262TMC3    O2 3976   0.349   2.322  11.514 -0.3773  0.0094  0.6140
  263MPD2     C 3977   1.219   1.551  10.861 -0.1193 -0.5441 -0.4303
  263MPD2    C1 3978   1.352   1.507  10.855 -0.1813  0.9161  0.4584
  263MPD2    C2 3979   1.444   1.558  10.767  0.5310  0.1071 -0.1764
  263MPD2    C3 3980   1.395   1.654  10.679 -0.3418  1.3891  0.3421
  263MPD2    C4 3981   1.270   1.701  10.684 -0.5481  0.0438  0.2785
  263MPD2    C5 3982   1.181   1.653  10.778  0.4995  1.0749  0.1659
  263MPD2     H 3983   1.545   1.523  10.752  0.5910  0.9422 -1.6877
  263MPD2    H1 3984   1.240   1.784  10.620 -4.3114 -1.2165  0.4067
  263MPD2    H2 3985   1.154   1.503  10.933 -1.4582  0.7135 -0.7934
  263MPD2    H3 3986   1.089   1.708  10.796 -1.1503 -1.4948 -0.5606
  263MPD2     N 3987   1.470   1.699  10.568 -0.2839  0.3291  0.0993
  263MPD2    H5 3988   1.438   1.780  10.517 -0.5016  1.2365  1.6888
  263MPD2    N1 3989   1.380   1.392  10.942  0.4545  0.3515  0.1581
  263MPD2    H7 3990   1.310   1.364  11.010  0.9634  2.4489  1.5484
  264TMC3    C1 3991   1.656   1.729  10.432  0.6943  0.2425  0.1818
  264TMC3    C2 3992   1.639   1.864  10.442  0.8077  0.4138  0.0472
  264TMC3    C3 3993   1.712   1.956  10.369  0.0821  0.0482 -0.0518
  264TMC3    C4 3994   1.746   1.681  10.341 -0.3613  0.3910  0.3403
  264TMC3    C5 3995   1.809   1.772  10.261  0.2272 -0.2791  0.6550
  264TMC3    C6 3996   1.783   1.907  10.265  0.4290 -0.1553  0.2015
  264TMC3     C 3997   1.595   1.648  10.526  0.3175 -0.2583  0.4449
  264TMC3     O 3998   1.627   1.528  10.529 -0.4410  0.3195  0.4475
  264TMC3     H 3999   1.593   1.888  10.537  1.2386 -0.0262  0.3660
  264TMC3    H1 4000   1.786   1.581  10.353  0.2449  0.8756  2.3766
  264TMC3    H2 4001   1.808   1.971  10.182 -0.2214  0.8319  0.7662
  264TMC3    C7 4002   1.917   1.721  10.173 -0.0190  0.2467 -0.3579
  264TMC3    C8 4003   1.750   2.086  10.427  0.3097 -0.5729 -1.0491
  264TMC3    O1 4004   1.943   1.604  10.185  0.0722  0.3084  0.0328
  264TMC3    O2 4005   1.846   2.143  10.375 -0.0767 -0.5681 -0.0196
  265MPD2     C 4006   3.044   1.891  15.379  0.4407  0.3628  0.5384
  265MPD2    C1 4007   3.140   1.971  15.420 -0.5331 -0.2193  0.4266
  265MPD2    C2 4008   3.266   1.965  15.368  0.2064  0.6805 -0.3731
  265MPD2    C3 4009   3.295   1.860  15.276 -0.0935 -0.6829  0.3015
  265MPD2    C4 4010   3.198   1.774  15.236 -0.6808 -0.1020  0.4816
  265MPD2    C5 4011   3.070   1.793  15.287  0.3465  0.0942 -0.1787
  265MPD2     H 4012   3.344   2.032  15.402  0.0683  0.9942 -0.6702
  265MPD2    H1 4013   3.216   1.690  15.170 -0.7095  0.2716 -0.0058
  265MPD2    H2 4014   2.945   1.903  15.423 -0.3196 -0.4700 -0.9139
  265MPD2    H3 4015   2.991   1.725  15.256 -0.9197  1.1020  0.8176
  265MPD2     N 4016   3.426   1.837  15.228 -0.5722 -0.4048  0.0558
  265MPD2    H5 4017   3.450   1.745  15.193 -1.4152 -0.8710  0.7216
  265MPD2    N1 4018   3.124   2.058  15.527  0.0744  0.0188 -0.7375
  265MPD2    H7 4019   3.196   2.126  15.552 -2.6068  2.4176  0.4451
  266TMC3    C1 4020   3.033   2.161  15.709  0.2406 -0.4604 -0.2013
  266TMC3    C2 4021   2.970   2.150  15.830  0.6605 -0.8039  0.1345
  266TMC3    C3 4022   2.984   2.248  15.921 -0.7491  0.2732 -1.0745
  266TMC3    C4 4023   3.113   2.268  15.672  0.1682  1.5361  0.2338
  266TMC3    C5 4024   3.120   2.367  15.767 -0.5964 -0.6973  0.2276
  266TMC3    C6 4025   3.052   2.364  15.886  0.0933  0.2875 -0.4014
  266TMC3     C 4026   3.017   2.057  15.616  0.4092 -0.6101 -0.2603
  266TMC3     O 4027   2.941   1.961  15.645 -0.2577  1.0555  0.4765
  266TMC3     H 4028   2.900   2.068  15.840 -0.4541 -0.0104 -1.0319
  266TMC3    H1 4029   3.157   2.278  15.574  0.1813  1.0621  0.1909
  266TMC3    H2 4030   3.055   2.442  15.963  0.9663  0.7230 -0.8772
  266TMC3    C7 4031   3.171   2.494  15.706 -0.4435 -0.2535 -0.4405
  266TMC3    C8 4032   2.928   2.222  16.053 -0.5240  0.2863  0.0513
  266TMC3    O1 4033   3.261   2.475  15.629 -0.0159 -0.1563  0.5120
  266TMC3    O2 4034   2.846   2.128  16.066  0.9602 -0.1362  0.4161
  267MPD2     C 4035   1.183   3.432  17.556  0.2806  0.1045 -0.0700
  267MPD2    C1 4036   1.132   3.401   0.009 -0.3192  0.5522 -0.4734
  267MPD2    C2 4037   1.002   3.340   0.016 -0.1696 -0.1160 -0.6814
  267MPD2    C3 4038   0.935   3.306  17.572  0.1115  0.2677 -0.0273
  267MPD2    C4 4039   1.000   3.320  17.452 -0.0987 -0.2647 -0.3835
  267MPD2    C5 4040   1.119   3.384  17.450 -0.2661 -0.8906 -0.0981
  267MPD2     H 4041   0.956   3.317   0.111  0.3718 -0.2572 -0.4549
  267MPD2    H1 4042   0.959   3.294  17.355 -1.3709  3.9376 -0.9965
  267MPD2    H2 4043   1.281   3.478  17.545 -0.2267  1.2446  0.1608
  267MPD2    H3 4044   1.166   3.406  17.354 -1.2609  0.2450 -0.3189
  267MPD2     N 4045   0.804   3.273  17.567 -0.2004 -0.2840 -0.3709
  267MPD2    H5 4046   0.777   3.249  17.472 -1.0528  1.3691 -0.5373
  267MPD2    N1 4047   1.210   3.436   0.119  0.8260 -0.3089 -0.5123
  267MPD2    H7 4048   1.288   3.496   0.095 -0.4906  1.9662  0.8917
  268TMC3    C1 4049   1.260   3.502   0.338  0.1828  0.0557  0.2386
  268TMC3    C2 4050   1.239   3.635   0.316 -0.1822 -0.7226 -0.2562
  268TMC3    C3 4051   1.232   3.725   0.420  0.7910  0.3748 -0.0966
  268TMC3    C4 4052   1.258   3.456   0.463 -0.3181  0.7239  0.5367
  268TMC3    C5 4053   1.235   3.541   0.566 -0.1641 -0.0748  0.0780
  268TMC3    C6 4054   1.228   3.676   0.551  0.2306  0.1204 -1.3072
  268TMC3     C 4055   1.178   3.427   0.253  0.0324  0.7481  0.5576
  268TMC3     O 4056   1.090   3.360   0.305 -0.0170 -0.0833  0.7658
  268TMC3     H 4057   1.241   3.668   0.213  3.1754 -1.2958 -0.3853
  268TMC3    H1 4058   1.262   3.348   0.476  1.4449  0.9881  2.1627
  268TMC3    H2 4059   1.240   3.743   0.635 -2.1604 -1.5717  0.3550
  268TMC3    C7 4060   1.178   3.481   0.685 -0.2230  0.5194  0.0249
  268TMC3    C8 4061   1.167   3.854   0.396 -0.3491 -0.0322  0.0521
  268TMC3    O1 4062   1.155   3.359   0.690  0.1747  0.1279 -0.3463
  268TMC3    O2 4063   1.163   3.927   0.491  0.6858  0.1684  0.2263
  269MPD2     C 4064   1.024   2.194  15.700 -0.2955 -0.4576  0.1623
  269MPD2    C1 4065   0.896   2.225  15.739  0.2768  0.0123  0.2477
  269MPD2    C2 4066   0.854   2.358  15.729 -0.1834  0.2085 -0.1174
  269MPD2    C3 4067   0.937   2.450  15.676  0.4621  0.0535  0.2775
  269MPD2    C4 4068   1.067   2.427  15.649  0.4536  0.2433 -0.5174
  269MPD2    C5 4069   1.109   2.296  15.656 -0.7387  0.7128 -0.0377
  269MPD2     H 4070   0.761   2.402  15.762 -0.6236  0.7847 -2.1014
  269MPD2    H1 4071   1.138   2.500  15.611  0.3548 -0.1852 -1.4998
  269MPD2    H2 4072   1.065   2.098  15.730  0.4625  0.2341  1.3850
  269MPD2    H3 4073   1.215   2.272  15.648 -0.3861  2.4143 -0.5344
  269MPD2     N 4074   0.878   2.571  15.647  0.3996  0.0794 -0.0080
  269MPD2    H5 4075   0.777   2.570  15.639  0.3631  0.9909  0.4726
  269MPD2    N1 4076   0.824   2.122  15.805 -0.0564 -0.0027  0.2436
  269MPD2    H7 4077   0.859   2.028  15.788 -1.1003 -0.6061  1.3439
  270TMC3    C1 4078   0.636   2.017  15.906 -0.1452 -0.2831 -0.0803
  270TMC3    C2 4079   0.502   2.016  15.892  0.4089  0.8563  0.3700
  270TMC3    C3 4080   0.438   1.906  15.843 -0.0189 -0.1255  0.2949
  270TMC3    C4 4081   0.704   1.899  15.899 -0.0103  0.0084 -0.1113
  270TMC3    C5 4082   0.636   1.783  15.878 -0.7176 -0.0176 -0.1247
  270TMC3    C6 4083   0.501   1.784  15.843  0.2235  0.0941 -0.7223
  270TMC3     C 4084   0.710   2.143  15.879 -0.1113  0.4271 -0.3673
  270TMC3     O 4085   0.641   2.245  15.881 -0.0457 -0.6493  0.2640
  270TMC3     H 4086   0.442   2.106  15.896 -2.2561 -0.7433 -2.5945
  270TMC3    H1 4087   0.812   1.901  15.908  0.1296  0.8425 -2.0123
  270TMC3    H2 4088   0.440   1.696  15.829  2.8946 -1.7771 -0.6204
  270TMC3    C7 4089   0.710   1.703  15.780 -0.7596  0.4909 -0.0780
  270TMC3    C8 4090   0.421   1.943  15.705 -0.1770  0.7358  0.2028
  270TMC3    O1 4091   0.829   1.677  15.805  0.6682 -0.3316 -0.0210
  270TMC3    O2 4092   0.514   1.996  15.645 -0.5000  0.0547 -0.2406
  271MPD2     C 4093   4.684   2.017  14.103  0.2580 -0.2009  0.7905
  271MPD2    C1 4094   4.620   1.984  14.222 -0.1114  0.2533  0.3646
  271MPD2    C2 4095   4.487   2.010  14.232  0.4684 -0.2951 -0.0863
  271MPD2    C3 4096   4.407   2.052  14.125 -0.3466 -0.1955 -0.6259
  271MPD2    C4 4097   4.472   2.087  14.003  0.2452  0.3430  0.6635
  271MPD2    C5 4098   4.611   2.069  13.998 -0.2090 -0.2712  0.3566
  271MPD2     H 4099   4.443   1.985  14.328  0.3117  1.1734  0.2257
  271MPD2    H1 4100   4.419   2.109  13.911  0.4041 -1.3317  0.1627
  271MPD2    H2 4101   0.073   2.006  14.087 -0.1081  0.9522 -2.3886
  271MPD2    H3 4102   4.653   2.097  13.903  0.2380  0.2417  0.7075
  271MPD2     N 4103   4.267   2.078  14.130  0.4334  0.2972 -0.2077
  271MPD2    H5 4104   4.220   2.101  14.043  1.3894  0.4465 -0.6885
  271MPD2    N1 4105   4.684   1.942  14.335  0.4769  0.0057 -0.0391
  271MPD2    H7 4106   4.630   1.923  14.419 -1.0641  0.3654 -0.9647
  272TMC3    C1 4107   0.116   1.812  14.456  0.2335  0.5345 -0.1921
  272TMC3    C2 4108   0.215   1.719  14.446  0.0861 -0.8631  0.3003
  272TMC3    C3 4109   0.279   1.679  14.561 -0.2760  0.1863 -0.4594
  272TMC3    C4 4110   0.065   1.856  14.580 -0.0645  0.1693  1.0338
  272TMC3    C5 4111   0.135   1.809  14.686  0.6979 -0.3367  0.2415
  272TMC3    C6 4112   0.244   1.726  14.687 -0.2251  0.2681  0.6885
  272TMC3     C 4113   0.093   1.882  14.330  0.1101  0.2791 -0.3304
  272TMC3     O 4114   0.167   1.866  14.234 -0.0650 -0.2739  0.5954
  272TMC3     H 4115   0.251   1.688  14.349 -1.4382 -2.0744  0.1136
  272TMC3    H1 4116   4.710   1.935  14.594 -0.4112 -0.1266  0.8957
  272TMC3    H2 4117   0.289   1.681  14.775  1.8848  0.0955 -0.4888
  272TMC3    C7 4118   0.108   1.873  14.808  0.0510  0.1315  0.5045
  272TMC3    C8 4119   0.419   1.642  14.542  0.1778  0.0934 -0.1794
  272TMC3    O1 4120   4.715   1.916  14.829  0.0211 -0.4109 -0.2519
  272TMC3    O2 4121   0.470   1.662  14.430 -0.2550 -0.2662  0.4790
  273MPD2     C 4122   1.726   4.464  11.185 -0.4012 -0.3693 -0.5719
  273MPD2    C1 4123   1.789   4.563  11.257  0.1001  0.4154 -0.2792
  273MPD2    C2 4124   1.826   4.684  11.191  0.6543  0.2870 -0.1079
  273MPD2    C3 4125   1.796   4.704  11.056 -0.0009  0.6059 -0.6381
  273MPD2    C4 4126   1.731   4.604  10.997 -0.0782  0.5183 -0.2221
  273MPD2    C5 4127   1.689   4.489  11.057  0.7460 -0.4006 -0.6737
  273MPD2     H 4128   1.884   0.043  11.241 -0.2447  0.8629  0.0496
  273MPD2    H1 4129   1.720   4.614  10.890 -0.5266  0.9091 -0.1398
  273MPD2    H2 4130   1.705   4.366  11.225  0.9152 -1.6130 -2.9094
  273MPD2    H3 4131   1.647   4.408  10.998 -0.0543 -0.7649  0.3846
  273MPD2     N 4132   1.839   0.103  10.991  0.2973  0.4642 -0.5644
  273MPD2    H5 4133   1.842   0.108  10.890  2.1831  0.4241 -0.5045
  273MPD2    N1 4134   1.830   4.540  11.391  0.0323  0.9529  0.1268
  273MPD2    H7 4135   1.820   4.448  11.434 -0.2883 -0.3464 -2.7583
  274TMC3    C1 4136   1.956   0.312  10.982  0.0345  0.6051  0.2625
  274TMC3    C2 4137   1.944   0.315  10.846 -0.1348  0.6148  0.3159
  274TMC3    C3 4138   2.009   0.407  10.773 -0.2811 -0.3642 -0.1761
  274TMC3    C4 4139   2.023   0.412  11.044  0.0938 -0.7835 -0.5964
  274TMC3    C5 4140   2.096   0.498  10.968 -0.4372  0.1445 -0.1716
  274TMC3    C6 4141   2.097   0.491  10.833  0.1856 -0.2576  0.4674
  274TMC3     C 4142   1.875   0.215  11.059 -0.4796 -0.4355 -0.2811
  274TMC3     O 4143   1.860   0.259  11.174  0.0414  0.6624 -0.2160
  274TMC3     H 4144   1.874   0.259  10.785 -1.8967 -0.3766  3.2584
  274TMC3    H1 4145   2.028   0.396  11.151  0.6577  2.3130 -0.1605
  274TMC3    H2 4146   2.133   0.576  10.776 -0.2782  0.3983  1.1607
  274TMC3    C7 4147   2.116   0.634  11.024  0.2701 -0.9508 -0.1458
  274TMC3    C8 4148   1.993   0.415  10.627  0.3575  0.2600  0.6108
  274TMC3    O1 4149   2.112   0.735  10.954 -0.0547  0.3241  0.5768
  274TMC3    O2 4150   1.896   0.366  10.573  0.6980 -0.4757  0.1001
  275MPD2     C 4151   1.192   3.185  14.856 -0.2926 -0.3562  0.0290
  275MPD2    C1 4152   1.253   3.093  14.781  0.8934  0.1643 -0.2637
  275MPD2    C2 4153   1.172   3.016  14.693 -0.1945 -0.0374 -0.3758
  275MPD2    C3 4154   1.034   3.029  14.688  0.1859  0.0220  0.8321
  275MPD2    C4 4155   0.974   3.133  14.757  0.2103 -0.1061 -0.6450
  275MPD2    C5 4156   1.058   3.205  14.846 -0.8923  0.7863 -0.6423
  275MPD2     H 4157   1.220   2.938  14.635 -1.9594 -1.2361 -0.2201
  275MPD2    H1 4158   0.867   3.144  14.754  0.2818  0.5863 -0.6491
  275MPD2    H2 4159   1.239   3.236  14.939 -0.6104  0.6145 -0.3916
  275MPD2    H3 4160   1.015   3.265  14.925 -0.7477  0.5827 -0.4118
  275MPD2     N 4161   0.952   2.959  14.600 -0.0028  0.6165  0.3747
  275MPD2    H5 4162   0.855   2.987  14.606 -0.5441 -0.9921 -0.9287
  275MPD2    N1 4163   1.393   3.077  14.785  0.0747 -0.2296  0.1110
  275MPD2    H7 4164   1.428   2.991  14.744 -2.5222 -2.0861  1.7369
  276TMC3    C1 4165   1.610   3.091  14.891 -0.7915 -0.3379  0.7028
  276TMC3    C2 4166   1.662   2.991  14.813  0.1583  0.7892  0.0237
  276TMC3    C3 4167   1.797   2.987  14.791 -0.1601 -0.2754 -0.4754
  276TMC3    C4 4168   1.695   3.181  14.955  0.2858 -0.0553 -0.5204
  276TMC3    C5 4169   1.827   3.170  14.928  0.4622 -1.1264  0.2579
  276TMC3    C6 4170   1.884   3.070  14.851  0.2926 -0.0721  0.0293
  276TMC3     C 4171   1.476   3.146  14.871 -0.0957 -0.2402 -0.2077
  276TMC3     O 4172   1.462   3.264  14.913  0.1188 -0.3928 -0.7414
  276TMC3     H 4173   1.599   2.914  14.769 -0.3987  0.3913  1.5144
  276TMC3    H1 4174   1.659   3.262  15.018  0.7368 -0.6125  0.4639
  276TMC3    H2 4175   1.991   3.053  14.837  0.5567  0.2974  1.6228
  276TMC3    C7 4176   1.909   3.262  15.003  0.2517  0.2586 -0.0514
  276TMC3    C8 4177   1.857   2.880  14.719  0.2003  0.3477  0.3693
  276TMC3    O1 4178   1.867   3.307  15.107  0.0396  0.4130  0.2170
  276TMC3    O2 4179   1.973   2.900  14.682 -0.1638 -0.3417  0.6173
  277MPD2     C 4180   3.877   1.613  13.975 -0.3532 -0.9744  0.2793
  277MPD2    C1 4181   3.755   1.605  13.902  0.2537  0.5897 -0.2226
  277MPD2    C2 4182   3.643   1.619  13.985 -0.1183 -0.1629  0.2517
  277MPD2    C3 4183   3.646   1.626  14.126 -0.1112  0.2645  0.2461
  277MPD2    C4 4184   3.769   1.620  14.187  0.9408 -0.4741  0.5258
  277MPD2    C5 4185   3.883   1.610  14.110 -0.4316  0.4800  0.1605
  277MPD2     H 4186   3.548   1.620  13.933 -0.2406  0.6499  0.4795
  277MPD2    H1 4187   3.779   1.624  14.295  1.2119  1.2472  0.4467
  277MPD2    H2 4188   3.969   1.610  13.917  0.1002 -0.3924  0.9698
  277MPD2    H3 4189   3.977   1.597  14.164 -0.9706 -3.4200  0.1455
  277MPD2     N 4190   3.518   1.627  14.184 -0.0564  0.0889 -0.1936
  277MPD2    H5 4191   3.441   1.633  14.119 -0.4760  0.4417  0.3357
  277MPD2    N1 4192   3.744   1.593  13.760  0.2131  0.4004 -0.1865
  277MPD2    H7 4193   3.825   1.611  13.702  1.4575 -1.5632  0.9410
  278TMC3    C1 4194   3.347   1.565  14.322  0.2666 -0.5546 -0.4233
  278TMC3    C2 4195   3.321   1.437  14.355 -0.5734 -0.8656  0.5226
  278TMC3    C3 4196   3.189   1.405  14.336  0.5890 -0.6048 -0.2254
  278TMC3    C4 4197   3.256   1.655  14.266 -0.4403  0.2484  0.9355
  278TMC3    C5 4198   3.129   1.621  14.265  0.5726 -0.5001  0.0829
  278TMC3    C6 4199   3.093   1.485  14.291  0.4712 -0.0939  0.5169
  278TMC3     C 4200   3.493   1.594  14.312  0.2519  0.5466  1.0565
  278TMC3     O 4201   3.569   1.532  14.383 -0.1490 -0.1509  0.1571
  278TMC3     H 4202   3.385   1.366  14.404  1.0812 -0.5055 -1.1123
  278TMC3    H1 4203   3.293   1.754  14.241  2.1672 -1.3901 -1.7407
  278TMC3    H2 4204   2.993   1.449  14.269 -0.2947  2.4641 -0.1492
  278TMC3    C7 4205   3.049   1.700  14.168  0.0412  0.4950  0.0603
  278TMC3    C8 4206   3.175   1.257  14.298 -0.2689 -0.5062  0.2840
  278TMC3    O1 4207   3.112   1.788  14.108  0.7436 -0.0791  0.3819
  278TMC3    O2 4208   3.267   1.187  14.335  0.2679  0.2461  0.7368
  279MPD2     C 4209   2.851   1.758   0.233  0.3331  0.2628  0.1817
  279MPD2    C1 4210   2.824   1.867   0.151  0.4321  0.2175 -0.0417
  279MPD2    C2 4211   2.897   1.881   0.036 -0.1232  0.6985 -0.5332
  279MPD2    C3 4212   2.993   1.783   0.003 -0.4518  0.1011  0.9293
  279MPD2    C4 4213   3.015   1.675   0.085  0.7927  0.6864  0.4211
  279MPD2    C5 4214   2.947   1.667   0.202 -0.9668 -0.4434 -0.2078
  279MPD2     H 4215   2.879   1.967  17.648 -1.0495  1.7263  1.1437
  279MPD2    H1 4216   3.081   1.596   0.052  0.9819  0.7530  0.6484
  279MPD2    H2 4217   2.804   1.748   0.330 -0.8295  1.4342 -0.2693
  279MPD2    H3 4218   2.963   1.578   0.262  2.3124  1.4780  1.7386
  279MPD2     N 4219   3.061   1.793  17.560  0.2736 -0.2992  0.0570
  279MPD2    H5 4220   3.050   1.883  17.514 -0.0479 -1.2898 -1.8175
  279MPD2    N1 4221   2.719   1.953   0.194 -0.1241  0.0767 -0.5176
  279MPD2    H7 4222   2.683   1.948   0.288 -0.8971 -2.3263 -0.9477
  280TMC3    C1 4223   2.556   2.113   0.180 -0.0248 -0.7862  0.3652
  280TMC3    C2 4224   2.471   2.024   0.230 -0.1417 -0.0316 -0.8302
  280TMC3    C3 4225   2.383   2.068   0.319  0.1778 -1.0640 -0.5356
  280TMC3    C4 4226   2.558   2.251   0.215  0.3957  0.2900  0.0073
  280TMC3    C5 4227   2.463   2.288   0.311  0.2455 -0.0338  0.1101
  280TMC3    C6 4228   2.367   2.200   0.351  0.3282 -0.3821 -0.8531
  280TMC3     C 4229   2.678   2.063   0.129  0.4320  0.2911 -0.0321
  280TMC3     O 4230   2.735   2.125   0.040  0.1740  0.3325 -0.1796
  280TMC3     H 4231   2.480   1.917   0.210 -0.6980 -0.1050 -0.6649
  280TMC3    H1 4232   2.639   2.314   0.181  0.2189  1.3385  1.5279
  280TMC3    H2 4233   2.289   2.234   0.419  0.3364  1.5459 -1.8144
  280TMC3    C7 4234   2.446   2.425   0.350  0.1781  0.2593 -0.3598
  280TMC3    C8 4235   2.309   1.981   0.407  0.1011 -0.4059 -0.1014
  280TMC3    O1 4236   2.547   2.490   0.373  0.9087 -0.2432 -0.0817
  280TMC3    O2 4237   2.272   2.021   0.519  0.4989  0.3880  0.2815
  281TMC3    C1 4238   1.070   2.556  13.331 -0.4342  0.3542  0.7950
  281TMC3    C2 4239   1.026   2.628  13.229  0.1227 -0.3301 -0.0100
  281TMC3    C3 4240   0.924   2.577  13.154  0.7926  0.0385  0.3169
  281TMC3    C4 4241   1.007   2.438  13.373  0.1743  0.0054  0.0671
  281TMC3    C5 4242   0.904   2.385  13.297  0.2488 -0.1410 -0.2421
  281TMC3    C6 4243   0.872   2.453  13.181 -0.9175 -0.7260  0.1401
  281TMC3     C 4244   1.150   2.624  13.433  0.2240 -0.1020  0.2744
  281TMC3     O 4245   1.211   2.549  13.508 -0.4368  0.0052  0.5303
  281TMC3     H 4246   1.079   2.717  13.200  1.9033 -1.0571  0.9647
  281TMC3    H1 4247   1.035   2.384  13.462 -1.0639  0.6919  0.8707
  281TMC3    H2 4248   0.802   2.406  13.113 -2.1512  1.6889 -0.2264
  281TMC3    C7 4249   0.814   2.284  13.341 -0.5505 -0.2700  0.6457
  281TMC3    C8 4250   0.871   2.645  13.037 -0.0876  0.3485  0.1478
  281TMC3    O1 4251   0.709   2.271  13.283 -0.3691 -0.6813 -0.4351
  281TMC3    O2 4252   0.803   2.575  12.961  0.1817  0.0530  0.0087
  282MPD2     C 4253   3.172   3.714  15.145 -0.4223  0.0894  1.1009
  282MPD2    C1 4254   3.038   3.753  15.139  0.0518 -0.0554  0.2248
  282MPD2    C2 4255   2.970   3.705  15.024 -0.3945 -0.3489 -0.4636
  282MPD2    C3 4256   3.027   3.632  14.924  1.0510 -0.2068  0.1141
  282MPD2    C4 4257   3.156   3.596  14.928 -0.0571  0.1131  0.4991
  282MPD2    C5 4258   3.222   3.623  15.048 -0.1944 -0.5865  0.8567
  282MPD2     H 4259   2.863   3.718  15.012 -0.0525  2.0290 -0.9434
  282MPD2    H1 4260   3.203   3.517  14.871  1.0053  0.8931  0.2864
  282MPD2    H2 4261   3.232   3.737  15.232 -1.3460  3.4957  0.8226
  282MPD2    H3 4262   3.324   3.588  15.060  0.0760 -0.8918 -2.2621
  282MPD2     N 4263   2.939   3.609  14.820  0.7455 -0.7152 -0.6772
  282MPD2    H5 4264   2.852   3.660  14.825  1.9709  1.2871 -0.0490
  282MPD2    N1 4265   2.962   3.814  15.245  0.0966 -0.2334 -0.0793
  282MPD2    H7 4266   2.862   3.818  15.230 -0.0591 -2.2202  0.3599
  283TMC3    C1 4267   2.924   3.915  15.450  0.4702  0.2991 -0.2655
  283TMC3    C2 4268   2.919   4.040  15.506 -0.0082 -0.4967 -0.1117
  283TMC3    C3 4269   2.850   4.060  15.624  0.4871 -0.0905  0.2417
  283TMC3    C4 4270   2.852   3.814  15.506 -0.6258 -0.5992  0.7237
  283TMC3    C5 4271   2.766   3.839  15.619 -0.0427  0.2182  0.5053
  283TMC3    C6 4272   2.768   3.966  15.679  0.6796 -0.1916 -1.0726
  283TMC3     C 4273   3.023   3.887  15.342  0.2613 -0.1928 -0.2501
  283TMC3     O 4274   3.135   3.936  15.336 -0.1028  0.3855  0.2511
  283TMC3     H 4275   3.005   4.104  15.490 -0.5512  0.1972 -0.2665
  283TMC3    H1 4276   2.858   3.714  15.467  0.2243  0.5893 -2.2162
  283TMC3    H2 4277   2.713   3.983  15.771  1.9542  0.2406 -0.3788
  283TMC3    C7 4278   2.699   3.737  15.686  0.5564  0.1068 -0.1134
  283TMC3    C8 4279   2.891   4.162  15.715 -0.3323  0.8625  1.0954
  283TMC3    O1 4280   2.651   3.776  15.793 -0.8702 -0.1760  0.3219
  283TMC3    O2 4281   2.863   4.153  15.832 -0.2573 -0.2271 -0.3255
  284MPD2     C 4282   1.466   1.881  11.872  0.2071 -0.2062  0.1822
  284MPD2    C1 4283   1.521   1.997  11.922 -0.3007 -0.8169 -0.2495
  284MPD2    C2 4284   1.537   2.008  12.053 -0.2829  0.1032  0.1714
  284MPD2    C3 4285   1.505   1.904  12.143 -0.2374  0.8603  0.7016
  284MPD2    C4 4286   1.447   1.787  12.094  0.3719  0.4262 -0.3048
  284MPD2    C5 4287   1.429   1.778  11.958 -0.7749 -0.3984  0.4810
  284MPD2     H 4288   1.597   2.094  12.081 -1.2256  0.0261  2.4240
  284MPD2    H1 4289   1.429   1.706  12.163 -0.1270  0.0908 -0.8252
  284MPD2    H2 4290   1.437   1.872  11.768 -2.8761 -1.8189  1.1851
  284MPD2    H3 4291   1.392   1.686  11.912  1.6964 -0.9288 -0.4173
  284MPD2     N 4292   1.555   1.902  12.275  0.2523  0.5111  0.6648
  284MPD2    H5 4293   1.543   1.815  12.326  0.1607 -0.4290 -0.9560
  284MPD2    N1 4294   1.558   2.105  11.849 -0.0304 -0.1167 -0.0699
  284MPD2    H7 4295   1.590   2.183  11.906  2.3207  1.3281 -3.4208
  285TMC3    C1 4296   1.645   2.225  11.682  0.9174 -0.1158 -0.3096
  285TMC3    C2 4297   1.771   2.204  11.644  0.1684  0.3388 -0.0359
  285TMC3    C3 4298   1.857   2.308  11.665 -0.3532 -0.3273  0.6103
  285TMC3    C4 4299   1.602   2.336  11.756 -0.0275 -0.4300  0.0955
  285TMC3    C5 4300   1.700   2.420  11.790  0.4468 -0.5619  0.5333
  285TMC3    C6 4301   1.822   2.417  11.738  0.9181 -0.5238  0.0864
  285TMC3     C 4302   1.576   2.103  11.713 -0.1577 -0.2293  0.0022
  285TMC3     O 4303   1.550   2.027  11.623 -0.0093 -0.1073  0.2885
  285TMC3     H 4304   1.800   2.129  11.571  1.1683  0.9164 -0.2388
  285TMC3    H1 4305   1.500   2.335  11.793  0.2514  1.3735  0.8816
  285TMC3    H2 4306   1.896   2.493  11.759 -0.2199  0.5704  0.1390
  285TMC3    C7 4307   1.649   2.549  11.840  0.1310  0.5678  0.9487
  285TMC3    C8 4308   1.965   2.320  11.573 -0.9513 -0.5116 -0.8172
  285TMC3    O1 4309   1.529   2.567  11.829  0.6588 -0.3132  0.0098
  285TMC3    O2 4310   1.941   2.289  11.458 -0.4466  0.3853  0.1350
  286MPD2     C 4311   2.297   1.703   2.111 -0.0753  0.7568 -0.4765
  286MPD2    C1 4312   2.207   1.631   2.036 -0.0130 -0.0908 -1.0893
  286MPD2    C2 4313   2.243   1.521   1.960  0.2908 -0.5655 -0.5059
  286MPD2    C3 4314   2.377   1.488   1.966 -0.1354 -0.1049  0.1104
  286MPD2    C4 4315   2.465   1.550   2.052  0.5353  0.4041  0.1434
  286MPD2    C5 4316   2.429   1.662   2.128  0.4437  0.4406 -0.2591
  286MPD2     H 4317   2.164   1.460   1.917 -0.2125 -0.0423 -0.3263
  286MPD2    H1 4318   2.570   1.524   2.066  0.6761  0.1335 -1.4020
  286MPD2    H2 4319   2.271   1.795   2.163  1.5998  0.5454  0.7469
  286MPD2    H3 4320   2.499   1.708   2.197 -0.5052  0.8604  0.4380
  286MPD2     N 4321   2.421   1.381   1.890  0.0125  0.3032 -0.4376
  286MPD2    H5 4322   2.508   1.341   1.924 -1.3786 -1.6665  0.8572
  286MPD2    N1 4323   2.077   1.678   2.018  0.4532 -0.4417  0.0449
  286MPD2    H7 4324   2.010   1.621   1.967  0.6110 -0.2802 -0.3368
  287TMC3    C1 4325   2.442   1.216   1.725  0.6234 -0.2652  0.2112
  287TMC3    C2 4326   2.394   1.162   1.607 -0.0215 -0.4085 -1.0036
  287TMC3    C3 4327   2.480   1.084   1.532 -0.2050 -0.2728 -0.1203
  287TMC3    C4 4328   2.578   1.202   1.752 -0.0588  0.0043  0.2767
  287TMC3    C5 4329   2.654   1.117   1.679  0.0676 -0.2137  0.2071
  287TMC3    C6 4330   2.611   1.057   1.563 -0.3632  0.5225 -0.0584
  287TMC3     C 4331   2.358   1.315   1.790  0.2771 -1.1155  0.5927
  287TMC3     O 4332   2.267   1.363   1.718 -0.1252  0.8186 -0.2803
  287TMC3     H 4333   2.287   1.159   1.589 -0.0626  0.8186 -0.9032
  287TMC3    H1 4334   2.617   1.235   1.848 -0.7568  0.9904  0.2294
  287TMC3    H2 4335   2.663   0.986   1.500  1.2792 -1.6923  3.7853
  287TMC3    C7 4336   2.791   1.095   1.716 -0.5160 -0.0404 -0.6303
  287TMC3    C8 4337   2.428   1.035   1.400  0.5754  0.0836 -0.4393
  287TMC3    O1 4338   2.814   1.096   1.836 -0.2408  0.3951 -0.1160
  287TMC3    O2 4339   2.486   0.936   1.348 -0.1233 -0.1807  0.3353
  288TMC3    C1 4340   3.658   1.531  14.813  0.2465 -0.1249 -0.0100
  288TMC3    C2 4341   3.622   1.521  14.947  0.4347  0.2775  0.3510
  288TMC3    C3 4342   3.489   1.530  14.975  0.2756  0.3536 -0.8661
  288TMC3    C4 4343   3.567   1.569  14.722 -0.1755 -0.5090  0.9523
  288TMC3    C5 4344   3.432   1.561  14.754 -0.5414  0.5941 -0.0184
  288TMC3    C6 4345   3.390   1.544  14.887  0.0242 -0.2003 -0.0350
  288TMC3     C 4346   3.798   1.510  14.780  0.1463 -0.1138  0.7065
  288TMC3     O 4347   3.864   1.467  14.871 -0.3459 -0.2803 -0.0522
  288TMC3     H 4348   3.693   1.498  15.025 -1.2306  0.1778  1.8276
  288TMC3    H1 4349   3.598   1.596  14.622  1.7285  2.3505  2.3205
  288TMC3    H2 4350   3.293   1.574  14.926  0.7283 -1.4332  2.6535
  288TMC3    C7 4351   3.343   1.629  14.672  0.9221 -0.3006 -0.3637
  288TMC3    C8 4352   3.458   1.523  15.115 -0.4018  0.5492  0.3281
  288TMC3    O1 4353   3.387   1.740  14.637 -0.0535 -0.3453 -0.5102
  288TMC3    O2 4354   3.543   1.564  15.200 -0.2271 -0.2558  0.7941
  289MPD2     C 4355   3.518   0.640  14.295  0.0710  0.4384 -0.4337
  289MPD2    C1 4356   3.462   0.761  14.341 -0.4557 -0.4432  0.9749
  289MPD2    C2 4357   3.323   0.771  14.343  0.4550  0.3764 -0.0178
  289MPD2    C3 4358   3.239   0.662  14.320  0.0778  0.3405 -0.2326
  289MPD2    C4 4359   3.293   0.544  14.278 -0.4845 -0.1877 -0.5461
  289MPD2    C5 4360   3.433   0.540  14.269  0.2343  0.1543 -0.4880
  289MPD2     H 4361   3.289   0.872  14.362  0.3682  0.1118  1.2611
  289MPD2    H1 4362   3.227   0.462  14.249 -3.3970  2.2243 -0.7824
  289MPD2    H2 4363   3.626   0.629  14.294 -0.0502 -0.7160 -0.1195
  289MPD2    H3 4364   3.473   0.441  14.250  1.5445  0.3827  1.0965
  289MPD2     N 4365   3.098   0.683  14.328 -0.1597  0.7052  0.3000
  289MPD2    H5 4366   3.038   0.609  14.295 -0.6444  1.1678  0.1503
  289MPD2    N1 4367   3.556   0.861  14.379 -0.2836 -0.0286  0.0868
  289MPD2    H7 4368   3.652   0.838  14.356 -0.0795  0.0557  0.8434
  290TMC3    C1 4369   2.890   0.792  14.368 -0.1843 -0.1804  0.0239
  290TMC3    C2 4370   2.833   0.915  14.379  0.1493  0.1310  0.2965
  290TMC3    C3 4371   2.703   0.915  14.417  0.0478  0.1407 -0.7954
  290TMC3    C4 4372   2.831   0.681  14.430 -0.2503  0.7255  0.4743
  290TMC3    C5 4373   2.707   0.693  14.475 -0.7688  0.3149 -0.4075
  290TMC3    C6 4374   2.639   0.810  14.475 -0.5055  0.1315 -0.5759
  290TMC3     C 4375   3.033   0.795  14.373 -0.2231 -0.1931  0.1918
  290TMC3     O 4376   3.079   0.896  14.418 -0.3194  0.3480 -0.2377
  290TMC3     H 4377   2.885   1.006  14.351  2.4206 -0.7931  1.4625
  290TMC3    H1 4378   2.887   0.589  14.427 -0.1672  0.7887  0.1457
  290TMC3    H2 4379   2.535   0.808  14.504 -0.0702  1.3394  1.0383
  290TMC3    C7 4380   2.640   0.586  14.550 -0.4535 -0.6117 -0.2046
  290TMC3    C8 4381   2.660   1.043  14.461 -0.3369  0.2242 -0.4788
  290TMC3    O1 4382   2.553   0.621  14.628 -0.2040 -0.2511  0.2022
  290TMC3    O2 4383   2.737   1.112  14.525 -0.0944  0.2577  0.1574
  291MPD2     C 4384   3.309   0.187   1.076  0.5811 -0.5659  0.5081
  291MPD2    C1 4385   3.173   0.156   1.034  0.0229  0.0143 -0.4557
  291MPD2    C2 4386   3.138   0.194   0.909  0.0559 -0.3706 -0.6174
  291MPD2    C3 4387   3.228   0.256   0.820  0.4408 -0.4283 -0.6779
  291MPD2    C4 4388   3.347   0.310   0.873  0.0862 -0.1372 -0.0501
  291MPD2    C5 4389   3.388   0.268   0.999 -0.9885  0.5208 -0.0722
  291MPD2     H 4390   3.036   0.169   0.884 -0.1427  1.2509 -1.4020
  291MPD2    H1 4391   3.420   0.366   0.816  1.9101 -0.4741  1.9546
  291MPD2    H2 4392   3.356   0.156   1.169 -1.3651 -2.4128  0.8818
  291MPD2    H3 4393   3.492   0.283   1.022 -1.1890  0.4492  0.8917
  291MPD2     N 4394   3.200   0.266   0.680  0.0729  0.0780 -0.1629
  291MPD2    H5 4395   3.269   0.311   0.622  0.5608  0.4094  0.6704
  291MPD2    N1 4396   3.084   0.071   1.112 -0.0857 -0.4098 -0.2914
  291MPD2    H7 4397   2.994   0.054   1.068 -0.0140 -1.1874 -0.1346
  292TMC3    C1 4398   2.998   4.650   1.278  0.5484  0.8067  0.8094
  292TMC3    C2 4399   2.960   4.659   1.407  0.0317 -0.2938  0.3911
  292TMC3    C3 4400   2.836   4.598   1.439  0.1842  0.5350  0.3536
  292TMC3    C4 4401   2.931   4.567   1.189 -0.2419  0.6293  0.1394
  292TMC3    C5 4402   2.821   4.496   1.226 -0.3173 -0.4991 -0.3581
  292TMC3    C6 4403   2.768   4.515   1.351  0.6618  0.2286 -0.6220
  292TMC3     C 4404   3.104   0.018   1.235  0.7589 -0.1151 -0.1856
  292TMC3     O 4405   3.202   0.034   1.305 -1.1912 -0.5573  0.4395
  292TMC3     H 4406   3.006   0.016   1.470  0.2914 -0.4364  0.3676
  292TMC3    H1 4407   2.966   4.558   1.087 -0.0485  1.6808  0.1201
  292TMC3    H2 4408   2.684   4.451   1.374 -0.1215  1.9288  1.3110
  292TMC3    C7 4409   2.753   4.425   1.119  0.6306 -0.2616  0.6362
  292TMC3    C8 4410   2.806   4.592   1.582  0.4525  0.0594 -1.0394
  292TMC3    O1 4411   2.828   4.367   1.047  0.3444 -0.1038  0.3658
  292TMC3    O2 4412   2.887   4.636   1.666 -0.3186  0.5457 -0.4150
  293MPD2     C 4413   4.493   2.035  12.538 -0.0355  0.1295  0.4563
  293MPD2    C1 4414   4.425   1.937  12.613 -0.0308 -0.0839  0.5413
  293MPD2    C2 4415   4.427   1.953  12.755 -0.9441  0.0190 -1.1315
  293MPD2    C3 4416   4.506   2.055  12.810  0.5125 -0.0345  0.1297
  293MPD2    C4 4417   4.574   2.144  12.736 -0.0398  0.0807 -0.3669
  293MPD2    C5 4418   4.558   2.135  12.601  0.5401 -0.1655  0.4081
  293MPD2     H 4419   4.374   1.882  12.817 -0.3915 -0.1830 -0.9009
  293MPD2    H1 4420   4.643   2.217  12.778 -0.1125 -0.4826  0.7355
  293MPD2    H2 4421   4.497   2.035  12.430  1.0035  2.8289  0.5042
  293MPD2    H3 4422   4.633   2.190  12.546 -0.4133  2.1508  1.4002
  293MPD2     N 4423   4.523   2.056  12.952  0.0597  0.3541 -0.1321
  293MPD2    H5 4424   4.479   1.981  13.004  0.6710  0.7921  1.0417
  293MPD2    N1 4425   4.366   1.839  12.545  0.0973  0.3694  0.7827
  293MPD2    H7 4426   4.369   1.840  12.443  1.4618  0.7254  0.8305
  294TMC3    C1 4427   4.214   1.691  12.469 -0.0219 -0.0179  0.0185
  294TMC3    C2 4428   4.091   1.633  12.491  0.0858 -0.0689  0.4510
  294TMC3    C3 4429   4.018   1.570  12.391 -0.6286  0.3513  0.1508
  294TMC3    C4 4430   4.265   1.701  12.338 -0.0142 -0.0700 -0.1402
  294TMC3    C5 4431   4.179   1.649  12.237  0.1490 -0.7646 -0.2505
  294TMC3    C6 4432   4.058   1.581  12.257 -0.5898  0.5431  0.2367
  294TMC3     C 4433   4.278   1.753  12.584 -0.2537 -0.3201 -0.5651
  294TMC3     O 4434   4.251   1.713  12.697 -0.2096  0.3210  0.3986
  294TMC3     H 4435   4.062   1.615  12.594 -0.5199 -1.1660  0.0862
  294TMC3    H1 4436   4.342   1.767  12.298 -0.6462  1.7861  1.6958
  294TMC3    H2 4437   4.011   1.539  12.169  3.0363 -3.3628  0.1843
  294TMC3    C7 4438   4.220   1.693  12.102 -0.4811 -0.0989  0.2805
  294TMC3    C8 4439   3.889   1.523  12.432  0.3839  0.0703  0.5305
  294TMC3    O1 4440   4.342   1.712  12.087 -0.0164 -0.0391 -0.0905
  294TMC3    O2 4441   3.854   1.530  12.552  0.7057  0.2544 -0.4735
  295MPD2     C 4442   0.677   4.426   0.907 -0.1172  0.1115 -0.4614
  295MPD2    C1 4443   0.610   4.538   0.943  0.1767  0.5833  0.2375
  295MPD2    C2 4444   0.605   4.570   1.073 -0.1384 -0.3425  0.3846
  295MPD2    C3 4445   0.663   4.487   1.168 -0.0844  0.6227  0.2626
  295MPD2    C4 4446   0.736   4.378   1.134  0.0334  0.5572 -0.3791
  295MPD2    C5 4447   0.738   4.348   1.005 -0.8083 -0.1878 -0.0779
  295MPD2     H 4448   0.551   4.656   1.111 -0.4983 -0.5812  0.4112
  295MPD2    H1 4449   0.789   4.320   1.208  0.4147 -0.3160 -1.3203
  295MPD2    H2 4450   0.675   4.387   0.806 -0.4913 -1.3248  0.0858
  295MPD2    H3 4451   0.804   4.267   0.978 -1.5858 -0.3333 -1.5491
  295MPD2     N 4452   0.645   4.502   1.304 -0.2491  0.0242 -0.9730
  295MPD2    H5 4453   0.679   4.425   1.360 -2.3548  0.6464  1.1531
  295MPD2    N1 4454   0.538   4.606   0.837 -0.3548 -0.2852 -0.4371
  295MPD2    H7 4455   0.526   4.568   0.744 -0.1204  0.0693 -0.6126
  296TMC3    C1 4456   0.545   4.572   1.514 -0.1820 -0.3817 -0.0451
  296TMC3    C2 4457   0.430   4.636   1.558  0.4071  0.1382  0.1760
  296TMC3    C3 4458   0.368   4.592   1.670 -0.0525  0.0725 -0.3943
  296TMC3    C4 4459   0.584   4.457   1.575  0.1562  0.4576  0.6772
  296TMC3    C5 4460   0.519   4.409   1.683  0.0674  0.4461  0.2520
  296TMC3    C6 4461   0.412   4.477   1.734  0.5975  0.1466  0.0938
  296TMC3     C 4462   0.586   4.604   1.373  0.0895 -0.4243  0.4558
  296TMC3     O 4463   0.551   4.715   1.333 -0.1931 -0.0458 -0.1363
  296TMC3     H 4464   0.396   0.008   1.507  2.3759  1.2521  0.8200
  296TMC3    H1 4465   0.672   4.403   1.542 -0.8776 -0.1486 -1.1027
  296TMC3    H2 4466   0.350   4.421   1.803 -0.6327  1.1807 -0.1802
  296TMC3    C7 4467   0.562   4.271   1.722  0.2513  0.2334  0.1572
  296TMC3    C8 4468   0.256   4.663   1.735 -0.5404  0.2081  0.4423
  296TMC3    O1 4469   0.677   4.241   1.690 -0.3188 -0.0437 -0.0069
  296TMC3    O2 4470   0.195   4.585   1.811 -0.1275  0.0442  0.1372
  297MPD2     C 4471   2.093   2.318  16.472 -0.1222 -1.1360  0.3355
  297MPD2    C1 4472   2.105   2.425  16.385 -0.1476  0.4595 -0.0153
  297MPD2    C2 4473   2.234   2.470  16.358 -0.0974  0.6890 -0.5953
  297MPD2    C3 4474   2.343   2.416  16.423  0.0013  1.0027 -0.0003
  297MPD2    C4 4475   2.328   2.313  16.518  0.2097  0.4032  0.1778
  297MPD2    C5 4476   2.203   2.268  16.537 -0.8208  0.2258  0.0863
  297MPD2     H 4477   2.256   2.547  16.285  0.3684 -0.6799 -1.9043
  297MPD2    H1 4478   2.410   2.258  16.562 -0.0745  0.5756  0.9316
  297MPD2    H2 4479   2.000   2.268  16.495 -1.0247 -0.0691 -0.9823
  297MPD2    H3 4480   2.168   2.193  16.607  0.4511  1.1672  1.7552
  297MPD2     N 4481   2.468   2.478  16.401  0.3244 -0.6670 -0.0190
  297MPD2    H5 4482   2.470   2.545  16.324 -0.8062  0.6168  1.0875
  297MPD2    N1 4483   1.993   2.473  16.319 -0.3644 -1.0178  0.0401
  297MPD2    H7 4484   2.008   2.523  16.232  1.5883 -0.5005  0.6666
  298TMC3    C1 4485   1.765   2.525  16.263 -0.6979  0.6940 -0.1872
  298TMC3    C2 4486   1.793   2.547  16.132 -0.4141  0.5482 -0.3188
  298TMC3    C3 4487   1.701   2.617  16.061 -0.4810  0.4020 -0.2945
  298TMC3    C4 4488   1.645   2.558  16.325  0.7750  0.0269 -0.0652
  298TMC3    C5 4489   1.563   2.633  16.247 -0.3210 -0.7331  0.3285
  298TMC3    C6 4490   1.590   2.666  16.116  0.3728  0.4153 -0.4780
  298TMC3     C 4491   1.858   2.455  16.351  0.1308  0.0927 -0.4774
  298TMC3     O 4492   1.808   2.403  16.455  0.1296 -0.6658 -0.0168
  298TMC3     H 4493   1.881   2.508  16.083 -1.7513 -3.1912  0.2840
  298TMC3    H1 4494   1.625   2.540  16.430  1.2225  0.2659  0.0627
  298TMC3    H2 4495   1.529   2.741  16.067 -2.5336 -1.7870 -0.2452
  298TMC3    C7 4496   1.493   2.735  16.318 -1.0413 -0.0241 -0.2249
  298TMC3    C8 4497   1.734   2.665  15.927  0.0891  0.1466  0.0053
  298TMC3    O1 4498   1.543   2.779  16.418 -0.8181  0.4308  0.2897
  298TMC3    O2 4499   1.640   2.695  15.858  0.1805  0.3102 -0.1934
  299MPD2     C 4500   3.740   2.015  10.943 -0.4487  0.4623  0.5036
  299MPD2    C1 4501   3.654   2.124  10.919 -0.1229  0.2603 -0.6739
  299MPD2    C2 4502   3.542   2.102  10.832 -0.0791  0.5322 -0.4204
  299MPD2    C3 4503   3.512   1.978  10.779  0.3807 -0.2007 -0.5221
  299MPD2    C4 4504   3.588   1.866  10.810  0.8086 -0.9739  0.2073
  299MPD2    C5 4505   3.703   1.890  10.891  0.0009  0.0672 -0.6460
  299MPD2     H 4506   3.483   2.191  10.816 -0.8800  0.1028  0.1265
  299MPD2    H1 4507   3.574   1.761  10.785 -0.6815 -0.9359  0.8934
  299MPD2    H2 4508   3.834   2.024  10.996 -1.4069  0.4924  2.1897
  299MPD2    H3 4509   3.768   1.803  10.895  0.3430  0.2226 -2.6876
  299MPD2     N 4510   3.400   1.959  10.693  0.4021  0.3940 -0.4180
  299MPD2    H5 4511   3.380   1.863  10.667 -0.5401 -0.5799  3.9090
  299MPD2    N1 4512   3.685   2.244  10.984  0.1814  0.1785  0.6695
  299MPD2    H7 4513   3.759   2.234  11.052  1.7089  0.5486 -0.9352
  300TMC3    C1 4514   3.207   1.998  10.566 -0.2097  0.5466  0.0566
  300TMC3    C2 4515   3.157   2.075  10.470  0.4571 -0.0879  0.0108
  300TMC3    C3 4516   3.071   2.027  10.377 -0.2356 -0.0009  0.6994
  300TMC3    C4 4517   3.170   1.868  10.581  0.1015  0.1884  0.3118
  300TMC3    C5 4518   3.079   1.820  10.490  0.2908  0.4849 -0.4590
  300TMC3    C6 4519   3.036   1.896  10.386 -0.2445  0.8758 -0.1180
  300TMC3     C 4520   3.319   2.060  10.642  0.0381 -0.9099 -0.0824
  300TMC3     O 4521   3.327   2.181  10.662  0.4397 -0.1272 -0.5166
  300TMC3     H 4522   3.192   2.177  10.458  0.3546 -0.1973 -1.1968
  300TMC3    H1 4523   3.191   1.824  10.678 -0.7857  0.8567  0.8166
  300TMC3    H2 4524   2.971   1.849  10.313  2.3099 -0.6583 -1.4005
  300TMC3    C7 4525   2.973   1.748  10.541 -0.1805 -0.5585  0.1812
  300TMC3    C8 4526   2.962   2.112  10.361 -0.0249 -0.6197  0.1730
  300TMC3    O1 4527   2.940   1.647  10.479  0.1142  0.1204 -0.6533
  300TMC3    O2 4528   2.982   2.227  10.313 -0.3234 -0.0780 -0.3943
  301MPD2     C 4529   0.717   2.974   1.433  0.5107  0.4546  0.1522
  301MPD2    C1 4530   0.652   2.946   1.309  0.1300  0.5058 -0.6219
  301MPD2    C2 4531   0.617   2.814   1.292  0.1196 -0.4814 -0.7472
  301MPD2    C3 4532   0.629   2.717   1.390  0.6480 -0.1278  0.1308
  301MPD2    C4 4533   0.687   2.752   1.509 -0.0193  0.0839 -0.3349
  301MPD2    C5 4534   0.738   2.878   1.521  0.0961  0.0872  0.4752
  301MPD2     H 4535   0.571   2.787   1.198  0.3572  1.2964 -1.3770
  301MPD2    H1 4536   0.697   2.690   1.598 -1.6745 -0.3339 -0.4367
  301MPD2    H2 4537   0.753   3.074   1.456 -0.6545  0.9441 -0.1380
  301MPD2    H3 4538   0.793   2.899   1.612 -0.2581  1.9128  0.2589
  301MPD2     N 4539   0.581   2.584   1.377 -0.1646  0.1595  0.6845
  301MPD2    H5 4540   0.608   2.522   1.452  1.2246 -0.6184 -0.4784
  301MPD2    N1 4541   0.633   3.035   1.203  0.8311 -0.1764  1.0404
  301MPD2    H7 4542   0.586   2.996   1.121  2.0368 -1.4361  0.9507
  302TMC3    C1 4543   0.456   2.408   1.295 -0.3830  0.4729  0.8827
  302TMC3    C2 4544   0.549   2.319   1.337 -0.1101  0.2752 -0.1565
  302TMC3    C3 4545   0.530   2.186   1.309 -0.2200 -0.0518  0.3636
  302TMC3    C4 4546   0.351   2.372   1.224  0.0871 -0.2383  0.0110
  302TMC3    C5 4547   0.331   2.244   1.191  0.1097  0.1680 -0.5398
  302TMC3    C6 4548   0.424   2.141   1.231  0.0892  0.6712 -0.1221
  302TMC3     C 4549   0.486   2.549   1.293 -0.1860  0.0001  0.0400
  302TMC3     O 4550   0.410   2.616   1.224 -0.4010 -0.4154 -0.1970
  302TMC3     H 4551   0.645   2.350   1.376  0.2135  2.5441 -2.7154
  302TMC3    H1 4552   0.281   2.450   1.195  2.2538  0.9407 -2.0564
  302TMC3    H2 4553   0.403   2.036   1.217 -1.1471  0.4225  3.4224
  302TMC3    C7 4554   0.218   2.193   1.114  0.1529 -0.4319 -0.7125
  302TMC3    C8 4555   0.637   2.106   1.365 -0.0843  0.7973 -0.1360
  302TMC3    O1 4556   0.205   2.069   1.108 -0.1765  0.5478  0.3220
  302TMC3    O2 4557   0.738   2.162   1.405  0.6540  0.4506  0.0469
  303MPD2     C 4558   0.398   2.508  10.068 -0.5023  0.3067 -0.0412
  303MPD2    C1 4559   0.329   2.391  10.040 -0.2176 -1.1775  0.1945
  303MPD2    C2 4560   0.251   2.389   9.927 -0.4741 -0.1993 -1.0925
  303MPD2    C3 4561   0.258   2.497   9.833  0.8080  0.3635  0.8254
  303MPD2    C4 4562   0.321   2.615   9.866  0.5921  0.1970  0.7577
  303MPD2    C5 4563   0.381   2.621   9.992 -0.0478 -0.2217  0.5191
  303MPD2     H 4564   0.182   2.306   9.915 -0.4674 -0.4148  0.4441
  303MPD2    H1 4565   0.333   2.703   9.804 -0.1798 -0.2583 -0.0463
  303MPD2    H2 4566   0.457   2.504  10.158 -2.7585  2.3650  1.5300
  303MPD2    H3 4567   0.445   2.706  10.013 -0.2223  0.2073 -0.6398
  303MPD2     N 4568   0.176   2.496   9.711  0.3150  0.2184 -0.1682
  303MPD2    H5 4569   0.173   2.588   9.668 -0.4494  0.0656 -0.4417
  303MPD2    N1 4570   0.341   2.278  10.127 -0.7211 -0.7491  0.2064
  303MPD2    H7 4571   0.416   2.277  10.196 -0.6261  0.3034  0.1168
  304TMC3    C1 4572   0.349   2.038  10.161 -0.4611  0.3515 -0.5484
  304TMC3    C2 4573   0.284   1.943  10.238  0.2494 -0.3147  0.6597
  304TMC3    C3 4574   0.358   1.837  10.285  0.6968 -0.0951  0.4125
  304TMC3    C4 4575   0.476   2.015  10.109 -0.0207 -0.0503 -0.0723
  304TMC3    C5 4576   0.534   1.891  10.131  0.0460  0.3957 -0.4629
  304TMC3    C6 4577   0.485   1.817  10.236 -0.0429  0.0809  0.0804
  304TMC3     C 4578   0.274   2.152  10.109 -0.1125 -0.1679 -0.6253
  304TMC3     O 4579   0.162   2.137  10.064 -0.1187 -0.2453 -0.1218
  304TMC3     H 4580   0.184   1.969  10.272  0.3428  1.6234 -0.5175
  304TMC3    H1 4581   0.520   2.088  10.042 -1.5964  0.8498 -0.1330
  304TMC3    H2 4582   0.520   1.714  10.240 -2.5884 -0.8013 -0.0887
  304TMC3    C7 4583   0.545   1.802  10.015 -0.2221 -0.2235  0.6522
  304TMC3    C8 4584   0.268   1.720  10.309 -0.1543 -0.2551  0.1927
  304TMC3    O1 4585   0.502   1.684  10.022 -0.2489  0.0274  0.5119
  304TMC3    O2 4586   0.175   1.742  10.388  0.2444 -0.0022 -0.6823
  305MPD2     C 4587   3.336   4.079  14.059  0.2806  0.1612 -0.2236
  305MPD2    C1 4588   3.275   3.959  14.060  0.3876 -0.0911  0.6878
  305MPD2    C2 4589   3.276   3.885  13.943 -0.5190  0.4286  0.6900
  305MPD2    C3 4590   3.333   3.941  13.826  1.1943  0.7155  0.2535
  305MPD2    C4 4591   3.396   4.060  13.836 -0.2057  0.2497 -0.3394
  305MPD2    C5 4592   3.404   4.130  13.955 -0.4999 -0.5149  0.0647
  305MPD2     H 4593   3.222   3.791  13.940  1.6714 -0.7945  0.2980
  305MPD2    H1 4594   3.448   4.100  13.750  0.8907 -1.2950 -0.3952
  305MPD2    H2 4595   3.344   4.128  14.155 -1.8745  0.4104 -0.1659
  305MPD2    H3 4596   3.461   4.221  13.964 -2.3478  0.7245 -0.8101
  305MPD2     N 4597   3.337   3.877  13.702  0.8545 -0.7179  0.3324
  305MPD2    H5 4598   3.386   3.927  13.629 -1.2549 -1.1966 -1.4254
  305MPD2    N1 4599   3.226   3.907  14.191 -0.8503 -0.1642  0.3145
  305MPD2    H7 4600   3.222   3.980  14.262 -1.9139 -0.0936  0.1791
  306TMC3    C1 4601   3.155   3.748  14.346  0.0973 -0.9992  0.5835
  306TMC3    C2 4602   3.249   3.670  14.407  0.1602  0.1314 -0.1551
  306TMC3    C3 4603   3.280   3.688  14.540 -0.3995  0.0780 -0.2476
  306TMC3    C4 4604   3.087   3.844  14.419  0.3656  0.3129 -0.0271
  306TMC3    C5 4605   3.116   3.854  14.551 -0.5743 -0.1620 -0.0311
  306TMC3    C6 4606   3.211   3.772  14.618 -1.0434  0.7129  0.1165
  306TMC3     C 4607   3.170   3.784  14.205  0.2807  1.2203 -0.3812
  306TMC3     O 4608   3.160   3.688  14.130 -0.0228  0.2054 -0.0923
  306TMC3     H 4609   3.325   3.613  14.354  0.4748 -0.4830  0.9611
  306TMC3    H1 4610   3.012   3.898  14.363  0.6698 -1.9837 -2.6637
  306TMC3    H2 4611   3.206   3.770  14.726 -1.4995 -1.0473  0.0528
  306TMC3    C7 4612   3.032   3.946  14.627  0.1144 -0.2762  0.1547
  306TMC3    C8 4613   3.389   3.605  14.589  0.2646  0.1512 -0.4454
  306TMC3    O1 4614   2.911   3.962  14.597  0.1667 -0.3299 -0.0720
  306TMC3    O2 4615   3.416   3.499  14.532  0.2726  0.1514  0.4407
  307MPD2     C 4616   1.191   1.206   0.477 -0.4049  0.4308 -0.5316
  307MPD2    C1 4617   1.166   1.337   0.514 -0.4614  1.1800  0.3715
  307MPD2    C2 4618   1.080   1.361   0.617 -0.4345 -0.3459 -0.3572
  307MPD2    C3 4619   1.025   1.258   0.690 -0.8341 -0.4110 -0.3205
  307MPD2    C4 4620   1.065   1.124   0.665 -0.3575 -0.7218  0.0201
  307MPD2    C5 4621   1.143   1.102   0.556 -0.2253  1.0779 -0.4400
  307MPD2     H 4622   1.047   1.462   0.638  1.2472  0.6550 -2.5333
  307MPD2    H1 4623   1.029   1.040   0.723 -0.3140 -0.7613 -0.0102
  307MPD2    H2 4624   1.241   1.183   0.384  1.0319  0.4374  0.2312
  307MPD2    H3 4625   1.166   0.999   0.533  0.3128  0.6819  1.8614
  307MPD2     N 4626   0.936   1.287   0.796 -0.4198  0.9463  0.6848
  307MPD2    H5 4627   0.916   1.385   0.814 -1.0593  0.9948 -0.2483
  307MPD2    N1 4628   1.207   1.453   0.443 -0.4834  0.7663  0.4016
  307MPD2    H7 4629   1.169   1.540   0.479  0.4980  1.4574 -0.2422
  308TMC3    C1 4630   0.543   1.354   0.987 -0.1994  0.1156 -0.4711
  308TMC3    C2 4631   0.590   1.462   1.058  0.9527 -0.4163 -0.7515
  308TMC3    C3 4632   0.727   1.471   1.068  0.5917 -0.5867  0.9383
  308TMC3    C4 4633   0.626   1.253   0.946 -0.7351 -0.0978  0.1968
  308TMC3    C5 4634   0.767   1.266   0.963 -0.2134 -0.5556  0.0422
  308TMC3    C6 4635   0.815   1.378   1.028  0.0665  0.2459  0.9556
  308TMC3     C 4636   0.405   1.310   1.000 -0.1866  0.0080  0.4264
  308TMC3     O 4637   0.394   1.192   1.006  0.3337 -0.2307 -0.4192
  308TMC3     H 4638   0.523   1.534   1.103  2.6040  0.6679 -0.0484
  308TMC3    H1 4639   0.590   1.170   0.886  1.2066 -1.9102  1.5233
  308TMC3    H2 4640   0.923   1.386   1.022  0.0377 -0.5578 -0.7459
  308TMC3    C7 4641   0.846   1.198   0.862 -0.7586  0.0530 -0.2970
  308TMC3    C8 4642   0.779   1.599   1.077 -0.0560 -0.9353  0.2655
  308TMC3    O1 4643   0.844   1.075   0.863 -0.1761  0.0263 -0.0689
  308TMC3    O2 4644   0.899   1.608   1.079  0.8189  0.4864  0.1136
  309MPD2     C 4645   0.324   2.047  17.448 -0.6175 -0.4606 -0.1585
  309MPD2    C1 4646   0.248   2.093  17.336 -0.3714  0.5513  0.9672
  309MPD2    C2 4647   0.123   2.148  17.369  0.1619  0.1601  0.4106
  309MPD2    C3 4648   0.070   2.136  17.495  0.6293 -1.0398 -0.0777
  309MPD2    C4 4649   0.142   2.082  17.595  0.3494 -0.4740  0.0856
  309MPD2    C5 4650   0.267   2.041  17.574 -0.1088  0.2707 -0.0159
  309MPD2     H 4651   0.072   2.201  17.290 -1.4049 -0.9498  0.6791
  309MPD2    H1 4652   0.095   2.086   0.019 -0.2204  0.8610 -0.2465
  309MPD2    H2 4653   0.424   2.010  17.427 -0.5706 -1.4788  1.8847
  309MPD2    H3 4654   0.312   2.008  17.667 -0.9908  1.9260  0.9761
  309MPD2     N 4655   4.672   2.212  17.534  0.0592  1.0060 -0.1356
  309MPD2    H5 4656   4.646   2.203  17.632  0.1751  1.3233 -0.0751
  309MPD2    N1 4657   0.301   2.095  17.201  0.1582  0.0992 -0.0471
  309MPD2    H7 4658   0.241   2.147  17.138  0.6043  0.7630  0.0788
  310TMC3    C1 4659   0.444   2.086  17.016  0.5701 -0.3467  0.2982
  310TMC3    C2 4660   0.331   2.099  16.937 -0.6621 -0.2612  0.0648
  310TMC3    C3 4661   0.353   2.143  16.806 -1.0957  0.3652  0.3154
  310TMC3    C4 4662   0.572   2.119  16.987 -0.1988  0.6185  0.0677
  310TMC3    C5 4663   0.586   2.175  16.857 -0.6408  0.4015 -0.8553
  310TMC3    C6 4664   0.477   2.186  16.766  0.1279  0.1655  0.5696
  310TMC3     C 4665   0.423   2.054  17.160  0.1979 -0.2968  0.7817
  310TMC3     O 4666   0.505   1.993  17.229  0.4137 -0.1427  0.2506
  310TMC3     H 4667   0.239   2.059  16.975 -0.3239 -0.7002  0.4209
  310TMC3    H1 4668   0.644   2.087  17.061 -0.6024 -1.8914 -0.6163
  310TMC3    H2 4669   0.486   2.237  16.671  0.7539  1.9572  1.5996
  310TMC3    C7 4670   0.716   2.167  16.805 -0.3774  0.1249  0.1981
  310TMC3    C8 4671   0.239   2.184  16.722 -0.1520  0.0434 -0.3218
  310TMC3    O1 4672   0.734   2.169  16.684 -0.2735 -0.2379  0.4294
  310TMC3    O2 4673   0.273   2.254  16.629 -0.0047 -0.1099  0.4706
  311MPD2     C 4674   2.495   3.248  12.910 -0.1619 -0.2179 -0.7044
  311MPD2    C1 4675   2.408   3.298  12.816  0.4117  0.0864 -0.0041
  311MPD2    C2 4676   2.273   3.262  12.826 -0.1604 -0.0350 -0.2661
  311MPD2    C3 4677   2.228   3.169  12.917 -0.4703  0.4626  0.2149
  311MPD2    C4 4678   2.313   3.127  13.018  0.1726 -0.0567  0.2124
  311MPD2    C5 4679   2.448   3.166  13.009 -0.1494  0.2027 -0.3354
  311MPD2     H 4680   2.211   3.308  12.750 -0.4432  1.3130  0.7797
  311MPD2    H1 4681   2.287   3.050  13.089  1.4962 -1.5001 -0.8738
  311MPD2    H2 4682   2.600   3.271  12.911  0.1131 -1.4500 -1.2456
  311MPD2    H3 4683   2.524   3.131  13.079 -0.6953  0.2134  0.2646
  311MPD2     N 4684   2.101   3.106  12.916 -0.6075  0.0500 -0.4406
  311MPD2    H5 4685   2.094   3.033  12.986 -0.0075  0.6660  0.2654
  311MPD2    N1 4686   2.446   3.398  12.721 -0.1113 -0.4327 -0.3725
  311MPD2    H7 4687   2.369   3.437  12.667  0.6183 -0.8901 -1.7580
  312TMC3    C1 4688   1.875   3.055  12.851  0.2082 -0.3676  0.3255
  312TMC3    C2 4689   1.760   3.089  12.782 -0.7636 -0.1390 -0.0739
  312TMC3    C3 4690   1.655   3.005  12.809  0.5737  0.0140 -0.7932
  312TMC3    C4 4691   1.887   2.942  12.933 -0.5584 -0.6201 -0.4346
  312TMC3    C5 4692   1.779   2.864  12.946  0.1523  0.0530 -0.2320
  312TMC3    C6 4693   1.663   2.886  12.885  0.6547 -0.3042  1.2333
  312TMC3     C 4694   1.994   3.140  12.837  0.1100 -0.1787  0.6639
  312TMC3     O 4695   1.992   3.241  12.766 -0.6623 -0.0270  0.2319
  312TMC3     H 4696   1.743   3.175  12.719 -0.3061  0.7758  1.0280
  312TMC3    H1 4697   1.982   2.898  12.960 -0.7274  1.0639  2.9728
  312TMC3    H2 4698   1.575   2.830  12.915  1.4449 -1.8390  0.6496
  312TMC3    C7 4699   1.767   2.761  13.048  1.3049 -0.0752 -0.5756
  312TMC3    C8 4700   1.521   3.028  12.769 -0.1931  0.1226 -0.2247
  312TMC3    O1 4701   1.664   2.697  13.055  0.4479 -0.1458  0.5644
  312TMC3    O2 4702   1.443   2.931  12.761  0.1829 -0.6401  0.0901
  313MPD2     C 4703   2.180   2.736  10.988 -0.2288 -0.3887 -0.0117
  313MPD2    C1 4704   2.049   2.696  11.010 -0.3088  0.5126  0.1333
  313MPD2    C2 4705   1.963   2.674  10.905 -0.2765 -0.3279  0.3768
  313MPD2    C3 4706   2.007   2.690  10.776  0.0074  0.6227 -0.0819
  313MPD2    C4 4707   2.137   2.729  10.754 -0.5258 -0.3752 -0.0205
  313MPD2    C5 4708   2.220   2.755  10.859  0.0393  0.0778  0.3637
  313MPD2     H 4709   1.865   2.636  10.928 -0.7071 -0.4537 -1.7290
  313MPD2    H1 4710   2.173   2.733  10.652  0.7678  2.7934  0.5928
  313MPD2    H2 4711   2.250   2.759  11.068 -0.5977  1.9493 -0.3629
  313MPD2    H3 4712   2.320   2.792  10.837  0.1608  1.0426  2.5811
  313MPD2     N 4713   1.915   2.654  10.672  0.2564 -0.1015  0.1941
  313MPD2    H5 4714   1.823   2.623  10.702 -1.2489 -0.0364 -4.3734
  313MPD2    N1 4715   1.997   2.685  11.143 -0.3494  0.6019  0.0369
  313MPD2    H7 4716   1.905   2.643  11.151  0.5724 -1.5868 -0.8372
  314TMC3    C1 4717   1.971   2.696  11.382  0.2384  0.2044  0.6031
  314TMC3    C2 4718   2.025   2.720  11.506  0.0250  0.2346 -1.1895
  314TMC3    C3 4719   1.947   2.740  11.617  0.5375  0.6242  0.7211
  314TMC3    C4 4720   1.835   2.713  11.363 -0.0769  0.2420 -0.0603
  314TMC3    C5 4721   1.755   2.734  11.480  0.5722  0.3880 -0.0536
  314TMC3    C6 4722   1.809   2.747  11.609  0.2773  0.0947 -0.2080
  314TMC3     C 4723   2.051   2.725  11.264 -0.0732 -0.6663 -0.2230
  314TMC3     O 4724   2.151   2.791  11.279 -0.2678 -0.4792  0.2489
  314TMC3     H 4725   2.132   2.732  11.519  0.0619  1.6600 -2.7429
  314TMC3    H1 4726   1.786   2.691  11.269  1.0112 -1.3424 -0.2500
  314TMC3    H2 4727   1.739   2.782  11.684  1.2347  2.5571 -0.4487
  314TMC3    C7 4728   1.612   2.763  11.457  0.0315  0.8187  0.9785
  314TMC3    C8 4729   2.011   2.809  11.721 -0.1494 -0.3484 -0.4237
  314TMC3    O1 4730   1.534   2.737  11.549 -0.5848 -0.0277  0.6073
  314TMC3    O2 4731   2.096   2.742  11.775 -0.6903  0.2489  0.6453
  315MPD2     C 4732   1.059   2.556   0.343 -0.2915  0.7245 -0.0798
  315MPD2    C1 4733   1.188   2.505   0.360 -0.4413 -0.0096 -0.6318
  315MPD2    C2 4734   1.294   2.570   0.304 -0.2403 -0.0856  0.9172
  315MPD2    C3 4735   1.284   2.689   0.236 -0.1468 -0.3524  0.1066
  315MPD2    C4 4736   1.155   2.731   0.218 -0.0003  0.0992 -0.3944
  315MPD2    C5 4737   1.047   2.670   0.270  0.6632 -0.3661  0.3291
  315MPD2     H 4738   1.390   2.531   0.336 -0.2029 -0.1591  0.7136
  315MPD2    H1 4739   1.138   2.825   0.167 -0.9658 -0.5655 -1.3064
  315MPD2    H2 4740   0.979   2.515   0.403  1.4078 -1.5402  0.6457
  315MPD2    H3 4741   0.947   2.708   0.251 -0.0910 -1.2197  2.5542
  315MPD2     N 4742   1.395   2.765   0.201  0.3470 -0.4361 -0.1549
  315MPD2    H5 4743   1.483   2.728   0.235  0.3724  1.0883  1.4697
  315MPD2    N1 4744   1.217   2.380   0.417  0.0227  0.1698 -0.2772
  315MPD2    H7 4745   1.311   2.343   0.402 -0.1061  0.1763 -1.0952
  316TMC3    C1 4746   1.537   2.919   0.115 -0.4305 -0.6755  0.3717
  316TMC3    C2 4747   1.613   2.871   0.218 -0.0189 -0.4581 -0.1035
  316TMC3    C3 4748   1.746   2.851   0.182 -0.5420 -0.1214 -0.8845
  316TMC3    C4 4749   1.577   2.936  17.662 -0.3423  0.1560  0.2291
  316TMC3    C5 4750   1.708   2.919  17.634 -0.2614 -0.0867  0.1789
  316TMC3    C6 4751   1.796   2.879   0.057  0.3514 -0.0526  0.7207
  316TMC3     C 4752   1.402   2.871   0.123  1.1303  0.7871 -0.1188
  316TMC3     O 4753   1.324   2.909   0.037 -0.2523  0.3772 -0.6125
  316TMC3     H 4754   1.584   2.843   0.319  1.6101  1.8674  1.0368
  316TMC3    H1 4755   1.509   2.969  17.584 -1.0868 -0.6659  0.5223
  316TMC3    H2 4756   1.901   2.855   0.043  0.0696 -1.5803  1.2616
  316TMC3    C7 4757   1.759   2.919  17.493  0.5425  0.4026  0.6924
  316TMC3    C8 4758   1.837   2.812   0.294 -0.3984 -0.7861  0.4466
  316TMC3    O1 4759   1.868   2.865  17.473  0.1704 -0.1026  0.0718
  316TMC3    O2 4760   1.817   2.872   0.400  0.2115 -1.0511 -0.0756
  317MPD2     C 4761   3.079   0.866  12.764  0.0248 -0.3861 -0.1141
  317MPD2    C1 4762   3.155   0.767  12.699 -0.4887  0.1831 -0.1875
  317MPD2    C2 4763   3.232   0.684  12.780 -0.3392 -0.3160 -0.0100
  317MPD2    C3 4764   3.253   0.713  12.908  0.0181  0.4684 -0.3753
  317MPD2    C4 4765   3.196   0.826  12.961 -0.9547 -0.7962  0.5041
  317MPD2    C5 4766   3.103   0.898  12.892  0.3169 -0.2930 -0.4663
  317MPD2     H 4767   3.274   0.589  12.750 -1.2890 -0.3942 -1.0941
  317MPD2    H1 4768   3.223   0.865  13.058 -0.5466 -1.2106  0.5560
  317MPD2    H2 4769   3.020   0.942  12.713 -1.2976 -1.9685 -0.9228
  317MPD2    H3 4770   3.063   0.989  12.935  0.7766 -0.3342  0.0420
  317MPD2     N 4771   3.337   0.624  12.975 -1.0237  0.2211  0.2372
  317MPD2    H5 4772   3.361   0.541  12.921 -1.6096  0.0315  0.2622
  317MPD2    N1 4773   3.121   0.737  12.564  0.2992 -0.1510 -0.1889
  317MPD2    H7 4774   3.085   0.813  12.507  2.6969 -0.4611 -2.0798
  318TMC3    C1 4775   3.479   0.545  13.138  0.0839  0.1203  0.3606
  318TMC3    C2 4776   3.473   0.414  13.102  0.3032 -0.1462 -0.0799
  318TMC3    C3 4777   3.572   0.327  13.150 -1.0223  0.1526  0.0967
  318TMC3    C4 4778   3.581   0.600  13.199 -0.1821  0.5757 -0.5075
  318TMC3    C5 4779   3.678   0.511  13.235 -0.5355  0.3356  0.0470
  318TMC3    C6 4780   3.664   0.379  13.233  0.2157 -0.0749  0.4666
  318TMC3     C 4781   3.383   0.641  13.098 -0.0253  0.8554 -0.2321
  318TMC3     O 4782   3.361   0.734  13.181 -0.1592  0.3385 -0.5185
  318TMC3     H 4783   3.383   0.386  13.049  0.9860  0.6382 -1.6580
  318TMC3    H1 4784   3.601   0.706  13.207  0.3336  0.4836 -0.5674
  318TMC3    H2 4785   3.754   0.321  13.249  0.0503 -0.0340  1.5328
  318TMC3    C7 4786   3.800   0.571  13.295  0.3375 -0.3920  0.2265
  318TMC3    C8 4787   3.554   0.184  13.143 -0.1244  0.0047  0.4141
  318TMC3    O1 4788   3.796   0.689  13.327  0.4195 -0.0200 -0.0827
  318TMC3    O2 4789   3.644   0.100  13.158 -0.6320  0.1779 -0.0092
  319MPD2     C 4790   4.273   2.099  17.317 -0.0091 -0.0291  0.0195
  319MPD2    C1 4791   4.316   1.976  17.275 -0.0010  0.3453  0.1133
  319MPD2    C2 4792   4.245   1.907  17.177 -0.1032 -0.6677 -0.5313
  319MPD2    C3 4793   4.162   1.982  17.100  0.3253  0.5269 -0.3701
  319MPD2    C4 4794   4.137   2.117  17.130  0.4282 -0.2176  0.1860
  319MPD2    C5 4795   4.178   2.172  17.244  0.6958  0.0271  0.1894
  319MPD2     H 4796   4.255   1.800  17.167  0.1825 -1.0154  3.3460
  319MPD2    H1 4797   4.076   2.177  17.064  0.3243  1.2805  1.6437
  319MPD2    H2 4798   4.315   2.151  17.403  0.8707 -0.3507 -0.2178
  319MPD2    H3 4799   4.157   2.277  17.263  0.8172  0.1775 -0.4967
  319MPD2     N 4800   4.086   1.937  16.988 -0.4178  0.2514  0.3003
  319MPD2    H5 4801   4.019   2.002  16.947 -1.1224 -0.1892  0.7591
  319MPD2    N1 4802   4.411   1.894  17.346 -0.1929  0.2335  0.4190
  319MPD2    H7 4803   4.441   1.808  17.301 -0.2632  0.3635  0.1235
  320TMC3    C1 4804   4.017   1.806  16.811  0.1410  0.2470 -0.2095
  320TMC3    C2 4805   3.984   1.906  16.730  0.0472 -0.1942 -0.1837
  320TMC3    C3 4806   3.890   1.885  16.634  0.5620 -0.1279 -0.2339
  320TMC3    C4 4807   3.957   1.681  16.802  0.4986 -0.3805 -0.1995
  320TMC3    C5 4808   3.874   1.665  16.696 -1.0356  0.3963  0.6777
  320TMC3    C6 4809   3.832   1.763  16.614  0.4955  0.6319  0.1130
  320TMC3     C 4810   4.106   1.817  16.924 -0.0331 -0.3319  0.3182
  320TMC3     O 4811   4.160   1.719  16.969 -0.7668 -0.3104 -0.0301
  320TMC3     H 4812   4.024   2.006  16.748  1.2596 -0.3616 -1.9858
  320TMC3    H1 4813   3.991   1.596  16.861  0.7033 -0.7635 -0.8757
  320TMC3    H2 4814   3.759   1.747  16.535  1.0779  3.6582 -1.0223
  320TMC3    C7 4815   3.870   1.532  16.645  0.0540 -0.7858 -0.3016
  320TMC3    C8 4816   3.868   1.986  16.530  0.5070 -0.1476  1.0550
  320TMC3    O1 4817   3.966   1.460  16.651 -0.2480  0.2763  0.4782
  320TMC3    O2 4818   3.869   2.105  16.565 -0.4982  0.0308 -0.0255
  321TMC3    C1 4819   4.578   1.837  17.505 -0.5437 -0.6923 -0.0937
  321TMC3    C2 4820   4.664   1.783  17.404  0.5818  0.2305  0.0506
  321TMC3    C3 4821   0.081   1.763  17.447 -0.1109  0.2637  0.0267
  321TMC3    C4 4822   4.609   1.833  17.639 -0.6963  0.3852 -0.4339
  321TMC3    C5 4823   0.014   1.793  17.667 -0.1533 -0.5461 -0.1896
  321TMC3    C6 4824   0.111   1.760  17.578 -0.3518 -0.9215 -0.0055
  321TMC3     C 4825   4.461   1.911  17.469  0.0742 -0.9963  0.6158
  321TMC3     O 4826   4.410   1.997  17.544 -0.0727  0.2094 -0.7592
  321TMC3     H 4827   4.643   1.785  17.298 -2.2861  0.7226  0.6146
  321TMC3    H1 4828   4.531   1.844   0.040  1.9543 -0.5988  2.4673
  321TMC3    H2 4829   0.203   1.715  17.615 -0.1749 -2.0028 -1.7744
  321TMC3    C7 4830   0.027   1.730   0.123  0.3570 -0.3700 -0.0830
  321TMC3    C8 4831   0.165   1.686  17.358 -0.9495 -0.9124 -0.5585
  321TMC3    O1 4832   0.140   1.725   0.165 -0.1614 -0.2919 -1.3532
  321TMC3    O2 4833   0.131   1.579  17.313 -0.1517  0.5235  0.1761
  322MPD2     C 4834   2.908   2.942  13.802  0.0144  0.0398  0.8964
  322MPD2    C1 4835   2.913   2.903  13.929 -0.5155  0.3843  1.3309
  322MPD2    C2 4836   2.892   2.771  13.964  0.0846 -0.0145 -0.0252
  322MPD2    C3 4837   2.858   2.675  13.868 -0.1958  0.0961 -0.5703
  322MPD2    C4 4838   2.858   2.723  13.740  0.1776  0.5603  0.2532
  322MPD2    C5 4839   2.879   2.853  13.702 -0.5644 -0.8918 -0.3933
  322MPD2     H 4840   2.908   2.738  14.066  1.4559 -1.3631 -0.6683
  322MPD2    H1 4841   2.828   2.652  13.663  2.1484  2.0051 -1.8329
  322MPD2    H2 4842   2.906   3.047  13.775  0.2203 -0.4070 -0.8827
  322MPD2    H3 4843   2.889   2.879  13.598 -1.1376  0.7618 -0.0227
  322MPD2     N 4844   2.835   2.539  13.899  0.2238  0.6641 -1.1036
  322MPD2    H5 4845   2.823   2.511  13.996  0.1741  1.3572 -0.9067
  322MPD2    N1 4846   2.946   3.004  14.018 -0.0197  0.4852 -0.1666
  322MPD2    H7 4847   2.977   3.094  13.985 -1.1198  0.1724 -2.0245
  323TMC3    C1 4848   2.984   3.116  14.224 -0.0397 -0.3445 -0.0943
  323TMC3    C2 4849   3.075   3.214  14.176  0.1683  0.5471 -0.6780
  323TMC3    C3 4850   3.143   3.297  14.266 -0.0450 -0.1139  0.4072
  323TMC3    C4 4851   2.966   3.118  14.359 -0.2241 -0.3466  0.1533
  323TMC3    C5 4852   3.041   3.191  14.447  0.3889  0.2118 -0.1043
  323TMC3    C6 4853   3.136   3.276  14.399 -0.1185 -0.1865 -0.0041
  323TMC3     C 4854   2.922   2.998  14.153 -0.1529 -0.2070 -0.3444
  323TMC3     O 4855   2.854   2.917  14.218 -0.2727 -0.0732  0.5183
  323TMC3     H 4856   3.092   3.223  14.070 -0.1330 -0.0806 -0.7797
  323TMC3    H1 4857   2.895   3.050  14.404 -0.8422  0.7258  0.7885
  323TMC3    H2 4858   3.188   3.352  14.457  0.6643 -0.6994 -0.0376
  323TMC3    C7 4859   3.098   3.108  14.552  0.2080 -0.1162  0.4896
  323TMC3    C8 4860   3.286   3.308  14.230  0.4318 -0.1800  0.0789
  323TMC3    O1 4861   3.095   2.988  14.532  0.0007 -0.6419  0.2606
  323TMC3    O2 4862   3.369   3.239  14.290  0.5862 -0.0844 -0.6789
  324MPD2     C 4863   0.228   0.207  14.235 -0.8515  0.2417 -0.2878
  324MPD2    C1 4864   0.240   0.115  14.337 -1.0276  0.5408 -0.6117
  324MPD2    C2 4865   0.131   0.073  14.406  0.1346  0.0851  0.6000
  324MPD2    C3 4866   0.004   0.115  14.370 -0.1688  0.3811 -0.4382
  324MPD2    C4 4867   4.710   0.200  14.261 -0.6962 -0.2598  0.3420
  324MPD2    C5 4868   0.106   0.236  14.187  0.0768  0.0011  0.7282
  324MPD2     H 4869   0.139   0.006  14.490  1.6463  1.7034  1.7250
  324MPD2    H1 4870   4.621   0.255  14.235 -0.6448 -0.5209 -0.3833
  324MPD2    H2 4871   0.310   0.256  14.184 -0.5908 -0.7784 -0.8509
  324MPD2    H3 4872   0.100   0.322  14.122  1.1416 -0.8788 -0.5331
  324MPD2     N 4873   4.608   0.078  14.438  0.6926 -0.1548  0.1292
  324MPD2    H5 4874   4.524   0.130  14.415  1.7080  2.3224  1.9286
  324MPD2    N1 4875   0.365   0.078  14.384 -0.2611  0.1158  0.3135
  324MPD2    H7 4876   0.360   0.014  14.463 -1.0218 -1.1866 -0.7848
  325TMC3    C1 4877   4.472   4.671  14.573  0.7083 -0.6449 -0.3010
  325TMC3    C2 4878   4.410   4.549  14.563  0.9094  0.1615  0.2177
  325TMC3    C3 4879   4.278   4.539  14.573  0.0110  0.2785 -0.0318
  325TMC3    C4 4880   4.403   0.079  14.591 -0.1684  0.4724  0.7732
  325TMC3    C5 4881   4.269   0.065  14.589 -0.2056  0.1232  0.2936
  325TMC3    C6 4882   4.205   4.661  14.591 -0.0811 -0.1724  0.3039
  325TMC3     C 4883   4.601   4.682  14.517  0.0768 -0.4243 -0.0143
  325TMC3     O 4884   4.666   4.579  14.517 -0.2290 -0.0805  0.2783
  325TMC3     H 4885   4.470   4.460  14.548  1.9305  0.6228  1.5812
  325TMC3    H1 4886   4.448   0.169  14.631 -1.0335  1.3209 -0.1513
  325TMC3    H2 4887   4.097   4.654  14.589 -0.0966  0.0177  0.4744
  325TMC3    C7 4888   4.200   0.176  14.645  0.8375  0.7010 -0.2309
  325TMC3    C8 4889   4.228   4.423  14.507  0.3598 -0.8164  0.3869
  325TMC3    O1 4890   4.268   0.259  14.704  0.0366 -0.5565  0.3303
  325TMC3    O2 4891   4.292   4.330  14.460  0.1242  0.6909  0.0796
  326MPD2     C 4892   1.512   0.449  10.433 -0.3817  0.4273 -1.2625
  326MPD2    C1 4893   1.558   0.558  10.367 -0.3988 -0.6460  0.9082
  326MPD2    C2 4894   1.617   0.659  10.440 -0.3923  0.3876 -0.5177
  326MPD2    C3 4895   1.654   0.631  10.574  0.5068 -0.3975 -0.1329
  326MPD2    C4 4896   1.619   0.512  10.637 -0.0704  0.2920 -0.6664
  326MPD2    C5 4897   1.541   0.428  10.564  0.3310 -0.6879 -0.9704
  326MPD2     H 4898   1.651   0.750  10.393  1.0150  2.4181  4.4759
  326MPD2    H1 4899   1.647   0.501  10.741 -2.1993  1.4157  0.0069
  326MPD2    H2 4900   1.482   0.356  10.385  1.2070 -0.0417 -1.3447
  326MPD2    H3 4901   1.508   0.335  10.609 -0.2538 -0.6225 -1.2564
  326MPD2     N 4902   1.733   0.716  10.652 -0.2185 -0.0000  0.4399
  326MPD2    H5 4903   1.777   0.680  10.737  2.0436 -1.8753 -1.5218
  326MPD2    N1 4904   1.555   0.568  10.226  0.0366  0.2466  0.5508
  326MPD2    H7 4905   1.601   0.650  10.188 -0.1657 -0.1213 -0.4781
  327TMC3    C1 4906   1.587   0.498  10.013  0.6265 -0.0926 -0.0886
  327TMC3    C2 4907   1.528   0.603   9.948 -0.0201  0.3835  0.3236
  327TMC3    C3 4908   1.602   0.680   9.860  0.6079 -0.1791  0.8458
  327TMC3    C4 4909   1.723   0.480  10.012 -0.0570  0.2624  0.3656
  327TMC3    C5 4910   1.789   0.575   9.945 -0.4050  0.4664 -0.9124
  327TMC3    C6 4911   1.739   0.678   9.872  0.3540  0.2513  0.1595
  327TMC3     C 4912   1.523   0.467  10.138  0.1386  0.1410  0.9659
  327TMC3     O 4913   1.494   0.346  10.148 -0.4844 -0.4006 -0.1661
  327TMC3     H 4914   1.422   0.622   9.951 -0.3000 -1.2924  0.8544
  327TMC3    H1 4915   1.773   0.393  10.054  0.5645 -0.0373 -1.0022
  327TMC3    H2 4916   1.804   0.737   9.809 -2.3236  2.0919 -0.8559
  327TMC3    C7 4917   1.925   0.591   9.989  0.4915 -0.2048 -0.0610
  327TMC3    C8 4918   1.559   0.796   9.779  1.0667 -0.2450 -0.1908
  327TMC3    O1 4919   2.006   0.649   9.921 -0.0436 -0.2714  0.1430
  327TMC3    O2 4920   1.634   0.850   9.697  0.1671 -0.0836 -0.2542
  328MPD2     C 4921   3.765   0.004   0.131 -0.1573  0.0541 -0.4421
  328MPD2    C1 4922   3.712   4.658   0.023 -0.5057  0.0173 -0.5208
  328MPD2    C2 4923   3.661   0.007  17.593 -0.1033 -0.3524  0.3007
  328MPD2    C3 4924   3.660   0.142  17.595  0.7432 -0.0168 -0.1520
  328MPD2    C4 4925   3.711   0.210   0.028  0.5444  0.3828 -0.2866
  328MPD2    C5 4926   3.773   0.136   0.130 -0.4301 -0.5150  0.3323
  328MPD2     H 4927   3.613   4.679  17.507 -1.4626  0.5073  0.5985
  328MPD2    H1 4928   3.710   0.318   0.041 -4.2431  0.3109 -0.0941
  328MPD2    H2 4929   3.813   4.660   0.207  0.2055 -0.6594 -1.2574
  328MPD2    H3 4930   3.830   0.189   0.206  2.1962 -1.3339 -1.0696
  328MPD2     N 4931   3.597   0.221  17.496 -0.0222 -0.0445 -0.2840
  328MPD2    H5 4932   3.596   0.320  17.518  1.1241 -0.4503  1.6240
  328MPD2    N1 4933   3.692   4.516   0.027  0.2597  0.3959 -0.2296
  328MPD2    H7 4934   3.725   4.475   0.113 -0.7034 -0.6606 -0.3675
  329TMC3    C1 4935   3.664   4.283  17.617 -0.1257  0.8261 -0.4197
  329TMC3    C2 4936   3.529   4.282  17.651 -0.9591  0.5882  0.7207
  329TMC3    C3 4937   3.452   4.177  17.605 -0.7334  0.0768  0.0046
  329TMC3    C4 4938   3.718   4.192  17.536  0.1586 -0.1709  0.3160
  329TMC3    C5 4939   3.642   4.089  17.492  0.0668  0.1250  0.1143
  329TMC3    C6 4940   3.505   4.089  17.519  0.2112 -0.0718 -0.2312
  329TMC3     C 4941   3.698   4.427  17.592 -0.2660  0.5308 -0.0490
  329TMC3     O 4942   3.712   4.449  17.474  0.3498 -0.0242  0.5711
  329TMC3     H 4943   3.489   4.377   0.010  0.4437  1.2193  0.6047
  329TMC3    H1 4944   3.822   4.202  17.508 -0.2722  2.4001 -0.3437
  329TMC3    H2 4945   3.436   4.018  17.474 -0.3964 -0.1548  0.8308
  329TMC3    C7 4946   3.719   3.976  17.434  0.1052 -0.0300  0.2455
  329TMC3    C8 4947   3.307   4.211  17.602 -0.6844  0.0648  0.0643
  329TMC3    O1 4948   3.834   4.005  17.423 -0.1204  0.3012  0.0733
  329TMC3    O2 4949   3.248   4.148  17.520  0.2676 -0.0424 -0.4371
  330TMC3    C1 4950   2.106   3.958   9.823  0.1256 -0.6925  0.1606
  330TMC3    C2 4951   2.065   3.888   9.715 -0.1867  0.3330  0.2558
  330TMC3    C3 4952   1.986   3.777   9.746 -0.4189 -0.9033  0.8210
  330TMC3    C4 4953   2.095   3.911   9.949  0.2163  0.6954 -0.2170
  330TMC3    C5 4954   2.038   3.789   9.966  0.4551  0.2136  0.6466
  330TMC3    C6 4955   1.976   3.719   9.873 -0.2374  0.1127 -0.4914
  330TMC3     C 4956   2.098   4.109   9.813  0.5234 -1.3313  0.4676
  330TMC3     O 4957   2.148   4.173   9.903 -0.1328 -0.1558  0.1549
  330TMC3     H 4958   2.059   3.928   9.615  1.4601  1.4417  0.6016
  330TMC3    H1 4959   2.141   3.965  10.032 -1.0102 -1.2372  1.7100
  330TMC3    H2 4960   1.984   3.611   9.882 -0.1450  0.1981  0.4547
  330TMC3    C7 4961   2.055   3.735  10.097 -0.1399 -0.0994  0.0699
  330TMC3    C8 4962   1.926   3.708   9.636 -0.3697  0.1127 -0.9230
  330TMC3    O1 4963   2.138   3.797  10.167  0.0498  0.3071 -0.1732
  330TMC3    O2 4964   1.973   3.742   9.529 -0.4777 -0.4189 -0.4290
  331MPD2     C 4965   3.962   3.513  12.224  0.3322 -0.4701  0.4593
  331MPD2    C1 4966   4.087   3.563  12.198  0.6736  0.2454 -0.0564
  331MPD2    C2 4967   4.176   3.486  12.128 -1.3271  0.2761 -0.0124
  331MPD2    C3 4968   4.148   3.352  12.100  0.2778 -0.0238  0.9265
  331MPD2    C4 4969   4.018   3.304  12.118  0.6460 -0.3552 -0.4117
  331MPD2    C5 4970   3.918   3.389  12.173 -0.2985 -0.4155 -0.0213
  331MPD2     H 4971   4.274   3.529  12.110 -1.6358  2.1545  2.7603
  331MPD2    H1 4972   3.992   3.210  12.071  0.8280 -0.1276 -0.9684
  331MPD2    H2 4973   3.881   3.551  12.285  0.5520  1.1580 -0.2654
  331MPD2    H3 4974   3.815   3.358  12.187  0.1381 -1.3186  1.1634
  331MPD2     N 4975   4.253   3.279  12.044 -0.0607  0.0426 -0.1870
  331MPD2    H5 4976   4.342   3.328  12.037 -0.9216  1.8972  1.7709
  331MPD2    N1 4977   4.122   3.692  12.231 -0.3675 -0.3690 -0.0152
  331MPD2    H7 4978   4.215   3.718  12.200  0.4862 -1.7565  1.3790
  332TMC3    C1 4979   4.376   3.099  11.968 -0.4703 -0.4821 -0.0930
  332TMC3    C2 4980   4.459   3.185  11.895 -0.5501 -0.8076  0.9371
  332TMC3    C3 4981   4.594   3.162  11.893 -0.0818 -0.1074  1.0130
  332TMC3    C4 4982   4.433   2.990  12.032 -0.2105  0.8406 -0.2511
  332TMC3    C5 4983   4.567   2.978  12.022  0.0806 -0.1187  0.0658
  332TMC3    C6 4984   4.651   3.062  11.955  0.7572  0.3300  0.2019
  332TMC3     C 4985   4.253   3.143  12.020  0.1225 -1.0913  0.1962
  332TMC3     O 4986   4.172   3.063  12.057  0.2463  0.4571  0.3402
  332TMC3     H 4987   4.410   3.254  11.828  1.4628  1.8485  2.2163
  332TMC3    H1 4988   4.382   2.912  12.086 -0.0883  0.6744 -0.3751
  332TMC3    H2 4989   0.040   3.047  11.952  0.9136  1.4892  0.0269
  332TMC3    C7 4990   4.625   2.874  12.093 -0.6344  0.4013  0.1565
  332TMC3    C8 4991   4.675   3.274  11.863  0.7152 -0.0192 -0.2324
  332TMC3    O1 4992   4.552   2.785  12.131  0.1475 -0.0186  0.8823
  332TMC3    O2 4993   4.629   3.380  11.894  0.1295  0.0170 -0.0857
  333MPD2     C 4994   4.433   3.423  11.391  0.8183 -0.3639  0.0325
  333MPD2    C1 4995   4.556   3.361  11.399 -0.8280  0.4131  0.6681
  333MPD2    C2 4996   4.578   3.252  11.476 -0.2622 -0.3894 -0.3182
  333MPD2    C3 4997   4.466   3.191  11.529 -0.4244  0.0318 -0.2085
  333MPD2    C4 4998   4.345   3.260  11.533 -0.6311 -0.4204  0.1909
  333MPD2    C5 4999   4.330   3.376  11.467  0.0751  0.5328 -0.1736
  333MPD2     H 5000   4.674   3.201  11.481  0.0789 -0.0072 -3.1124
  333MPD2    H1 5001   4.259   3.218  11.583  0.5288 -1.6626  1.1422
  333MPD2    H2 5002   4.420   3.511  11.329  0.6321 -0.2250  0.2705
  333MPD2    H3 5003   4.236   3.428  11.470  0.7497  1.7783 -0.8281
  333MPD2     N 5004   4.480   3.059  11.582  0.0726  0.1506  0.3743
  333MPD2    H5 5005   4.574   3.024  11.565  0.2126  0.9659 -0.5235
  333MPD2    N1 5006   4.669   3.423  11.341  0.6106 -0.7486 -0.2829
  333MPD2    H7 5007   4.649   3.513  11.298  1.6311 -0.5028 -0.2395
  334TMC3    C1 5008   0.160   3.466  11.240 -0.5772  0.8020 -0.4234
  334TMC3    C2 5009   0.295   3.425  11.228  0.2485  0.7415  0.0493
  334TMC3    C3 5010   0.378   3.517  11.169 -0.3462  0.4363 -0.4580
  334TMC3    C4 5011   0.110   3.589  11.202 -0.1938  0.0246  0.4358
  334TMC3    C5 5012   0.209   3.673  11.163 -0.3942 -0.4360 -0.2884
  334TMC3    C6 5013   0.334   3.640  11.148 -0.0561 -0.4214 -0.8036
  334TMC3     C 5014   0.076   3.371  11.314  0.1093  0.0375  0.4688
  334TMC3     O 5015   0.115   3.255  11.322 -0.5115  0.8477  0.3772
  334TMC3     H 5016   0.316   3.319  11.237 -0.3896  0.7748  1.9622
  334TMC3    H1 5017   0.010   3.623  11.228 -1.3320 -3.1219  0.1958
  334TMC3    H2 5018   0.401   3.708  11.097 -0.4314  0.4047 -0.2022
  334TMC3    C7 5019   0.165   3.773  11.067  0.3990 -0.1945 -0.3595
  334TMC3    C8 5020   0.455   3.465  11.058  0.4193  0.4074  0.0438
  334TMC3    O1 5021   0.231   3.880  11.055  0.6564 -0.0457 -0.3282
  334TMC3    O2 5022   0.383   3.404  10.982  0.0504 -0.1373  0.0631
  335TMC3    C1 5023   4.609   0.723  17.508  0.3015  0.0576  0.3909
  335TMC3    C2 5024   4.491   0.667  17.545 -0.3010  0.0711  0.1702
  335TMC3    C3 5025   4.496   0.529  17.548  0.0886  0.5019 -0.4227
  335TMC3    C4 5026   0.012   0.659  17.481  0.0910  0.5437  0.2616
  335TMC3    C5 5027   0.008   0.529  17.513  0.4836  0.1217 -0.1431
  335TMC3    C6 5028   4.609   0.461  17.543 -0.1004  0.0953  0.4027
  335TMC3     C 5029   4.614   0.865  17.492  0.5379  0.0100  0.8522
  335TMC3     O 5030   4.714   0.918  17.449  0.0905 -0.2497  0.0216
  335TMC3     H 5031   4.396   0.719  17.542 -0.1481  0.2785 -1.2067
  335TMC3    H1 5032   0.106   0.712  17.470 -1.3788  2.4242 -3.6600
  335TMC3    H2 5033   4.600   0.355  17.560 -0.4142  0.3925  2.0411
  335TMC3    C7 5034   0.129   0.451  17.523  0.4810 -0.0826 -1.0459
  335TMC3    C8 5035   4.370   0.456  17.566 -0.2354 -0.4198 -0.0403
  335TMC3    O1 5036   0.224   0.474  17.448 -0.0117 -0.3741 -0.3508
  335TMC3    O2 5037   4.378   0.345  17.620 -0.0662 -0.2385 -0.3443
  336MPD2     C 5038   4.258   3.141  15.916  0.9663  0.7083 -0.3983
  336MPD2    C1 5039   4.165   3.197  16.006 -0.3226 -0.2329 -0.1064
  336MPD2    C2 5040   4.139   3.135  16.129 -0.2414 -0.4262  0.1493
  336MPD2    C3 5041   4.206   3.022  16.167  0.3581 -0.7267 -0.7757
  336MPD2    C4 5042   4.310   2.985  16.086 -0.2306 -0.5024  0.1850
  336MPD2    C5 5043   4.335   3.039  15.967 -0.7176  0.0399 -0.0723
  336MPD2     H 5044   4.057   3.173  16.188 -1.6743 -1.7429 -0.9951
  336MPD2    H1 5045   4.372   2.896  16.098 -0.3157 -0.4386  1.0691
  336MPD2    H2 5046   4.272   3.176  15.814 -3.0301 -0.0661 -1.2296
  336MPD2    H3 5047   4.411   2.996  15.902 -1.4614 -0.3788 -0.6687
  336MPD2     N 5048   4.166   2.935  16.277  0.1487 -0.7608 -0.1922
  336MPD2    H5 5049   4.221   2.852  16.298  0.1836 -0.2545  1.7498
  336MPD2    N1 5050   4.090   3.311  15.968 -0.0614  0.3387  0.1192
  336MPD2    H7 5051   4.047   3.348  16.052  1.5365 -2.7543  2.2989
  337TMC3    C1 5052   3.993   3.472  15.833 -0.2326 -0.1319  0.0028
  337TMC3    C2 5053   3.889   3.464  15.747  0.5918 -0.4809  0.1187
  337TMC3    C3 5054   3.806   3.564  15.739  0.4905  0.5460  0.8192
  337TMC3    C4 5055   3.995   3.563  15.939 -0.6174 -0.4026 -0.0958
  337TMC3    C5 5056   3.900   3.656  15.933  0.4460  0.4862 -0.4597
  337TMC3    C6 5057   3.806   3.665  15.834  0.8818 -0.1790  0.1758
  337TMC3     C 5058   4.076   3.356  15.839  0.2322 -0.1334  0.0860
  337TMC3     O 5059   4.095   3.298  15.732 -0.1852 -0.7052  1.1144
  337TMC3     H 5060   3.877   3.380  15.680  1.4233 -0.0187 -0.6127
  337TMC3    H1 5061   4.079   3.561  16.008  0.3334 -0.4564 -1.2579
  337TMC3    H2 5062   3.741   3.751  15.820 -0.0085 -0.8431  0.2621
  337TMC3    C7 5063   3.930   3.772  16.028 -0.2710 -0.0083  0.2153
  337TMC3    C8 5064   3.685   3.530  15.660 -0.3351 -0.6494 -0.2366
  337TMC3    O1 5065   3.901   3.884  15.988  0.0704  0.0714  0.4414
  337TMC3    O2 5066   3.690   3.457  15.560 -0.8180  0.8060 -0.0021
  338MPD2     C 5067   4.131   2.099   1.316 -0.1812 -0.6167  0.2091
  338MPD2    C1 5068   4.103   2.072   1.185  0.1193 -0.4876 -0.3634
  338MPD2    C2 5069   3.971   2.056   1.141  0.5206 -0.2307 -0.2457
  338MPD2    C3 5070   3.871   2.065   1.232  0.1729  0.6860  0.2703
  338MPD2    C4 5071   3.896   2.100   1.364  0.7624  0.6661 -0.5227
  338MPD2    C5 5072   4.024   2.115   1.406 -0.5821  0.6849  0.5313
  338MPD2     H 5073   3.943   2.038   1.038  2.0862  1.8590 -1.0268
  338MPD2    H1 5074   3.816   2.106   1.437  0.6335 -0.2256 -0.5790
  338MPD2    H2 5075   4.236   2.112   1.338 -0.7959  2.0556  1.5358
  338MPD2    H3 5076   4.049   2.131   1.510  1.1612  2.7725 -0.1929
  338MPD2     N 5077   3.738   2.059   1.181 -0.2708  0.1663 -0.0283
  338MPD2    H5 5078   3.725   2.070   1.081  0.6086 -2.2390 -0.4192
  338MPD2    N1 5079   4.197   2.069   1.083  0.1814 -0.1298 -0.1572
  338MPD2    H7 5080   4.154   2.054   0.992  0.9219  2.0841 -0.8706
  339TMC3    C1 5081   3.509   2.029   1.171 -0.2962  0.2754 -0.4561
  339TMC3    C2 5082   3.397   1.965   1.218  0.3556 -0.4606 -0.7204
  339TMC3    C3 5083   3.289   1.963   1.131  0.4020 -0.1553 -0.7244
  339TMC3    C4 5084   3.517   2.081   1.046 -0.0642 -0.4584 -0.1373
  339TMC3    C5 5085   3.409   2.076   0.966  0.1398  0.2474 -0.1743
  339TMC3    C6 5086   3.294   2.006   0.999  1.1954 -0.6877 -0.6344
  339TMC3     C 5087   3.624   2.052   1.260  0.1688  0.3879 -0.1082
  339TMC3     O 5088   3.604   2.032   1.379  0.7411 -0.4423  0.9768
  339TMC3     H 5089   3.402   1.912   1.313 -0.0280  1.2473  0.2583
  339TMC3    H1 5090   3.589   2.159   1.021  0.0023 -0.8259 -1.0862
  339TMC3    H2 5091   3.203   2.006   0.940  0.2666 -0.8120  0.7942
  339TMC3    C7 5092   3.466   2.089   0.834 -0.1090  0.0842 -0.0802
  339TMC3    C8 5093   3.161   1.920   1.172  0.1021  0.1584  0.8876
  339TMC3    O1 5094   3.584   2.058   0.828  0.2611 -0.5657 -0.4800
  339TMC3    O2 5095   3.088   1.849   1.100 -0.1567 -0.2854 -0.6044
  340MPD2     C 5096   0.043   4.619  10.372 -0.2346 -0.6609  0.5395
  340MPD2    C1 5097   0.084   4.605  10.240  1.4212 -0.0121  0.0341
  340MPD2    C2 5098   0.115   0.007  10.169 -0.2324 -0.3755  0.4839
  340MPD2    C3 5099   0.099   0.132  10.222 -0.0616  0.2690  0.5904
  340MPD2    C4 5100   0.047   0.145  10.353  0.7685 -0.3251  0.4203
  340MPD2    C5 5101   0.026   0.027  10.422 -1.0959  0.2295  0.3549
  340MPD2     H 5102   0.140   4.713  10.064  1.6922 -0.5587  0.9611
  340MPD2    H1 5103   0.013   0.239  10.395  2.2054  0.1807  0.4248
  340MPD2    H2 5104   0.012   4.536  10.435 -0.8540 -2.4499 -2.1093
  340MPD2    H3 5105   4.715   0.041  10.526  0.0387  2.1758  0.4014
  340MPD2     N 5106   0.127   0.256  10.157  0.2394  0.6909 -0.2929
  340MPD2    H5 5107   0.114   0.343  10.207  0.1624  1.1174 -1.0429
  340MPD2    N1 5108   0.099   4.474  10.193  0.2650 -0.2835 -0.6616
  340MPD2    H7 5109   0.065   4.398  10.250  1.1877 -0.0472  0.1975
  341TMC3    C1 5110   0.155   4.303  10.032  0.7081  0.5184 -0.3477
  341TMC3    C2 5111   0.039   4.233  10.055  0.1252 -0.1302 -0.0690
  341TMC3    C3 5112   0.052   4.105  10.008 -0.2587  0.1588 -0.1195
  341TMC3    C4 5113   0.268   4.257   9.973  0.7356 -0.6029  0.0273
  341TMC3    C5 5114   0.265   4.130   9.922  0.3833 -0.3232  1.0650
  341TMC3    C6 5115   0.154   4.052   9.936  0.1326 -0.9046 -0.3059
  341TMC3     C 5116   0.159   4.447  10.067  0.2850 -0.2769 -0.5852
  341TMC3     O 5117   0.234   4.517  10.002  0.1102  0.2381  0.1886
  341TMC3     H 5118   4.674   4.274  10.112  0.4553  2.3032 -1.3332
  341TMC3    H1 5119   0.351   4.323   9.954  0.1471  0.1969  0.2370
  341TMC3    H2 5120   0.163   3.950   9.900  0.6447 -1.4901  1.4833
  341TMC3    C7 5121   0.385   4.086   9.842  0.2313  0.0809  0.3628
  341TMC3    C8 5122   4.690   4.002  10.070  0.3732  0.4294  0.1776
  341TMC3    O1 5123   0.489   4.142   9.872  0.6661 -0.2117 -0.0153
  341TMC3    O2 5124   0.019   3.889  10.077 -0.1952  0.3445 -0.1589
  342MPD2     C 5125   2.068   3.368   0.249 -0.6073  0.4889 -0.3133
  342MPD2    C1 5126   2.198   3.338   0.262  0.0916 -0.4634  0.1838
  342MPD2    C2 5127   2.284   3.438   0.303  0.3594  0.6000 -0.2431
  342MPD2    C3 5128   2.252   3.571   0.333 -0.0526 -1.3135 -1.4320
  342MPD2    C4 5129   2.117   3.603   0.324  0.2356 -0.1467  0.0296
  342MPD2    C5 5130   2.029   3.498   0.286 -0.3474 -0.3537  0.1458
  342MPD2     H 5131   2.381   3.402   0.336 -0.8583 -0.3914  2.2237
  342MPD2    H1 5132   2.077   3.700   0.352 -0.1002 -0.0620 -0.7375
  342MPD2    H2 5133   1.984   3.308   0.217 -0.3549 -0.9939  1.8631
  342MPD2    H3 5134   1.929   3.525   0.253 -0.3736 -2.1201 -1.2099
  342MPD2     N 5135   2.344   3.663   0.378  0.0034 -0.3121 -0.0618
  342MPD2    H5 5136   2.313   3.759   0.393  0.5196 -0.6114  3.0263
  342MPD2    N1 5137   2.251   3.206   0.251 -0.1340 -0.3771 -0.0253
  342MPD2    H7 5138   2.351   3.193   0.262 -0.2171 -1.5207 -0.6306
  343TMC3    C1 5139   2.270   2.988   0.173  0.6057  0.1555  0.2636
  343TMC3    C2 5140   2.381   2.970   0.253  0.6839  0.8503  0.3896
  343TMC3    C3 5141   2.450   2.848   0.230 -0.7298 -0.1436 -0.2030
  343TMC3    C4 5142   2.234   2.904   0.073  0.6865 -1.0851  0.1968
  343TMC3    C5 5143   2.310   2.797   0.045 -0.7777 -0.6198  0.0466
  343TMC3    C6 5144   2.418   2.766   0.125  0.1311 -1.0584 -0.2318
  343TMC3     C 5145   2.179   3.099   0.205 -0.6715  0.0299 -0.7196
  343TMC3     O 5146   2.072   3.107   0.146  0.1329  0.1840 -0.3242
  343TMC3     H 5147   2.411   3.028   0.339  0.2673 -0.0506  1.1456
  343TMC3    H1 5148   2.149   2.917   0.007  0.8715  2.6045  0.6920
  343TMC3    H2 5149   2.463   2.669   0.103  1.4528 -1.1390  2.8247
  343TMC3    C7 5150   2.252   2.696  17.635  0.0412 -0.4420  1.2840
  343TMC3    C8 5151   2.588   2.843   0.280  0.4158  0.2306  0.1563
  343TMC3    O1 5152   2.132   2.677  17.636 -0.4440  0.0441 -0.1433
  343TMC3    O2 5153   2.612   2.902   0.386  0.0943  0.2713  0.5444
  344MPD2     C 5154   3.389   3.037  11.075 -0.3418 -0.0843 -0.6522
  344MPD2    C1 5155   3.496   2.974  11.018 -0.3861 -0.0514  0.2108
  344MPD2    C2 5156   3.570   3.040  10.919 -0.7409 -0.7254  0.0224
  344MPD2    C3 5157   3.546   3.171  10.894  0.2408 -0.1723 -0.1375
  344MPD2    C4 5158   3.431   3.227  10.946  0.2909  0.7337 -0.2847
  344MPD2    C5 5159   3.355   3.166  11.040 -0.2923 -0.2722 -0.7118
  344MPD2     H 5160   3.645   2.989  10.861 -2.6249 -1.4865 -1.7402
  344MPD2    H1 5161   3.415   3.334  10.945 -0.2743  0.6568  0.5100
  344MPD2    H2 5162   3.318   2.984  11.138 -0.0807  0.0434 -0.2509
  344MPD2    H3 5163   3.268   3.206  11.090 -0.7505 -1.7870 -0.3073
  344MPD2     N 5164   3.618   3.245  10.797  0.7854 -0.0839 -0.5643
  344MPD2    H5 5165   3.573   3.327  10.757 -3.0719 -1.4748  0.9025
  344MPD2    N1 5166   3.542   2.848  11.057 -0.7532  0.5720 -0.1361
  344MPD2    H7 5167   3.621   2.819  11.001 -1.2603  0.2764 -0.6999
  345TMC3    C1 5168   3.798   3.283  10.647 -0.6932  0.0108 -0.1896
  345TMC3    C2 5169   3.919   3.349  10.668 -0.6370 -0.3274  0.2459
  345TMC3    C3 5170   3.974   3.425  10.563 -0.0937 -0.1970  0.2035
  345TMC3    C4 5171   3.734   3.286  10.524  0.0257 -0.4434  0.8617
  345TMC3    C5 5172   3.791   3.365  10.431 -1.1787 -0.5713 -0.5968
  345TMC3    C6 5173   3.910   3.431  10.442  0.9672 -0.0447  0.1917
  345TMC3     C 5174   3.747   3.214  10.763  0.3629  0.3041  0.3076
  345TMC3     O 5175   3.824   3.141  10.826  0.4419  0.7076 -0.1959
  345TMC3     H 5176   3.976   3.335  10.759 -1.2047 -0.0818  0.6363
  345TMC3    H1 5177   3.642   3.233  10.503  1.4338 -1.6666 -2.2201
  345TMC3    H2 5178   3.949   3.475  10.351 -1.1682  2.0460  0.2774
  345TMC3    C7 5179   3.705   3.438  10.333  0.0283  0.6146  0.1293
  345TMC3    C8 5180   4.044   3.544  10.600  0.3088 -0.0187 -0.2418
  345TMC3    O1 5181   3.740   3.553  10.317  0.2628  0.3644  0.1351
  345TMC3    O2 5182   4.154   3.535  10.660  0.2751  0.8411  0.7641
  346MPD2     C 5183   3.216   4.434  13.968 -0.6380  0.3738  0.2535
  346MPD2    C1 5184   3.279   4.548  13.945  0.3254 -0.3592  0.0101
  346MPD2    C2 5185   3.291   4.646  14.036 -0.0710  0.6282 -0.4241
  346MPD2    C3 5186   3.219   4.647  14.153 -0.3432 -0.1687  0.4035
  346MPD2    C4 5187   3.137   4.536  14.176 -0.4399  0.2213  0.3772
  346MPD2    C5 5188   3.135   4.434  14.084  0.2639  0.3588  0.4799
  346MPD2     H 5189   3.348   0.019  14.015 -0.3880  1.2026  1.1834
  346MPD2    H1 5190   3.056   4.538  14.249 -1.2930  1.0762 -0.5747
  346MPD2    H2 5191   3.220   4.356  13.893  0.1712  0.1521  0.5195
  346MPD2    H3 5192   3.063   4.353  14.088  0.4528  0.0288 -3.5107
  346MPD2     N 5193   3.240   0.036  14.236 -0.2500 -0.0626  0.0894
  346MPD2    H5 5194   3.301   0.111  14.205 -0.4070 -0.5047 -1.2803
  346MPD2    N1 5195   3.344   4.575  13.824 -0.4727  0.1108  0.0185
  346MPD2    H7 5196   3.396   4.662  13.814  1.7568 -1.2265  0.1066
  347TMC3    C1 5197   3.224   0.163  14.431 -0.5151  0.4776 -0.0590
  347TMC3    C2 5198   3.360   0.180  14.419 -0.1525  0.1158 -0.1770
  347TMC3    C3 5199   3.418   0.282  14.495  0.0604  0.7581 -0.2598
  347TMC3    C4 5200   3.147   0.244  14.510  0.5410  0.2792 -0.0310
  347TMC3    C5 5201   3.209   0.339  14.592 -0.3842 -0.6546  0.0132
  347TMC3    C6 5202   3.342   0.367  14.578 -0.3754  0.2311 -0.2008
  347TMC3     C 5203   3.163   0.066  14.344 -0.5186 -0.2224  0.2636
  347TMC3     O 5204   3.047   0.037  14.362 -0.0691  0.3259  0.0195
  347TMC3     H 5205   3.422   0.116  14.358  3.3431  2.1830  1.1859
  347TMC3    H1 5206   3.043   0.217  14.528  0.4215  0.2313 -0.8301
  347TMC3    H2 5207   3.390   0.419  14.660  2.1404 -1.0179 -0.8460
  347TMC3    C7 5208   3.122   0.453  14.625 -0.5241  0.2195 -0.8002
  347TMC3    C8 5209   3.563   0.278  14.499 -0.3728  0.4969 -0.5727
  347TMC3    O1 5210   3.004   0.426  14.624 -0.3180  0.5155 -0.3952
  347TMC3    O2 5211   3.615   0.203  14.422  0.6246  0.2942 -0.1872
  348MPD2     C 5212   2.336   4.222  12.021 -0.0450  0.0163  0.2204
  348MPD2    C1 5213   2.290   4.130  11.928 -0.1165  0.1944 -0.0988
  348MPD2    C2 5214   2.266   4.184  11.801 -0.4124 -0.3552 -0.0962
  348MPD2    C3 5215   2.279   4.312  11.761  0.2416  0.5029 -0.6028
  348MPD2    C4 5216   2.322   4.403  11.857 -0.7003 -0.3497 -0.0805
  348MPD2    C5 5217   2.359   4.352  11.981 -0.5659  0.2838  0.0747
  348MPD2     H 5218   2.239   4.116  11.722  0.2749 -0.5411 -0.1685
  348MPD2    H1 5219   2.341   4.509  11.843  4.1974 -1.2169  0.0911
  348MPD2    H2 5220   2.373   4.195  12.119  2.3241 -1.3480 -1.0583
  348MPD2    H3 5221   2.413   4.421  12.044 -1.2313  1.8811 -1.0964
  348MPD2     N 5222   2.242   4.349  11.629  0.2324  0.0423  0.3448
  348MPD2    H5 5223   2.216   4.270  11.571 -1.7759  0.6191  0.4517
  348MPD2    N1 5224   2.275   3.994  11.949  0.2254  0.7238 -0.4562
  348MPD2    H7 5225   2.236   3.949  11.866 -0.5456  0.9966 -0.2400
  349TMC3    C1 5226   2.288   3.777  12.034 -0.2796  0.5479  0.2135
  349TMC3    C2 5227   2.359   3.698  12.109  0.3250 -0.0171  0.1301
  349TMC3    C3 5228   2.314   3.564  12.130 -0.2088 -0.9451 -0.3460
  349TMC3    C4 5229   2.172   3.736  11.969 -0.2979 -0.0049  0.1647
  349TMC3    C5 5230   2.128   3.611  11.991 -0.1674  0.1312  0.1220
  349TMC3    C6 5231   2.193   3.520  12.076 -0.6793 -0.3818  0.8022
  349TMC3     C 5232   2.302   3.918  12.056  0.4586  0.5405 -0.2188
  349TMC3     O 5233   2.346   3.957  12.165  0.7454  0.5714  0.4282
  349TMC3     H 5234   2.437   3.741  12.169  0.1315 -1.1064  1.1677
  349TMC3    H1 5235   2.101   3.807  11.928  0.0419  0.6237  0.6720
  349TMC3    H2 5236   2.159   3.420  12.097  0.8217 -1.3522 -1.4556
  349TMC3    C7 5237   1.985   3.592  11.970 -0.2060  0.6088  0.2508
  349TMC3    C8 5238   2.394   3.464  12.190  0.4862 -0.4484 -0.6350
  349TMC3    O1 5239   1.927   3.517  12.046  0.4442  0.0751  0.3456
  349TMC3    O2 5240   2.340   3.367  12.243  0.0957  0.5741  0.5467
  350MPD2     C 5241   1.684   2.497   9.636 -0.4267 -0.5415 -0.1500
  350MPD2    C1 5242   1.651   2.395   9.718 -0.2247 -0.6092 -0.6429
  350MPD2    C2 5243   1.656   2.427   9.849 -0.0143 -0.2991 -0.0290
  350MPD2    C3 5244   1.688   2.552   9.901  0.1058 -1.0883  0.0274
  350MPD2    C4 5245   1.708   2.656   9.810  0.7705 -0.5406 -0.5586
  350MPD2    C5 5246   1.708   2.625   9.682 -0.2413  0.3905  0.5292
  350MPD2     H 5247   1.624   2.351   9.919 -0.2824 -0.4899 -0.3590
  350MPD2    H1 5248   1.725   2.762   9.827 -0.2548 -0.4234 -0.2536
  350MPD2    H2 5249   1.692   2.485   9.528  1.9455  0.0178 -0.0429
  350MPD2    H3 5250   1.724   2.701   9.606 -2.9149  1.5218  1.0955
  350MPD2     N 5251   1.697   2.567  10.040  0.2155 -0.2731 -0.3511
  350MPD2    H5 5252   1.670   2.487  10.096 -0.3078 -0.9261 -1.5363
  350MPD2    N1 5253   1.612   2.268   9.682  0.3405  0.2635  0.2841
  350MPD2    H7 5254   1.585   2.202   9.754 -1.7803  1.9169  1.0279
  351TMC3    C1 5255   1.568   2.083   9.569 -0.5496  0.4382  0.0871
  351TMC3    C2 5256   1.655   2.000   9.494  0.9972  0.0040  0.1202
  351TMC3    C3 5257   1.617   1.868   9.485 -0.2839 -0.0263 -0.2234
  351TMC3    C4 5258   1.463   2.044   9.636  0.5585 -0.5153 -0.1478
  351TMC3    C5 5259   1.432   1.912   9.627 -0.8236 -0.3364  0.1022
  351TMC3    C6 5260   1.511   1.827   9.553  0.1000  0.2188 -0.6511
  351TMC3     C 5261   1.610   2.217   9.556 -0.5254 -0.0961  0.1927
  351TMC3     O 5262   1.652   2.258   9.451 -0.5081  0.6306 -0.4735
  351TMC3     H 5263   1.743   2.039   9.445  0.6571 -0.0231 -0.5187
  351TMC3    H1 5264   1.424   2.119   9.704  1.8602  2.4590 -2.6683
  351TMC3    H2 5265   1.477   1.725   9.538 -0.5450  0.1523  1.2948
  351TMC3    C7 5266   1.327   1.851   9.706 -0.5293 -0.1781  0.9843
  351TMC3    C8 5267   1.714   1.769   9.436  0.2769  0.6917 -0.0908
  351TMC3    O1 5268   1.339   1.733   9.730 -0.4938 -0.0718  0.5339
  351TMC3    O2 5269   1.674   1.659   9.394  0.1536 -0.1644 -0.9744
  352MPD2     C 5270   0.499   4.008   0.690  0.1323 -0.2943 -0.9845
  352MPD2    C1 5271   0.495   3.992   0.823  0.0414 -0.8239 -0.1583
  352MPD2    C2 5272   0.513   3.861   0.873 -0.0673 -0.4355 -0.2131
  352MPD2    C3 5273   0.553   3.753   0.793 -0.6776  0.6153 -0.2707
  352MPD2    C4 5274   0.557   3.781   0.660  0.3490 -0.0091  0.2612
  352MPD2    C5 5275   0.536   3.902   0.612  0.0962  0.3308 -0.9836
  352MPD2     H 5276   0.496   3.843   0.979  1.0990 -2.5090 -0.3779
  352MPD2    H1 5277   0.597   3.709   0.590  0.6918  0.7534 -0.3310
  352MPD2    H2 5278   0.495   4.104   0.639  1.4920  1.6843  2.6611
  352MPD2    H3 5279   0.546   3.907   0.504  1.6332 -0.6588 -0.8842
  352MPD2     N 5280   0.575   3.621   0.836 -0.0763  0.3768  0.2952
  352MPD2    H5 5281   0.612   3.560   0.764 -0.9850  1.1424 -0.8307
  352MPD2    N1 5282   0.456   4.101   0.910  0.4241 -0.1489  0.0706
  352MPD2    H7 5283   0.425   4.187   0.866 -2.9669 -0.4425  1.8725
  353TMC3    C1 5284   0.607   3.432   0.964 -0.6226  0.3510  0.5512
  353TMC3    C2 5285   0.642   3.360   1.073  0.7046  0.3777 -0.0688
  353TMC3    C3 5286   0.654   3.226   1.077  0.0622 -0.9282  0.5408
  353TMC3    C4 5287   0.559   3.367   0.852 -0.0072  0.1188 -0.3820
  353TMC3    C5 5288   0.567   3.230   0.860  0.6906  0.1912  1.7537
  353TMC3    C6 5289   0.615   3.155   0.969  0.2338 -0.2830 -0.5951
  353TMC3     C 5290   0.576   3.576   0.966  0.6839 -0.6920  0.8317
  353TMC3     O 5291   0.550   3.630   1.074 -0.4061  0.4381 -0.8293
  353TMC3     H 5292   0.655   3.426   1.159  1.4846 -0.9521  0.8377
  353TMC3    H1 5293   0.503   3.411   0.770  0.3254  0.1895 -0.5731
  353TMC3    H2 5294   0.609   3.047   0.971  1.0940 -0.3378 -0.7743
  353TMC3    C7 5295   0.476   3.155   0.779  0.4822  0.2374 -0.1440
  353TMC3    C8 5296   0.676   3.164   1.204  0.1313 -0.4264  0.1036
  353TMC3    O1 5297   0.439   3.040   0.811 -0.7296  0.4361 -0.0515
  353TMC3    O2 5298   0.720   3.236   1.293 -0.2582 -0.1125  0.8254
  354TMC3    C1 5299   0.933   0.736  12.982  0.2110 -0.7672  0.9260
  354TMC3    C2 5300   0.887   0.826  12.894  0.5909 -0.0541 -0.3710
  354TMC3    C3 5301   0.918   0.820  12.757 -0.0953  0.4328 -0.1889
  354TMC3    C4 5302   1.039   0.663  12.963  0.1399 -0.1360  0.7616
  354TMC3    C5 5303   1.086   0.665  12.830 -1.2080  0.4423  0.2867
  354TMC3    C6 5304   1.031   0.743  12.731 -0.4483  0.4714 -0.2087
  354TMC3     C 5305   0.884   0.719  13.112 -0.4710  0.1675  0.3251
  354TMC3     O 5306   0.883   0.604  13.151 -0.5915 -0.2706 -0.8777
  354TMC3     H 5307   0.831   0.916  12.916  0.2221 -0.0618 -1.2759
  354TMC3    H1 5308   1.075   0.595  13.039  1.2104  0.8752  1.1668
  354TMC3    H2 5309   1.077   0.733  12.633  0.0920 -2.3961  0.3325
  354TMC3    C7 5310   1.177   0.566  12.778 -0.8228  0.0025  0.0545
  354TMC3    C8 5311   0.894   0.933  12.670 -0.4415 -0.1130 -0.0242
  354TMC3    O1 5312   1.167   0.526  12.659 -0.0308 -0.0901  0.3345
  354TMC3    O2 5313   0.964   0.936  12.572  0.3247  0.1395 -0.2965
  355MPD2     C 5314   1.202   1.845  11.191 -0.1469  0.0219 -0.1240
  355MPD2    C1 5315   1.293   1.849  11.089  0.1533  0.1912 -0.1256
  355MPD2    C2 5316   1.393   1.760  11.088 -0.1027  0.0797 -0.4235
  355MPD2    C3 5317   1.417   1.665  11.191 -0.4292  0.8512  0.0033
  355MPD2    C4 5318   1.319   1.659  11.294  0.0234  0.4689  0.4170
  355MPD2    C5 5319   1.218   1.753  11.290  0.0041  0.1492 -0.2125
  355MPD2     H 5320   1.460   1.751  11.004 -0.4743  0.4659 -0.7616
  355MPD2    H1 5321   1.337   1.596  11.380 -0.1661 -1.0773 -0.6838
  355MPD2    H2 5322   1.107   1.897  11.181 -0.6155 -1.0486 -1.2125
  355MPD2    H3 5323   1.142   1.745  11.367 -1.0971 -0.6308 -1.3786
  355MPD2     N 5324   1.539   1.595  11.207  0.6171  0.0582 -0.3640
  355MPD2    H5 5325   1.554   1.547  11.296  1.9812 -0.1626 -0.7231
  355MPD2    N1 5326   1.276   1.951  10.993  0.2415 -0.1780  0.7540
  355MPD2    H7 5327   1.188   2.000  11.005 -0.5974 -1.8005  1.3332
  356TMC3    C1 5328   1.783   1.570  11.200 -0.1684  0.0594 -0.5931
  356TMC3    C2 5329   1.884   1.659  11.183  0.1890  0.2988 -0.0550
  356TMC3    C3 5330   1.996   1.651  11.267  0.0108  0.3045  0.7467
  356TMC3    C4 5331   1.790   1.476  11.302 -0.0963 -0.3939 -0.0195
  356TMC3    C5 5332   1.887   1.485  11.391 -0.0682  0.1861  0.0202
  356TMC3    C6 5333   1.994   1.565  11.369  0.3051  0.3215  0.0925
  356TMC3     C 5334   1.658   1.607  11.128 -0.8738  0.2442  0.2202
  356TMC3     O 5335   1.669   1.658  11.018  0.2896  0.2481 -0.0559
  356TMC3     H 5336   1.886   1.742  11.114  0.0323  0.2822 -0.0806
  356TMC3    H1 5337   1.710   1.405  11.316 -0.1344 -0.4282 -0.4346
  356TMC3    H2 5338   2.084   1.556  11.429  1.4750 -1.8233 -2.0028
  356TMC3    C7 5339   1.901   1.373  11.485 -0.0390  0.0006  0.6895
  356TMC3    C8 5340   2.122   1.705  11.214  0.2097  0.7489 -0.1872
  356TMC3    O1 5341   1.851   1.264  11.450  0.5646 -0.0935 -0.4871
  356TMC3    O2 5342   2.110   1.741  11.097 -0.1945 -0.6453 -0.3952
  357MPD2     C 5343   1.601   1.421   1.132 -0.1615 -0.1768  0.3892
  357MPD2    C1 5344   1.633   1.330   1.224 -0.6036 -0.1686 -0.4810
  357MPD2    C2 5345   1.565   1.326   1.347 -0.1275 -0.9344  0.4193
  357MPD2    C3 5346   1.456   1.407   1.372 -0.0612  0.0493 -0.3928
  357MPD2    C4 5347   1.419   1.488   1.265  0.4306  0.3096 -0.3507
  357MPD2    C5 5348   1.484   1.493   1.149  0.6076  0.2203 -0.3244
  357MPD2     H 5349   1.591   1.249   1.419  1.0995  0.2288  1.2185
  357MPD2    H1 5350   1.329   1.547   1.278 -0.4788 -1.8376  3.1789
  357MPD2    H2 5351   1.669   1.433   1.048  0.2612 -0.1271  0.7387
  357MPD2    H3 5352   1.458   1.569   1.076  2.2179  3.7430  2.7639
  357MPD2     N 5353   1.369   1.393   1.486  0.5669  0.1177 -0.1797
  357MPD2    H5 5354   1.283   1.445   1.496 -0.7113 -2.0383 -0.0415
  357MPD2    N1 5355   1.750   1.254   1.204  0.3593  0.8653 -0.3740
  357MPD2    H7 5356   1.795   1.250   1.113  0.6877 -0.9207 -0.1387
  358TMC3    C1 5357   1.878   1.066   1.236  0.3485  0.2656  0.4542
  358TMC3    C2 5358   1.820   1.005   1.128 -0.4667 -0.2843 -0.3952
  358TMC3    C3 5359   1.845   0.877   1.107 -0.3467  0.4553  0.4922
  358TMC3    C4 5360   1.973   1.005   1.319 -0.2012  1.1026  0.2859
  358TMC3    C5 5361   2.002   0.874   1.286  0.5842 -0.1188 -0.3327
  358TMC3    C6 5362   1.944   0.814   1.179 -0.0615  0.1285 -0.4517
  358TMC3     C 5363   1.814   1.181   1.298 -0.1533  0.0523  0.4189
  358TMC3     O 5364   1.814   1.192   1.422 -0.0634  0.7874 -0.1536
  358TMC3     H 5365   1.753   1.066   1.067  0.1151  1.8245  1.0580
  358TMC3    H1 5366   2.021   1.055   1.402 -1.7725  0.5452  1.5251
  358TMC3    H2 5367   1.986   0.720   1.144  1.2912  1.0456 -1.2977
  358TMC3    C7 5368   2.122   0.803   1.342 -0.6210  0.3765 -0.4653
  358TMC3    C8 5369   1.795   0.814   0.986 -0.4080  0.0993 -0.0053
  358TMC3    O1 5370   2.188   0.719   1.282 -0.4933  0.2415  0.4386
  358TMC3    O2 5371   1.772   0.892   0.895  0.3403 -0.5585  0.1754
  359MPD2     C 5372   1.510   4.256  12.016 -0.2962 -0.3543 -0.3710
  359MPD2    C1 5373   1.640   4.283  12.048 -0.5263  0.2854  0.5430
  359MPD2    C2 5374   1.696   4.233  12.161  0.2018 -0.2476  0.0288
  359MPD2    C3 5375   1.616   4.152  12.244 -0.5103  0.6701 -0.2418
  359MPD2    C4 5376   1.494   4.120  12.203 -0.4411  0.1412 -0.2060
  359MPD2    C5 5377   1.441   4.169  12.087  0.0849 -0.4526 -0.5404
  359MPD2     H 5378   1.796   4.263  12.189  0.6747 -0.8961 -0.9674
  359MPD2    H1 5379   1.435   4.049  12.260  1.4607 -2.1156 -1.0513
  359MPD2    H2 5380   1.462   4.297  11.928 -2.2246  0.3202  0.9736
  359MPD2    H3 5381   1.342   4.141  12.053 -0.8486  3.3139 -0.8956
  359MPD2     N 5382   1.660   4.102  12.368  0.2272  0.4042 -0.2522
  359MPD2    H5 5383   1.593   4.041  12.413  0.0748 -0.6251 -1.8678
  359MPD2    N1 5384   1.725   4.362  11.966  0.4734 -0.5908  0.4137
  359MPD2    H7 5385   1.824   4.361  11.990  0.6157  0.9191 -0.1291
  360TMC3    C1 5386   1.791   4.512  11.798 -0.4802  0.6020  0.4377
  360TMC3    C2 5387   1.895   4.545  11.880 -0.5039 -0.2506 -0.2611
  360TMC3    C3 5388   1.996   4.613  11.816  0.2971 -0.4974 -0.4593
  360TMC3    C4 5389   1.785   4.533  11.666  0.5271 -0.3937  0.0582
  360TMC3    C5 5390   1.889   4.600  11.614 -0.1206  0.2850 -0.2885
  360TMC3    C6 5391   1.989   4.653  11.690 -0.1235 -0.6582  0.2357
  360TMC3     C 5392   1.682   4.431  11.856 -0.7228 -0.6666 -0.4288
  360TMC3     O 5393   1.567   4.444  11.815 -0.1284 -0.3718  0.1579
  360TMC3     H 5394   1.882   4.545  11.987 -0.8759 -0.4924 -0.3065
  360TMC3    H1 5395   1.696   4.510  11.609  0.4717  0.4660 -0.2049
  360TMC3    H2 5396   2.055   0.015  11.657 -0.3790 -1.0405 -1.2143
  360TMC3    C7 5397   1.890   4.637  11.474 -0.1989  0.6034 -0.1609
  360TMC3    C8 5398   2.091   4.688  11.901 -0.3933 -0.3739 -0.1830
  360TMC3    O1 5399   1.948   0.018  11.437  0.2113 -0.0222 -0.0963
  360TMC3    O2 5400   2.059   4.706  12.018  0.2071  0.1015 -0.5951
  361MPD2     C 5401   3.512   4.040   0.240 -0.2828 -0.1015 -0.2092
  361MPD2    C1 5402   3.434   3.943   0.181 -0.3990 -0.5433 -0.5029
  361MPD2    C2 5403   3.492   3.834   0.115  0.0346 -0.1054 -0.1147
  361MPD2    C3 5404   3.628   3.835   0.112 -0.6588 -0.7446 -0.2333
  361MPD2    C4 5405   3.705   3.945   0.160 -0.7992  0.4697  0.4358
  361MPD2    C5 5406   3.651   4.041   0.234 -0.8485  0.3868 -0.1414
  361MPD2     H 5407   3.438   3.751   0.071 -1.8532  0.2064  1.6025
  361MPD2    H1 5408   3.813   3.937   0.168 -0.7655  0.7082  0.2130
  361MPD2    H2 5409   3.462   4.118   0.298 -0.5763 -0.4602  0.0187
  361MPD2    H3 5410   3.710   4.122   0.275 -0.4985  0.6850 -1.2381
  361MPD2     N 5411   3.705   3.719   0.081  0.2775  0.1077 -0.0850
  361MPD2    H5 5412   3.804   3.732   0.095  0.3010 -2.4486  2.3262
  361MPD2    N1 5413   3.295   3.969   0.178  0.4587 -0.1769 -0.3944
  361MPD2    H7 5414   3.258   4.051   0.225  1.0202  0.4175 -0.9802
  362TMC3    C1 5415   3.081   3.940   0.128 -0.7047 -0.7642 -0.5426
  362TMC3    C2 5416   3.055   4.013   0.238  0.2153 -1.1528 -0.3113
  362TMC3    C3 5417   2.946   4.091   0.252 -0.4547  0.0242 -0.7240
  362TMC3    C4 5418   2.996   3.951   0.024 -0.4764 -0.1408 -0.1733
  362TMC3    C5 5419   2.885   4.032   0.038 -0.2024  0.2512 -0.1777
  362TMC3    C6 5420   2.864   4.112   0.146  1.2670  1.0488  0.3315
  362TMC3     C 5421   3.210   3.898   0.104 -0.0291  0.1945  0.0275
  362TMC3     O 5422   3.225   3.813   0.016  0.2384 -0.6354 -0.6275
  362TMC3     H 5423   3.119   4.002   0.325 -0.2545 -4.5336 -0.3919
  362TMC3    H1 5424   3.016   3.881  17.618 -0.0714 -1.0635  0.7357
  362TMC3    H2 5425   2.778   4.178   0.150  0.0369 -0.5293 -0.1835
  362TMC3    C7 5426   2.787   4.068  17.612  0.1328  0.0614 -0.1055
  362TMC3    C8 5427   2.952   4.188   0.355  0.2602  0.1848 -0.1725
  362TMC3    O1 5428   2.713   4.165  17.619 -0.2467  0.3136  0.0762
  362TMC3    O2 5429   3.010   4.162   0.458 -0.0888 -0.0139  0.6620
  363TMC3    C1 5430   2.908   1.100   9.307 -0.6021 -0.0073 -0.0586
  363TMC3    C2 5431   2.959   0.992   9.372 -0.6983 -0.9953  0.5665
  363TMC3    C3 5432   3.051   1.015   9.479  0.2459  1.0689 -0.6947
  363TMC3    C4 5433   2.949   1.227   9.335  0.0408  0.3493  0.2797
  363TMC3    C5 5434   3.035   1.246   9.444  0.2055  0.0095  0.0702
  363TMC3    C6 5435   3.084   1.142   9.511  0.1469  0.6295 -0.8882
  363TMC3     C 5436   2.802   1.082   9.207 -0.4367  0.0589 -0.3229
  363TMC3     O 5437   2.763   1.186   9.155  0.4034 -0.4770  0.0187
  363TMC3     H 5438   2.926   0.893   9.346 -1.0299 -0.2367 -1.8308
  363TMC3    H1 5439   2.912   1.309   9.276  2.2245 -0.2284 -1.8624
  363TMC3    H2 5440   3.152   1.173   9.590 -2.6074 -1.6254  2.3835
  363TMC3    C7 5441   3.014   1.359   9.522 -0.1478 -0.5983  0.0038
  363TMC3    C8 5442   3.133   0.913   9.530 -0.3806  0.2690  0.0944
  363TMC3    O1 5443   2.996   1.345   9.645  0.3060  0.2390  0.0062
  363TMC3    O2 5444   3.225   0.947   9.603 -0.1857  0.1170 -0.4425
  364MPD2     C 5445   1.222   1.173   9.682 -0.1051 -0.2195 -0.0586
  364MPD2    C1 5446   1.364   1.173   9.686  0.2557  0.1406 -0.2614
  364MPD2    C2 5447   1.430   1.061   9.735  0.4909  0.7652 -0.5253
  364MPD2    C3 5448   1.361   0.941   9.767  0.3220 -0.3600  0.9388
  364MPD2    C4 5449   1.226   0.953   9.762 -0.7167  0.1238  0.3286
  364MPD2    C5 5450   1.155   1.067   9.730 -0.4976  0.0915  0.1000
  364MPD2     H 5451   1.538   1.057   9.726  0.3901 -0.2187 -1.2688
  364MPD2    H1 5452   1.162   0.868   9.781 -0.2037 -0.1295  0.9335
  364MPD2    H2 5453   1.159   1.255   9.647  0.4594 -0.2450 -1.1209
  364MPD2    H3 5454   1.047   1.064   9.720 -0.1237  2.1504 -4.1111
  364MPD2     N 5455   1.427   0.825   9.801 -0.1799 -0.1156 -0.6357
  364MPD2    H5 5456   1.369   0.754   9.845  1.3245 -1.1301 -0.2724
  364MPD2    N1 5457   1.439   1.288   9.646 -0.1442 -0.1900  0.0553
  364MPD2    H7 5458   1.385   1.372   9.622 -0.9400 -0.8460 -0.4561
  365TMC3    C1 5459   1.635   1.429   9.626  0.0066 -0.0367 -0.4299
  365TMC3    C2 5460   1.769   1.422   9.592 -0.7187  0.3183 -0.2960
  365TMC3    C3 5461   1.860   1.506   9.656 -0.5749 -0.1562  0.2388
  365TMC3    C4 5462   1.593   1.509   9.732 -0.5073  0.1606  1.2556
  365TMC3    C5 5463   1.689   1.586   9.798 -0.3871 -0.1805 -0.2635
  365TMC3    C6 5464   1.817   1.593   9.753 -0.5613  0.5452 -0.3259
  365TMC3     C 5465   1.575   1.295   9.643 -0.0995 -0.1253 -0.2747
  365TMC3     O 5466   1.666   1.217   9.661  0.8268 -0.2716 -0.4351
  365TMC3     H 5467   1.785   1.359   9.506 -1.0234  1.2140 -1.0001
  365TMC3    H1 5468   1.487   1.511   9.755 -0.8622  1.5353 -0.5714
  365TMC3    H2 5469   1.892   1.661   9.792  0.9282 -0.4419 -1.4259
  365TMC3    C7 5470   1.642   1.675   9.895 -0.3232  0.3513 -0.0327
  365TMC3    C8 5471   1.975   1.424   9.703 -0.9712  0.2884  0.2420
  365TMC3    O1 5472   1.686   1.790   9.902  0.6253  0.4567  0.0202
  365TMC3    O2 5473   2.050   1.482   9.781 -0.4460  1.0019 -0.2528
  366MPD2     C 5474   3.504   1.859  15.650  0.3392 -0.2731  0.4334
  366MPD2    C1 5475   3.618   1.933  15.646  0.3083 -0.0934 -0.7646
  366MPD2    C2 5476   3.739   1.881  15.680 -0.9253 -0.1545  0.0274
  366MPD2    C3 5477   3.759   1.742  15.683 -0.2403  0.1856  1.1116
  366MPD2    C4 5478   3.641   1.669  15.683 -0.6493  1.1928  0.2962
  366MPD2    C5 5479   3.518   1.723  15.672  0.1889 -0.0135 -1.4976
  366MPD2     H 5480   3.819   1.955  15.683 -2.2328  1.1872  1.2838
  366MPD2    H1 5481   3.636   1.561  15.694 -0.7091  1.1851  0.1944
  366MPD2    H2 5482   3.405   1.902  15.640 -0.6391 -2.6844 -0.2300
  366MPD2    H3 5483   3.430   1.660  15.673  1.7652 -2.2738 -3.5868
  366MPD2     N 5484   3.884   1.673  15.710 -0.1639  0.4578  0.0238
  366MPD2    H5 5485   3.872   1.573  15.725 -0.9853  0.5517  0.0191
  366MPD2    N1 5486   3.619   2.071  15.610  0.0981 -0.1402  0.3124
  366MPD2    H7 5487   3.711   2.109  15.591 -1.1947  2.8289  0.0072
  367TMC3    C1 5488   3.560   2.284  15.526  0.2503 -0.4350  0.1177
  367TMC3    C2 5489   3.689   2.332  15.554 -0.2172 -0.1190 -0.1990
  367TMC3    C3 5490   3.719   2.462  15.529  0.6969 -0.8085 -0.2385
  367TMC3    C4 5491   3.470   2.365  15.473  0.1258 -0.4408 -1.4266
  367TMC3    C5 5492   3.512   2.499  15.441 -0.2543 -0.5195  0.7147
  367TMC3    C6 5493   3.629   2.551  15.481  0.3364  0.1365 -0.4490
  367TMC3     C 5494   3.514   2.159  15.584 -0.0335  0.2246 -0.3590
  367TMC3     O 5495   3.396   2.139  15.604 -0.1154 -0.0123  0.1135
  367TMC3     H 5496   3.772   2.274  15.593  0.3748  0.2205 -0.9504
  367TMC3    H1 5497   3.376   2.321  15.440 -1.5128  1.1714  1.1224
  367TMC3    H2 5498   3.643   2.658  15.473  0.0778  0.1169 -1.2038
  367TMC3    C7 5499   3.437   2.586  15.355 -0.6084  0.2008  0.5326
  367TMC3    C8 5500   3.833   2.508  15.603 -0.1930  0.0035  0.5216
  367TMC3    O1 5501   3.477   2.699  15.345  0.4291 -0.1996 -0.6117
  367TMC3    O2 5502   3.937   2.447  15.594 -0.3533 -0.3745  0.4450
  368MPD2     C 5503   0.416   3.430  13.071 -0.0943  0.1834 -0.1352
  368MPD2    C1 5504   0.429   3.553  13.129 -0.1415 -0.5842  0.3974
  368MPD2    C2 5505   0.562   3.580  13.168  0.2789  0.2836  0.6901
  368MPD2    C3 5506   0.665   3.498  13.140  0.3409 -0.0024  0.0958
  368MPD2    C4 5507   0.641   3.377  13.086  0.7865  0.3211  0.2722
  368MPD2    C5 5508   0.514   3.337  13.061  0.2140  0.1585 -0.0046
  368MPD2     H 5509   0.580   3.677  13.212 -1.5201  1.8224 -1.9667
  368MPD2    H1 5510   0.720   3.306  13.069 -1.7058 -1.4255 -3.9911
  368MPD2    H2 5511   0.317   3.401  13.036  0.2532 -0.4742 -0.5922
  368MPD2    H3 5512   0.496   3.233  13.037 -0.9939  0.7911 -1.8469
  368MPD2     N 5513   0.796   3.539  13.162  0.7272  0.1515 -0.1387
  368MPD2    H5 5514   0.866   3.479  13.119  0.2926  0.1200 -0.7985
  368MPD2    N1 5515   0.315   3.637  13.140 -0.0509 -0.0405 -0.5929
  368MPD2    H7 5516   0.228   3.613  13.095 -0.0482 -2.6178  0.7340
  369TMC3    C1 5517   0.200   3.837  13.124  0.2346 -0.5915  0.8072
  369TMC3    C2 5518   0.214   3.972  13.077 -0.4285  0.2829  0.6824
  369TMC3    C3 5519   0.104   4.031  13.018 -0.7592  0.4213 -0.2344
  369TMC3    C4 5520   0.084   3.767  13.097  0.4898 -0.8853  0.2860
  369TMC3    C5 5521   4.694   3.830  13.039  0.6447 -0.0979 -0.2673
  369TMC3    C6 5522   4.698   3.964  13.004 -0.3972  0.9958 -0.1399
  369TMC3     C 5523   0.319   3.771  13.171 -1.2766  0.4080 -0.0825
  369TMC3     O 5524   0.411   3.842  13.210  0.1207 -0.2897 -0.0136
  369TMC3     H 5525   0.307   4.025  13.089 -1.5856  1.9346  2.1924
  369TMC3    H1 5526   0.061   3.667  13.134  0.8983 -0.4018  1.8477
  369TMC3    H2 5527   4.622   4.008  12.941 -0.1793  0.9849 -0.4090
  369TMC3    C7 5528   4.574   3.809  13.117  0.2946  0.2147 -0.4795
  369TMC3    C8 5529   0.108   4.163  12.952  0.9241  0.2454 -0.3310
  369TMC3    O1 5530   4.582   3.796  13.234 -0.2135  0.5901 -0.6734
  369TMC3    O2 5531   0.005   4.211  12.900 -0.0814  0.6112 -0.0885
  370TMC3    C1 5532   4.329   0.083  16.272 -0.0583 -0.3231  0.5002
  370TMC3    C2 5533   4.297   0.017  16.387  0.2023 -0.2693  0.6314
  370TMC3    C3 5534   4.291   4.595  16.386  0.9789 -0.5491  0.0767
  370TMC3    C4 5535   4.361   0.008  16.157 -0.2305 -0.0060 -0.3356
  370TMC3    C5 5536   4.363   4.589  16.161 -0.1134 -0.5957 -0.7426
  370TMC3    C6 5537   4.324   4.522  16.274  1.0149  0.3191  0.3317
  370TMC3     C 5538   4.279   0.220  16.253  0.6100 -0.1796  0.3466
  370TMC3     O 5539   4.157   0.225  16.246  0.6506  0.1198  0.3977
  370TMC3     H 5540   4.262   0.083  16.466  1.2385  0.5956  0.3526
  370TMC3    H1 5541   4.380   0.057  16.062  0.5347 -0.6851 -0.5433
  370TMC3    H2 5542   4.347   4.416  16.287  0.0152  0.4694  3.1565
  370TMC3    C7 5543   4.384   4.517  16.036  0.4938 -0.2766 -0.3938
  370TMC3    C8 5544   4.274   4.525  16.508  0.3428  0.6257  0.1747
  370TMC3    O1 5545   4.372   4.584  15.936  0.3626 -0.2652  0.1078
  370TMC3    O2 5546   4.271   4.401  16.505 -0.2021 -0.0356 -0.0600
  371TMC3    C1 5547   0.870   2.795  15.584 -0.6050  0.3931 -0.4313
  371TMC3    C2 5548   0.747   2.813  15.641 -0.2099  0.1873 -0.4075
  371TMC3    C3 5549   0.683   2.931  15.619 -0.6775 -0.3902  0.3104
  371TMC3    C4 5550   0.939   2.898  15.524  0.2365  0.1059 -0.1192
  371TMC3    C5 5551   0.880   3.023  15.518 -0.4705  0.1548 -0.4896
  371TMC3    C6 5552   0.750   3.037  15.551  0.1446 -0.7309 -0.5446
  371TMC3     C 5553   0.953   2.686  15.622 -0.4493 -0.2228 -0.1100
  371TMC3     O 5554   1.075   2.715  15.633 -0.0960  0.0969  0.3165
  371TMC3     H 5555   0.703   2.746  15.715 -1.0733  1.6020  0.3625
  371TMC3    H1 5556   1.036   2.876  15.480  0.0267 -1.0548  0.0006
  371TMC3    H2 5557   0.698   3.130  15.535  3.2811  1.2657  0.8799
  371TMC3    C7 5558   0.938   3.132  15.426 -0.0927  0.7090  0.6088
  371TMC3    C8 5559   0.551   2.950  15.685  0.3986  0.7026  0.2684
  371TMC3    O1 5560   0.853   3.215  15.388  0.3249 -0.0908 -0.1037
  371TMC3    O2 5561   0.488   2.849  15.718 -0.3086  0.1376 -0.0283
  372MPD2     C 5562   0.037   4.342  13.263  0.0025 -0.0042 -0.2917
  372MPD2    C1 5563   0.149   4.274  13.315  0.1389  0.2121  0.8890
  372MPD2    C2 5564   0.122   4.157  13.386  0.3903 -0.3473 -0.8295
  372MPD2    C3 5565   4.712   4.110  13.412  0.2387 -0.2939 -0.0825
  372MPD2    C4 5566   4.607   4.177  13.352  0.1296 -0.8827  0.1661
  372MPD2    C5 5567   4.630   4.290  13.277 -0.1628  0.3916  0.0790
  372MPD2     H 5568   0.200   4.097  13.433 -0.1126 -0.3049  0.0588
  372MPD2    H1 5569   4.500   4.157  13.355 -0.0487  0.0042 -0.5583
  372MPD2    H2 5570   0.052   4.432  13.204 -0.6367 -0.4145 -1.0800
  372MPD2    H3 5571   4.543   4.338  13.233 -0.7056  0.0283  0.7626
  372MPD2     N 5572   4.695   3.997  13.494  0.0807 -0.3095 -0.0818
  372MPD2    H5 5573   0.058   3.939  13.515 -0.6827 -1.1081  0.6446
  372MPD2    N1 5574   0.287   4.310  13.296 -0.4512 -0.1984 -0.3932
  372MPD2    H7 5575   0.357   4.255  13.343 -0.1570  1.0182  0.5777
  373TMC3    C1 5576   4.584   3.854  13.658  0.4883 -0.4071  0.0794
  373TMC3    C2 5577   4.512   3.871  13.770 -0.1988  0.4269 -0.1578
  373TMC3    C3 5578   4.481   3.763  13.841 -0.1916  0.1048 -0.0832
  373TMC3    C4 5579   4.620   3.733  13.607  0.4083  0.3791 -0.6093
  373TMC3    C5 5580   4.596   3.622  13.683 -0.1069 -0.3188  0.3199
  373TMC3    C6 5581   4.533   3.635  13.807  0.7326  0.5153  0.0295
  373TMC3     C 5582   4.580   3.965  13.565 -1.2095  0.4394  0.1448
  373TMC3     O 5583   4.474   4.025  13.550  0.4133 -0.0349  0.1093
  373TMC3     H 5584   4.486   3.971  13.801  0.7657  0.7384 -0.3452
  373TMC3    H1 5585   4.682   3.732  13.518  1.5979 -2.3225  0.2380
  373TMC3    H2 5586   4.540   3.557  13.882  2.1574 -0.7077 -1.3596
  373TMC3    C7 5587   4.710   3.533  13.701 -0.7923 -0.1398  0.5172
  373TMC3    C8 5588   4.489   3.779  13.986  0.3524 -0.0164  0.6982
  373TMC3    O1 5589   0.065   3.589  13.778  0.5490  0.3566 -0.5596
  373TMC3    O2 5590   4.401   3.724  14.048  0.2320  0.3701 -0.1233
  374TMC3    C1 5591   1.094   3.562   9.868 -0.6571 -0.7716 -0.4301
  374TMC3    C2 5592   1.215   3.629   9.862  0.0461  1.0302 -0.1385
  374TMC3    C3 5593   1.271   3.656   9.740 -0.8591  0.4211  0.1331
  374TMC3    C4 5594   1.019   3.541   9.755  0.9553  0.9020 -0.0638
  374TMC3    C5 5595   1.078   3.578   9.632 -0.9563 -0.2301 -0.0776
  374TMC3    C6 5596   1.194   3.643   9.626  0.1174  0.0574  0.3287
  374TMC3     C 5597   1.055   3.489   9.987  0.1806 -0.1422 -0.4378
  374TMC3     O 5598   1.140   3.465  10.070  0.1222  0.3776  0.5908
  374TMC3     H 5599   1.267   3.650   9.955  2.1362  2.8229 -1.6888
  374TMC3    H1 5600   0.929   3.481   9.765  0.8933  0.9545 -0.3123
  374TMC3    H2 5601   1.232   3.680   9.532  1.4076  1.1479  1.2850
  374TMC3    C7 5602   1.005   3.586   9.511 -0.2750  0.3647  0.5173
  374TMC3    C8 5603   1.391   3.738   9.727  0.9843 -0.7350  0.2400
  374TMC3    O1 5604   1.055   3.597   9.402  0.1078 -1.0856  0.1212
  374TMC3    O2 5605   1.408   3.778   9.612  0.0076 -0.3757  0.3004
  375MPD2     C 5606   1.267   4.550  17.347 -0.1227  0.0011 -0.6476
  375MPD2    C1 5607   1.201   4.665  17.332 -0.5365  0.0784 -0.0985
  375MPD2    C2 5608   1.266   0.063  17.312 -0.2018 -1.1557 -0.2689
  375MPD2    C3 5609   1.409   0.068  17.307 -0.4078  0.5275 -0.5508
  375MPD2    C4 5610   1.477   4.672  17.339  0.4102  0.0475 -0.0587
  375MPD2    C5 5611   1.405   4.559  17.358 -0.3437 -0.4754 -0.0379
  375MPD2     H 5612   1.211   0.151  17.281  1.0123  0.2332  1.5038
  375MPD2    H1 5613   1.584   4.676  17.356  0.7755 -4.8614 -1.1606
  375MPD2    H2 5614   1.227   4.450  17.363 -0.7406  0.5841  1.4947
  375MPD2    H3 5615   1.462   4.469  17.379  2.0884  0.8368 -0.9932
  375MPD2     N 5616   1.483   0.185  17.283 -0.2833 -0.5846  0.1432
  375MPD2    H5 5617   1.574   0.169  17.242 -1.0568  0.5741 -2.0411
  375MPD2    N1 5618   1.062   4.663  17.308 -0.5448 -0.4012 -0.0151
  375MPD2    H7 5619   1.021   0.032  17.277  0.1461  0.2654  0.9230
  376TMC3    C1 5620   1.512   0.398  17.196  0.0417 -0.2809 -0.1713
  376TMC3    C2 5621   1.649   0.387  17.190 -0.2436 -0.0463 -0.4873
  376TMC3    C3 5622   1.708   0.473  17.099 -0.0734  0.1117 -0.0027
  376TMC3    C4 5623   1.440   0.485  17.117  1.0357 -0.4654 -0.5431
  376TMC3    C5 5624   1.505   0.570  17.027 -0.3305 -0.3887  0.2322
  376TMC3    C6 5625   1.639   0.561  17.020  0.1781  0.6474 -0.1993
  376TMC3     C 5626   1.440   0.314  17.285  0.3593  0.0490 -0.3989
  376TMC3     O 5627   1.334   0.350  17.334 -0.5314 -0.2648 -0.1219
  376TMC3     H 5628   1.697   0.317  17.257  0.3163 -0.8107 -1.6980
  376TMC3    H1 5629   1.333   0.483  17.128  0.9889  2.0366 -0.5044
  376TMC3    H2 5630   1.686   0.642  16.966 -1.2713  0.7714 -1.2689
  376TMC3    C7 5631   1.425   0.633  16.918 -0.2214  1.0988 -0.0506
  376TMC3    C8 5632   1.851   0.468  17.075  0.0556  0.2800  0.1222
  376TMC3    O1 5633   1.468   0.688  16.816  0.0354  0.5305 -0.6890
  376TMC3    O2 5634   1.909   0.572  17.054 -0.0145  0.7029 -0.5549
  377MPD2     C 5635   4.417   4.212  12.936 -0.0673  0.0286  0.4525
  377MPD2    C1 5636   4.410   4.239  12.799  0.1406 -0.3399 -0.3567
  377MPD2    C2 5637   4.288   4.237  12.736 -0.0446  0.0365  0.7372
  377MPD2    C3 5638   4.172   4.202  12.808  0.0732  0.5081  0.2094
  377MPD2    C4 5639   4.179   4.182  12.945 -0.2579 -0.3923  0.3095
  377MPD2    C5 5640   4.304   4.193  13.005  0.0473  0.3757  0.0201
  377MPD2     H 5641   4.276   4.247  12.629 -2.9011  1.8802  1.2380
  377MPD2    H1 5642   4.091   4.167  13.007 -1.4011 -0.0090 -1.2182
  377MPD2    H2 5643   4.510   4.211  12.991  0.7229 -0.3925 -0.8938
  377MPD2    H3 5644   4.303   4.171  13.111 -3.9211 -1.0421 -0.2806
  377MPD2     N 5645   4.041   4.176  12.756  0.7447 -0.0046  0.0396
  377MPD2    H5 5646   3.978   4.133  12.823 -2.3285  0.4537 -2.5555
  377MPD2    N1 5647   4.533   4.245  12.724 -0.1772  0.6190 -0.3807
  377MPD2    H7 5648   4.623   4.230  12.771 -1.4819  1.6867  2.5019
  378TMC3    C1 5649   0.101   4.364  12.360  0.1142  0.5455 -0.0927
  378TMC3    C2 5650   4.693   4.355  12.408  0.4033 -0.4630  0.4076
  378TMC3    C3 5651   4.673   4.276  12.525 -0.1804 -0.3828 -0.3162
  378TMC3    C4 5652   0.210   4.305  12.415  0.6491 -0.3692 -0.1892
  378TMC3    C5 5653   0.191   4.235  12.530 -0.2334 -0.2953  0.1923
  378TMC3    C6 5654   0.070   4.214  12.587  0.1514 -0.4716  0.2678
  378TMC3     C 5655   0.113   4.394  12.219 -0.1259  0.3136 -0.9217
  378TMC3     O 5656   0.012   4.400  12.149 -0.2913  0.6457 -0.0787
  378TMC3     H 5657   4.609   4.395  12.354  0.1584 -2.8578 -1.0024
  378TMC3    H1 5658   0.311   4.330  12.385  1.0605 -0.0042  1.4723
  378TMC3    H2 5659   0.056   4.152  12.675 -0.4680  1.6932  1.7061
  378TMC3    C7 5660   0.286   4.121  12.548  0.3776  1.0323 -0.4407
  378TMC3    C8 5661   4.537   4.271  12.585  0.0570 -0.4568  0.4591
  378TMC3    O1 5662   0.280   4.060  12.652 -0.2468  0.3918  0.0132
  378TMC3    O2 5663   4.455   4.329  12.515  0.3521  0.2359  0.1136
  379MPD2     C 5664   4.463   2.167  16.592 -0.1643  0.1870 -0.2374
  379MPD2    C1 5665   4.569   2.228  16.525 -0.3533  0.1097 -0.2507
  379MPD2    C2 5666   4.696   2.223  16.586 -0.5084  0.1922 -0.5917
  379MPD2    C3 5667   4.706   2.169  16.715 -0.5045 -0.1621 -0.3740
  379MPD2    C4 5668   4.594   2.119  16.783 -0.3405  0.1724 -0.3473
  379MPD2    C5 5669   4.473   2.118  16.716  0.1986 -0.5061  0.5886
  379MPD2     H 5670   0.067   2.272  16.546 -0.5879  0.4426 -0.4649
  379MPD2    H1 5671   4.602   2.071  16.880 -0.9965 -1.2979 -1.0186
  379MPD2    H2 5672   4.367   2.166  16.543  0.9141 -0.1427 -2.3249
  379MPD2    H3 5673   4.383   2.076  16.759 -0.1178 -0.2556  0.1688
  379MPD2     N 5674   0.113   2.149  16.775  0.0476  0.0241  0.2886
  379MPD2    H5 5675   0.115   2.094  16.860  1.2387  1.6681  1.3249
  379MPD2    N1 5676   4.539   2.283  16.392  0.5076  0.0531 -0.1456
  379MPD2    H7 5677   4.443   2.309  16.373 -0.0105 -0.9012  1.1085
  380TMC3    C1 5678   4.567   2.393  16.186 -0.7692  0.1202  0.7545
  380TMC3    C2 5679   4.623   2.361  16.066  0.3695 -0.2233 -0.0889
  380TMC3    C3 5680   4.531   2.357  15.961 -0.3281  0.9203 -0.2933
  380TMC3    C4 5681   4.437   2.432  16.200  0.0195  0.3683 -0.3529
  380TMC3    C5 5682   4.357   2.444  16.086  0.1483  0.6933  0.4796
  380TMC3    C6 5683   4.398   2.389  15.968  0.0364 -0.3628  0.1517
  380TMC3     C 5684   4.636   2.328  16.299  0.4170  0.5951  0.5429
  380TMC3     O 5685   0.039   2.297  16.285  0.4959  0.0360 -0.1071
  380TMC3     H 5686   0.011   2.340  16.055  0.3061 -0.4509 -0.2716
  380TMC3    H1 5687   4.385   2.452  16.293 -0.0573 -2.7055  0.2569
  380TMC3    H2 5688   4.328   2.376  15.886  0.0397  0.0729  0.0817
  380TMC3    C7 5689   4.264   2.551  16.086 -0.6299 -0.4928  0.1799
  380TMC3    C8 5690   4.586   2.381  15.836  0.1455  0.2918 -0.2374
  380TMC3    O1 5691   4.280   2.649  16.154  0.3270  0.0844  0.2890
  380TMC3    O2 5692   4.509   2.449  15.767  0.0134  0.2139  0.0787
  381TMC3    C1 5693   4.346   3.808  16.363 -0.0134  0.2699 -0.0910
  381TMC3    C2 5694   4.405   3.928  16.344 -0.1540  0.1990  0.5524
  381TMC3    C3 5695   4.402   4.031  16.435 -0.8382  0.5340 -0.4383
  381TMC3    C4 5696   4.292   3.779  16.484 -0.4246 -1.1741 -0.1458
  381TMC3    C5 5697   4.306   3.873  16.581  0.4765 -0.0767 -0.0292
  381TMC3    C6 5698   4.350   4.004  16.565 -0.9265 -0.7178 -0.3228
  381TMC3     C 5699   4.343   3.717  16.251  0.5919  0.4372 -0.0930
  381TMC3     O 5700   4.341   3.595  16.271  0.5549 -0.0276 -0.4100
  381TMC3     H 5701   4.449   3.956  16.248 -1.1062  1.0625  0.3648
  381TMC3    H1 5702   4.247   3.682  16.502 -0.3856 -0.9807  0.9436
  381TMC3    H2 5703   4.352   4.081  16.641 -0.4314  0.1840 -1.2570
  381TMC3    C7 5704   4.222   3.836  16.693  0.5461  0.2857  0.2405
  381TMC3    C8 5705   4.461   4.161  16.392  0.5236  0.9436  0.1384
  381TMC3    O1 5706   4.225   3.717  16.720  0.1881 -0.1466  0.4889
  381TMC3    O2 5707   4.456   4.187  16.273  0.0016  0.7168  0.3386
  382MPD2     C 5708   3.813   1.580  17.119 -0.2517  0.1233  0.0976
  382MPD2    C1 5709   3.835   1.577  17.253 -0.9475 -0.0233  0.2641
  382MPD2    C2 5710   3.858   1.460  17.309  0.0776  0.5669 -0.5220
  382MPD2    C3 5711   3.849   1.337  17.244 -0.2889 -0.1006 -0.2162
  382MPD2    C4 5712   3.818   1.339  17.113 -0.8416  0.4677 -0.9982
  382MPD2    C5 5713   3.798   1.461  17.054 -0.0220  0.4669  0.1980
  382MPD2     H 5714   3.885   1.455  17.414  1.6644  1.2139 -0.8974
  382MPD2    H1 5715   3.822   1.250  17.051 -2.0607 -0.7953  0.7036
  382MPD2    H2 5716   3.792   1.670  17.064  0.2311  1.8492  2.7612
  382MPD2    H3 5717   3.769   1.462  16.949 -0.1449 -0.8331  0.2195
  382MPD2     N 5718   3.877   1.213  17.296  0.2906 -0.5483 -0.4825
  382MPD2    H5 5719   3.862   1.141  17.226 -0.3951 -0.7802 -0.1029
  382MPD2    N1 5720   3.855   1.691  17.331 -0.2828 -0.2860  0.8437
  382MPD2    H7 5721   3.882   1.682  17.428 -0.1642 -1.6306  0.6838
  383TMC3    C1 5722   3.902   1.052  17.464  0.1291  0.4348  0.3545
  383TMC3    C2 5723   3.782   1.000  17.439  0.4518 -0.3157  0.0357
  383TMC3    C3 5724   3.754   0.874  17.473  0.1921  0.6304 -0.1202
  383TMC3    C4 5725   3.989   0.985  17.536  0.4070  0.1583 -0.8463
  383TMC3    C5 5726   3.955   0.864  17.581  0.9485  0.5414 -0.4548
  383TMC3    C6 5727   3.840   0.799  17.541 -0.1004 -0.0190 -0.7986
  383TMC3     C 5728   3.930   1.184  17.418  0.4784 -0.0151 -0.2329
  383TMC3     O 5729   3.984   1.256  17.503  0.1661 -0.3215 -0.2903
  383TMC3     H 5730   3.714   1.061  17.381  0.9242 -1.1994 -1.4523
  383TMC3    H1 5731   4.086   1.026  17.559  0.6458 -1.6876  1.4774
  383TMC3    H2 5732   3.811   0.696  17.555 -0.0407  0.3240  1.7455
  383TMC3    C7 5733   4.056   0.780  17.643  0.2202  0.2053 -0.5696
  383TMC3    C8 5734   3.613   0.850  17.487  0.6107  0.6507  0.0303
  383TMC3    O1 5735   4.172   0.802  17.609  0.6785 -0.6460  0.0548
  383TMC3    O2 5736   3.570   0.739  17.464  0.3901 -0.1227  0.3482
  384MPD2     C 5737   0.618   2.235  11.715 -0.2619  0.2436  0.0923
  384MPD2    C1 5738   0.608   2.119  11.786  0.4618 -0.1418 -0.2857
  384MPD2    C2 5739   0.662   2.006  11.746 -0.2653  0.5136 -0.0563
  384MPD2    C3 5740   0.737   1.996  11.634 -0.4393  0.2654  0.1143
  384MPD2    C4 5741   0.758   2.118  11.563 -0.5587  0.0301 -0.6404
  384MPD2    C5 5742   0.698   2.233  11.604 -0.0277 -0.3128  0.4564
  384MPD2     H 5743   0.642   1.918  11.806  0.4057  1.0661  0.9740
  384MPD2    H1 5744   0.830   2.116  11.482 -0.5593  1.7571 -0.6878
  384MPD2    H2 5745   0.587   2.328  11.760 -1.0268 -0.3245  0.7478
  384MPD2    H3 5746   0.718   2.329  11.557 -3.6788  0.8456  1.2678
  384MPD2     N 5747   0.788   1.871  11.598  0.0191 -0.1192  0.2988
  384MPD2    H5 5748   0.757   1.792  11.654  0.2765 -1.3931 -1.3573
  384MPD2    N1 5749   0.514   2.106  11.890  0.1726  0.2809  0.1246
  384MPD2    H7 5750   0.509   2.014  11.931 -0.4253 -0.2026 -1.0404
  385TMC3    C1 5751   0.860   1.698  11.490 -0.4601  0.0930  0.2469
  385TMC3    C2 5752   0.803   1.640  11.374 -0.2926  0.9483  0.4574
  385TMC3    C3 5753   0.706   1.543  11.405  0.4373  0.8831  0.4447
  385TMC3    C4 5754   0.860   1.637  11.611  0.1329 -0.5418 -0.8436
  385TMC3    C5 5755   0.772   1.533  11.641 -0.1517  0.0710 -0.4367
  385TMC3    C6 5756   0.691   1.493  11.536  0.2390  0.5053  0.0803
  385TMC3     C 5757   0.871   1.840  11.492 -0.2279  0.1110 -0.1322
  385TMC3     O 5758   0.897   1.899  11.390 -0.0504  0.1473 -0.1685
  385TMC3     H 5759   0.820   1.689  11.280  1.2502 -2.9860 -1.3157
  385TMC3    H1 5760   0.902   1.689  11.696 -0.2609  0.8681 -1.4962
  385TMC3    H2 5761   0.618   1.416  11.560  0.4453  1.0621  2.4558
  385TMC3    C7 5762   0.696   1.559  11.758 -0.1999 -0.4246 -0.5779
  385TMC3    C8 5763   0.647   1.470  11.298  0.7962  0.0554 -0.0647
  385TMC3    O1 5764   0.687   1.677  11.783 -0.4894  0.2212  0.4761
  385TMC3    O2 5765   0.536   1.430  11.329 -0.0180  0.0287  0.3915
  386TMC3    C1 5766   0.744   0.045  11.617  0.8353 -0.2049  0.5165
  386TMC3    C2 5767   0.704   4.683  11.520  0.9030  0.4436 -0.1811
  386TMC3    C3 5768   0.570   4.678  11.483  0.3789  0.4602 -0.0961
  386TMC3    C4 5769   0.653   0.100  11.703  0.1683 -0.4417  0.1057
  386TMC3    C5 5770   0.518   0.085  11.676 -0.6639 -0.3379  0.0604
  386TMC3    C6 5771   0.479   0.013  11.565 -0.8684 -0.7096  0.1813
  386TMC3     C 5772   0.878   0.079  11.640  0.0554  0.6545 -0.1724
  386TMC3     O 5773   0.898   0.191  11.688 -0.0690 -0.2079 -0.3962
  386TMC3     H 5774   0.768   4.627  11.453  0.2611 -1.0940  0.4963
  386TMC3    H1 5775   0.675   0.155  11.794  1.0947  0.6700 -0.7936
  386TMC3    H2 5776   0.375   4.714  11.542 -0.9375  1.0829 -0.7769
  386TMC3    C7 5777   0.416   0.107  11.774  0.6160  0.6114  0.0298
  386TMC3    C8 5778   0.530   4.623  11.352  0.0524  0.0174  0.0804
  386TMC3    O1 5779   0.449   0.123  11.891 -0.2558 -0.5734  0.0712
  386TMC3    O2 5780   0.420   4.567  11.349 -0.1195  0.3862 -0.2321
  387MPD2     C 5781   3.723   4.589   9.307 -0.5116  0.5362 -0.0856
  387MPD2    C1 5782   3.733   4.604   9.449  0.3798  0.3562  0.6598
  387MPD2    C2 5783   3.692   4.503   9.531 -0.3517 -1.3749  0.2310
  387MPD2    C3 5784   3.646   4.385   9.487 -0.1861 -0.0094  0.0039
  387MPD2    C4 5785   3.642   4.363   9.348  0.4715 -0.3488  0.3886
  387MPD2    C5 5786   3.683   4.466   9.262 -0.4762  0.3531 -0.5052
  387MPD2     H 5787   3.699   4.533   9.636 -2.1713  0.7244 -0.2608
  387MPD2    H1 5788   3.603   4.275   9.298  0.1903 -1.4018  2.4865
  387MPD2    H2 5789   3.753   4.666   9.237 -2.0797  1.7970  0.6324
  387MPD2    H3 5790   3.670   4.462   9.155 -3.8712  2.2634 -0.1635
  387MPD2     N 5791   3.625   4.286   9.588  0.4164  0.3481  0.1295
  387MPD2    H5 5792   3.634   4.314   9.685 -0.1553 -0.9138  0.5507
  387MPD2    N1 5793   3.804   4.705   9.512  0.2728 -0.1388  0.4768
  387MPD2    H7 5794   3.839   4.688   9.606  0.7741 -2.6580 -0.1554
  388TMC3    C1 5795   3.983   0.116   9.537  0.8461  0.4474 -0.0628
  388TMC3    C2 5796   4.049   0.232   9.515  0.2915 -0.4062 -0.2527
  388TMC3    C3 5797   4.144   0.266   9.603  0.7152  0.3756  0.7834
  388TMC3    C4 5798   4.014   0.033   9.643 -0.0131 -0.4190  0.3482
  388TMC3    C5 5799   4.126   0.067   9.716 -0.1559 -0.8225 -0.4369
  388TMC3    C6 5800   4.185   0.185   9.705  0.0384 -0.3227 -0.2707
  388TMC3     C 5801   3.866   0.091   9.448 -0.5009  0.5068  0.7023
  388TMC3     O 5802   3.879   0.120   9.332  0.1321  0.3858 -0.5811
  388TMC3     H 5803   4.018   0.293   9.431 -2.6169 -0.1709  0.9739
  388TMC3    H1 5804   3.979   4.649   9.642  1.4671 -0.9346  0.3151
  388TMC3    H2 5805   4.273   0.216   9.760 -1.0201  3.0278 -0.4470
  388TMC3    C7 5806   4.178   4.693   9.810 -0.0826 -0.0271 -0.6716
  388TMC3    C8 5807   4.204   0.396   9.581  0.3624  0.2243 -0.1100
  388TMC3    O1 5808   4.202   0.028   9.918  0.6045 -0.0505  0.2856
  388TMC3    O2 5809   4.315   0.409   9.629  0.0030  0.4118 -0.4449
  389MPD2     C 5810   2.824   2.812  11.328  0.0270  0.2264 -0.0488
  389MPD2    C1 5811   2.767   2.712  11.254  0.1265  0.0638 -0.5485
  389MPD2    C2 5812   2.744   2.588  11.315  0.2315 -0.6743  0.4569
  389MPD2    C3 5813   2.767   2.573  11.452  0.5923 -0.4127  0.0502
  389MPD2    C4 5814   2.842   2.671  11.515 -0.0214  0.0977 -0.1058
  389MPD2    C5 5815   2.861   2.795  11.459 -0.3743  0.2438 -0.1964
  389MPD2     H 5816   2.689   2.514  11.258  0.9074 -0.6932 -0.1611
  389MPD2    H1 5817   2.875   2.664  11.618 -0.4924  0.6118  0.0810
  389MPD2    H2 5818   2.835   2.910  11.284 -3.1708  0.9148  0.7352
  389MPD2    H3 5819   2.884   2.881  11.520 -2.4337  0.4454  0.2821
  389MPD2     N 5820   2.729   2.455  11.520  0.7826  0.1581  0.3805
  389MPD2    H5 5821   2.733   2.460  11.622  1.0382 -0.6293  0.4103
  389MPD2    N1 5822   2.736   2.741  11.121 -0.1350 -0.0093 -0.6020
  389MPD2    H7 5823   2.779   2.823  11.080 -2.2741  1.4768  0.1171
  390TMC3    C1 5824   2.591   2.270  11.552  0.4123 -0.7695 -0.2200
  390TMC3    C2 5825   2.494   2.194  11.492  0.6220 -0.3496  0.7764
  390TMC3    C3 5826   2.393   2.145  11.569 -0.4330  0.1369  0.7354
  390TMC3    C4 5827   2.594   2.289  11.687  0.1248 -0.2127 -0.3934
  390TMC3    C5 5828   2.498   2.230  11.763 -0.0411 -0.5169 -0.4172
  390TMC3    C6 5829   2.395   2.155  11.708 -0.2558 -0.5184 -0.3255
  390TMC3     C 5830   2.668   2.351  11.454 -1.2714 -0.0910 -0.2883
  390TMC3     O 5831   2.680   2.309  11.340  0.2217  0.2673 -0.0309
  390TMC3     H 5832   2.485   2.191  11.384  5.2663 -0.3318  0.3953
  390TMC3    H1 5833   2.677   2.346  11.728 -0.8199 -0.3550  1.7146
  390TMC3    H2 5834   2.320   2.103  11.766 -1.9314 -1.0065 -2.9287
  390TMC3    C7 5835   2.494   2.296  11.899  0.5101 -0.0394  0.3631
  390TMC3    C8 5836   2.276   2.093  11.496 -0.0972  0.3697 -0.1573
  390TMC3    O1 5837   2.578   2.374  11.930  0.9033 -0.3406  0.0807
  390TMC3    O2 5838   2.263   2.123  11.380  0.1050 -0.5734 -0.5707
  391MPD2     C 5839   1.749   4.059  11.233 -0.3222 -0.0928  0.4836
  391MPD2    C1 5840   1.866   4.107  11.176 -0.1864 -0.7256  0.3247
  391MPD2    C2 5841   1.908   4.062  11.056 -0.6818  0.1747  0.0496
  391MPD2    C3 5842   1.820   4.001  10.967  0.2668 -0.0210 -0.2303
  391MPD2    C4 5843   1.690   3.983  11.014 -0.3905 -0.2635 -0.0560
  391MPD2    C5 5844   1.656   4.006  11.148 -0.5603 -0.2576  0.6592
  391MPD2     H 5845   2.013   4.066  11.030 -0.6124 -0.7983  0.1879
  391MPD2    H1 5846   1.620   3.922  10.957  0.1095 -1.0547  0.1860
  391MPD2    H2 5847   1.714   4.078  11.334  0.0826  1.0836  0.3974
  391MPD2    H3 5848   1.557   3.977  11.180 -1.1986  1.0934 -0.1180
  391MPD2     N 5849   1.871   3.974  10.834  0.2824 -0.2922 -0.1573
  391MPD2    H5 5850   1.968   3.993  10.813  0.5505 -3.3474 -1.7857
  391MPD2    N1 5851   1.939   4.211  11.242 -0.0476  0.5303 -0.7293
  391MPD2    H7 5852   1.900   4.232  11.333  1.5142  1.9821 -0.3968
  392TMC3    C1 5853   1.862   3.925  10.602  0.4092 -0.0056 -0.0274
  392TMC3    C2 5854   1.805   3.866  10.491  0.2499  0.0563  0.3700
  392TMC3    C3 5855   1.854   3.904  10.360 -0.0821 -0.2115 -0.5744
  392TMC3    C4 5856   1.974   4.001  10.590 -0.1814  0.7577 -0.0986
  392TMC3    C5 5857   2.038   4.007  10.467  0.1921  0.4732 -0.7204
  392TMC3    C6 5858   1.975   3.972  10.346 -0.2427 -0.3072  0.3854
  392TMC3     C 5859   1.791   3.939  10.725  0.5387 -0.2239 -0.0642
  392TMC3     O 5860   1.668   3.902  10.727  0.6687  0.3133 -0.3459
  392TMC3     H 5861   1.710   3.815  10.504  0.4813  0.0799  2.0967
  392TMC3    H1 5862   2.036   4.036  10.672 -1.3838 -0.1476  1.1893
  392TMC3    H2 5863   2.021   3.998  10.252  0.3135  0.2422  0.8066
  392TMC3    C7 5864   2.178   4.055  10.459  0.6443 -0.5034  0.1110
  392TMC3    C8 5865   1.771   3.887  10.242 -0.5252 -0.2583  0.3239
  392TMC3    O1 5866   2.229   4.103  10.561  0.0699 -0.2234 -0.3931
  392TMC3    O2 5867   1.684   3.803  10.268 -0.0823  0.3778 -0.0683
  393TMC3    C1 5868   0.691   2.297  10.468  0.1284 -0.1730 -0.3237
  393TMC3    C2 5869   0.572   2.318  10.533 -0.0615  0.3297  0.3228
  393TMC3    C3 5870   0.575   2.341  10.669 -0.3861 -0.3257 -0.1814
  393TMC3    C4 5871   0.813   2.284  10.526 -0.1189 -0.7561  0.8057
  393TMC3    C5 5872   0.811   2.315  10.663  0.5182  0.0874  0.6138
  393TMC3    C6 5873   0.694   2.333  10.735 -0.5498  0.1307  0.4823
  393TMC3     C 5874   0.675   2.301  10.323  0.6319  0.4233 -0.1306
  393TMC3     O 5875   0.565   2.273  10.273 -0.3662 -0.3531  0.1354
  393TMC3     H 5876   0.476   2.320  10.484 -0.0328  2.4704  0.3936
  393TMC3    H1 5877   0.902   2.266  10.467  0.2149  0.7893  0.8532
  393TMC3    H2 5878   0.695   2.348  10.842  2.2787  0.1748  0.4401
  393TMC3    C7 5879   0.930   2.312  10.737 -0.2408 -0.5008 -0.0476
  393TMC3    C8 5880   0.456   2.367  10.748  0.5445 -0.4494  0.2411
  393TMC3    O1 5881   0.926   2.310  10.860  0.0279 -0.1218 -0.0788
  393TMC3    O2 5882   0.460   2.312  10.860 -0.3747  0.1558  0.0595
  394TMC3    C1 5883   2.647   2.711  10.905  0.7809 -0.2856 -0.8823
  394TMC3    C2 5884   2.559   2.645  10.821  0.3370 -0.0796  0.2000
  394TMC3    C3 5885   2.591   2.654  10.690 -0.2496 -0.0399  0.0377
  394TMC3    C4 5886   2.765   2.761  10.851 -0.0609 -0.0880  0.2509
  394TMC3    C5 5887   2.779   2.777  10.718 -0.5461  0.1228 -0.1333
  394TMC3    C6 5888   2.691   2.714  10.638 -0.3459  0.1840  0.5388
  394TMC3     C 5889   2.641   2.672  11.047 -0.0062 -0.3668 -1.3544
  394TMC3     O 5890   2.561   2.589  11.085 -0.3729  0.1655 -0.0961
  394TMC3     H 5891   2.486   2.586  10.875 -1.4045  1.1324 -0.8215
  394TMC3    H1 5892   2.845   2.794  10.917  0.7540  0.1280 -0.8333
  394TMC3    H2 5893   2.698   2.732  10.531 -0.1645 -0.3152  0.4669
  394TMC3    C7 5894   2.847   2.889  10.663  0.2805 -0.5363  0.5345
  394TMC3    C8 5895   2.533   2.538  10.615 -0.4977 -0.6234  0.5200
  394TMC3    O1 5896   2.816   2.914  10.551  0.0861 -0.0117  0.0709
  394TMC3    O2 5897   2.414   2.516  10.635 -0.2715  0.7726  0.2583
  395TMC3    C1 5898   2.316   4.663  15.311 -0.3017  0.6288 -0.4335
  395TMC3    C2 5899   2.260   4.622  15.196  0.1597  0.1373  0.4954
  395TMC3    C3 5900   2.276   4.711  15.096 -0.5025 -0.6065  0.3854
  395TMC3    C4 5901   2.377   0.067  15.328  0.0126  0.5027 -0.3558
  395TMC3    C5 5902   2.400   0.148  15.224 -0.0170  0.2643 -0.1351
  395TMC3    C6 5903   2.340   0.116  15.100  0.3608  0.3958  0.2009
  395TMC3     C 5904   2.296   4.570  15.429 -0.3251 -0.5175 -0.8240
  395TMC3     O 5905   2.294   4.452  15.415  0.0188 -0.4083 -0.3239
  395TMC3     H 5906   2.208   4.529  15.180  1.2418 -0.1790 -1.1873
  395TMC3    H1 5907   2.408   0.094  15.428  1.3419  0.4437 -0.7516
  395TMC3    H2 5908   2.366   0.164  15.006  0.3300 -0.8913 -0.4667
  395TMC3    C7 5909   2.475   0.264  15.234  0.8479 -0.4694  1.0636
  395TMC3    C8 5910   2.165   0.002  15.002 -0.0076 -0.6292  0.3361
  395TMC3    O1 5911   2.495   0.299  15.352  0.3581 -0.2941  0.6960
  395TMC3    O2 5912   2.161   0.107  14.936 -0.0584 -1.0200 -0.6396
  396MPD2     C 5913   1.948   1.230  17.233  0.3066 -0.0476 -0.0930
  396MPD2    C1 5914   2.079   1.245  17.263 -0.2037 -0.3016 -0.3508
  396MPD2    C2 5915   2.158   1.329  17.181 -0.6694 -0.0094  0.4900
  396MPD2    C3 5916   2.101   1.376  17.063  0.0036 -0.0439  0.3070
  396MPD2    C4 5917   1.971   1.356  17.036 -0.3682  0.1678  0.5313
  396MPD2    C5 5918   1.896   1.278  17.117 -0.1370  1.1545  0.4040
  396MPD2     H 5919   2.264   1.336  17.202 -0.2082  1.5283 -2.3060
  396MPD2    H1 5920   1.920   1.394  16.948 -0.8554  0.2357  0.8493
  396MPD2    H2 5921   1.881   1.162  17.283 -0.8840  1.7361  0.7208
  396MPD2    H3 5922   1.793   1.252  17.094  0.3539 -1.7936  1.5236
  396MPD2     N 5923   2.185   1.449  16.974 -0.1771 -0.1692  0.0622
  396MPD2    H5 5924   2.276   1.471  17.012  2.1622 -2.4249 -4.2264
  396MPD2    N1 5925   2.132   1.170  17.368 -0.2386 -0.1315  1.0380
  396MPD2    H7 5926   2.075   1.095  17.408 -1.8101  0.3466 -0.3156
  397TMC3    C1 5927   2.275   1.080  17.521  0.4593 -0.4453  0.0055
  397TMC3    C2 5928   2.370   1.006  17.461 -0.4038 -0.4203  0.3147
  397TMC3    C3 5929   2.349   0.877  17.427 -0.2852  0.4336  0.2703
  397TMC3    C4 5930   2.167   1.016  17.571  0.4635 -0.3485 -0.1243
  397TMC3    C5 5931   2.145   0.885  17.550 -0.4612  0.0756  0.8911
  397TMC3    C6 5932   2.245   0.812  17.484  0.0971  0.0356  0.0353
  397TMC3     C 5933   2.242   1.196  17.439 -0.7560  0.6309 -0.2218
  397TMC3     O 5934   2.327   1.281  17.420 -0.5788 -0.0910  0.4577
  397TMC3     H 5935   2.433   1.060  17.392  0.5655 -2.2826 -0.2724
  397TMC3    H1 5936   2.085   1.069  17.618 -0.4693 -0.6820 -1.3735
  397TMC3    H2 5937   2.239   0.706  17.464  1.9061 -0.3025  1.2869
  397TMC3    C7 5938   2.092   0.813  17.663 -0.3595  0.0573  0.5888
  397TMC3    C8 5939   2.367   0.843  17.282 -0.0053 -0.4831  0.4637
  397TMC3    O1 5940   2.079   0.872   0.096 -0.6160 -0.3159 -0.3320
  397TMC3    O2 5941   2.270   0.798  17.226 -0.1432 -0.1403  0.2420
  398MPD2     C 5942   4.609   1.841   0.434  1.0958 -0.0138  0.1724
  398MPD2    C1 5943   4.709   1.811   0.526 -0.2668  0.5440  0.4297
  398MPD2    C2 5944   0.076   1.908   0.565 -0.4211  0.0176  0.3361
  398MPD2    C3 5945   0.065   2.034   0.514 -0.7468  0.1069  0.1389
  398MPD2    C4 5946   4.682   2.068   0.429  0.3623  0.5266 -0.1654
  398MPD2    C5 5947   4.593   1.971   0.383  0.3465 -0.3590  0.5041
  398MPD2     H 5948   0.166   1.881   0.619 -1.4626  0.2681  2.2219
  398MPD2    H1 5949   4.667   2.173   0.408 -1.0387  0.3662  0.0315
  398MPD2    H2 5950   4.538   1.769   0.395  1.0112  0.3820 -0.3954
  398MPD2    H3 5951   4.518   2.000   0.311  0.5814 -0.0542  0.3836
  398MPD2     N 5952   0.164   2.124   0.552 -0.0022  0.1391  0.2481
  398MPD2    H5 5953   0.235   2.090   0.616  0.2799  0.7694  0.2747
  398MPD2    N1 5954   0.013   1.682   0.583 -0.1128  0.0121  0.1662
  398MPD2    H7 5955   0.081   1.679   0.658 -0.3190 -1.3721  0.2893
  399TMC3    C1 5956   4.705   1.449   0.616 -0.0012 -0.2336 -0.3953
  399TMC3    C2 5957   0.115   1.432   0.659  0.3838  0.4399  0.5919
  399TMC3    C3 5958   0.168   1.304   0.664  0.3438 -0.8066  0.1021
  399TMC3    C4 5959   4.620   1.333   0.607 -0.3325  0.6419  0.2344
  399TMC3    C5 5960   4.674   1.213   0.632 -0.1064  0.4072 -0.8091
  399TMC3    C6 5961   0.088   1.193   0.659  0.0311 -0.1028  0.0938
  399TMC3     C 5962   4.650   1.578   0.566 -0.4358  0.5106  0.1239
  399TMC3     O 5963   4.539   1.573   0.519  0.0976  0.6610 -0.3944
  399TMC3     H 5964   0.176   1.520   0.676  1.9971  0.3218 -4.6663
  399TMC3    H1 5965   4.515   1.347   0.584 -0.4670 -0.6331  0.0661
  399TMC3    H2 5966   0.120   1.089   0.661  0.2587 -0.0706 -2.4415
  399TMC3    C7 5967   4.589   1.091   0.643  0.6006  0.5515 -0.2316
  399TMC3    C8 5968   0.302   1.293   0.619  0.3243  0.1595 -0.7744
  399TMC3    O1 5969   4.626   1.008   0.729  0.0062  0.3193  0.1558
  399TMC3    O2 5970   0.346   1.396   0.567  0.6509 -0.7421  0.0738
  400TMC3    C1 5971   3.448   0.281  17.324  0.7264 -0.1184  0.0937
  400TMC3    C2 5972   3.321   0.267  17.285 -0.1181 -0.3423  0.2463
  400TMC3    C3 5973   3.261   0.374  17.217 -0.0688  0.7527 -0.5137
  400TMC3    C4 5974   3.520   0.397  17.300 -1.2932  0.5827 -0.0261
  400TMC3    C5 5975   3.453   0.503  17.234  0.2568 -0.1050  0.2454
  400TMC3    C6 5976   3.323   0.493  17.193 -0.1177  0.3947  0.9560
  400TMC3     C 5977   3.510   0.175  17.400  0.1024 -0.0692 -0.0468
  400TMC3     O 5978   3.465   0.064  17.384  0.0114 -0.1196  0.0152
  400TMC3     H 5979   3.265   0.179  17.316 -0.3123 -0.1929  0.3231
  400TMC3    H1 5980   3.625   0.402  17.324 -1.3433  0.0210  0.3079
  400TMC3    H2 5981   3.281   0.570  17.129  1.9911  0.8310  0.0741
  400TMC3    C7 5982   3.543   0.605  17.184 -0.1292  0.5599 -0.3971
  400TMC3    C8 5983   3.117   0.378  17.240  0.6053 -0.6612 -0.1750
  400TMC3    O1 5984   3.657   0.583  17.175 -0.2871 -0.3831  0.2721
  400TMC3    O2 5985   3.081   0.473  17.310 -0.5046  0.4838  0.0555
  401MPD2     C 5986   1.616   4.186   1.332 -0.4989  0.0055 -0.4439
  401MPD2    C1 5987   1.677   4.075   1.392  0.3877 -0.1120 -0.8002
  401MPD2    C2 5988   1.628   3.951   1.374  0.0790 -0.4667  0.3862
  401MPD2    C3 5989   1.523   3.921   1.291 -0.8040 -0.8363 -0.8471
  401MPD2    C4 5990   1.459   4.034   1.240 -0.8862  0.2054 -0.0507
  401MPD2    C5 5991   1.504   4.162   1.264 -0.0735 -0.2509 -0.0445
  401MPD2     H 5992   1.689   3.871   1.414  0.3437  0.5274  1.9379
  401MPD2    H1 5993   1.369   4.021   1.181 -0.9225 -0.1478  0.0831
  401MPD2    H2 5994   1.663   4.284   1.337  0.7381 -0.7523  2.3865
  401MPD2    H3 5995   1.451   4.248   1.226  0.8356  1.0715  1.6862
  401MPD2     N 5996   1.490   3.785   1.263 -0.5781 -0.4718 -0.6234
  401MPD2    H5 5997   1.550   3.717   1.308 -1.7746 -0.9635  0.2044
  401MPD2    N1 5998   1.787   4.092   1.476 -0.8635 -1.2423  0.5158
  401MPD2    H7 5999   1.837   4.013   1.515  2.4506  0.8742  0.5492
  402TMC3    C1 6000   1.367   3.596   1.196 -0.3230  0.4295  0.1101
  402TMC3    C2 6001   1.378   3.533   1.319  0.9335  0.0348  0.1735
  402TMC3    C3 6002   1.406   3.393   1.321 -0.5120 -0.0325  0.3600
  402TMC3    C4 6003   1.382   3.529   1.080 -0.1004  0.6307 -0.1117
  402TMC3    C5 6004   1.432   3.402   1.090  0.1022 -0.6481  0.2801
  402TMC3    C6 6005   1.446   3.329   1.205  0.2375  0.1085  0.4405
  402TMC3     C 6006   1.382   3.743   1.193  0.2032  0.3758 -0.5534
  402TMC3     O 6007   1.282   3.802   1.156  0.0034  0.2256 -0.2328
  402TMC3     H 6008   1.370   3.584   1.414 -0.7733 -0.1700  0.1334
  402TMC3    H1 6009   1.378   3.595   0.995 -0.3528  1.2735  0.4010
  402TMC3    H2 6010   1.469   3.223   1.206 -1.3819 -0.2267  0.8175
  402TMC3    C7 6011   1.510   3.363   0.980  0.4476 -0.9760  0.2616
  402TMC3    C8 6012   1.484   3.357   1.441  0.6403 -0.2011  0.5760
  402TMC3    O1 6013   1.506   3.432   0.880  0.8361 -0.1460  0.1753
  402TMC3    O2 6014   1.570   3.271   1.424  0.0823 -0.2721  0.2510
  403MPD2     C 6015   0.094   2.686  13.402 -0.5308  0.4606 -0.3434
  403MPD2    C1 6016   0.122   2.559  13.446 -0.7039  0.4781 -0.3293
  403MPD2    C2 6017   0.214   2.551  13.550  0.1512  0.2016  0.6797
  403MPD2    C3 6018   0.271   2.668  13.599  0.3879  0.2616  0.0077
  403MPD2    C4 6019   0.234   2.795  13.556 -0.9415 -0.6708 -0.4863
  403MPD2    C5 6020   0.143   2.799  13.458 -0.5131 -0.7664  0.1916
  403MPD2     H 6021   0.250   2.455  13.585  0.6563  0.5572  1.1390
  403MPD2    H1 6022   0.283   2.885  13.593  0.2474 -2.2505  1.7786
  403MPD2    H2 6023   0.021   2.699  13.322 -1.4202  0.7142  0.5117
  403MPD2    H3 6024   0.106   2.897  13.429  1.1836  0.4054  2.0197
  403MPD2     N 6025   0.380   2.666  13.689 -0.1068 -0.2423  0.5900
  403MPD2    H5 6026   0.429   2.753  13.707 -0.4812  0.5682 -2.3136
  403MPD2    N1 6027   0.069   2.448  13.378  0.2561  0.1414 -0.1098
  403MPD2    H7 6028   0.030   2.463  13.285  0.8019  2.7441  0.0933
  404TMC3    C1 6029   0.011   2.215  13.353  0.0323 -0.7093  0.2234
  404TMC3    C2 6030   0.017   2.092  13.402 -0.4158 -0.2875  0.0423
  404TMC3    C3 6031   4.678   1.987  13.335 -0.1852 -0.6978  0.1215
  404TMC3    C4 6032   4.678   2.237  13.230 -0.3099 -0.5132  0.3655
  404TMC3    C5 6033   4.626   2.128  13.161  0.0188  0.1451  0.4379
  404TMC3    C6 6034   4.630   2.005  13.210 -0.8492  0.8163  0.3595
  404TMC3     C 6035   0.066   2.320  13.434  0.1175 -0.1210 -0.5035
  404TMC3     O 6036   0.113   2.290  13.545  0.1041  0.0195  0.2559
  404TMC3     H 6037   0.070   2.060  13.491 -0.4003  0.5889  0.3553
  404TMC3    H1 6038   4.679   2.336  13.184  0.3721 -1.2837 -1.2802
  404TMC3    H2 6039   4.598   1.919  13.151 -3.1766  2.2431 -0.4594
  404TMC3    C7 6040   4.593   2.153  13.019  0.1777 -0.5356 -0.2695
  404TMC3    C8 6041   4.689   1.852  13.395  0.2278 -0.3745  0.0484
  404TMC3    O1 6042   4.625   2.268  12.983  0.1389  0.2292  0.2639
  404TMC3    O2 6043   0.005   1.756  13.329 -0.1067 -0.0720  0.1449
  405MPD2     C 6044   0.255   2.904  14.904  0.2269  0.2875 -0.2315
  405MPD2    C1 6045   0.242   2.799  14.812 -0.3163  0.2882  0.1522
  405MPD2    C2 6046   0.185   2.829  14.690  0.2844  0.2136 -0.5553
  405MPD2    C3 6047   0.158   2.958  14.656  0.1440  0.2173  0.1695
  405MPD2    C4 6048   0.187   3.063  14.738 -0.0069 -0.2617  0.3225
  405MPD2    C5 6049   0.234   3.034  14.869 -0.2782  0.4650 -0.0907
  405MPD2     H 6050   0.171   2.756  14.611  1.5284 -1.4199  0.7427
  405MPD2    H1 6051   0.177   3.168  14.712  1.8441  0.5274  2.7794
  405MPD2    H2 6052   0.290   2.893  15.006  1.0422 -0.8288 -0.6285
  405MPD2    H3 6053   0.259   3.118  14.933 -1.2905  1.4486 -0.9939
  405MPD2     N 6054   0.107   2.980  14.522 -0.0895  0.1152  0.2610
  405MPD2    H5 6055   0.094   2.897  14.465 -0.5467  0.3183  0.0720
  405MPD2    N1 6056   0.286   2.670  14.838 -0.7911  0.2624  0.4427
  405MPD2    H7 6057   0.315   2.654  14.934  0.9562  0.2367 -0.0858
  406TMC3    C1 6058   4.692   3.149  14.120 -0.8523  0.1631  0.6042
  406TMC3    C2 6059   0.018   3.041  14.055 -0.3092  0.4711  0.2375
  406TMC3    C3 6060   0.092   2.948  14.129 -0.4698  0.5672 -0.4107
  406TMC3    C4 6061   4.717   3.173  14.257 -0.1393  0.2807  0.3277
  406TMC3    C5 6062   0.076   3.082  14.322 -0.1131  0.3484 -0.7131
  406TMC3    C6 6063   0.129   2.975  14.259 -0.2696 -0.3702  0.8762
  406TMC3     C 6064   4.592   3.227  14.063  0.4434  1.1153 -0.0056
  406TMC3     O 6065   4.630   3.322  13.993  1.0231  0.0967  0.6671
  406TMC3     H 6066   4.702   3.016  13.955 -1.7583 -1.0412  1.0968
  406TMC3    H1 6067   4.674   3.250  14.320  0.3039 -0.5872  1.7166
  406TMC3    H2 6068   0.188   2.904  14.317 -1.1813 -1.3624  0.5968
  406TMC3    C7 6069   0.095   3.101  14.462  0.2198 -0.0389 -0.3213
  406TMC3    C8 6070   0.122   2.814  14.076 -0.4610 -0.4772  0.1647
  406TMC3    O1 6071   0.085   3.214  14.509 -0.2277 -0.2437 -0.3942
  406TMC3    O2 6072   0.076   2.791  13.962  0.4815 -0.0769  0.7618
  407MPD2     C 6073   2.997   3.686   9.499 -0.5064  0.1354  0.1949
  407MPD2    C1 6074   3.020   3.596   9.604 -0.3782 -0.1455 -0.0252
  407MPD2    C2 6075   2.943   3.603   9.720 -0.0584  0.1614 -0.4150
  407MPD2    C3 6076   2.848   3.703   9.731  0.5398  0.1463  0.1984
  407MPD2    C4 6077   2.831   3.787   9.625 -0.8050 -0.1005  0.0637
  407MPD2    C5 6078   2.893   3.774   9.507 -0.1071  0.2641  0.1812
  407MPD2     H 6079   2.963   3.534   9.801  1.4251  0.1402 -0.7867
  407MPD2    H1 6080   2.764   3.872   9.630 -1.9813 -1.0834  1.1105
  407MPD2    H2 6081   3.036   3.685   9.398  1.1558  0.3689  0.8326
  407MPD2    H3 6082   2.866   3.834   9.421  0.2931 -1.3012 -1.0367
  407MPD2     N 6083   2.786   3.749   9.851 -0.1310 -0.5674 -0.0652
  407MPD2    H5 6084   2.728   3.832   9.855  0.2080 -0.2744 -1.2425
  407MPD2    N1 6085   3.113   3.484   9.592  0.1777 -0.2708 -0.2448
  407MPD2    H7 6086   3.110   3.413   9.665 -0.0490 -0.8999 -0.8691
  408TMC3    C1 6087   3.295   3.377   9.515 -0.1591  0.2405 -0.1943
  408TMC3    C2 6088   3.426   3.421   9.527 -0.4972  0.3860 -0.2704
  408TMC3    C3 6089   3.525   3.335   9.567  0.2687 -0.5352  0.1858
  408TMC3    C4 6090   3.265   3.245   9.545 -0.5632  0.4708 -0.1297
  408TMC3    C5 6091   3.363   3.170   9.593  0.3401 -0.9044  0.1789
  408TMC3    C6 6092   3.492   3.213   9.610 -0.2595  0.6256  0.3811
  408TMC3     C 6093   3.191   3.469   9.481  0.0493 -0.2216 -0.1635
  408TMC3     O 6094   3.211   3.538   9.377  0.3296 -0.2982  0.1392
  408TMC3     H 6095   3.447   3.526   9.509 -1.7198  0.2478 -2.4510
  408TMC3    H1 6096   3.162   3.212   9.549  0.9351 -3.8905  2.3981
  408TMC3    H2 6097   3.567   3.140   9.637  0.5589  2.6819  3.5358
  408TMC3    C7 6098   3.325   3.031   9.612 -0.3927  0.4998  0.3140
  408TMC3    C8 6099   3.660   3.383   9.594 -0.4838 -0.8381 -0.7711
  408TMC3    O1 6100   3.221   2.984   9.571 -0.5762 -0.7332  0.4352
  408TMC3    O2 6101   3.740   3.313   9.654  0.0971  0.0239  0.6651
  409MPD2     C 6102   2.253   0.376  17.485 -0.4622 -0.1011  0.4499
  409MPD2    C1 6103   2.362   0.419  17.552  0.5354  0.7632  0.1368
  409MPD2    C2 6104   2.460   0.488  17.491 -1.0309 -0.0688 -0.2340
  409MPD2    C3 6105   2.454   0.511  17.353 -0.2539  0.3604  0.6273
  409MPD2    C4 6106   2.340   0.468  17.287 -0.9617 -0.0573  0.0922
  409MPD2    C5 6107   2.246   0.400  17.354  0.4467  0.6381 -0.1646
  409MPD2     H 6108   2.544   0.512  17.554 -0.0084 -0.8139 -1.3077
  409MPD2    H1 6109   2.324   0.496  17.183 -1.2756  2.6983  0.8877
  409MPD2    H2 6110   2.162   0.337  17.531 -0.6791 -2.2472 -1.8054
  409MPD2    H3 6111   2.156   0.378  17.297  0.6022  2.6803 -1.1729
  409MPD2     N 6112   2.558   0.570  17.275 -0.4926  0.2371 -0.5008
  409MPD2    H5 6113   2.552   0.551  17.176  0.1593 -1.5152 -0.1988
  409MPD2    N1 6114   2.373   0.402   0.021 -0.1355 -0.1412 -0.3693
  409MPD2    H7 6115   2.462   0.437   0.055  0.1992 -0.2059 -1.1721
  410TMC3    C1 6116   2.773   0.675  17.239 -0.0047  0.5985 -0.1375
  410TMC3    C2 6117   2.896   0.703  17.289 -0.0600  0.4198 -0.2005
  410TMC3    C3 6118   2.991   0.767  17.212  0.0453 -0.0860 -0.0961
  410TMC3    C4 6119   2.746   0.699  17.110 -0.4479  0.4073 -0.4643
  410TMC3    C5 6120   2.845   0.764  17.037  0.4609  0.0594  0.2534
  410TMC3    C6 6121   2.971   0.797  17.079  0.0555 -0.3425 -1.0204
  410TMC3     C 6122   2.673   0.628  17.333  0.8411 -0.6282  0.3125
  410TMC3     O 6123   2.706   0.648  17.452 -0.3707 -0.0358  0.4580
  410TMC3     H 6124   2.910   0.678  17.393 -2.4506  1.1888  0.3022
  410TMC3    H1 6125   2.645   0.688  17.073 -0.3833  1.4121 -0.9585
  410TMC3    H2 6126   3.040   0.837  17.005  0.4971 -2.3849 -1.7099
  410TMC3    C7 6127   2.811   0.775  16.897  0.0260 -0.1290  0.8001
  410TMC3    C8 6128   3.120   0.805  17.269 -0.1811 -0.2262  0.6280
  410TMC3    O1 6129   2.718   0.703  16.856 -0.4949 -0.0024  0.4979
  410TMC3    O2 6130   3.216   0.823  17.194  0.6649 -0.2641 -0.6417
  411MPD2     C 6131   2.323   0.850  15.269  0.1927 -0.4200  0.5475
  411MPD2    C1 6132   2.235   0.858  15.165  0.2686  0.1933  0.4193
  411MPD2    C2 6133   2.110   0.805  15.172 -0.4514 -0.7811 -0.0782
  411MPD2    C3 6134   2.065   0.743  15.286 -0.0042 -0.1361 -0.3110
  411MPD2    C4 6135   2.155   0.724  15.386 -0.4347 -0.0800 -0.1132
  411MPD2    C5 6136   2.277   0.781  15.384 -0.0365 -0.1646 -0.5428
  411MPD2     H 6137   2.045   0.801  15.085  0.1230 -1.3932 -0.4774
  411MPD2    H1 6138   2.123   0.677  15.478  0.7869 -2.8312 -1.0973
  411MPD2    H2 6139   2.411   0.913  15.264  1.4423 -2.2372 -0.5455
  411MPD2    H3 6140   2.338   0.773  15.474 -1.8811  0.0898  0.7366
  411MPD2     N 6141   1.946   0.666  15.291 -0.0315 -0.0039  0.6774
  411MPD2    H5 6142   1.941   0.594  15.362  1.5578  0.7733  1.5737
  411MPD2    N1 6143   2.254   0.936  15.047 -0.0280 -0.3537  0.6470
  411MPD2    H7 6144   2.173   0.945  14.986  0.0779 -0.0618  0.5507
  412TMC3    C1 6145   1.738   0.571  15.211  0.3489  0.4048  0.3933
  412TMC3    C2 6146   1.607   0.601  15.224  0.7696  0.9466  0.2163
  412TMC3    C3 6147   1.514   0.544  15.148 -0.6450  1.0533  0.1010
  412TMC3    C4 6148   1.779   0.474  15.120  0.6081 -0.2428  0.5872
  412TMC3    C5 6149   1.683   0.410  15.045 -0.0077  0.5726 -1.1415
  412TMC3    C6 6150   1.550   0.443  15.070  0.0285  0.0388  0.1807
  412TMC3     C 6151   1.829   0.686  15.222  0.1541 -0.3850 -0.4140
  412TMC3     O 6152   1.790   0.784  15.152 -0.3928 -0.0858  0.1920
  412TMC3     H 6153   1.577   0.683  15.289  1.5913  0.7717  0.8220
  412TMC3    H1 6154   1.883   0.448  15.103  1.1065  2.6705 -0.8408
  412TMC3    H2 6155   1.469   0.399  15.013 -1.9709  3.1816  0.6230
  412TMC3    C7 6156   1.708   0.407  14.897 -0.3344 -0.4284  0.1483
  412TMC3    C8 6157   1.419   0.643  15.086  0.2551 -0.3282 -0.3077
  412TMC3    O1 6158   1.608   0.443  14.838 -0.0618  0.2702 -0.1266
  412TMC3    O2 6159   1.358   0.716  15.162 -0.2475  0.1508  0.2311
  413MPD2     C 6160   4.072   4.494  15.397  0.4364  1.2739  0.7182
  413MPD2    C1 6161   4.012   4.438  15.287  0.3383 -0.1148  0.6336
  413MPD2    C2 6162   4.052   4.316  15.240  0.3527 -0.2123 -0.5916
  413MPD2    C3 6163   4.162   4.255  15.286 -0.0428  0.2664 -0.4419
  413MPD2    C4 6164   4.229   4.310  15.397  0.1339  0.0230  0.0547
  413MPD2    C5 6165   4.181   4.428  15.449 -0.5731 -0.2244  0.2139
  413MPD2     H 6166   4.004   4.267  15.156  1.2925 -0.5698 -0.9127
  413MPD2    H1 6167   4.315   4.265  15.445  1.2595 -0.0328 -2.0344
  413MPD2    H2 6168   4.023   4.576  15.449  1.1294  1.5095  1.0060
  413MPD2    H3 6169   4.221   4.464  15.543 -1.2037  2.1267 -0.4237
  413MPD2     N 6170   4.199   4.137  15.219 -0.7586  0.5928 -0.7499
  413MPD2    H5 6171   4.146   4.113  15.135 -1.2923 -1.7069  0.2315
  413MPD2    N1 6172   3.903   4.512  15.231  1.0592 -0.6168  0.2555
  413MPD2    H7 6173   3.891   4.604  15.273 -2.4368  0.2140 -2.5634
  414TMC3    C1 6174   4.324   3.952  15.160 -0.5357  0.8406  0.0822
  414TMC3    C2 6175   4.356   3.831  15.223  0.5866  0.5512  0.4375
  414TMC3    C3 6176   4.363   3.728  15.138 -0.0031 -0.2733  0.5258
  414TMC3    C4 6177   4.295   3.968  15.026  0.2879 -0.3467 -0.3937
  414TMC3    C5 6178   4.304   3.854  14.948 -0.3016 -0.2167 -0.0501
  414TMC3    C6 6179   4.332   3.730  15.001 -0.0877  0.0495 -0.3636
  414TMC3     C 6180   4.309   4.062  15.255  0.1108  0.1579  0.3655
  414TMC3     O 6181   4.384   4.063  15.347 -0.0156  0.0295 -0.1842
  414TMC3     H 6182   4.353   3.825  15.331  2.9209 -0.4000  0.4529
  414TMC3    H1 6183   4.262   4.061  14.981  1.1815  0.3008  0.2646
  414TMC3    H2 6184   4.345   3.639  14.943  0.9277  0.5897 -0.9935
  414TMC3    C7 6185   4.253   3.865  14.809  0.3755 -0.5346 -0.7007
  414TMC3    C8 6186   4.393   3.599  15.193  0.6298 -0.0328 -0.1112
  414TMC3    O1 6187   4.173   3.958  14.787 -0.5896  0.3349  0.0785
  414TMC3    O2 6188   4.364   3.498  15.130  0.4333 -0.4052  0.0637
  415TMC3    C1 6189   0.040   2.405   9.535 -0.3956  0.3397  0.4484
  415TMC3    C2 6190   0.086   2.493   9.448 -0.2235 -0.1464  0.4082
  415TMC3    C3 6191   0.032   2.492   9.320  0.3175 -0.4410  1.0473
  415TMC3    C4 6192   4.664   2.317   9.496  0.7251  0.0908  0.4811
  415TMC3    C5 6193   4.616   2.316   9.367 -0.0216 -0.3126  0.1544
  415TMC3    C6 6194   4.654   2.408   9.269 -0.3170  0.0666 -0.2699
  415TMC3     C 6195   0.100   2.391   9.667  0.9181 -0.0781 -0.5252
  415TMC3     O 6196   0.058   2.288   9.720  0.0972 -0.7001  0.0391
  415TMC3     H 6197   0.163   2.563   9.475 -0.4210  0.4868 -0.6436
  415TMC3    H1 6198   4.615   2.263   9.576  1.3109  0.8158  1.3185
  415TMC3    H2 6199   4.605   2.410   9.172 -1.8621  0.3714  0.5104
  415TMC3    C7 6200   4.535   2.204   9.327 -0.5455 -0.0891 -0.3580
  415TMC3    C8 6201   0.117   2.533   9.212  0.3486 -0.5632 -0.2050
  415TMC3    O1 6202   4.432   2.218   9.266 -0.2759  0.0622 -0.6043
  415TMC3    O2 6203   0.101   2.471   9.110  0.1663 -0.5038  0.4501
  416MPD2     C 6204   2.038   0.931  11.426  0.2921 -0.2514  0.2045
  416MPD2    C1 6205   1.986   0.940  11.299 -1.2466 -0.7425 -0.3429
  416MPD2    C2 6206   2.020   0.843  11.204 -0.5638  0.0250  0.2090
  416MPD2    C3 6207   2.093   0.733  11.246 -0.0379 -0.3870  0.3983
  416MPD2    C4 6208   2.111   0.711  11.384  0.3745  0.3649 -0.0541
  416MPD2    C5 6209   2.102   0.815  11.472 -0.7960  0.0525 -0.1256
  416MPD2     H 6210   1.993   0.845  11.099 -2.5781 -0.6297  0.7322
  416MPD2    H1 6211   2.150   0.615  11.414 -0.7444  0.0924  0.4894
  416MPD2    H2 6212   2.004   0.997  11.505 -1.1926  0.6055 -1.1678
  416MPD2    H3 6213   2.133   0.806  11.576  0.9073 -0.7952 -0.7104
  416MPD2     N 6214   2.125   0.618  11.164 -0.1843  0.0661 -0.9007
  416MPD2    H5 6215   2.151   0.530  11.207  0.3039  1.8225  2.4147
  416MPD2    N1 6216   1.892   1.044  11.272  0.7673 -0.0793 -0.6304
  416MPD2    H7 6217   1.864   1.111  11.342  0.2938  0.2040 -1.0848
  417TMC3    C1 6218   1.703   1.121  11.165  0.4035  0.3812 -0.5338
  417TMC3    C2 6219   1.636   1.122  11.282  0.6050 -0.0370  0.1716
  417TMC3    C3 6220   1.522   1.197  11.288 -0.8057 -0.0460  0.7834
  417TMC3    C4 6221   1.655   1.189  11.051  0.2175 -0.1268 -0.0527
  417TMC3    C5 6222   1.534   1.253  11.058  0.5212 -0.0157 -0.0197
  417TMC3    C6 6223   1.472   1.267  11.183 -0.1465 -0.4023  0.1502
  417TMC3     C 6224   1.831   1.058  11.146  0.1360 -0.1919 -0.0525
  417TMC3     O 6225   1.856   1.007  11.041  0.1848  0.2436 -0.5477
  417TMC3     H 6226   1.686   1.082  11.370  1.8847  0.2677 -0.4119
  417TMC3    H1 6227   1.709   1.190  10.956 -0.1659 -2.1808 -0.2852
  417TMC3    H2 6228   1.375   1.313  11.198 -0.1846 -0.7064  0.8254
  417TMC3    C7 6229   1.503   1.328  10.940  0.6908 -0.2523 -0.2284
  417TMC3    C8 6230   1.473   1.234  11.419  0.0060 -0.3189 -0.0323
  417TMC3    O1 6231   1.577   1.317  10.843  0.0598  0.2658  0.2123
  417TMC3    O2 6232   1.386   1.319  11.418  0.2460 -0.1840  0.7639
  418TMC3    C1 6233   0.523   2.327   0.521  0.3345 -0.1389 -0.1679
  418TMC3    C2 6234   0.394   2.349   0.477 -0.4399  0.1081  0.3409
  418TMC3    C3 6235   0.293   2.311   0.566 -0.8276  0.8096 -0.5075
  418TMC3    C4 6236   0.555   2.276   0.645 -0.0799 -0.1981  0.0819
  418TMC3    C5 6237   0.452   2.236   0.726  0.1002  0.0721 -0.2811
  418TMC3    C6 6238   0.322   2.245   0.680 -0.4133  1.0864 -0.5503
  418TMC3     C 6239   0.619   2.353   0.424  0.1536 -0.1300  0.1155
  418TMC3     O 6240   0.589   2.440   0.339 -0.4120 -0.2422 -0.1004
  418TMC3     H 6241   0.373   2.402   0.385 -0.9177 -2.5426 -1.0724
  418TMC3    H1 6242   0.658   2.258   0.673 -0.1542  0.8570  1.0484
  418TMC3    H2 6243   0.245   2.235   0.755  0.5518  1.8231  0.5255
  418TMC3    C7 6244   0.473   2.130   0.820 -0.3572 -0.3503 -0.1396
  418TMC3    C8 6245   0.178   2.252   0.505  0.3640  0.1330 -0.0781
  418TMC3    O1 6246   0.401   2.032   0.818  0.5496  0.1529 -0.5366
  418TMC3    O2 6247   0.112   2.319   0.430 -0.2389  0.0999  0.4367
  419MPD2     C 6248   3.625   0.580  12.393 -0.1875  0.3102 -0.6561
  419MPD2    C1 6249   3.562   0.698  12.358  0.4143 -0.0644  0.3919
  419MPD2    C2 6250   3.530   0.790  12.464 -0.4891  0.1218  0.0708
  419MPD2    C3 6251   3.559   0.755  12.596 -0.0134  0.3380 -0.0172
  419MPD2    C4 6252   3.614   0.638  12.625 -0.2062 -0.1280 -0.7868
  419MPD2    C5 6253   3.659   0.565  12.522 -0.4804 -0.7470 -0.0465
  419MPD2     H 6254   3.477   0.883  12.442 -0.4628  0.0838 -0.1587
  419MPD2    H1 6255   3.641   0.602  12.723  2.9004 -0.3795 -1.7320
  419MPD2    H2 6256   3.651   0.507  12.316  0.0559  3.5092 -3.5997
  419MPD2    H3 6257   3.726   0.481  12.537  0.7983  0.5066  1.3255
  419MPD2     N 6258   3.526   0.852  12.695 -0.6816 -0.6862 -0.0869
  419MPD2    H5 6259   3.471   0.933  12.670  2.0578  1.2070  0.0216
  419MPD2    N1 6260   3.535   0.737  12.227 -0.4764  0.5056 -0.1190
  419MPD2    H7 6261   3.470   0.814  12.213  0.3180  0.6288 -3.2289
  420TMC3    C1 6262   3.518   0.964  12.898 -0.5784 -0.3014  0.3756
  420TMC3    C2 6263   3.449   1.063  12.830  0.4364 -0.5029 -0.0358
  420TMC3    C3 6264   3.398   1.163  12.907 -0.5703  0.3568 -0.7269
  420TMC3    C4 6265   3.525   0.959  13.031 -0.1959 -0.1246  0.5415
  420TMC3    C5 6266   3.462   1.054  13.105  0.1446  0.3290  0.4033
  420TMC3    C6 6267   3.395   1.162  13.047  0.2090  0.3082 -0.4201
  420TMC3     C 6268   3.570   0.848  12.830  0.2660 -0.2964 -0.7525
  420TMC3     O 6269   3.656   0.782  12.888 -0.1311 -0.0774  0.1118
  420TMC3     H 6270   3.428   1.063  12.723 -0.1043 -1.6358  0.0663
  420TMC3    H1 6271   3.566   0.874  13.084 -1.6722 -0.9367  0.3595
  420TMC3    H2 6272   3.364   1.248  13.104 -2.4586  0.3527 -1.9387
  420TMC3    C7 6273   3.494   1.058  13.245 -0.6065  0.2989  0.6172
  420TMC3    C8 6274   3.293   1.235  12.836 -0.7449 -0.5809 -1.0591
  420TMC3    O1 6275   3.605   1.020  13.279 -0.3269 -0.3979  0.2343
  420TMC3    O2 6276   3.320   1.263  12.721 -0.3456 -0.0005 -0.7550
  421TMC3    C1 6277   0.524   2.594  13.860 -0.2712  0.0081  0.4561
  421TMC3    C2 6278   0.528   2.724  13.904  0.0761  0.0597 -0.4681
  421TMC3    C3 6279   0.639   2.765  13.975  0.3849 -0.1110  0.0663
  421TMC3    C4 6280   0.613   2.496  13.894 -0.1215 -0.2554  0.8015
  421TMC3    C5 6281   0.709   2.540  13.982  0.2594  0.0497  0.4296
  421TMC3    C6 6282   0.718   2.668  14.027 -0.4511  0.6284 -0.3115
  421TMC3     C 6283   0.434   2.556  13.750 -0.1021  0.3268  0.0748
  421TMC3     O 6284   0.393   2.440  13.758  0.2738  0.4061  0.1185
  421TMC3     H 6285   0.455   2.798  13.873 -1.6554 -0.3810  2.5583
  421TMC3    H1 6286   0.622   2.400  13.845  0.8902  0.6485 -0.7883
  421TMC3    H2 6287   0.798   2.699  14.093 -0.5643 -0.8322  0.5198
  421TMC3    C7 6288   0.789   2.440  14.051  0.0180  0.5554 -0.7837
  421TMC3    C8 6289   0.665   2.906  13.999  0.3000  0.9367  0.0404
  421TMC3    O1 6290   0.900   2.478  14.095  0.2616 -0.4633  0.8551
  421TMC3    O2 6291   0.578   2.989  13.959  0.0404  0.2465  0.2005
  422TMC3    C1 6292   2.747   3.718  12.530  0.5228  0.3219 -1.2978
  422TMC3    C2 6293   2.670   3.823  12.562 -1.4727  0.4625 -0.7311
  422TMC3    C3 6294   2.549   3.806  12.616 -0.2947 -1.0838 -0.0315
  422TMC3    C4 6295   2.704   3.589  12.554  0.6346 -0.2203  1.2373
  422TMC3    C5 6296   2.591   3.581  12.631  0.5890 -0.3170 -0.8978
  422TMC3    C6 6297   2.504   3.685  12.653 -0.3062  0.0680  0.7152
  422TMC3     C 6298   2.885   3.723  12.496 -0.5429  1.0408 -0.1314
  422TMC3     O 6299   2.964   3.643  12.541 -0.5403 -0.1171  0.1594
  422TMC3     H 6300   2.724   3.916  12.578  0.5021 -0.4428 -2.0926
  422TMC3    H1 6301   2.768   3.502  12.547 -1.5704 -1.7519 -0.0846
  422TMC3    H2 6302   2.409   3.665  12.702 -2.3178  0.8617 -2.8936
  422TMC3    C7 6303   2.567   3.458  12.709 -0.1924 -0.2389 -0.6323
  422TMC3    C8 6304   2.497   3.921  12.690  0.0012 -0.4413  0.5794
  422TMC3    O1 6305   2.674   3.428  12.761  1.2303  0.0569  0.1534
  422TMC3    O2 6306   2.513   4.035  12.635  0.3789 -0.0719 -0.0379
  423MPD2     C 6307   0.027   4.696   0.827 -0.8295  0.4938 -0.3704
  423MPD2    C1 6308   0.058   4.561   0.807 -0.9892  0.5841  0.1627
  423MPD2    C2 6309   4.709   4.488   0.706 -0.0453  0.1334 -0.3138
  423MPD2    C3 6310   4.616   4.553   0.630  0.0737 -0.5242 -0.7943
  423MPD2    C4 6311   4.586   4.691   0.653  0.7079 -0.5066  0.4371
  423MPD2    C5 6312   4.650   0.044   0.750  0.0420 -0.3040  0.3642
  423MPD2     H 6313   0.018   4.383   0.697  0.0821 -0.0652  2.3838
  423MPD2    H1 6314   4.517   0.036   0.598  0.7017 -1.6349 -0.8401
  423MPD2    H2 6315   0.083   0.038   0.897 -0.0684 -1.5497  0.7744
  423MPD2    H3 6316   4.636   0.150   0.772 -1.6903 -0.8761  1.9972
  423MPD2     N 6317   4.556   4.503   0.512 -0.3830  0.5034  0.7162
  423MPD2    H5 6318   4.506   4.565   0.448 -1.4276 -0.8692  0.2063
  423MPD2    N1 6319   0.154   4.491   0.886 -0.3623 -0.0681 -0.0633
  423MPD2    H7 6320   0.155   4.391   0.870  0.8341 -0.0141 -0.2793
  424TMC3    C1 6321   0.302   4.436   1.063 -0.0245 -0.2588 -0.2511
  424TMC3    C2 6322   0.346   4.323   1.002  0.0060  0.4164 -0.6329
  424TMC3    C3 6323   0.371   4.219   1.091  0.3707 -0.6851 -0.1375
  424TMC3    C4 6324   0.298   4.445   1.201 -0.5926  0.2683 -0.5143
  424TMC3    C5 6325   0.335   4.340   1.281 -0.1428  0.0160 -0.3814
  424TMC3    C6 6326   0.369   4.221   1.222  0.2367  0.3589  0.8916
  424TMC3     C 6327   0.221   4.541   1.001  1.2480  0.3279  0.3127
  424TMC3     O 6328   0.191   4.642   1.061  0.6760 -0.8414  0.6498
  424TMC3     H 6329   0.324   4.307   0.897 -0.7473  1.0797 -0.5748
  424TMC3    H1 6330   0.246   4.529   1.246  1.7009  1.0537  0.6901
  424TMC3    H2 6331   0.408   4.134   1.272 -1.6358 -0.4325  0.9557
  424TMC3    C7 6332   0.277   4.343   1.409  0.6654  0.2071 -0.5536
  424TMC3    C8 6333   0.423   4.096   1.040  0.0692  0.3500  0.7406
  424TMC3    O1 6334   0.204   4.443   1.439  0.4976  0.4566  0.0847
  424TMC3    O2 6335   0.435   3.998   1.111  0.2661 -0.0287  0.1137
  425MPD2     C 6336   3.362   3.697   0.413 -0.9122 -0.1562  0.4509
  425MPD2    C1 6337   3.265   3.621   0.352 -0.2817  0.3893 -0.0622
  425MPD2    C2 6338   3.134   3.650   0.358 -0.0092  0.4629  0.1174
  425MPD2    C3 6339   3.094   3.748   0.446 -0.4436  0.2709 -0.1666
  425MPD2    C4 6340   3.190   3.822   0.516 -0.9460 -0.3446 -0.0300
  425MPD2    C5 6341   3.319   3.794   0.496 -0.2168  0.1037 -0.2387
  425MPD2     H 6342   3.065   3.589   0.300 -0.2241  2.8274 -2.1142
  425MPD2    H1 6343   3.157   3.896   0.587  0.4568  0.4718 -0.2218
  425MPD2    H2 6344   3.470   3.686   0.402 -0.7059  2.1157  0.0799
  425MPD2    H3 6345   3.403   3.838   0.548 -0.5316 -0.1240  0.4520
  425MPD2     N 6346   2.960   3.770   0.459  0.5489 -0.7804  0.1630
  425MPD2    H5 6347   2.911   3.737   0.377 -0.4311  0.9094  0.0766
  425MPD2    N1 6348   3.318   3.518   0.265  0.1604  0.1039 -0.4614
  425MPD2    H7 6349   3.418   3.506   0.267 -0.0150 -0.9595  1.5096
  426TMC3    C1 6350   3.318   3.328   0.126 -0.6014 -0.3482  0.5239
  426TMC3    C2 6351   3.288   3.302  17.673 -0.0439 -0.0405 -0.7324
  426TMC3    C3 6352   3.370   3.210  17.612 -0.6080 -0.6010  0.4185
  426TMC3    C4 6353   3.407   3.266   0.202  0.5222  0.1944  0.7101
  426TMC3    C5 6354   3.474   3.159   0.138 -0.2113  0.7203 -0.1644
  426TMC3    C6 6355   3.463   3.137   0.006 -0.9319 -0.2907 -0.5085
  426TMC3     C 6356   3.240   3.440   0.185  0.1296 -0.2589 -0.2898
  426TMC3     O 6357   3.127   3.449   0.140  0.4199 -0.3773  0.0109
  426TMC3     H 6358   3.200   3.347  17.628 -0.5746 -1.6590 -1.3190
  426TMC3    H1 6359   3.417   3.292   0.307  0.3041 -0.5339  0.9061
  426TMC3    H2 6360   3.499   3.051  17.624  0.6893  1.2465 -1.8010
  426TMC3    C7 6361   3.529   3.045   0.207  0.6313 -0.2685 -0.3309
  426TMC3    C8 6362   3.313   3.132  17.504  0.1011 -0.9370 -0.5902
  426TMC3    O1 6363   3.628   2.996   0.161  0.4054  0.1486 -0.2203
  426TMC3    O2 6364   3.386   3.068  17.425  0.6386 -0.0475 -0.2817
  427MPD2     C 6365   1.661   1.146  14.980 -0.0754  0.7686  0.2182
  427MPD2    C1 6366   1.619   1.122  15.113  0.0767  1.2334 -0.1474
  427MPD2    C2 6367   1.476   1.119  15.131  0.0907 -0.3441  0.0201
  427MPD2    C3 6368   1.384   1.148  15.029  0.2319 -0.3589 -0.5576
  427MPD2    C4 6369   1.433   1.179  14.903  0.5028  0.1417  0.2633
  427MPD2    C5 6370   1.568   1.174  14.882  0.0915  0.4102 -0.6527
  427MPD2     H 6371   1.442   1.111  15.234  0.7379  2.1881  0.4319
  427MPD2    H1 6372   1.369   1.202  14.819  0.9188  0.6661  0.0886
  427MPD2    H2 6373   1.767   1.152  14.957  0.7247  0.6188  3.7468
  427MPD2    H3 6374   1.607   1.189  14.782 -0.1300  1.0514 -0.6471
  427MPD2     N 6375   1.250   1.145  15.038  0.5329 -0.2464  0.2391
  427MPD2    H5 6376   1.194   1.178  14.961 -1.8229 -0.9132  1.6530
  427MPD2    N1 6377   1.702   1.103  15.224 -0.5171 -0.1939  0.3531
  427MPD2    H7 6378   1.661   1.082  15.314 -0.7759 -0.7901  0.0957
  428TMC3    C1 6379   1.906   1.055  15.338  0.2338 -0.5691  0.6951
  428TMC3    C2 6380   1.829   0.985  15.431  0.4285 -0.2041  0.4616
  428TMC3    C3 6381   1.874   0.983  15.556  0.3051  0.0630 -0.4383
  428TMC3    C4 6382   2.025   1.120  15.374 -0.0978  0.2229  0.6070
  428TMC3    C5 6383   2.066   1.112  15.508  0.2794  0.0791  0.4656
  428TMC3    C6 6384   1.992   1.042  15.596 -0.2174 -0.3603  0.0091
  428TMC3     C 6385   1.844   1.097  15.216  0.4086 -0.0150  0.0015
  428TMC3     O 6386   1.921   1.122  15.129 -0.0369 -0.2114 -0.0281
  428TMC3     H 6387   1.743   0.923  15.411 -0.8429  1.3019  1.3228
  428TMC3    H1 6388   2.073   1.184  15.300  0.6861 -1.5004 -0.3869
  428TMC3    H2 6389   2.022   1.045  15.700 -2.1262  0.7949  0.5159
  428TMC3    C7 6390   2.195   1.162  15.548  0.6622 -0.2868  0.1351
  428TMC3    C8 6391   1.811   0.896  15.647  0.0898 -0.0634 -0.1478
  428TMC3    O1 6392   2.207   1.203  15.661 -0.1243  0.4876  0.7673
  428TMC3    O2 6393   1.790   0.779  15.627  0.2631  0.2990 -0.3377
  429MPD2     C 6394   3.360   1.386   0.426 -0.2484  0.4161 -0.1905
  429MPD2    C1 6395   3.239   1.375   0.363 -0.0301  0.1860 -0.3372
  429MPD2    C2 6396   3.237   1.395   0.224 -0.1639  0.4705  0.0356
  429MPD2    C3 6397   3.355   1.440   0.156 -0.1313 -0.3719 -1.1898
  429MPD2    C4 6398   3.477   1.443   0.225  0.3585 -0.2188 -0.1048
  429MPD2    C5 6399   3.482   1.413   0.358 -0.2441 -0.0262 -0.5268
  429MPD2     H 6400   3.139   1.394   0.177 -1.9017 -0.0720  3.6578
  429MPD2    H1 6401   3.569   1.464   0.172 -0.6701  1.2328 -1.3143
  429MPD2    H2 6402   3.381   1.368   0.531 -2.4950 -2.3656 -0.2225
  429MPD2    H3 6403   3.574   1.418   0.415 -1.5609  0.4923  1.5559
  429MPD2     N 6404   3.351   1.468   0.020  0.8703 -0.1693  0.3733
  429MPD2    H5 6405   3.261   1.451  17.649 -0.2043 -0.4366  2.5977
  429MPD2    N1 6406   3.116   1.347   0.436 -0.1692  0.3373  0.2962
  429MPD2    H7 6407   3.033   1.343   0.378 -0.6052  1.4965  0.8448
  430TMC3    C1 6408   3.434   1.517  17.475  0.5679 -0.0967 -0.0159
  430TMC3    C2 6409   3.488   1.621  17.401 -0.2208  0.4266  0.4705
  430TMC3    C3 6410   3.490   1.603  17.267 -0.1061  0.2644 -0.4571
  430TMC3    C4 6411   3.422   1.393  17.418 -1.0069  0.0573 -0.2285
  430TMC3    C5 6412   3.453   1.374  17.284  0.0250 -0.4290 -0.0120
  430TMC3    C6 6413   3.499   1.481  17.209  0.0243  0.2521  1.1565
  430TMC3     C 6414   3.449   1.532  17.620  0.0285 -0.0817 -0.5518
  430TMC3     O 6415   3.530   1.615  17.657 -0.5129  0.1935 -0.3355
  430TMC3     H 6416   3.490   1.721  17.443  0.9123 -0.1671  1.8732
  430TMC3    H1 6417   3.391   1.303  17.471  0.3674 -1.7604 -2.5229
  430TMC3    H2 6418   3.521   1.458  17.105 -0.0999  0.9700  0.9681
  430TMC3    C7 6419   3.435   1.239  17.226 -0.1564  0.1057 -0.4823
  430TMC3    C8 6420   3.475   1.718  17.179  0.0189  1.1123  0.2515
  430TMC3    O1 6421   3.355   1.171  17.289 -0.0844  0.3324 -0.1185
  430TMC3    O2 6422   3.517   1.825  17.211  0.9476 -0.1789  0.2313
  431MPD2     C 6423   3.593   1.453  12.388  0.2024  0.1501  0.3426
  431MPD2    C1 6424   3.699   1.409  12.304 -0.9439 -0.0285 -0.0806
  431MPD2    C2 6425   3.668   1.336  12.191  0.0426  0.4354 -0.3445
  431MPD2    C3 6426   3.540   1.289  12.173  0.3880 -0.6184 -1.0842
  431MPD2    C4 6427   3.438   1.312  12.261 -0.4261  0.2576 -0.0463
  431MPD2    C5 6428   3.462   1.405  12.364 -0.0960  0.2985 -0.2701
  431MPD2     H 6429   3.746   1.298  12.126 -1.8334 -0.8033 -1.8687
  431MPD2    H1 6430   3.339   1.273  12.238  0.8792 -2.5192 -0.8704
  431MPD2    H2 6431   3.609   1.518  12.473 -0.6197  0.1043  0.5345
  431MPD2    H3 6432   3.384   1.437  12.432  1.5856  1.7650  0.9841
  431MPD2     N 6433   3.510   1.186  12.073  0.5217 -0.7549 -0.2895
  431MPD2    H5 6434   3.418   1.143  12.073 -0.4170  1.2435 -0.7747
  431MPD2    N1 6435   3.836   1.452  12.327  0.0262 -0.5329 -0.1813
  431MPD2    H7 6436   3.905   1.429  12.257 -1.1359  0.9387 -1.7939
  432TMC3    C1 6437   3.582   1.018  11.933 -0.5566  0.0872 -0.0594
  432TMC3    C2 6438   3.635   0.976  11.813  0.4843 -0.0092 -0.4594
  432TMC3    C3 6439   3.662   0.844  11.796  0.0837  0.2193  0.4365
  432TMC3    C4 6440   3.564   0.930  12.038 -0.2501 -0.5565  0.1023
  432TMC3    C5 6441   3.585   0.793  12.012  0.2503 -0.2399 -0.0838
  432TMC3    C6 6442   3.628   0.754  11.893  0.5423  0.2459 -0.5703
  432TMC3     C 6443   3.603   1.151  11.981  0.4883  0.0361 -0.1161
  432TMC3     O 6444   3.688   1.219  11.924 -0.7389  0.1287  0.5195
  432TMC3     H 6445   3.650   1.060  11.746  1.4622  0.6550  0.6107
  432TMC3    H1 6446   3.526   0.968  12.132  1.3713  0.7677  0.2147
  432TMC3    H2 6447   3.657   0.651  11.877  0.5525  0.1113  0.2927
  432TMC3    C7 6448   3.609   0.700  12.119 -0.3487  0.5937 -0.8057
  432TMC3    C8 6449   3.745   0.796  11.686 -0.4440 -0.2726  0.8743
  432TMC3    O1 6450   3.702   0.620  12.109  0.2694  1.1685  0.2552
  432TMC3    O2 6451   3.703   0.688  11.642 -0.1244 -0.5081 -0.5620
  433MPD2     C 6452   2.938   4.511  10.862 -0.6715  0.1385  0.0992
  433MPD2    C1 6453   2.823   4.496  10.936 -0.3844 -0.0040 -0.2647
  433MPD2    C2 6454   2.818   4.558  11.061 -0.9088 -0.3965  0.1660
  433MPD2    C3 6455   2.919   4.642  11.104  0.2490 -0.3170  0.0040
  433MPD2    C4 6456   3.026   4.664  11.021  0.3379 -0.6550  0.7459
  433MPD2    C5 6457   3.039   4.599  10.901 -0.5233  0.7600 -0.0899
  433MPD2     H 6458   2.738   4.542  11.132 -0.5033 -1.1308  0.4570
  433MPD2    H1 6459   3.111   0.008  11.050  1.5867 -0.1442 -4.0024
  433MPD2    H2 6460   2.940   4.456  10.769  0.0014 -0.0534  0.2285
  433MPD2    H3 6461   3.125   4.620  10.838 -1.1601 -1.7501 -1.8074
  433MPD2     N 6462   2.904   4.695  11.234  0.0642 -0.1705 -0.0626
  433MPD2    H5 6463   2.810   4.699  11.272  0.4278  1.1923  0.7059
  433MPD2    N1 6464   2.732   4.390  10.895  0.5948  0.1283  0.2164
  433MPD2    H7 6465   2.761   4.333  10.815  2.0222  1.4595 -0.2211
  434TMC3    C1 6466   2.617   4.190  10.935  0.3452 -0.4675  0.4027
  434TMC3    C2 6467   2.637   4.099  11.034 -0.7724  0.3905 -0.3756
  434TMC3    C3 6468   2.655   3.970  11.003  0.2010  0.1915  0.6978
  434TMC3    C4 6469   2.627   4.145  10.804 -0.3666  0.2714  1.3256
  434TMC3    C5 6470   2.639   4.008  10.781 -0.7298  0.0066 -0.4639
  434TMC3    C6 6471   2.659   3.914  10.882 -1.3397 -0.2180  0.6832
  434TMC3     C 6472   2.636   4.332  10.976  0.2919  0.3859  0.4912
  434TMC3     O 6473   2.600   4.363  11.090  0.2585  0.2240 -0.0224
  434TMC3     H 6474   2.640   4.134  11.136  1.0350 -0.2781 -0.1964
  434TMC3    H1 6475   2.595   4.214  10.727  1.1681 -0.8158 -0.2836
  434TMC3    H2 6476   2.676   3.808  10.871  0.4035 -0.0051  1.3063
  434TMC3    C7 6477   2.601   3.964  10.652  0.8218 -0.3264  0.0458
  434TMC3    C8 6478   2.685   3.892  11.118  0.4029  0.4013 -0.7951
  434TMC3    O1 6479   2.650   4.026  10.561 -0.0840  0.2405  0.3892
  434TMC3    O2 6480   2.753   3.955  11.195 -0.2334 -0.4082  0.0117
  435MPD2     C 6481   4.431   4.715  15.469  0.3450 -0.3603 -0.3648
  435MPD2    C1 6482   4.413   4.688  15.605  0.3163  0.6434  0.6739
  435MPD2    C2 6483   4.514   4.626  15.673  0.4047  0.5676 -0.2315
  435MPD2    C3 6484   4.627   4.581  15.606 -0.2557 -0.2830  0.3500
  435MPD2    C4 6485   4.634   4.587  15.465  0.3325  0.2752  0.2735
  435MPD2    C5 6486   4.534   4.655  15.403  0.0344  0.1585  0.2072
  435MPD2     H 6487   4.515   4.635  15.781 -1.5652 -3.3389  0.1226
  435MPD2    H1 6488   4.715   4.547  15.405  0.9254 -1.2621  2.1158
  435MPD2    H2 6489   4.352   0.042  15.409  0.6694  1.1808  0.3796
  435MPD2    H3 6490   4.534   4.674  15.296  0.6345  0.9896  0.3600
  435MPD2     N 6491   0.001   4.505  15.676 -0.0965  0.9448  0.4269
  435MPD2    H5 6492   4.688   4.489  15.772  1.6587 -0.8059  0.7083
  435MPD2    N1 6493   4.304   0.013  15.675  0.3095  0.5488  0.1364
  435MPD2    H7 6494   4.311   4.703  15.773  0.1493 -1.1771 -0.3303
  436TMC3    C1 6495   4.030   0.045  15.964 -0.7235 -0.6137  0.4418
  436TMC3    C2 6496   4.091   0.010  15.841 -0.1153  0.3165 -0.0591
  436TMC3    C3 6497   4.103   0.113  15.751 -0.3562 -0.1788  0.3829
  436TMC3    C4 6498   3.986   0.171  15.988 -0.2483  0.6615 -0.6528
  436TMC3    C5 6499   4.001   0.268  15.889 -0.0148  0.3251 -0.3101
  436TMC3    C6 6500   4.054   0.240  15.770 -0.0576 -0.2680 -0.5706
  436TMC3     C 6501   4.008   4.659  16.063 -0.1952  0.7256 -0.1102
  436TMC3     O 6502   4.005   4.542  16.026 -0.0219  0.0222  0.4238
  436TMC3     H 6503   4.127   4.627  15.830  0.4693  0.2112  2.5997
  436TMC3    H1 6504   3.941   0.194  16.084  2.4887  1.3575  0.4620
  436TMC3    H2 6505   4.046   0.315  15.692  1.5451  0.5151  0.0061
  436TMC3    C7 6506   3.910   0.375  15.890  0.2596  0.5585 -0.5811
  436TMC3    C8 6507   4.196   0.091  15.637  0.5486 -0.1030  0.0917
  436TMC3    O1 6508   3.935   0.467  15.817 -0.0894 -0.6733 -0.2070
  436TMC3    O2 6509   4.187   0.158  15.536 -0.2383  0.3969 -0.3328
  437TMC3    C1 6510   2.970   1.682  12.525  0.8728 -0.1328  0.1621
  437TMC3    C2 6511   2.844   1.686  12.475 -0.3338 -0.1563 -0.2808
  437TMC3    C3 6512   2.827   1.673  12.343  0.1642  0.3962 -0.2821
  437TMC3    C4 6513   3.081   1.696  12.451 -0.0697  0.0561 -0.1824
  437TMC3    C5 6514   3.062   1.702  12.309 -0.5400 -0.8951  0.0407
  437TMC3    C6 6515   2.935   1.671  12.254  0.1187 -0.5283 -0.6438
  437TMC3     C 6516   2.984   1.666  12.671  0.2584  1.2924 -0.2313
  437TMC3     O 6517   2.890   1.712  12.739  0.2442  0.4527 -0.3720
  437TMC3     H 6518   2.765   1.688  12.549  0.1170 -2.4133  0.2466
  437TMC3    H1 6519   3.182   1.713  12.486  0.3461  0.7776 -1.7299
  437TMC3    H2 6520   2.912   1.653  12.149 -1.8453  3.5565 -0.9051
  437TMC3    C7 6521   3.178   1.676  12.228 -0.4946  0.3802 -0.7534
  437TMC3    C8 6522   2.699   1.619  12.310  0.7303  0.2205 -0.3474
  437TMC3    O1 6523   3.171   1.602  12.134  0.2601 -0.0259 -0.2101
  437TMC3    O2 6524   2.639   1.562  12.398  0.4216 -0.7604 -0.3460
  438MPD2     C 6525   0.497   2.497  16.815  0.8194  0.1893 -0.2892
  438MPD2    C1 6526   0.602   2.514  16.897  0.0823  0.2088 -1.0287
  438MPD2    C2 6527   0.571   2.524  17.036 -0.0447  1.0319 -0.1034
  438MPD2    C3 6528   0.446   2.515  17.089 -0.2071 -0.4707 -0.4120
  438MPD2    C4 6529   0.339   2.494  16.999  0.2883  0.1322  0.0065
  438MPD2    C5 6530   0.365   2.486  16.859 -0.2726  1.1736 -0.6035
  438MPD2     H 6531   0.652   2.532  17.108 -0.5647  0.2570  0.5822
  438MPD2    H1 6532   0.235   2.474  17.024  0.9961 -3.3558  0.0893
  438MPD2    H2 6533   0.515   2.474  16.710  0.6737 -1.2382 -0.0071
  438MPD2    H3 6534   0.288   2.455  16.790 -0.8601 -0.9070  0.9980
  438MPD2     N 6535   0.415   2.541  17.229 -0.1184  0.3109 -0.1705
  438MPD2    H5 6536   0.323   2.506  17.256 -0.3447  0.7867 -0.3381
  438MPD2    N1 6537   0.735   2.509  16.857 -0.5211 -0.0011  0.0347
  438MPD2    H7 6538   0.800   2.540  16.929 -2.8524 -1.3524  2.7207
  439TMC3    C1 6539   0.934   2.477  16.718 -0.0410  0.4266  0.0144
  439TMC3    C2 6540   0.989   2.472  16.594 -0.1476 -0.7753 -0.2651
  439TMC3    C3 6541   1.126   2.457  16.581 -0.9815  0.4430 -0.3861
  439TMC3    C4 6542   1.013   2.463  16.831  0.3581 -0.1804  0.5597
  439TMC3    C5 6543   1.150   2.444  16.814 -0.3224 -1.0585 -0.9918
  439TMC3    C6 6544   1.205   2.441  16.689  0.1061 -0.4505  0.0147
  439TMC3     C 6545   0.785   2.478  16.730 -0.1162  0.0667 -0.3700
  439TMC3     O 6546   0.723   2.463  16.626 -0.1367 -0.0322  0.2635
  439TMC3     H 6547   0.916   2.477  16.514  0.3911  0.5235 -0.6651
  439TMC3    H1 6548   0.963   2.449  16.926 -0.7615  0.3343  0.0418
  439TMC3    H2 6549   1.310   2.422  16.671  0.1059  0.2623 -0.7728
  439TMC3    C7 6550   1.255   2.430  16.917  0.2525  0.4237  0.4289
  439TMC3    C8 6551   1.189   2.424  16.453  0.0742  0.0816  0.5763
  439TMC3    O1 6552   1.364   2.392  16.885 -0.0408  0.2461  0.0819
  439TMC3    O2 6553   1.306   2.456  16.441  0.1009  0.1350 -0.7848
  440MPD2     C 6554   4.390   3.249  14.676 -0.0889  0.3047  0.6540
  440MPD2    C1 6555   4.336   3.256  14.805 -0.1439 -0.2536 -0.5000
  440MPD2    C2 6556   4.393   3.171  14.897 -0.4833 -0.5787  0.4964
  440MPD2    C3 6557   4.483   3.068  14.862  0.5541  0.0082 -0.1351
  440MPD2    C4 6558   4.514   3.045  14.730  0.2631  0.1877  0.1769
  440MPD2    C5 6559   4.468   3.142  14.636  0.5669 -0.7054 -0.6277
  440MPD2     H 6560   4.354   3.177  14.998  0.9043 -0.2662  1.0157
  440MPD2    H1 6561   4.582   2.966  14.700  0.6184  0.5829 -0.0593
  440MPD2    H2 6562   4.359   3.314  14.595 -0.0914  0.0647  0.4626
  440MPD2    H3 6563   4.498   3.130  14.533  0.1735 -0.0342 -0.8183
  440MPD2     N 6564   4.531   2.986  14.967  0.7203 -0.0994 -0.2001
  440MPD2    H5 6565   4.521   3.015  15.064 -0.6892 -1.4384  0.0511
  440MPD2    N1 6566   4.246   3.359  14.848 -0.6903 -0.0572  0.1230
  440MPD2    H7 6567   4.222   3.360  14.947  0.4881  0.5199  0.4051
  441TMC3    C1 6568   4.701   2.873  15.068 -0.4038 -1.2544  0.2366
  441TMC3    C2 6569   4.717   2.989  15.139 -0.6619  0.1141  0.7931
  441TMC3    C3 6570   0.046   2.974  15.269 -0.4588 -0.7750  0.3345
  441TMC3    C4 6571   0.020   2.747  15.118  0.0309 -0.1325 -0.1013
  441TMC3    C5 6572   0.056   2.743  15.254  0.3383  0.6179  0.2146
  441TMC3    C6 6573   0.071   2.854  15.329  0.2752 -1.6465 -0.1196
  441TMC3     C 6574   4.615   2.877  14.953  0.3264  0.4405 -0.0680
  441TMC3     O 6575   4.597   2.783  14.885 -0.0617  0.0925 -0.5833
  441TMC3     H 6576   4.716   3.090  15.101 -1.5485 -1.9241 -4.5063
  441TMC3    H1 6577   0.019   2.651  15.067 -1.1927 -0.3249  0.2883
  441TMC3    H2 6578   0.126   2.852  15.423  1.7852  3.1785 -0.9461
  441TMC3    C7 6579   0.111   2.620  15.297  0.0433 -0.1081 -0.3061
  441TMC3    C8 6580   0.072   3.098  15.334 -0.3458  0.1909 -0.0562
  441TMC3    O1 6581   0.163   2.546  15.213  0.0945  0.0977  0.3558
  441TMC3    O2 6582   0.179   3.102  15.395  0.8282  0.1626 -0.5117
  442MPD2     C 6583   3.133   3.237  16.823 -1.1673 -0.1434 -0.8315
  442MPD2    C1 6584   3.002   3.196  16.865 -0.4568 -0.3652 -0.4525
  442MPD2    C2 6585   2.953   3.092  16.793  0.1420  0.5455 -0.2547
  442MPD2    C3 6586   3.012   3.037  16.680 -0.7946  0.2704  0.3430
  442MPD2    C4 6587   3.132   3.086  16.638 -0.1159  0.1591 -0.0680
  442MPD2    C5 6588   3.196   3.183  16.714 -0.0607  0.0067  0.4420
  442MPD2     H 6589   2.851   3.069  16.820  0.6163 -1.8812 -0.4979
  442MPD2    H1 6590   3.180   3.055  16.546  0.7205  0.4407  0.2789
  442MPD2    H2 6591   3.196   3.312  16.871  1.4900 -1.7682 -1.8120
  442MPD2    H3 6592   3.293   3.214  16.678  0.4663 -1.5601  0.4857
  442MPD2     N 6593   2.947   2.934  16.601 -0.8506 -0.6042  0.2419
  442MPD2    H5 6594   2.980   2.906  16.509  0.9764  2.2758  0.0061
  442MPD2    N1 6595   2.930   3.252  16.978  0.3658  0.0730  0.1269
  442MPD2    H7 6596   2.835   3.216  16.979 -0.0282  1.0988  0.1053
  443TMC3    C1 6597   2.881   3.395  17.149  0.2076 -0.2376 -0.3046
  443TMC3    C2 6598   2.824   3.517  17.125  0.4207  0.5197 -0.2356
  443TMC3    C3 6599   2.695   3.536  17.164  0.2575 -0.3928 -0.6275
  443TMC3    C4 6600   2.812   3.289  17.205 -0.4606  0.0125 -0.2594
  443TMC3    C5 6601   2.688   3.316  17.251  0.3431 -0.6671 -0.6355
  443TMC3    C6 6602   2.630   3.440  17.233  0.5491 -0.1983  0.1728
  443TMC3     C 6603   2.984   3.354  17.055 -0.2238 -0.3816 -0.2437
  443TMC3     O 6604   3.084   3.424  17.030  0.1848 -0.1536  0.2360
  443TMC3     H 6605   2.887   3.598  17.091 -1.5012  1.3405 -1.8620
  443TMC3    H1 6606   2.853   3.191  17.223 -0.8580 -0.2158 -0.6030
  443TMC3    H2 6607   2.522   3.454  17.239  0.6119 -0.3372  1.5905
  443TMC3    C7 6608   2.595   3.212  17.296 -0.1181 -0.0799 -0.3221
  443TMC3    C8 6609   2.608   3.573  17.054  0.6194 -0.3494  0.3739
  443TMC3    O1 6610   2.608   3.100  17.244 -0.2847 -0.0815 -0.1481
  443TMC3    O2 6611   2.524   3.497  17.010 -0.1091 -0.0506 -0.1011
  444MPD2     C 6612   2.879   2.820   0.308  0.5911  0.2863  0.0292
  444MPD2    C1 6613   2.812   2.796   0.185 -0.7548 -0.1210 -0.1501
  444MPD2    C2 6614   2.884   2.775   0.072  0.0214 -0.3923 -0.2965
  444MPD2    C3 6615   3.025   2.781   0.065  0.4204 -0.0638  0.6103
  444MPD2    C4 6616   3.094   2.812   0.176  0.3403 -0.5144 -0.4384
  444MPD2    C5 6617   3.022   2.838   0.295  0.2570 -0.2606 -0.5131
  444MPD2     H 6618   2.840   2.749  17.651  0.3350 -0.5930 -0.3864
  444MPD2    H1 6619   3.202   2.812   0.182  0.4245 -0.4710 -1.9825
  444MPD2    H2 6620   2.840   2.850   0.404 -1.3054  1.7985 -1.2178
  444MPD2    H3 6621   3.068   2.852   0.392  3.9709  0.1215 -2.3569
  444MPD2     N 6622   3.088   2.768  17.608  0.3360 -0.2387  0.4301
  444MPD2    H5 6623   3.024   2.748  17.532  0.3869 -0.2315  0.3854
  444MPD2    N1 6624   2.675   2.787   0.185  0.3192  0.3727  0.8178
  444MPD2    H7 6625   2.627   2.757   0.100 -0.1608 -1.7751  1.8533
  445TMC3    C1 6626   3.247   2.722  17.448 -0.9968  0.0675  0.1508
  445TMC3    C2 6627   3.166   2.626  17.399 -1.1159 -0.0045 -0.0304
  445TMC3    C3 6628   3.200   2.577  17.275 -0.0120 -0.1228 -0.0914
  445TMC3    C4 6629   3.354   2.764  17.375  0.1393 -0.1715  0.6924
  445TMC3    C5 6630   3.378   2.718  17.254  0.2084 -0.2340  0.1324
  445TMC3    C6 6631   3.306   2.617  17.198 -0.1101 -0.2211 -0.0021
  445TMC3     C 6632   3.223   2.777  17.580 -0.6737  0.0538  0.0083
  445TMC3     O 6633   3.316   2.818  17.644  0.0615 -1.2710  0.1046
  445TMC3     H 6634   3.085   2.580  17.455 -1.4100  3.1951  2.1210
  445TMC3    H1 6635   3.424   2.837  17.414  2.6216 -1.6182 -1.0330
  445TMC3    H2 6636   3.320   2.605  17.091 -1.1095  0.2989 -0.1993
  445TMC3    C7 6637   3.481   2.767  17.171  0.2457  0.1085 -0.2187
  445TMC3    C8 6638   3.109   2.483  17.214 -0.0913 -0.0912 -0.4571
  445TMC3    O1 6639   3.529   2.677  17.103  0.0709 -0.4434  0.0772
  445TMC3    O2 6640   2.987   2.498  17.240  0.5188  0.6909 -0.1626
  446MPD2     C 6641   2.587   4.076  11.696 -0.5431 -0.4484  0.3572
  446MPD2    C1 6642   2.588   4.016  11.576  0.2149  0.0692  0.3075
  446MPD2    C2 6643   2.671   4.062  11.477  0.4694 -0.2399 -0.1084
  446MPD2    C3 6644   2.775   4.157  11.498  0.2145  1.1834  0.8320
  446MPD2    C4 6645   2.777   4.221  11.629  0.2378 -0.0351 -0.4213
  446MPD2    C5 6646   2.671   4.182  11.717 -0.2963 -0.0502 -0.1004
  446MPD2     H 6647   2.666   4.009  11.383  0.7966 -0.9854  0.2924
  446MPD2    H1 6648   2.841   4.303  11.661 -1.0988  0.6914  0.4195
  446MPD2    H2 6649   2.517   4.046  11.773  0.4529  0.1434  1.5001
  446MPD2    H3 6650   2.669   4.228  11.815 -0.9048 -1.3263  0.4879
  446MPD2     N 6651   2.850   4.187  11.382  0.1127 -0.6322  0.2983
  446MPD2    H5 6652   2.841   4.118  11.308  1.1630 -2.1990  1.6156
  446MPD2    N1 6653   2.490   3.923  11.534 -0.4196  0.3618 -0.6406
  446MPD2    H7 6654   2.480   3.911  11.434 -1.2997 -1.5766 -0.3293
  447TMC3    C1 6655   3.010   4.297  11.249  0.5115 -0.9821  0.7962
  447TMC3    C2 6656   2.964   4.219  11.143 -0.4390 -0.2981 -0.1887
  447TMC3    C3 6657   3.024   4.224  11.024 -0.1424  0.3831 -1.0209
  447TMC3    C4 6658   3.129   4.366  11.224 -0.8408  0.3720  0.7111
  447TMC3    C5 6659   3.187   4.368  11.102  0.3077  0.7121 -0.1974
  447TMC3    C6 6660   3.135   4.298  10.997 -0.7205 -0.1755 -0.0659
  447TMC3     C 6661   2.947   4.283  11.382  0.0216 -0.0278  0.4546
  447TMC3     O 6662   3.002   4.322  11.484  0.1793  0.1426 -0.6470
  447TMC3     H 6663   2.876   4.156  11.147 -2.2419  2.1708 -0.9154
  447TMC3    H1 6664   3.166   4.434  11.300  1.6175 -1.8981  1.5284
  447TMC3    H2 6665   3.180   4.284  10.899 -0.0434 -0.1432  0.2378
  447TMC3    C7 6666   3.315   4.427  11.082  0.3791  0.3109 -0.0402
  447TMC3    C8 6667   2.988   4.138  10.920  0.4134  0.2437  0.2176
  447TMC3    O1 6668   3.350   4.432  10.965  0.2908 -0.6818 -0.0447
  447TMC3    O2 6669   2.939   4.190  10.819  0.1317 -0.0904 -0.1416
  448TMC3    C1 6670   0.693   4.288  17.175  0.8019  0.0278  0.3645
  448TMC3    C2 6671   0.789   4.230  17.097 -0.2469 -0.4038 -0.1801
  448TMC3    C3 6672   0.888   4.150  17.157  0.9701 -0.0548 -1.3688
  448TMC3    C4 6673   0.693   4.267  17.309  0.2245  0.1602 -0.5056
  448TMC3    C5 6674   0.792   4.187  17.368 -0.1632 -0.0274 -0.2152
  448TMC3    C6 6675   0.891   4.130  17.291  0.0383 -0.5474 -0.3130
  448TMC3     C 6676   0.592   4.365  17.111  0.4381  0.0072 -0.6328
  448TMC3     O 6677   0.626   4.405  17.002  0.2379  0.7649 -0.3986
  448TMC3     H 6678   0.780   4.243  16.990  0.1484 -1.6892 -0.3771
  448TMC3    H1 6679   0.621   4.319  17.372 -0.7309 -0.4808 -1.0529
  448TMC3    H2 6680   0.977   4.072  17.325 -0.5910 -0.1342  1.9936
  448TMC3    C7 6681   0.805   4.195  17.512  0.5405 -0.6888 -0.0747
  448TMC3    C8 6682   0.976   4.066  17.077 -0.8868 -0.0395  0.7594
  448TMC3    O1 6683   0.728   4.268  17.568  0.1063  0.6627  0.2504
  448TMC3    O2 6684   1.036   3.975  17.130 -0.2562  0.5074 -0.5969
  449MPD2     C 6685   2.546   2.139  13.629 -0.8788  0.0324 -0.4267
  449MPD2    C1 6686   2.470   2.033  13.681 -0.7201 -0.2099 -0.5554
  449MPD2    C2 6687   2.415   2.055  13.806  0.1773 -0.1904 -0.2943
  449MPD2    C3 6688   2.422   2.170  13.876  0.8397 -0.1182  0.4130
  449MPD2    C4 6689   2.491   2.278  13.820 -0.4603 -0.2842 -0.2480
  449MPD2    C5 6690   2.545   2.258  13.695  0.0403 -0.8196  0.0153
  449MPD2     H 6691   2.356   1.975  13.850 -0.1099  0.7257  0.9684
  449MPD2    H1 6692   2.505   2.374  13.868 -2.7179  0.3835 -0.9294
  449MPD2    H2 6693   2.600   2.138  13.535 -0.0380  1.4641  0.0344
  449MPD2    H3 6694   2.602   2.340  13.650 -1.5879  0.5736  0.4986
  449MPD2     N 6695   2.344   2.191  13.986  0.2588 -0.1090  1.0681
  449MPD2    H5 6696   2.297   2.108  14.020 -2.5274  0.5828 -1.0634
  449MPD2    N1 6697   2.470   1.908  13.620 -0.1948 -0.0913 -0.2438
  449MPD2    H7 6698   2.416   1.835  13.665  0.0371 -0.5611 -0.7243
  450TMC3    C1 6699   2.514   1.733  13.477  0.4183  0.2562 -0.1290
  450TMC3    C2 6700   2.618   1.661  13.528 -0.2015  0.4146  0.5214
  450TMC3    C3 6701   2.584   1.553  13.601 -0.0930  0.6727 -0.5619
  450TMC3    C4 6702   2.386   1.694  13.497 -0.7927 -0.6263  0.0080
  450TMC3    C5 6703   2.357   1.604  13.596  0.5071 -0.4995 -0.2196
  450TMC3    C6 6704   2.458   1.530  13.645  0.0086 -0.3202  0.0879
  450TMC3     C 6705   2.549   1.872  13.511 -0.5839  0.5125  0.6479
  450TMC3     O 6706   2.633   1.928  13.444  0.0495  0.3671 -0.2393
  450TMC3     H 6707   2.719   1.697  13.511 -0.0760 -0.0090  0.3626
  450TMC3    H1 6708   2.315   1.767  13.458  0.4212  0.7806  0.4262
  450TMC3    H2 6709   2.432   1.453  13.717  1.7687 -0.6351  0.3894
  450TMC3    C7 6710   2.262   1.655  13.691 -0.4283  0.0177  0.1480
  450TMC3    C8 6711   2.692   1.489  13.672  0.2491  0.2968 -0.5098
  450TMC3    O1 6712   2.301   1.665  13.806  0.1833  0.0241 -0.5176
  450TMC3    O2 6713   2.651   1.408  13.757  0.6878 -0.0067  0.8982
  451MPD2     C 6714   3.952   1.403   2.118 -0.0117 -0.0222  0.5901
  451MPD2    C1 6715   3.932   1.357   1.984  0.5205  0.4819 -0.7139
  451MPD2    C2 6716   4.026   1.267   1.931  0.2137  0.5068  0.0254
  451MPD2    C3 6717   4.130   1.221   2.008 -0.4248 -0.1472  0.9930
  451MPD2    C4 6718   4.162   1.290   2.121 -0.6097 -0.1637  0.0630
  451MPD2    C5 6719   4.073   1.378   2.175 -0.0135 -0.4871 -0.2114
  451MPD2     H 6720   4.008   1.222   1.834 -0.3708  1.8632 -0.4940
  451MPD2    H1 6721   4.256   1.275   2.172 -0.9170 -1.1465  0.3529
  451MPD2    H2 6722   3.891   1.479   2.166  0.5599  1.0701 -0.4243
  451MPD2    H3 6723   4.099   1.420   2.271 -0.0816  0.0136 -0.4110
  451MPD2     N 6724   4.211   1.108   1.980 -0.6006 -0.8321  0.0592
  451MPD2    H5 6725   4.288   1.101   2.046  0.8173 -0.1508 -1.5155
  451MPD2    N1 6726   3.825   1.406   1.906  0.7991  0.0899  0.4530
  451MPD2    H7 6727   3.766   1.475   1.953 -0.5326 -0.8681  0.1821
  452TMC3    C1 6728   4.304   0.922   1.877  0.2389  0.4702  0.7711
  452TMC3    C2 6729   4.400   0.912   1.972 -0.0369 -0.1517 -0.0352
  452TMC3    C3 6730   4.490   0.811   1.956  0.0022 -0.1682  0.1505
  452TMC3    C4 6731   4.273   0.817   1.791 -0.0744  0.9767 -0.2900
  452TMC3    C5 6732   4.350   0.704   1.799  0.4824 -0.0147 -0.0401
  452TMC3    C6 6733   4.466   0.706   1.876 -0.4549  0.5486 -0.6704
  452TMC3     C 6734   4.196   1.026   1.878  0.0748  0.0021  0.0932
  452TMC3     O 6735   4.115   1.028   1.786  0.3258 -0.0045 -0.0490
  452TMC3     H 6736   4.413   0.989   2.048 -0.4222  1.8601 -1.9992
  452TMC3    H1 6737   4.198   0.826   1.713  0.2499 -0.5416 -0.7707
  452TMC3    H2 6738   4.529   0.618   1.871 -1.7371 -0.4257  0.4841
  452TMC3    C7 6739   4.344   0.619   1.686 -0.1522 -0.1560 -0.1755
  452TMC3    C8 6740   4.614   0.804   2.030  0.0794  0.2162  0.2333
  452TMC3    O1 6741   4.270   0.644   1.590 -0.0637  0.3764 -0.2600
  452TMC3    O2 6742   4.678   0.703   2.017 -0.4971 -0.5199  0.0155
  453TMC3    C1 6743   0.562   2.957  11.911  0.3737 -0.6493  0.1012
  453TMC3    C2 6744   0.451   2.882  11.932  0.3520 -0.2836  0.2191
  453TMC3    C3 6745   0.346   2.911  11.857  0.1893 -0.2550 -0.5569
  453TMC3    C4 6746   0.578   3.056  11.813 -0.3512  0.1850  0.7422
  453TMC3    C5 6747   0.473   3.061  11.727  0.0817 -0.1242  0.6047
  453TMC3    C6 6748   0.354   2.992  11.751 -0.2020  0.0686  1.0352
  453TMC3     C 6749   0.667   2.951  12.016 -0.7059  0.3963 -0.0551
  453TMC3     O 6750   0.723   2.846  12.040  0.2835  0.0373  0.0049
  453TMC3     H 6751   0.443   2.809  12.012  0.0315  1.5396  1.8285
  453TMC3    H1 6752   0.672   3.108  11.800  0.4534 -1.4027  0.2962
  453TMC3    H2 6753   0.269   3.002  11.684  2.1978 -0.4104 -2.0700
  453TMC3    C7 6754   0.505   3.079  11.588  0.8884  0.4663 -0.3844
  453TMC3    C8 6755   0.235   2.815  11.864 -0.2205 -0.7877 -0.2173
  453TMC3    O1 6756   0.449   3.007  11.514  0.0983  0.0586 -0.1602
  453TMC3    O2 6757   0.121   2.857  11.843  0.7119 -0.1090  0.3428
  454MPD2     C 6758   3.720   3.094  16.349  0.0399 -0.2266 -0.0620
  454MPD2    C1 6759   3.706   2.957  16.352  0.2172 -0.9222  0.4233
  454MPD2    C2 6760   3.650   2.895  16.459  0.6308  0.0155  0.6272
  454MPD2    C3 6761   3.597   2.973  16.558  0.9694 -0.0014 -0.0566
  454MPD2    C4 6762   3.627   3.109  16.567  0.3360 -0.0842  0.8658
  454MPD2    C5 6763   3.672   3.168  16.456  0.2952  0.4394  0.4482
  454MPD2     H 6764   3.643   2.787  16.453  2.8097 -0.1673  1.6574
  454MPD2    H1 6765   3.594   3.175  16.646 -2.7477 -2.0900  1.2358
  454MPD2    H2 6766   3.768   3.143  16.266 -0.6956  1.5229  0.5431
  454MPD2    H3 6767   3.687   3.275  16.450 -2.8886  0.8702  0.3464
  454MPD2     N 6768   3.506   2.923  16.657 -0.0570  0.1617 -0.9215
  454MPD2    H5 6769   3.478   2.991  16.726  0.5231  0.2356 -0.7590
  454MPD2    N1 6770   3.743   2.883  16.236  0.5617  0.2469  0.3593
  454MPD2    H7 6771   3.774   2.935  16.155 -1.3965 -1.9166 -1.7711
  455TMC3    C1 6772   3.342   2.768  16.745  0.7288  0.5131  0.2323
  455TMC3    C2 6773   3.305   2.862  16.844 -0.2611  0.3085  0.5251
  455TMC3    C3 6774   3.186   2.831  16.909 -0.4559  0.2923 -0.4028
  455TMC3    C4 6775   3.257   2.668  16.707  1.0783 -0.1933  0.0788
  455TMC3    C5 6776   3.134   2.649  16.768 -0.1790  0.6522 -0.0985
  455TMC3    C6 6777   3.103   2.731  16.872 -0.5023  0.3834  0.1576
  455TMC3     C 6778   3.454   2.791  16.655  0.1144  0.4200  0.4738
  455TMC3     O 6779   3.486   2.699  16.582 -0.1271  0.4727 -0.8535
  455TMC3     H 6780   3.375   2.943  16.864  1.7481 -1.2210 -0.2897
  455TMC3    H1 6781   3.297   2.594  16.639  1.0692  2.0962 -2.4373
  455TMC3    H2 6782   3.006   2.715  16.918 -0.3262 -1.3631 -0.1006
  455TMC3    C7 6783   3.030   2.559  16.716 -0.2613  0.2115 -0.2409
  455TMC3    C8 6784   3.161   2.931  17.017 -0.4189 -0.1362 -0.5291
  455TMC3    O1 6785   2.948   2.516  16.798 -0.3208 -0.3194 -0.4653
  455TMC3    O2 6786   3.244   3.018  17.047 -0.7472 -0.1929 -0.6329
  456MPD2     C 6787   1.129   2.821  16.286 -0.0025 -0.5736 -0.4682
  456MPD2    C1 6788   1.264   2.831  16.333  0.1898  0.2648 -1.1680
  456MPD2    C2 6789   1.294   2.924  16.431 -0.5852 -0.0076  0.5750
  456MPD2    C3 6790   1.194   3.001  16.484 -0.4773  0.2073 -0.4234
  456MPD2    C4 6791   1.063   2.994  16.433  0.3777 -0.2719  0.0593
  456MPD2    C5 6792   1.034   2.904  16.334  0.2326 -0.0532 -0.3941
  456MPD2     H 6793   1.393   2.930  16.476 -0.7405 -3.3955  1.4342
  456MPD2    H1 6794   0.982   3.060  16.460  1.8568  1.0543  1.2246
  456MPD2    H2 6795   1.090   2.752  16.212 -2.4935 -1.9339  2.1159
  456MPD2    H3 6796   0.933   2.893  16.297 -0.1945 -1.1284  1.0921
  456MPD2     N 6797   1.230   3.095  16.590 -0.3134 -0.1082  0.2639
  456MPD2    H5 6798   1.326   3.093  16.621 -0.0726 -3.3976 -0.6522
  456MPD2    N1 6799   1.359   2.750  16.278 -0.3170 -0.6024  0.4940
  456MPD2    H7 6800   1.324   2.700  16.196 -1.5742  1.1456 -0.0226
  457TMC3    C1 6801   1.195   3.265  16.746  0.0394 -0.1083 -0.1209
  457TMC3    C2 6802   1.143   3.385  16.759 -0.1796  0.4472 -0.4889
  457TMC3    C3 6803   1.160   3.450  16.875 -0.3494 -0.2253 -0.6019
  457TMC3    C4 6804   1.278   3.214  16.839 -0.3542 -0.8763 -0.5577
  457TMC3    C5 6805   1.286   3.277  16.955  0.4633  0.7137 -0.0799
  457TMC3    C6 6806   1.219   3.393  16.989 -0.2923  0.4694 -0.2951
  457TMC3     C 6807   1.140   3.187  16.643  0.0284  0.0054 -0.2709
  457TMC3     O 6808   1.022   3.201  16.625  0.4022  0.5482  0.4066
  457TMC3     H 6809   1.075   3.418  16.681 -0.2487 -1.5890 -1.2686
  457TMC3    H1 6810   1.317   3.113  16.823  2.1414  0.0648 -0.5090
  457TMC3    H2 6811   1.242   3.451  17.077  0.7797 -0.2115 -0.1354
  457TMC3    C7 6812   1.373   3.229  17.060  0.2786 -0.0293  0.7238
  457TMC3    C8 6813   1.131   3.589  16.886  0.4986 -0.6485 -0.5656
  457TMC3    O1 6814   1.361   3.267  17.175  0.0109  0.6980 -0.0980
  457TMC3    O2 6815   1.131   3.634  16.999 -0.3358  0.0469  0.0596
  458MPD2     C 6816   3.679   1.731  12.113  0.3418 -0.2533  0.0196
  458MPD2    C1 6817   3.658   1.789  12.232 -0.1337 -0.6678  0.1053
  458MPD2    C2 6818   3.528   1.795  12.289 -0.2446  0.0321  0.1249
  458MPD2    C3 6819   3.419   1.736  12.226 -0.5214 -0.8086  0.4479
  458MPD2    C4 6820   3.444   1.688  12.098 -0.2140  0.0270 -0.4106
  458MPD2    C5 6821   3.570   1.686  12.042 -0.2414 -0.3992 -0.4640
  458MPD2     H 6822   3.507   1.863  12.370 -2.5142 -1.0603  0.4571
  458MPD2    H1 6823   3.360   1.668  12.033 -0.2606 -0.4814 -0.1952
  458MPD2    H2 6824   3.770   1.732  12.055 -0.1848 -0.6764 -0.8170
  458MPD2    H3 6825   3.591   1.653  11.941  0.3470  0.3579 -0.5855
  458MPD2     N 6826   3.291   1.735  12.288  0.1206  0.3036  0.4300
  458MPD2    H5 6827   3.278   1.787  12.375  0.4755 -1.1659  1.3646
  458MPD2    N1 6828   3.764   1.855  12.290 -0.1048 -0.7095 -0.0236
  458MPD2    H7 6829   3.837   1.879  12.224 -1.1841  1.6760 -0.3840
  459TMC3    C1 6830   3.902   1.958  12.466 -0.3355  1.0717  0.2210
  459TMC3    C2 6831   4.006   1.978  12.385  0.4022 -0.5732 -0.1766
  459TMC3    C3 6832   4.116   2.050  12.432  0.0470 -0.1098 -0.5754
  459TMC3    C4 6833   3.907   2.003  12.596 -0.1644 -0.1270  0.7026
  459TMC3    C5 6834   4.015   2.079  12.640  0.1338 -0.0756 -0.4381
  459TMC3    C6 6835   4.117   2.111  12.558  0.2200  0.1642  0.1836
  459TMC3     C 6836   3.782   1.891  12.423  0.0651  0.2734 -0.0167
  459TMC3     O 6837   3.702   1.869  12.515 -0.3412 -0.1244 -0.0837
  459TMC3     H 6838   4.011   1.942  12.283  0.7832 -3.3476  0.8076
  459TMC3    H1 6839   3.824   1.984  12.662  0.3853 -2.2898  0.7821
  459TMC3    H2 6840   4.211   2.153  12.592  0.0514  0.1489  0.6612
  459TMC3    C7 6841   4.044   2.063  12.780 -0.1696  1.0608  0.3105
  459TMC3    C8 6842   4.230   2.065  12.339 -0.0950  0.1197  0.5317
  459TMC3    O1 6843   3.990   1.961  12.823 -0.0148 -0.1533 -0.2027
  459TMC3    O2 6844   4.249   1.999  12.239  0.0090  0.3270 -1.0294
  460MPD2     C 6845   2.969   3.775  10.940  0.5259  0.3680  0.3290
  460MPD2    C1 6846   2.987   3.895  10.877  0.0694  0.5924  0.2463
  460MPD2    C2 6847   2.978   3.908  10.743  0.4852 -0.4653 -0.0629
  460MPD2    C3 6848   2.950   3.802  10.661 -0.3406 -0.4833  0.3579
  460MPD2    C4 6849   2.934   3.675  10.720 -0.0779  0.3668  0.2205
  460MPD2    C5 6850   2.946   3.669  10.857 -0.7298  0.1982  0.3130
  460MPD2     H 6851   2.998   4.005  10.700  2.6846  0.3275  2.7214
  460MPD2    H1 6852   2.900   3.587  10.667 -0.9085  0.0633  1.2685
  460MPD2    H2 6853   2.969   3.770  11.048  2.1854  0.4573  0.3314
  460MPD2    H3 6854   2.938   3.571  10.904 -1.0154 -1.2329 -2.6873
  460MPD2     N 6855   2.940   3.826  10.525  0.1304 -0.6825  0.1315
  460MPD2    H5 6856   2.960   3.918  10.489 -3.5840  0.2983  0.5558
  460MPD2    N1 6857   3.007   4.007  10.961 -0.6164  0.0735  0.2582
  460MPD2    H7 6858   3.033   3.997  11.059 -2.1586  0.6248  0.7443
  461TMC3    C1 6859   2.858   3.791  10.302 -0.3208 -1.4448 -0.0908
  461TMC3    C2 6860   2.805   3.705  10.207  0.0824 -0.7633 -0.2349
  461TMC3    C3 6861   2.770   3.763  10.082  0.4771 -0.4066  0.2603
  461TMC3    C4 6862   2.875   3.921  10.277 -0.2502 -1.0480  0.1140
  461TMC3    C5 6863   2.837   3.975  10.158 -0.4753 -0.6910  0.1935
  461TMC3    C6 6864   2.782   3.896  10.056  0.3080 -0.2931 -0.0497
  461TMC3     C 6865   2.899   3.734  10.430  0.2016 -0.2872  1.0645
  461TMC3     O 6866   2.882   3.615  10.446 -0.1189 -0.4759 -0.1177
  461TMC3     H 6867   2.795   3.599  10.226  0.3513 -1.3418 -3.4286
  461TMC3    H1 6868   2.881   3.995  10.356 -2.6676 -0.9082  0.1616
  461TMC3    H2 6869   2.743   3.945   9.968 -2.0524  0.5544  1.4581
  461TMC3    C7 6870   2.909   4.095  10.113 -0.0392 -0.6279  0.2892
  461TMC3    C8 6871   2.794   3.673   9.967 -0.3422 -0.3495 -0.0733
  461TMC3    O1 6872   2.845   4.150  10.021 -0.4623  0.2368 -0.2529
  461TMC3    O2 6873   2.834   3.560   9.989  0.1414  0.0607  0.1337
  462TMC3    C1 6874   3.046   0.386   0.297  0.1054 -0.5115  0.1918
  462TMC3    C2 6875   2.985   0.283   0.220 -0.7091  0.7325  0.1441
  462TMC3    C3 6876   2.977   0.154   0.274  0.3640  0.4424 -0.6260
  462TMC3    C4 6877   3.104   0.356   0.417  0.3818  0.6079  0.6878
  462TMC3    C5 6878   3.095   0.221   0.464  0.1164 -0.0306 -0.2251
  462TMC3    C6 6879   3.035   0.121   0.395 -0.6322  0.4093 -0.4290
  462TMC3     C 6880   3.028   0.514   0.247 -0.4457 -0.1537  0.1021
  462TMC3     O 6881   2.967   0.524   0.138 -0.6399 -0.4325 -0.5093
  462TMC3     H 6882   2.926   0.295   0.130  0.1832  0.3258 -0.5034
  462TMC3    H1 6883   3.146   0.438   0.474  0.4940  2.0136 -1.4004
  462TMC3    H2 6884   3.003   0.027   0.437  0.6710 -0.0075 -0.3668
  462TMC3    C7 6885   3.100   0.197   0.610 -0.4579 -0.4113  0.2493
  462TMC3    C8 6886   2.935   0.038   0.190  0.2604  0.2541 -0.1122
  462TMC3    O1 6887   3.033   0.106   0.652  0.1236  0.0761 -0.1281
  462TMC3    O2 6888   2.842   0.061   0.115 -0.5155  0.2547 -0.3534
  463MPD2     C 6889   4.172   3.895   2.507  0.1843 -1.2058 -0.1475
  463MPD2    C1 6890   4.236   3.963   2.411 -0.0080  0.4261  0.9110
  463MPD2    C2 6891   4.377   3.961   2.413  0.6144  0.1760  0.0053
  463MPD2    C3 6892   4.443   3.892   2.510  0.1558 -0.4844  0.1836
  463MPD2    C4 6893   4.376   3.829   2.616 -0.2719 -0.2659 -0.1641
  463MPD2    C5 6894   4.239   3.837   2.615 -0.1914 -0.4537  0.0884
  463MPD2     H 6895   4.428   4.014   2.334  0.1210  3.2329  1.7551
  463MPD2    H1 6896   4.433   3.772   2.688 -2.3710  0.0103  1.7104
  463MPD2    H2 6897   4.065   3.884   2.523  0.4451 -0.8731  1.7971
  463MPD2    H3 6898   4.176   3.789   2.689 -3.3327 -0.3899 -2.5370
  463MPD2     N 6899   4.581   3.882   2.515  0.0856  0.0290  0.0481
  463MPD2    H5 6900   4.623   3.818   2.581  1.5790 -1.1302 -2.0177
  463MPD2    N1 6901   4.176   4.020   2.301 -0.7204 -0.3320  0.3315
  463MPD2    H7 6902   4.235   4.068   2.234 -0.9564  1.4799  1.4167
  464TMC3    C1 6903   4.003   4.055   2.141  0.2296 -0.7131 -0.0067
  464TMC3    C2 6904   4.101   4.123   2.068 -0.4015  0.5329 -0.8239
  464TMC3    C3 6905   4.069   4.175   1.946  0.6169 -0.5315  0.2458
  464TMC3    C4 6906   3.881   4.027   2.090  0.6540  0.2754  0.1219
  464TMC3    C5 6907   3.858   4.065   1.962 -0.1128  0.6891 -0.4671
  464TMC3    C6 6908   3.946   4.143   1.890  0.3023 -0.0401  0.1920
  464TMC3     C 6909   4.040   4.009   2.272  0.4719 -0.1305 -0.1640
  464TMC3     O 6910   3.949   3.961   2.341 -0.2461 -0.1467  0.6871
  464TMC3     H 6911   4.203   4.134   2.103 -0.7973  0.3678  0.4035
  464TMC3    H1 6912   3.812   3.979   2.158  0.9146 -0.9276 -0.4579
  464TMC3    H2 6913   3.919   4.172   1.789 -0.9376 -0.9571  0.2453
  464TMC3    C7 6914   3.726   4.037   1.902 -0.7747  0.6620  0.3827
  464TMC3    C8 6915   4.168   4.230   1.867 -0.3606  1.0519 -0.1724
  464TMC3    O1 6916   3.693   4.106   1.807  0.0346  0.1793  0.2612
  464TMC3    O2 6917   4.169   4.203   1.749 -0.2637 -0.0086  0.2517
  465MPD2     C 6918   0.569   2.784  16.191 -0.3419 -0.1720  0.5310
  465MPD2    C1 6919   0.545   2.859  16.301  0.7034  0.1495 -0.9958
  465MPD2    C2 6920   0.438   2.952  16.292  0.0451 -0.4286  0.0999
  465MPD2    C3 6921   0.360   2.956  16.179  0.2976  0.7263 -0.1055
  465MPD2    C4 6922   0.385   2.871  16.070  0.0774  0.5927 -0.5679
  465MPD2    C5 6923   0.491   2.790  16.079 -0.0786 -0.1155  0.4176
  465MPD2     H 6924   0.420   3.009  16.383  0.0017 -1.2935  0.6294
  465MPD2    H1 6925   0.335   2.875  15.973 -0.4496  2.3743 -0.2342
  465MPD2    H2 6926   0.656   2.720  16.194 -1.0588 -1.3082 -2.8399
  465MPD2    H3 6927   0.516   2.725  15.996  1.0954  0.4733  0.3170
  465MPD2     N 6928   0.244   3.043  16.187 -0.6472  0.4456 -0.1773
  465MPD2    H5 6929   0.241   3.114  16.259 -0.4515 -0.2098  0.4837
  465MPD2    N1 6930   0.622   2.857  16.418  0.2174 -0.2042 -0.4316
  465MPD2    H7 6931   0.584   2.912  16.495  0.0701 -0.9462  0.0301
  466TMC3    C1 6932   4.563   3.126  16.295 -0.0904  0.2007 -0.3889
  466TMC3    C2 6933   4.582   3.261  16.298  0.3290 -0.2678  0.2461
  466TMC3    C3 6934   4.687   3.316  16.227 -0.5610  0.1236  0.0756
  466TMC3    C4 6935   4.644   3.043  16.214  0.0059  0.1361 -0.2228
  466TMC3    C5 6936   0.026   3.106  16.149 -0.2583  0.4685  0.2370
  466TMC3    C6 6937   0.058   3.238  16.160  0.0728  0.2056  0.3375
  466TMC3     C 6938   4.480   3.061  16.395 -0.1042 -0.1336 -0.3846
  466TMC3     O 6939   4.416   3.133  16.471  0.2596  0.1446 -0.0369
  466TMC3     H 6940   4.519   3.317  16.366  1.3219  1.9408 -0.6537
  466TMC3    H1 6941   4.656   2.937  16.235 -1.4629  0.3640  1.8215
  466TMC3    H2 6942   0.143   3.283  16.109 -0.2127  0.8167  0.4059
  466TMC3    C7 6943   0.135   3.022  16.105 -0.2416 -0.3043  0.3263
  466TMC3    C8 6944   4.699   3.464  16.225  0.5776  0.7161 -0.6736
  466TMC3    O1 6945   0.100   2.916  16.056  0.0475 -0.1248 -0.7510
  466TMC3    O2 6946   0.038   3.503  16.122 -0.2993  0.2033 -0.4950
  467TMC3    C1 6947   1.186   1.649  13.926  1.0520  0.4984 -0.0029
  467TMC3    C2 6948   1.140   1.776  13.948  0.0289  0.2501 -0.2737
  467TMC3    C3 6949   1.004   1.792  13.929  0.3397 -0.2883 -0.2825
  467TMC3    C4 6950   1.108   1.541  13.907 -0.2474 -0.3276  0.2931
  467TMC3    C5 6951   0.977   1.562  13.896 -0.0049 -0.1038 -0.2889
  467TMC3    C6 6952   0.919   1.684  13.905 -0.1944  0.0438  0.6380
  467TMC3     C 6953   1.323   1.636  13.960 -0.2554  0.7902  0.2329
  467TMC3     O 6954   1.367   1.710  14.043  0.2310 -0.1971 -0.1209
  467TMC3     H 6955   1.206   1.862  13.948  0.2196  0.0898  3.0120
  467TMC3    H1 6956   1.148   1.442  13.920 -1.5488 -0.8067  0.6388
  467TMC3    H2 6957   0.812   1.694  13.892  0.0109  1.5612  0.1061
  467TMC3    C7 6958   0.895   1.455  13.855 -0.5204  0.1722 -0.1414
  467TMC3    C8 6959   0.970   1.908  13.852  0.4882  0.7890  0.5094
  467TMC3    O1 6960   0.924   1.387  13.757  0.3115  0.1501  0.3398
  467TMC3    O2 6961   1.064   1.969  13.799  0.1657  0.1021 -1.1359
  468MPD2     C 6962   4.609   3.888  10.650  0.3544 -0.4620 -0.5763
  468MPD2    C1 6963   4.686   3.957  10.732  0.1802  0.0000  0.2043
  468MPD2    C2 6964   0.027   3.909  10.845  0.3190  0.0198  0.0363
  468MPD2    C3 6965   0.015   3.777  10.875  0.2123  0.5842  0.4608
  468MPD2    C4 6966   4.663   3.700  10.785  0.1768 -0.0665 -0.4903
  468MPD2    C5 6967   4.602   3.750  10.675  0.1530  0.2993  0.0546
  468MPD2     H 6968   0.079   3.973  10.915 -0.7346  1.3633 -0.4095
  468MPD2    H1 6969   4.654   3.592  10.784  0.3558 -0.0852 -0.0292
  468MPD2    H2 6970   4.552   3.935  10.571 -0.2994 -1.0062 -0.4331
  468MPD2    H3 6971   4.547   3.685  10.608 -0.6099  0.4222  0.5562
  468MPD2     N 6972   0.085   3.717  10.980  0.3526 -0.0142 -0.0185
  468MPD2    H5 6973   0.054   3.621  10.990 -1.3269  0.4492 -0.7615
  468MPD2    N1 6974   4.703   4.093  10.725  0.1114  0.1602  0.3570
  468MPD2    H7 6975   0.033   4.139  10.801  1.4550  0.8706 -0.9148
  469TMC3    C1 6976   4.694   4.309  10.646  0.3768  0.2755  0.4833
  469TMC3    C2 6977   0.111   4.320  10.670 -0.3058 -0.0549 -0.2672
  469TMC3    C3 6978   0.149   4.424  10.749 -0.2118  0.2424 -0.0963
  469TMC3    C4 6979   4.600   4.400  10.683  0.0805 -0.4370 -0.4096
  469TMC3    C5 6980   4.654   4.506  10.755 -0.4168  0.2017  0.4991
  469TMC3    C6 6981   0.067   4.522  10.791  0.3494 -0.2624  0.2224
  469TMC3     C 6982   4.642   4.175  10.633 -0.7377 -0.1103 -0.0712
  469TMC3     O 6983   4.572   4.152  10.536 -0.6800 -0.3983 -0.3739
  469TMC3     H 6984   0.185   4.256  10.624 -2.1124 -0.5060 -2.5951
  469TMC3    H1 6985   4.498   4.396  10.647  0.3776  2.1118 -1.5517
  469TMC3    H2 6986   0.105   4.604  10.851  2.2497 -0.2502 -1.0001
  469TMC3    C7 6987   4.572   4.628  10.780  0.1887 -0.4126  0.2501
  469TMC3    C8 6988   0.287   4.442  10.765  0.0492 -0.2784 -0.1120
  469TMC3    O1 6989   4.485   4.647  10.696 -0.9116 -0.6145  0.4849
  469TMC3    O2 6990   0.363   4.413  10.674 -0.0323  0.3770 -0.5029
  470TMC3    C1 6991   2.529   0.468   0.841  0.0330  0.2226 -0.2466
  470TMC3    C2 6992   2.533   0.601   0.811  0.0957  0.0027  0.5733
  470TMC3    C3 6993   2.623   0.680   0.871 -0.3156 -0.2964  0.4072
  470TMC3    C4 6994   2.603   0.409   0.941 -0.7187  0.0555 -0.1277
  470TMC3    C5 6995   2.693   0.496   1.001  0.2523 -0.5904 -0.1962
  470TMC3    C6 6996   2.704   0.628   0.965  0.8267 -0.3476 -0.4290
  470TMC3     C 6997   2.432   0.390   0.762  0.5575  0.0864  0.3157
  470TMC3     O 6998   2.374   0.441   0.668  0.2831  0.1619 -0.4653
  470TMC3     H 6999   2.467   0.644   0.736  1.6080 -0.7926 -1.2115
  470TMC3    H1 7000   2.611   0.302   0.956 -1.9194  0.3759  2.8663
  470TMC3    H2 7001   2.785   0.691   1.001  1.9712 -2.6568  1.0548
  470TMC3    C7 7002   2.788   0.439   1.087  0.0486 -0.1237 -0.0317
  470TMC3    C8 7003   2.599   0.823   0.879 -0.0670 -0.5724  0.6260
  470TMC3    O1 7004   2.833   0.328   1.049  0.2633  0.0622 -0.0979
  470TMC3    O2 7005   2.661   0.876   0.972  0.0881 -0.2998  0.0138
  471MPD2     C 7006   3.478   1.804  16.670 -0.5808  0.1248 -0.8170
  471MPD2    C1 7007   3.374   1.715  16.699  0.8137  0.2655  0.0894
  471MPD2    C2 7008   3.357   1.680  16.829  0.5828  0.3772 -0.8358
  471MPD2    C3 7009   3.440   1.720  16.930 -0.6381 -0.4158 -0.3048
  471MPD2    C4 7010   3.540   1.812  16.900  0.2626 -0.2776 -0.4015
  471MPD2    C5 7011   3.553   1.857  16.771  0.2796 -0.4666 -0.5248
  471MPD2     H 7012   3.288   1.605  16.864 -0.1838  1.3586 -0.2370
  471MPD2    H1 7013   3.607   1.847  16.978 -1.8512  0.7814  0.9428
  471MPD2    H2 7014   3.496   1.839  16.569 -2.2366 -0.0640 -1.1818
  471MPD2    H3 7015   3.634   1.925  16.749  1.7597 -1.4141  2.1182
  471MPD2     N 7016   3.421   1.671  17.059  0.4620  0.2838  0.3298
  471MPD2    H5 7017   3.356   1.594  17.068  2.0299 -1.2327 -1.1626
  471MPD2    N1 7018   3.292   1.651  16.604 -0.2983 -0.1269  0.2615
  471MPD2    H7 7019   3.225   1.580  16.632 -0.7052  0.4315  0.7029
  472TMC3    C1 7020   3.190   1.582  16.402  0.8429 -0.0946  0.5950
  472TMC3    C2 7021   3.082   1.622  16.335  0.3224  0.3839  0.1324
  472TMC3    C3 7022   2.993   1.527  16.299  0.0336 -0.3702 -0.5281
  472TMC3    C4 7023   3.204   1.458  16.455 -0.2255  0.6069 -0.7800
  472TMC3    C5 7024   3.105   1.366  16.429 -0.2081 -0.9478  0.2381
  472TMC3    C6 7025   2.997   1.397  16.341  0.5112 -0.4104 -0.7601
  472TMC3     C 7026   3.276   1.683  16.470  0.6737 -0.5407 -0.1017
  472TMC3     O 7027   3.293   1.788  16.411  0.0359 -0.4185 -0.4345
  472TMC3     H 7028   3.065   1.718  16.288  2.3359 -0.5462 -2.4593
  472TMC3    H1 7029   3.293   1.419  16.504  0.0324  0.9914 -0.9478
  472TMC3    H2 7030   2.926   1.321  16.310  1.1214 -1.7031  1.0380
  472TMC3    C7 7031   3.100   1.242  16.515 -0.1908 -0.0201 -0.4084
  472TMC3    C8 7032   2.857   1.583  16.256 -0.5930 -0.1530 -0.2816
  472TMC3    O1 7033   3.155   1.252  16.627 -0.2932 -0.4008  0.0622
  472TMC3    O2 7034   2.855   1.696  16.204 -0.2228  0.3333 -0.2132
  473MPD2     C 7035   2.800   3.839  14.102 -0.1160 -0.8913 -0.0007
  473MPD2    C1 7036   2.873   3.950  14.059 -0.1567  0.1205  0.3421
  473MPD2    C2 7037   2.908   4.049  14.147 -0.2168  0.8671  0.7513
  473MPD2    C3 7038   2.848   4.057  14.274 -0.9250 -0.3601  0.0566
  473MPD2    C4 7039   2.774   3.959  14.317 -0.5483 -0.1216 -0.1814
  473MPD2    C5 7040   2.755   3.848  14.233  0.6919 -0.1973  0.5503
  473MPD2     H 7041   2.974   4.128  14.112 -0.5211  1.1057  0.7141
  473MPD2    H1 7042   2.727   3.957  14.414 -0.1332 -0.9654  0.0131
  473MPD2    H2 7043   2.781   3.753  14.039 -0.9072 -1.3525  0.8763
  473MPD2    H3 7044   2.693   3.762  14.257  0.4976 -0.6484 -1.5494
  473MPD2     N 7045   2.869   4.170  14.356  0.6178 -0.4989 -0.5258
  473MPD2    H5 7046   2.798   4.189  14.426 -1.6632  1.2240 -3.3018
  473MPD2    N1 7047   2.917   3.971  13.926 -0.1252  0.1298 -0.3207
  473MPD2    H7 7048   2.967   4.058  13.912 -1.8355  1.1725 -0.0137
  474TMC3    C1 7049   2.991   4.341  14.460 -0.2889  0.4885 -1.4036
  474TMC3    C2 7050   2.870   4.390  14.504  0.2105  0.4160 -0.0403
  474TMC3    C3 7051   2.872   4.508  14.582  0.2580 -0.3307  0.1386
  474TMC3    C4 7052   3.110   4.397  14.500 -0.5868  0.3658  0.3262
  474TMC3    C5 7053   3.104   4.516  14.563  0.1863 -0.0951 -0.4907
  474TMC3    C6 7054   2.989   4.575  14.597  0.1425  0.0242  0.2898
  474TMC3     C 7055   2.993   4.226  14.369 -0.0813 -0.4896 -0.1128
  474TMC3     O 7056   3.093   4.205  14.300 -0.1522  0.4502 -0.1504
  474TMC3     H 7057   2.775   4.342  14.482 -0.5290  1.6469  0.4689
  474TMC3    H1 7058   3.202   4.351  14.465 -1.2755 -3.2074  3.2374
  474TMC3    H2 7059   2.992   4.663  14.660 -1.2166  0.5562 -0.3949
  474TMC3    C7 7060   3.229   4.564  14.607 -0.1770  0.4351  0.0888
  474TMC3    C8 7061   2.747   4.583  14.603  0.7628  0.0400  0.4291
  474TMC3    O1 7062   3.329   4.527  14.548 -0.3970 -0.2690  0.8744
  474TMC3    O2 7063   2.653   4.520  14.646  0.3590  0.2159 -0.0465
  475MPD2     C 7064   1.389   2.500  10.827  0.0750  0.0771 -0.5052
  475MPD2    C1 7065   1.380   2.482  10.692  0.5236 -0.2249  0.5605
  475MPD2    C2 7066   1.274   2.411  10.642  0.3777 -1.1063 -0.3619
  475MPD2    C3 7067   1.169   2.373  10.726  0.0522 -0.5893  0.5769
  475MPD2    C4 7068   1.194   2.375  10.863 -0.5147  0.4738  0.2075
  475MPD2    C5 7069   1.300   2.435  10.911 -0.1657  0.5065  0.1754
  475MPD2     H 7070   1.264   2.392  10.535 -1.1297 -1.1963 -0.2118
  475MPD2    H1 7071   1.126   2.325  10.931 -0.3788 -1.5140 -1.0936
  475MPD2    H2 7072   1.478   2.538  10.876 -0.2514  0.8078 -0.4646
  475MPD2    H3 7073   1.308   2.439  11.019 -1.7286 -0.2922  0.3309
  475MPD2     N 7074   1.045   2.339  10.667  0.1470 -0.0149  0.4996
  475MPD2    H5 7075   1.037   2.359  10.567  1.9185 -2.1920 -0.0844
  475MPD2    N1 7076   1.475   2.538  10.604  0.2018 -0.7176  0.3955
  475MPD2    H7 7077   1.541   2.599  10.652 -0.0886 -0.0266 -0.0778
  476TMC3    C1 7078   1.614   2.556  10.417 -0.6316  0.0740  1.0235
  476TMC3    C2 7079   1.616   2.583  10.288  0.1318 -0.5241  0.2053
  476TMC3    C3 7080   1.711   2.671  10.249  0.3375 -0.0288  0.7678
  476TMC3    C4 7081   1.714   2.587  10.508  0.5246 -0.4573  0.4100
  476TMC3    C5 7082   1.810   2.668  10.459 -0.7944  0.3647  0.7355
  476TMC3    C6 7083   1.811   2.714  10.333  0.2828 -0.4995  0.1810
  476TMC3     C 7084   1.495   2.500  10.472 -0.0686 -0.0864 -0.0395
  476TMC3     O 7085   1.431   2.422  10.404  0.3368 -0.2586 -0.1795
  476TMC3     H 7086   1.528   2.556  10.230 -0.1536 -0.3941  0.5793
  476TMC3    H1 7087   1.717   2.551  10.610  0.9666 -0.0040  0.5564
  476TMC3    H2 7088   1.880   2.793  10.304 -0.7155 -0.4312 -2.0202
  476TMC3    C7 7089   1.929   2.693  10.539 -0.3113 -0.0285  0.3639
  476TMC3    C8 7090   1.738   2.679  10.106 -0.2663  0.1771  0.1294
  476TMC3    O1 7091   2.018   2.755  10.483  0.3402  0.7098  1.0115
  476TMC3    O2 7092   1.803   2.776  10.074  0.3029  0.7299 -0.0477
  477MPD2     C 7093   3.479   3.673  12.206 -0.8229  0.4619 -0.1314
  477MPD2    C1 7094   3.373   3.593  12.188  0.4450  0.7251  0.2417
  477MPD2    C2 7095   3.365   3.475  12.251  0.2738  0.1146 -0.0904
  477MPD2    C3 7096   3.472   3.424  12.324  0.4105 -0.3416 -0.1836
  477MPD2    C4 7097   3.577   3.508  12.348  0.4093 -0.1512  0.7333
  477MPD2    C5 7098   3.583   3.632  12.286  0.2740 -0.9933  0.4624
  477MPD2     H 7099   3.277   3.412  12.242  0.7286 -1.1593  4.3918
  477MPD2    H1 7100   3.657   3.479  12.415 -0.5613 -2.9198  0.7267
  477MPD2    H2 7101   3.497   3.764  12.149 -0.6533  0.3554 -0.2503
  477MPD2    H3 7102   3.668   3.696  12.303  1.0941 -1.7631 -0.6714
  477MPD2     N 7103   3.466   3.297  12.382 -0.7776 -0.7241  0.0905
  477MPD2    H5 7104   3.380   3.243  12.389 -1.3929  0.1066 -1.1714
  477MPD2    N1 7105   3.282   3.644  12.095  0.0823 -0.2645  0.4048
  477MPD2    H7 7106   3.311   3.729  12.047 -2.0029  0.5189  0.5292
  478TMC3    C1 7107   3.095   3.658  11.957  0.6303  0.5646  0.1323
  478TMC3    C2 7108   3.090   3.797  11.961  0.0002  0.2045  0.0105
  478TMC3    C3 7109   2.992   3.859  11.891  0.3120  0.0329  0.4101
  478TMC3    C4 7110   3.013   3.584  11.868  0.0858  0.3056 -1.0518
  478TMC3    C5 7111   2.926   3.654  11.788 -0.1240 -0.0490  0.4002
  478TMC3    C6 7112   2.918   3.790  11.800 -0.2900 -0.3340  0.2540
  478TMC3     C 7113   3.173   3.578  12.051 -0.0869 -0.1768  0.2829
  478TMC3     O 7114   3.141   3.457  12.061  0.6976  0.7818  0.7232
  478TMC3     H 7115   3.131   3.852  12.045  1.6662 -1.3225  0.1901
  478TMC3    H1 7116   3.018   3.476  11.867  1.1661  0.3574 -1.3753
  478TMC3    H2 7117   2.845   3.851  11.749 -0.4572 -0.8050 -0.0684
  478TMC3    C7 7118   2.848   3.578  11.690  0.8563  0.0100  0.1857
  478TMC3    C8 7119   2.924   3.966  11.960  0.2097  0.1511 -0.7899
  478TMC3    O1 7120   2.831   3.457  11.695 -0.0503  0.4399 -0.1392
  478TMC3    O2 7121   2.855   3.928  12.051  0.0166  0.2422  0.2974
  479MPD2     C 7122   2.474   1.211  15.316 -0.3664 -0.1948  0.6426
  479MPD2    C1 7123   2.412   1.211  15.438  0.2398 -0.1635 -0.3622
  479MPD2    C2 7124   2.473   1.276  15.551 -0.0116  0.3750  0.0582
  479MPD2    C3 7125   2.588   1.353  15.528  0.3049 -0.1128 -0.4821
  479MPD2    C4 7126   2.654   1.344  15.407 -0.3787  0.2611  0.1696
  479MPD2    C5 7127   2.599   1.276  15.299 -0.1588  0.1686 -0.0446
  479MPD2     H 7128   2.422   1.271  15.647  0.8936 -2.1961  0.4095
  479MPD2    H1 7129   2.736   1.407  15.375  0.1200 -0.7470 -0.5573
  479MPD2    H2 7130   2.424   1.168  15.229  0.7260 -1.0877  0.4673
  479MPD2    H3 7131   2.649   1.284  15.203 -1.3365 -0.1258 -0.6838
  479MPD2     N 7132   2.659   1.424  15.627  0.1833 -1.3503 -0.3478
  479MPD2    H5 7133   2.745   1.462  15.590 -0.4730  1.0716  0.5692
  479MPD2    N1 7134   2.281   1.151  15.440 -0.3517  0.1215  0.0380
  479MPD2    H7 7135   2.249   1.106  15.355 -1.0954  1.6612 -0.4926
  480TMC3    C1 7136   2.344   1.386  15.948 -0.0200 -0.2721 -0.3364
  480TMC3    C2 7137   2.245   1.442  15.872  0.2861  0.4629 -0.0727
  480TMC3    C3 7138   2.277   1.505  15.753  0.2495  0.4022 -0.0327
  480TMC3    C4 7139   2.471   1.402  15.918 -0.1048 -0.0493  0.0967
  480TMC3    C5 7140   2.491   1.467  15.794 -0.2280 -0.5174 -0.0968
  480TMC3    C6 7141   2.403   1.521  15.710  0.4884 -0.1457  0.2469
  480TMC3     C 7142   2.309   1.278  16.043 -0.2512 -0.3990 -0.4506
  480TMC3     O 7143   2.400   1.224  16.100  0.0683 -0.1035 -0.5348
  480TMC3     H 7144   2.141   1.419  15.890  0.1713  0.3720 -0.8273
  480TMC3    H1 7145   2.550   1.350  15.970 -0.7494 -0.7660  0.3663
  480TMC3    H2 7146   2.437   1.566  15.618  1.4181  0.7012  1.0057
  480TMC3    C7 7147   2.623   1.461  15.758  0.0362  0.4418  0.0230
  480TMC3    C8 7148   2.172   1.514  15.652  0.2274  0.2770  0.5680
  480TMC3    O1 7149   2.700   1.481  15.848  0.0456  0.1628  0.6766
  480TMC3    O2 7150   2.061   1.502  15.705  0.8726  0.5675 -0.3124
  481MPD2     C 7151   4.224   0.630  14.272  0.3510 -0.0858 -0.7588
  481MPD2    C1 7152   4.095   0.662  14.307  0.0993  0.2163  0.2018
  481MPD2    C2 7153   4.063   0.700  14.430 -0.2686  0.0513  0.4735
  481MPD2    C3 7154   4.162   0.698  14.527  0.3982  0.6607 -0.0665
  481MPD2    C4 7155   4.294   0.658  14.498  1.0735 -0.0477  0.4614
  481MPD2    C5 7156   4.323   0.623  14.366  0.3725 -0.6127 -0.1053
  481MPD2     H 7157   3.961   0.727  14.456 -0.0475 -0.1247  1.5384
  481MPD2    H1 7158   4.377   0.656  14.568  1.1810  1.0897  0.3591
  481MPD2    H2 7159   4.248   0.612  14.168  1.0811 -1.1360 -0.4242
  481MPD2    H3 7160   4.422   0.596  14.331 -0.7270 -0.3837 -3.4526
  481MPD2     N 7161   4.148   0.737  14.662  0.4068 -0.8147  0.1611
  481MPD2    H5 7162   4.225   0.724  14.727  0.4626 -1.3500 -0.0090
  481MPD2    N1 7163   4.009   0.684  14.191  0.2754  0.4154 -0.4607
  481MPD2    H7 7164   4.049   0.652  14.103  0.0495  1.7344 -1.0441
  482TMC3    C1 7165   3.834   0.756  14.056  0.1315  0.5745  0.1696
  482TMC3    C2 7166   3.894   0.683  13.957  0.2077  0.0510 -0.2708
  482TMC3    C3 7167   3.891   0.727  13.826 -0.5155  0.1286  0.2344
  482TMC3    C4 7168   3.766   0.880  14.028 -0.8532  0.0887 -0.3423
  482TMC3    C5 7169   3.764   0.925  13.898  0.4265  0.2210  0.1906
  482TMC3    C6 7170   3.829   0.852  13.798  0.4462  0.5676  0.2184
  482TMC3     C 7171   3.882   0.738  14.192  0.0436  0.7539 -0.7086
  482TMC3     O 7172   3.816   0.777  14.290  0.2832  0.3666  0.3384
  482TMC3     H 7173   3.935   0.584  13.973  0.0933  0.2267  1.1495
  482TMC3    H1 7174   3.724   0.940  14.107  1.8293  0.7933  0.5392
  482TMC3    H2 7175   3.844   0.893  13.699 -0.6917 -0.6123 -0.4460
  482TMC3    C7 7176   3.643   0.997  13.863  0.3134  0.3707 -0.5869
  482TMC3    C8 7177   3.851   0.624  13.738  0.5365  0.0146  0.5268
  482TMC3    O1 7178   3.561   1.001  13.956  0.1594  0.2738 -0.0010
  482TMC3    O2 7179   3.877   0.509  13.770  0.4309 -0.3701  0.3790
  483TMC3    C1 7180   1.929   4.169   1.628  0.8161  0.5848  0.3703
  483TMC3    C2 7181   2.006   4.270   1.668 -0.1498  0.3386 -0.6204
  483TMC3    C3 7182   2.110   4.252   1.751 -0.1113  0.0566  0.6472
  483TMC3    C4 7183   1.954   4.040   1.677  0.3701  0.4433  0.0865
  483TMC3    C5 7184   2.060   4.018   1.758  1.0140  0.0816 -0.2021
  483TMC3    C6 7185   2.132   4.127   1.796  0.3245 -0.9241  0.7431
  483TMC3     C 7186   1.818   4.206   1.544 -0.4771 -1.0646 -0.5274
  483TMC3     O 7187   1.770   4.319   1.542  0.4491 -0.5075 -0.3389
  483TMC3     H 7188   1.991   4.365   1.618 -2.3843  1.0641  1.4230
  483TMC3    H1 7189   1.897   3.955   1.640  1.4142  0.3898 -1.4031
  483TMC3    H2 7190   2.227   4.105   1.845  0.7125  0.2346  0.5112
  483TMC3    C7 7191   2.122   3.888   1.773  1.0953  0.0269  0.1606
  483TMC3    C8 7192   2.227   4.339   1.733 -0.5800 -0.2139 -0.2550
  483TMC3    O1 7193   2.221   3.885   1.846  0.0426 -0.1663  0.3496
  483TMC3    O2 7194   2.230   4.410   1.631 -0.1359 -0.0566  0.3790
  484MPD2     C 7195   4.398   2.386  12.330 -0.2595  0.6393  1.1566
  484MPD2    C1 7196   4.386   2.246  12.303 -0.1332  0.6120 -0.3654
  484MPD2    C2 7197   4.476   2.181  12.222  0.0926  0.7092 -0.0368
  484MPD2    C3 7198   4.585   2.253  12.181  0.0468 -0.2145  0.3517
  484MPD2    C4 7199   4.598   2.387  12.210  0.1824 -0.1280 -0.0485
  484MPD2    C5 7200   4.499   2.451  12.280 -0.3091  0.4333  0.7154
  484MPD2     H 7201   4.455   2.077  12.199 -1.1658  1.2293 -1.1970
  484MPD2    H1 7202   4.682   2.446  12.176  1.3460 -2.1635 -0.7247
  484MPD2    H2 7203   4.313   2.442  12.367  0.9475  0.8677  3.6268
  484MPD2    H3 7204   4.524   2.549  12.319 -1.2857  0.7326  0.5903
  484MPD2     N 7205   4.704   2.202  12.122  0.2373 -0.4385 -0.5823
  484MPD2    H5 7206   0.061   2.269  12.110 -2.3549  2.3100 -1.3297
  484MPD2    N1 7207   4.273   2.186  12.360 -0.4970  0.3312  0.2418
  484MPD2    H7 7208   4.227   2.235  12.437 -0.3009 -0.0052  0.5751
  485TMC3    C1 7209   0.150   2.045  12.077  0.1392 -0.2086  0.5867
  485TMC3    C2 7210   0.207   1.934  12.130 -0.1385 -0.0862 -0.2332
  485TMC3    C3 7211   0.340   1.925  12.144 -0.3505 -0.4433 -0.6203
  485TMC3    C4 7212   0.229   2.156  12.044  0.0938 -0.5096 -0.4025
  485TMC3    C5 7213   0.365   2.148  12.060  0.0562  0.7377  0.0234
  485TMC3    C6 7214   0.418   2.035  12.113  0.2618  0.2970 -0.2758
  485TMC3     C 7215   0.012   2.073  12.122 -0.2506 -0.3792 -0.1941
  485TMC3     O 7216   4.663   1.974  12.148 -0.7444  0.5473 -0.3269
  485TMC3     H 7217   0.144   1.849  12.154  1.1524 -0.3930  2.1110
  485TMC3    H1 7218   0.189   2.236  11.983  0.0288  0.6645  1.1667
  485TMC3    H2 7219   0.524   2.027  12.132  0.2444  2.2245  0.7305
  485TMC3    C7 7220   0.450   2.208  11.953  0.1117 -0.3522  1.2371
  485TMC3    C8 7221   0.400   1.812  12.085  0.2463 -0.0507 -0.5003
  485TMC3    O1 7222   0.433   2.324  11.921  0.5260 -0.1379  0.2468
  485TMC3    O2 7223   0.456   1.846  11.980 -0.1533  0.5783  0.2644
  486MPD2     C 7224   2.441   0.652  13.410 -0.2912 -0.1974  0.0170
  486MPD2    C1 7225   2.318   0.643  13.349 -0.5409  0.3394 -0.4412
  486MPD2    C2 7226   2.256   0.757  13.309  0.1377  0.2155  0.2812
  486MPD2    C3 7227   2.318   0.881  13.327  0.0973  0.2474 -0.8187
  486MPD2    C4 7228   2.446   0.886  13.378  0.4213  0.7978 -0.4809
  486MPD2    C5 7229   2.499   0.767  13.424 -0.2101 -0.6474  0.6565
  486MPD2     H 7230   2.154   0.755  13.272 -0.1079 -1.3050  1.0515
  486MPD2    H1 7231   2.503   0.977  13.394  0.1828  0.0858  4.2819
  486MPD2    H2 7232   2.494   0.559  13.429 -0.1072 -0.4809 -1.8148
  486MPD2    H3 7233   2.594   0.775  13.477  0.3890 -1.3894 -0.3156
  486MPD2     N 7234   2.238   0.996  13.284 -0.7138  0.0701 -0.0421
  486MPD2    H5 7235   2.158   0.977  13.225 -0.1719 -2.1128 -0.0821
  486MPD2    N1 7236   2.244   0.521  13.339 -0.3305 -0.2550 -0.5599
  486MPD2    H7 7237   2.276   0.439  13.388 -1.2668 -0.3443 -0.0831
  487TMC3    C1 7238   2.069   0.373  13.283  0.1448 -0.0397  0.2603
  487TMC3    C2 7239   1.998   0.338  13.175  0.2761 -0.4399 -0.6452
  487TMC3    C3 7240   1.866   0.297  13.195 -0.2296 -0.0967  1.1817
  487TMC3    C4 7241   2.007   0.384  13.409  0.3911 -0.1458  0.4752
  487TMC3    C5 7242   1.872   0.349  13.420  0.6142 -0.1537 -0.7147
  487TMC3    C6 7243   1.796   0.315  13.311 -0.7352 -0.5995  0.3446
  487TMC3     C 7244   2.140   0.502  13.255  0.4580 -0.1840 -0.1597
  487TMC3     O 7245   2.102   0.564  13.155  0.5378  0.6012 -0.8813
  487TMC3     H 7246   2.037   0.357  13.076  2.3461  2.4851  0.7177
  487TMC3    H1 7247   2.063   0.401  13.501 -0.0314 -1.1717  0.9226
  487TMC3    H2 7248   1.694   0.282  13.319 -0.8433  0.8805  4.7152
  487TMC3    C7 7249   1.822   0.358  13.554 -0.0497  0.6342  0.0099
  487TMC3    C8 7250   1.788   0.267  13.082  0.0420 -0.3810  0.1678
  487TMC3    O1 7251   1.888   0.404  13.647  0.2804  0.5082 -0.2862
  487TMC3    O2 7252   1.851   0.220  12.988  0.1641  0.1857 -0.1063
  488MPD2     C 7253   1.949   2.981  16.436 -0.0348  0.3070  0.4712
  488MPD2    C1 7254   2.039   3.043  16.523 -0.6460 -0.0735  1.2243
  488MPD2    C2 7255   2.048   2.987  16.649  0.2553 -0.7497  0.3712
  488MPD2    C3 7256   1.977   2.875  16.695 -0.2327  0.0570  0.2484
  488MPD2    C4 7257   1.891   2.813  16.602 -0.7736 -0.0277  0.5781
  488MPD2    C5 7258   1.878   2.872  16.478 -0.8928  0.0976 -0.2456
  488MPD2     H 7259   2.110   3.035  16.724  2.9286 -3.3766 -0.1789
  488MPD2    H1 7260   1.830   2.725  16.621 -1.2307  0.2932  0.5885
  488MPD2    H2 7261   1.939   3.012  16.332  0.1188 -1.3021 -0.0354
  488MPD2    H3 7262   1.806   2.822  16.414 -1.2898  2.2593 -1.4939
  488MPD2     N 7263   2.000   2.828  16.826 -0.2098 -0.5700  0.6317
  488MPD2    H5 7264   2.069   2.877  16.883  0.0711  1.5606 -1.5054
  488MPD2    N1 7265   2.112   3.153  16.484 -1.4357 -0.1929  0.1975
  488MPD2    H7 7266   2.155   3.204  16.561  0.4097  0.4799 -1.2958
  489TMC3    C1 7267   1.981   2.690  17.018 -0.2363 -0.4380 -0.1218
  489TMC3    C2 7268   2.100   2.730  17.073 -0.1005  0.4894 -0.2260
  489TMC3    C3 7269   2.122   2.717  17.205 -0.2252 -0.3375 -0.5143
  489TMC3    C4 7270   1.888   2.622  17.097 -0.6006 -0.4660 -0.4456
  489TMC3    C5 7271   1.916   2.616  17.229 -0.1274  0.3665  0.2573
  489TMC3    C6 7272   2.025   2.671  17.284  0.4559 -0.3587  0.6541
  489TMC3     C 7273   1.948   2.716  16.876 -0.1599  0.3141  0.0267
  489TMC3     O 7274   1.862   2.642  16.827  0.6157  0.2519  0.0527
  489TMC3     H 7275   2.183   2.766  17.014  0.7003  1.4391  1.4821
  489TMC3    H1 7276   1.790   2.598  17.057  0.1953  3.6485 -4.8881
  489TMC3    H2 7277   2.045   2.665  17.390  0.7630  1.2503  0.6847
  489TMC3    C7 7278   1.822   2.562  17.329 -0.5340  0.1002 -1.1783
  489TMC3    C8 7279   2.206   2.828  17.253 -0.4410 -0.8029 -0.2129
  489TMC3    O1 7280   1.868   2.509  17.425 -0.1840 -0.5296  0.3034
  489TMC3    O2 7281   2.315   2.838  17.203  0.0075 -0.1536 -0.5142
  490MPD2     C 7282   2.964   2.292  17.508 -0.4450  0.1599 -0.0236
  490MPD2    C1 7283   3.100   2.269  17.491  1.1064 -0.1077  0.3595
  490MPD2    C2 7284   3.191   2.327  17.580  0.4656 -0.1599  0.5233
  490MPD2    C3 7285   3.148   2.406   0.014 -0.7384 -0.0664 -0.6074
  490MPD2    C4 7286   3.012   2.432   0.027  0.0459 -0.4375  0.3595
  490MPD2    C5 7287   2.922   2.372  17.612 -0.0436 -0.8451 -0.5708
  490MPD2     H 7288   3.296   2.302  17.579  0.5690  0.3132 -0.7345
  490MPD2    H1 7289   2.975   2.499   0.104 -2.1570 -1.2574  0.0061
  490MPD2    H2 7290   2.887   2.272  17.434 -0.9020 -1.5094  0.8963
  490MPD2    H3 7291   2.814   2.375  17.627 -0.0866  0.8433 -1.2088
  490MPD2     N 7292   3.239   2.444   0.108  0.0766  0.2516  0.1323
  490MPD2    H5 7293   3.338   2.450   0.086  0.3874 -0.4772  1.3341
  490MPD2    N1 7294   3.155   2.186  17.386 -0.6422 -0.2341 -0.3499
  490MPD2    H7 7295   3.255   2.172  17.394 -0.9587 -1.5132  1.6011
  491TMC3    C1 7296   3.164   1.981  17.275 -0.2320 -0.2354 -0.7009
  491TMC3    C2 7297   3.193   1.898  17.380 -0.5179  0.3727 -0.6530
  491TMC3    C3 7298   3.169   1.766  17.369  0.0558  0.1284 -0.0791
  491TMC3    C4 7299   3.125   1.929  17.150 -0.1643 -0.1124  0.0075
  491TMC3    C5 7300   3.103   1.794  17.145  0.3422 -0.0887  0.2936
  491TMC3    C6 7301   3.127   1.715  17.252 -0.6598  0.0958 -0.3983
  491TMC3     C 7302   3.078   2.093  17.319  0.1738  0.3941  0.6101
  491TMC3     O 7303   2.955   2.086  17.316 -0.3390  0.8765  0.1711
  491TMC3     H 7304   3.219   1.939  17.477  2.0195 -1.5282 -0.5344
  491TMC3    H1 7305   3.062   1.997  17.093 -0.3918  0.0582  0.4600
  491TMC3    H2 7306   3.078   1.618  17.255 -0.2330 -0.0976  0.3360
  491TMC3    C7 7307   3.022   1.743  17.043  0.4472  0.7646 -0.0381
  491TMC3    C8 7308   3.120   1.696  17.486  0.5676  0.1522  1.0860
  491TMC3    O1 7309   2.944   1.653  17.068 -0.9220 -0.1833 -0.3380
  491TMC3    O2 7310   3.123   1.574  17.500  0.6886 -0.1530 -0.1445
  492MPD2     C 7311   3.459   2.478  11.761 -0.5604 -0.3290  0.6471
  492MPD2    C1 7312   3.489   2.386  11.658 -0.0007 -0.0889 -0.5885
  492MPD2    C2 7313   3.459   2.250  11.670  0.1011  0.4085  0.1423
  492MPD2    C3 7314   3.405   2.212  11.794 -0.6956  0.8664  0.7818
  492MPD2    C4 7315   3.387   2.298  11.898 -0.3065 -0.2999 -0.5421
  492MPD2    C5 7316   3.402   2.430  11.878 -0.4569 -0.1216  0.3313
  492MPD2     H 7317   3.476   2.174  11.595  4.8998  1.2909  0.3371
  492MPD2    H1 7318   3.345   2.271  11.994  1.2426 -1.9471 -0.3216
  492MPD2    H2 7319   3.470   2.585  11.750  0.6481 -0.5642 -0.4849
  492MPD2    H3 7320   3.373   2.501  11.955 -2.1369 -1.4346  0.9145
  492MPD2     N 7321   3.378   2.073  11.803  0.6524  0.2478 -0.2670
  492MPD2    H5 7322   3.409   2.020  11.722 -0.1960  0.6013 -0.8264
  492MPD2    N1 7323   3.553   2.451  11.544  0.1614  0.1783  0.2807
  492MPD2    H7 7324   3.571   2.550  11.556 -0.9656  0.4716 -0.3938
  493TMC3    C1 7325   3.631   2.461  11.315  0.2895 -0.0325 -0.1850
  493TMC3    C2 7326   3.580   2.587  11.299  0.0327 -0.8167 -0.3559
  493TMC3    C3 7327   3.567   2.646  11.175 -0.4462  0.2988  0.7370
  493TMC3    C4 7328   3.655   2.384  11.205 -0.2711 -0.4590  0.2379
  493TMC3    C5 7329   3.646   2.449  11.082  0.0340  0.3684  0.2806
  493TMC3    C6 7330   3.603   2.577  11.060 -0.8857  0.5350  0.1511
  493TMC3     C 7331   3.572   2.388  11.424 -0.0480 -1.2132 -0.4138
  493TMC3     O 7332   3.556   2.269  11.406  0.1625 -0.5013 -0.1570
  493TMC3     H 7333   3.534   2.639  11.383  0.1815  0.9237 -1.3622
  493TMC3    H1 7334   3.684   2.281  11.216  0.3922 -0.0418  2.3600
  493TMC3    H2 7335   3.573   2.604  10.959 -0.1823 -0.7995 -0.4011
  493TMC3    C7 7336   3.622   2.366  10.968 -0.4214 -0.2781 -0.3601
  493TMC3    C8 7337   3.498   2.771  11.163 -0.3491 -0.4843 -0.1108
  493TMC3    O1 7338   3.545   2.395  10.881 -0.4136  0.4633  0.1640
  493TMC3    O2 7339   3.422   2.790  11.256 -0.0452  0.2399 -0.0473
  494TMC3    C1 7340   4.247   3.821   0.677 -0.3241 -0.1409 -0.3262
  494TMC3    C2 7341   4.191   3.696   0.667  0.0269  0.2048  0.2177
  494TMC3    C3 7342   4.094   3.681   0.563  0.1401 -0.1331 -0.1301
  494TMC3    C4 7343   4.217   3.920   0.584  0.6961 -0.3598  0.2654
  494TMC3    C5 7344   4.116   3.899   0.495  0.0945  0.2273  0.1467
  494TMC3    C6 7345   4.049   3.785   0.485 -0.2920  0.1473  0.4392
  494TMC3     C 7346   4.336   3.873   0.783  0.8143 -0.7123 -0.0882
  494TMC3     O 7347   4.374   3.989   0.769 -0.3373  0.0371 -0.4918
  494TMC3     H 7348   4.215   3.618   0.738 -1.3587 -0.7847 -0.4031
  494TMC3    H1 7349   4.274   4.012   0.583 -0.2913  0.2654  1.1013
  494TMC3    H2 7350   3.960   3.779   0.423 -0.0430  2.4958 -0.1495
  494TMC3    C7 7351   4.097   3.999   0.392 -0.1444 -1.0599  0.5316
  494TMC3    C8 7352   4.024   3.555   0.552 -0.3062 -0.7970 -0.0793
  494TMC3    O1 7353   4.052   3.971   0.284  0.5870 -0.7027  0.1518
  494TMC3    O2 7354   3.909   3.547   0.508 -0.2886 -0.3171 -0.2284
  495TMC3    C1 7355   2.342   1.084  14.894  0.5735  0.0422  0.4754
  495TMC3    C2 7356   2.225   1.062  14.833  0.2691 -0.3630  0.1286
  495TMC3    C3 7357   2.158   1.174  14.793  0.0301 -0.0566  0.1804
  495TMC3    C4 7358   2.377   1.208  14.934 -0.4395 -0.2739  0.2724
  495TMC3    C5 7359   2.305   1.322  14.899 -0.0294 -0.2840  0.5996
  495TMC3    C6 7360   2.193   1.300  14.827 -0.9217 -0.6312  0.3373
  495TMC3     C 7361   2.368   0.991  15.003  0.5921  0.5088 -0.0210
  495TMC3     O 7362   2.481   1.000  15.050 -0.0399  0.3124  0.3364
  495TMC3     H 7363   2.192   0.961  14.809  1.7818  0.0158 -3.6893
  495TMC3    H1 7364   2.464   1.222  14.997 -0.8926 -0.7575  1.0122
  495TMC3    H2 7365   2.146   1.386  14.780  0.5175  0.4242  0.8403
  495TMC3    C7 7366   2.288   1.415  15.012  0.4728 -0.1923  0.2716
  495TMC3    C8 7367   2.067   1.166  14.680  0.1429  0.4511  0.3533
  495TMC3    O1 7368   2.385   1.437  15.086  0.0208 -0.5871 -0.5981
  495TMC3    O2 7369   2.001   1.270  14.660  0.1707  0.1602  0.2641
  496MPD2     C 7370   4.077   0.854  15.747  0.5160 -0.5266  0.3812
  496MPD2    C1 7371   4.146   0.966  15.709 -0.0649 -0.1022  0.8668
  496MPD2    C2 7372   4.115   1.086  15.766  0.1634 -0.3763 -0.6176
  496MPD2    C3 7373   4.007   1.096  15.849 -0.1176  0.6941 -0.0422
  496MPD2    C4 7374   3.924   0.987  15.873  0.3470  0.0424  0.0400
  496MPD2    C5 7375   3.966   0.860  15.825  0.4879  0.1852 -0.2647
  496MPD2     H 7376   4.177   1.169  15.735 -0.3156  0.5882  0.9940
  496MPD2    H1 7377   3.843   0.994  15.944 -0.2054  2.9465 -0.8804
  496MPD2    H2 7378   4.116   0.756  15.722 -0.0239  0.0682 -2.8554
  496MPD2    H3 7379   3.905   0.774  15.849  2.4619 -1.5127 -1.2348
  496MPD2     N 7380   3.967   1.214  15.915 -0.5014  0.2912  0.6527
  496MPD2    H5 7381   3.884   1.217  15.973  0.2051  0.6789  1.6457
  496MPD2    N1 7382   4.240   0.955  15.605 -0.5646  1.1770 -0.9472
  496MPD2    H7 7383   4.262   0.857  15.589 -0.2196  1.4865 -2.3705
  497TMC3    C1 7384   3.968   1.428  15.971 -0.4796 -0.4427 -0.3702
  497TMC3    C2 7385   3.830   1.418  15.968  0.4449  0.7306  0.1728
  497TMC3    C3 7386   3.772   1.486  16.071  0.2490  1.2627  0.8078
  497TMC3    C4 7387   4.033   1.499  16.062  0.6482  0.0671 -0.3020
  497TMC3    C5 7388   3.966   1.557  16.167 -0.1183  0.4229 -0.3870
  497TMC3    C6 7389   3.831   1.552  16.174 -0.0177 -0.0497 -0.0510
  497TMC3     C 7390   4.040   1.326  15.905 -0.1465 -0.7113 -0.0654
  497TMC3     O 7391   4.160   1.333  15.890 -0.4521 -0.3083 -0.1245
  497TMC3     H 7392   3.775   1.380  15.882 -0.5221  2.5790 -0.0217
  497TMC3    H1 7393   4.140   1.486  16.061  0.4939 -1.1481 -0.2695
  497TMC3    H2 7394   3.775   1.580  16.263 -0.3115  3.1616 -1.2880
  497TMC3    C7 7395   4.034   1.606  16.284 -0.0059  0.6161  0.2406
  497TMC3    C8 7396   3.632   1.521  16.050 -0.1827 -0.5812 -0.1468
  497TMC3    O1 7397   3.964   1.661  16.368  0.3304  0.6624 -0.6246
  497TMC3    O2 7398   3.584   1.619  16.107 -0.4141  0.1294  0.0799
  498MPD2     C 7399   0.535   2.725   8.980 -0.9007  0.4264  0.3494
  498MPD2    C1 7400   0.515   2.788   9.096 -0.0688 -0.5725  0.1452
  498MPD2    C2 7401   0.420   2.751   9.183  0.3466  0.2520  0.1115
  498MPD2    C3 7402   0.325   2.654   9.143  0.4885  0.0597  0.4604
  498MPD2    C4 7403   0.333   2.596   9.017 -0.0644 -0.7762  0.0850
  498MPD2    C5 7404   0.447   2.633   8.944  0.1934 -0.4338  0.1388
  498MPD2     H 7405   0.404   2.805   9.275 -0.8294  0.4230 -0.1981
  498MPD2    H1 7406   0.272   2.517   8.976 -0.5505 -0.4108  0.0993
  498MPD2    H2 7407   0.609   2.751   8.905  0.3270 -0.7983  1.1378
  498MPD2    H3 7408   0.478   2.591   8.849  0.2668  2.1132 -0.9637
  498MPD2     N 7409   0.219   2.623   9.237 -0.0765 -0.7400  0.3390
  498MPD2    H5 7410   0.216   2.668   9.327  1.7011 -0.4350  0.2339
  498MPD2    N1 7411   0.601   2.900   9.134 -0.0708 -0.5299 -0.3095
  498MPD2    H7 7412   0.593   2.936   9.228 -0.9973 -1.6563  0.0428
  499TMC3    C1 7413   0.795   3.044   9.121  0.4358  0.5857 -0.5474
  499TMC3    C2 7414   0.764   3.100   9.244  0.0149 -0.3126 -0.7461
  499TMC3    C3 7415   0.847   3.189   9.291  0.2014  0.3990  0.5690
  499TMC3    C4 7416   0.906   3.072   9.044  0.8481 -0.3051 -0.0030
  499TMC3    C5 7417   0.986   3.172   9.101  0.1049  0.1546  0.1110
  499TMC3    C6 7418   0.955   3.233   9.220 -0.2373 -0.2841 -0.1046
  499TMC3     C 7419   0.699   2.954   9.056 -0.5441  0.3919  0.1172
  499TMC3     O 7420   0.713   2.948   8.935 -0.4938  0.1294  0.3555
  499TMC3     H 7421   0.676   3.074   9.301 -1.4243 -1.0748 -3.2725
  499TMC3    H1 7422   0.919   3.023   8.948  0.5649  1.3825 -0.8972
  499TMC3    H2 7423   1.017   3.311   9.262  0.4569 -2.5345  3.0657
  499TMC3    C7 7424   1.104   3.214   9.041  0.5179  0.0994  0.5111
  499TMC3    C8 7425   0.851   3.221   9.431 -0.0059  0.4355 -0.3607
  499TMC3    O1 7426   1.102   3.245   8.923 -0.2447 -0.1726  0.1646
  499TMC3    O2 7427   0.959   3.254   9.479 -0.3835 -0.5231  0.1360
  500MPD2     C 7428   2.018   3.250  10.979 -0.5453 -0.2309 -0.2277
  500MPD2    C1 7429   2.023   3.170  10.863  0.1141 -0.5787 -0.5855
  500MPD2    C2 7430   1.907   3.157  10.788  0.0211  0.4938  0.9144
  500MPD2    C3 7431   1.781   3.204  10.833  0.5894 -0.0049  0.5802
  500MPD2    C4 7432   1.777   3.273  10.951 -0.1510 -0.3476 -0.6261
  500MPD2    C5 7433   1.891   3.300  11.011  0.2363  0.4234 -0.7445
  500MPD2     H 7434   1.919   3.094  10.701  2.5011  1.7797  0.3189
  500MPD2    H1 7435   1.684   3.313  10.988 -0.5100 -0.2657 -1.6155
  500MPD2    H2 7436   2.099   3.268  11.048 -1.4730  2.0389  0.2642
  500MPD2    H3 7437   1.886   3.367  11.096 -0.5367 -0.4077 -0.1298
  500MPD2     N 7438   1.662   3.174  10.765  0.1577 -0.6191  0.3852
  500MPD2    H5 7439   1.574   3.215  10.796 -0.5635 -0.6745 -1.5769
  500MPD2    N1 7440   2.138   3.111  10.809  0.1189 -0.0515  0.1844
  500MPD2    H7 7441   2.138   3.073  10.715  0.6032 -0.4781  0.3591
  501TMC3    C1 7442   2.370   3.067  10.809 -0.1294  0.1516 -0.2349
  501TMC3    C2 7443   2.388   3.160  10.706 -0.1763  0.1987  0.5141
  501TMC3    C3 7444   2.510   3.204  10.666  1.1412  0.2076  0.9718
  501TMC3    C4 7445   2.475   3.046  10.894 -0.5850 -0.4241 -0.3104
  501TMC3    C5 7446   2.594   3.092  10.851 -0.0659  0.2206  0.0736
  501TMC3    C6 7447   2.616   3.168  10.737  1.0145  0.2818 -1.2863
  501TMC3     C 7448   2.249   3.089  10.886 -0.2323 -0.2286  0.6784
  501TMC3     O 7449   2.265   3.097  11.005  0.0830  0.3765  0.2398
  501TMC3     H 7450   2.301   3.207  10.662 -1.4160 -2.1057  0.5266
  501TMC3    H1 7451   2.461   3.000  10.991  0.6569  0.9635  0.5252
  501TMC3    H2 7452   2.718   3.202  10.722  1.4502  0.0048  1.0180
  501TMC3    C7 7453   2.695   3.105  10.953 -0.0275  1.2718 -0.6363
  501TMC3    C8 7454   2.519   3.347  10.654  0.8150 -0.0874 -0.2658
  501TMC3    O1 7455   2.725   3.010  11.020 -0.2144  0.1582  0.0353
  501TMC3    O2 7456   2.584   3.407  10.738 -0.1983 -0.2694  0.5638
  502TMC3    C1 7457   1.774   2.045  15.049 -0.1734 -0.8339 -0.8812
  502TMC3    C2 7458   1.755   2.102  14.924 -0.2952 -0.1006 -0.6122
  502TMC3    C3 7459   1.631   2.146  14.885 -0.5145 -0.2557 -0.1306
  502TMC3    C4 7460   1.664   2.020  15.126  0.7513  0.1783  0.1865
  502TMC3    C5 7461   1.545   2.082  15.091 -0.0263  0.4415  0.2975
  502TMC3    C6 7462   1.522   2.139  14.968 -0.3673 -0.0050 -0.0255
  502TMC3     C 7463   1.897   2.093  15.115  0.2186 -0.2299 -0.5719
  502TMC3     O 7464   2.000   2.104  15.050  0.4649 -0.1614 -0.2882
  502TMC3     H 7465   1.843   2.147  14.878 -1.0976  0.2000 -1.8737
  502TMC3    H1 7466   1.686   1.982  15.225  0.0474  1.5489  0.8719
  502TMC3    H2 7467   1.445   2.214  14.951 -0.5311 -0.3616 -0.8799
  502TMC3    C7 7468   1.498   2.170  15.201 -0.5967  0.0808 -1.1222
  502TMC3    C8 7469   1.627   2.264  14.793 -1.0074  0.1946 -0.1784
  502TMC3    O1 7470   1.588   2.194  15.281  0.3082 -0.1981  0.3977
  502TMC3    O2 7471   1.532   2.341  14.803  0.1282 -0.7411  0.2005
  503MPD2     C 7472   3.902   2.999  17.348 -0.3479 -0.1788  0.3181
  503MPD2    C1 7473   3.949   2.991  17.477 -0.0977  0.3576 -0.1449
  503MPD2    C2 7474   4.031   2.879  17.509  0.3488  0.3093  0.7525
  503MPD2    C3 7475   4.069   2.784  17.418  0.6741 -0.0174 -0.0728
  503MPD2    C4 7476   4.022   2.794  17.288 -0.3692 -0.0893  0.4952
  503MPD2    C5 7477   3.939   2.900  17.255 -0.4758 -0.0204  0.0621
  503MPD2     H 7478   4.054   2.857  17.612  0.7590 -2.5106  0.0517
  503MPD2    H1 7479   4.052   2.721  17.214  0.4789 -0.9732  1.7111
  503MPD2    H2 7480   3.843   3.082  17.311 -0.4104 -0.7938 -0.9451
  503MPD2    H3 7481   3.904   2.900  17.152  0.8462  0.6415 -0.3960
  503MPD2     N 7482   4.149   2.672  17.465  0.3548 -0.4102 -0.3046
  503MPD2    H5 7483   4.160   2.651  17.564 -1.8835 -0.1356 -0.0150
  503MPD2    N1 7484   3.925   3.085  17.574  0.1634  0.0768 -0.6723
  503MPD2    H7 7485   3.974   3.063  17.661 -0.5712 -0.5593 -0.4159
  504TMC3    C1 7486   4.292   2.494  17.473 -0.1852 -0.1153 -0.5827
  504TMC3    C2 7487   4.223   2.433  17.574  0.0698 -0.2876 -0.1819
  504TMC3    C3 7488   4.284   2.327  17.638 -0.9543 -0.4488 -0.0793
  504TMC3    C4 7489   4.410   2.443  17.434  0.1133 -0.2933  0.2113
  504TMC3    C5 7490   4.479   2.349  17.513 -0.0091 -0.3058 -0.1693
  504TMC3    C6 7491   4.415   2.291  17.616 -0.2136  0.2264  0.8522
  504TMC3     C 7492   4.219   2.583  17.386 -0.0227 -0.2609  0.3461
  504TMC3     O 7493   4.259   2.607  17.276 -0.2138 -0.5180  0.4954
  504TMC3     H 7494   4.118   2.457  17.585  0.8565  2.4019  1.4474
  504TMC3    H1 7495   4.465   2.498  17.359  1.0369  0.7236  1.6265
  504TMC3    H2 7496   4.450   2.202  17.669  1.0815  0.1962 -0.0427
  504TMC3    C7 7497   4.604   2.299  17.457  0.0625 -0.1405 -0.0261
  504TMC3    C8 7498   4.199   2.237   0.034  0.0687 -0.1325  0.3450
  504TMC3    O1 7499   4.637   2.346  17.352 -0.3753  0.1376  0.0553
  504TMC3    O2 7500   4.085   2.232  17.667  0.1054  0.4386  0.0994
  505MPD2     C 7501   0.014   1.322  10.093  0.0216 -0.4020 -0.0375
  505MPD2    C1 7502   0.099   1.384  10.002  1.2596  0.5488 -0.2339
  505MPD2    C2 7503   0.171   1.495  10.037  0.5240 -0.0857  0.6001
  505MPD2    C3 7504   0.170   1.543  10.164  0.4782 -0.4703  0.5071
  505MPD2    C4 7505   0.073   1.484  10.251 -0.5058  0.8425 -0.3085
  505MPD2    C5 7506   4.716   1.375  10.218 -0.3194 -0.5708 -0.2110
  505MPD2     H 7507   0.228   1.544   9.959  1.6710  1.1949  2.2348
  505MPD2    H1 7508   0.068   1.516  10.354  1.1586 -1.4386  0.4837
  505MPD2    H2 7509   4.673   1.231  10.083  1.9846 -1.7058  0.2686
  505MPD2    H3 7510   4.644   1.333  10.287  0.8407 -0.0856  1.3011
  505MPD2     N 7511   0.248   1.659  10.186  0.5130  0.4920 -0.4762
  505MPD2    H5 7512   0.301   1.694  10.107 -0.8140 -0.8891 -1.9710
  505MPD2    N1 7513   0.100   1.335   9.865 -0.1881 -0.1329  0.4415
  505MPD2    H7 7514   0.024   1.274   9.835 -0.3505  0.5685 -0.5848
  506TMC3    C1 7515   0.172   1.331   9.645 -0.5428 -0.2812 -0.1828
  506TMC3    C2 7516   0.057   1.385   9.594 -0.1609  0.4572 -0.1248
  506TMC3    C3 7517   0.062   1.450   9.471 -0.3435 -0.3066 -0.6143
  506TMC3    C4 7518   0.293   1.349   9.574  0.1551  0.4690 -0.5695
  506TMC3    C5 7519   0.292   1.416   9.451  0.3149 -0.4852 -0.1547
  506TMC3    C6 7520   0.176   1.463   9.401  0.5189  0.1199 -0.3950
  506TMC3     C 7521   0.198   1.367   9.780  0.7483 -0.1502  0.5007
  506TMC3     O 7522   0.312   1.423   9.801  0.0783  0.1540  0.0912
  506TMC3     H 7523   4.678   1.380   9.642  0.4070  1.3138  1.1071
  506TMC3    H1 7524   0.383   1.307   9.617  0.1713 -0.2583 -1.3203
  506TMC3    H2 7525   0.180   1.512   9.304  0.0857 -0.4188 -0.6798
  506TMC3    C7 7526   0.391   1.514   9.443 -0.4553  0.9848  0.2651
  506TMC3    C8 7527   4.660   1.513   9.435  0.5050  0.3843  0.4935
  506TMC3    O1 7528   0.410   1.573   9.340 -0.2337 -0.1062  0.1905
  506TMC3    O2 7529   4.553   1.467   9.471  0.2734  0.0110 -0.4746
  507TMC3    C1 7530   0.119   2.313  14.862 -0.7781  0.2918  0.4671
  507TMC3    C2 7531   0.131   2.233  14.754 -0.8289  0.1313 -0.2312
  507TMC3    C3 7532   0.231   2.247  14.665  0.4601  0.5106 -0.5903
  507TMC3    C4 7533   0.208   2.413  14.882 -1.0131 -0.2378  0.5242
  507TMC3    C5 7534   0.306   2.436  14.790 -1.1987  0.1099 -0.7722
  507TMC3    C6 7535   0.327   2.341  14.686 -0.1149 -0.1079  0.4325
  507TMC3     C 7536   4.702   2.325  14.918 -0.0995  0.2114 -0.2803
  507TMC3     O 7537   4.617   2.279  14.846 -0.0199  0.6160 -0.0416
  507TMC3     H 7538   0.051   2.161  14.741 -0.1665 -0.9221  1.4541
  507TMC3    H1 7539   0.195   2.481  14.966 -0.7868 -0.6690  0.9096
  507TMC3    H2 7540   0.418   2.354  14.629  1.4726 -1.3819  2.6935
  507TMC3    C7 7541   0.332   2.574  14.743  0.0110  0.3335 -0.0342
  507TMC3    C8 7542   0.184   2.258  14.532 -0.2355  0.1470 -0.0527
  507TMC3    O1 7543   0.345   2.591  14.625 -0.0227  0.3409  0.3160
  507TMC3    O2 7544   0.106   2.176  14.491 -0.7060  0.2754 -0.8288
  508MPD2     C 7545   1.057   0.644  16.909  0.3004 -0.1223 -0.3930
  508MPD2    C1 7546   1.184   0.644  16.859  0.0510 -0.1182  0.1002
  508MPD2    C2 7547   1.196   0.659  16.717 -0.7466 -0.2510 -0.6795
  508MPD2    C3 7548   1.086   0.651  16.636  0.5867  0.5232  0.5451
  508MPD2    C4 7549   0.958   0.643  16.692  0.2145 -0.4114 -0.6029
  508MPD2    C5 7550   0.942   0.640  16.827 -0.1059  0.7346  0.1993
  508MPD2     H 7551   1.294   0.654  16.670 -0.2867 -1.0939  0.3621
  508MPD2    H1 7552   0.869   0.636  16.631 -0.2204  3.7820 -0.4073
  508MPD2    H2 7553   1.034   0.638  17.015 -1.9848  0.0835 -0.8849
  508MPD2    H3 7554   0.845   0.625  16.874 -0.4961  0.3803 -0.7185
  508MPD2     N 7555   1.114   0.650  16.499 -0.5512  0.8489 -1.1116
  508MPD2    H5 7556   1.211   0.667  16.476  0.4297 -1.6880  1.1331
  508MPD2    N1 7557   1.294   0.635  16.953 -0.1373 -0.4846 -0.1610
  508MPD2    H7 7558   1.269   0.637  17.052 -0.4460 -0.7815 -0.2316
  509TMC3    C1 7559   1.035   0.664  16.046 -0.1127 -1.3992 -0.1994
  509TMC3    C2 7560   1.137   0.760  16.024 -0.4011  0.5308 -0.2066
  509TMC3    C3 7561   1.195   0.821  16.128  0.7983  0.3563 -0.2440
  509TMC3    C4 7562   1.014   0.605  16.164 -0.3555  0.1960 -0.1824
  509TMC3    C5 7563   1.076   0.663  16.268 -0.1059  0.3759 -0.3925
  509TMC3    C6 7564   1.163   0.771  16.252 -0.2936  0.0037 -0.5575
  509TMC3     C 7565   0.942   0.633  15.942 -0.3458 -0.5375 -0.5824
  509TMC3     O 7566   0.883   0.524  15.951  0.1060  0.6265  0.7896
  509TMC3     H 7567   1.159   0.794  15.924 -1.7340  0.1500 -0.6264
  509TMC3    H1 7568   0.928   0.541  16.175 -0.7573  0.9877  1.3194
  509TMC3    H2 7569   1.213   0.822  16.334  1.3320 -1.0173 -0.9102
  509TMC3    C7 7570   1.017   0.636  16.399  0.1626 -0.2519  0.5380
  509TMC3    C8 7571   1.272   0.938  16.119  0.3218  0.8169 -0.4390
  509TMC3    O1 7572   0.904   0.591  16.408  0.2310  0.5233  0.5109
  509TMC3    O2 7573   1.322   0.988  16.216  0.7003  0.1147 -0.2995
  510MPD2     C 7574   3.764   1.896  14.577  0.5139 -0.2791  0.4219
  510MPD2    C1 7575   3.858   1.877  14.673  0.4499 -0.4936  0.0949
  510MPD2    C2 7576   3.986   1.834  14.624 -0.2961 -0.2450 -0.4809
  510MPD2    C3 7577   4.016   1.806  14.497  0.1717 -0.3054 -0.2658
  510MPD2    C4 7578   3.917   1.837  14.408  0.2264 -0.4409 -0.0674
  510MPD2    C5 7579   3.791   1.884  14.447 -0.1543  0.1468 -0.0096
  510MPD2     H 7580   4.070   1.810  14.688 -0.6638  1.6862  0.6998
  510MPD2    H1 7581   3.940   1.856  14.303 -2.7907  0.3960 -0.5841
  510MPD2    H2 7582   3.660   1.903  14.606 -0.5231  0.4141 -3.3719
  510MPD2    H3 7583   3.705   1.888  14.380 -1.1843  2.3756  1.4705
  510MPD2     N 7584   4.145   1.760  14.455  0.1083  0.1734  0.8433
  510MPD2    H5 7585   4.208   1.757  14.534 -0.2158 -1.0961  1.0442
  510MPD2    N1 7586   3.820   1.887  14.806 -0.0812  0.2741  0.2653
  510MPD2    H7 7587   3.721   1.895  14.828 -0.3599 -1.3566 -0.4108
  511TMC3    C1 7588   3.845   1.873  15.045  0.5193 -0.9221  0.2653
  511TMC3    C2 7589   3.716   1.919  15.069 -0.0809  0.3723  0.8764
  511TMC3    C3 7590   3.654   1.880  15.185 -0.1435 -0.4858 -1.0522
  511TMC3    C4 7591   3.909   1.796  15.139  0.0819  0.4924  0.5998
  511TMC3    C5 7592   3.844   1.760  15.253  0.5383 -0.3165 -0.3907
  511TMC3    C6 7593   3.710   1.792  15.275 -0.4984 -0.0378  0.5922
  511TMC3     C 7594   3.903   1.882  14.912 -0.5711 -0.0510  0.0561
  511TMC3     O 7595   4.024   1.852  14.901 -0.1274 -0.0338  0.0757
  511TMC3     H 7596   3.665   1.989  15.004  0.5041  0.9942  1.0886
  511TMC3    H1 7597   4.012   1.763  15.132  0.8060  2.7111  1.0622
  511TMC3    H2 7598   3.670   1.768  15.373  1.0931 -1.9340  0.7730
  511TMC3    C7 7599   3.893   1.647  15.321  0.8996  0.1183  0.2070
  511TMC3    C8 7600   3.521   1.934  15.224 -0.3785 -0.4265  0.2462
  511TMC3    O1 7601   4.011   1.623  15.331 -0.5196  0.3870 -0.0340
  511TMC3    O2 7602   3.515   2.057  15.221  0.4202  0.0017  0.4177
  512TMC3    C1 7603   2.397   0.933  13.777 -0.1407  0.5587  0.1042
  512TMC3    C2 7604   2.518   0.932  13.843  0.7426 -0.7278  0.7448
  512TMC3    C3 7605   2.583   0.815  13.874 -0.3765  0.1449  0.1447
  512TMC3    C4 7606   2.351   0.813  13.733 -0.8883 -0.7567 -0.2401
  512TMC3    C5 7607   2.418   0.696  13.763 -0.1692  0.0710  0.8538
  512TMC3    C6 7608   2.531   0.691  13.837 -0.1213  0.0994  0.0166
  512TMC3     C 7609   2.330   1.061  13.747  0.8012 -0.0653  0.4905
  512TMC3     O 7610   2.388   1.159  13.791  0.0632  0.2257  0.4049
  512TMC3     H 7611   2.553   1.030  13.872  1.9969  0.0315 -3.2538
  512TMC3    H1 7612   2.263   0.803  13.669  0.1799  0.5018 -1.9164
  512TMC3    H2 7613   2.572   0.593  13.859 -0.3100 -0.6967 -3.1610
  512TMC3    C7 7614   2.343   0.575  13.749 -0.2828 -0.1656  0.1523
  512TMC3    C8 7615   2.725   0.811  13.923  0.2655 -0.0504 -0.5159
  512TMC3    O1 7616   2.221   0.592  13.753  0.0200 -0.7452 -1.2985
  512TMC3    O2 7617   2.786   0.714  13.886  0.9459 -0.4779  0.2785
  513MPD2     C 7618   3.773   1.140  12.525  0.0389  0.3719  0.4293
  513MPD2    C1 7619   3.826   1.011  12.554 -1.1454 -1.0276 -0.0924
  513MPD2    C2 7620   3.872   0.979  12.681 -0.2838  0.5832  0.3051
  513MPD2    C3 7621   3.855   1.065  12.786  0.3692 -0.7308 -0.2469
  513MPD2    C4 7622   3.803   1.190  12.761 -0.5622  0.2774  0.5949
  513MPD2    C5 7623   3.762   1.226  12.638 -0.2010  0.2107 -0.1019
  513MPD2     H 7624   3.916   0.880  12.693  0.5852  0.8168 -0.8855
  513MPD2    H1 7625   3.780   1.257  12.843 -0.1883  0.0062  0.9270
  513MPD2    H2 7626   3.731   1.165  12.429  1.7357 -1.1903 -0.7207
  513MPD2    H3 7627   3.717   1.324  12.621 -1.6372 -0.3262  0.5857
  513MPD2     N 7628   3.885   1.021  12.915  0.0800  0.1962 -0.4952
  513MPD2    H5 7629   3.926   0.929  12.926  0.0671  0.1071 -1.1970
  513MPD2    N1 7630   3.853   0.916  12.452 -0.0499 -0.0850 -0.5722
  513MPD2    H7 7631   3.917   0.842  12.478  2.5934  2.4517  0.2526
  514TMC3    C1 7632   3.912   0.815  12.261 -0.5102  0.0288  0.3085
  514TMC3    C2 7633   3.999   0.865  12.173 -0.6237 -0.8374 -0.5078
  514TMC3    C3 7634   4.133   0.822  12.170 -0.4156 -0.0796  0.2440
  514TMC3    C4 7635   3.957   0.719  12.349 -0.6678  0.4203 -0.1529
  514TMC3    C5 7636   4.083   0.672  12.347 -0.4689 -0.4632 -0.3699
  514TMC3    C6 7637   4.174   0.727  12.261  0.6219  0.0704  0.1375
  514TMC3     C 7638   3.829   0.916  12.319  0.0659 -0.1886 -0.6803
  514TMC3     O 7639   3.784   1.000  12.246  0.0267  0.4371 -0.5941
  514TMC3     H 7640   3.966   0.955  12.122  1.2727 -0.8864 -1.8122
  514TMC3    H1 7641   3.889   0.660  12.408  0.1526  0.0210  0.3915
  514TMC3    H2 7642   4.281   0.715  12.276  0.5139 -0.1610  0.6886
  514TMC3    C7 7643   4.114   0.650  12.484 -0.4111 -0.5938 -0.1951
  514TMC3    C8 7644   4.227   0.938  12.166 -0.3780  0.6098 -0.1846
  514TMC3    O1 7645   4.026   0.678  12.568 -0.0577  0.7239  0.0667
  514TMC3    O2 7646   4.306   0.954  12.259  0.1529  0.2662 -0.2439
  515MPD2     C 7647   2.386   3.048  15.081  0.4573 -0.0707  0.6101
  515MPD2    C1 7648   2.448   3.065  14.961 -0.2528  0.6550 -0.0098
  515MPD2    C2 7649   2.565   3.137  14.960 -0.0333  0.6052  0.0010
  515MPD2    C3 7650   2.616   3.199  15.075 -0.0930 -0.5985 -0.3662
  515MPD2    C4 7651   2.534   3.194  15.191  0.5137  1.0391  0.1419
  515MPD2    C5 7652   2.419   3.113  15.192 -0.0517 -0.3967 -0.0808
  515MPD2     H 7653   2.618   3.150  14.866 -0.4044 -0.5210 -0.3651
  515MPD2    H1 7654   2.543   3.255  15.280  0.0052  0.8839  0.2992
  515MPD2    H2 7655   2.292   2.993  15.078  0.8650 -0.7893  0.9077
  515MPD2    H3 7656   2.363   3.100  15.283 -0.2603  0.3534 -0.1077
  515MPD2     N 7657   2.744   3.267  15.083 -0.2340 -0.2095 -0.6905
  515MPD2    H5 7658   2.765   3.317  15.169  0.4681 -0.2046 -0.8634
  515MPD2    N1 7659   2.399   3.001  14.840  0.1092  0.5743  0.7693
  515MPD2    H7 7660   2.325   2.934  14.857  0.7033 -0.3178 -0.1699
  516TMC3    C1 7661   2.410   2.893  14.636 -0.1057  0.7360  0.4620
  516TMC3    C2 7662   2.365   2.911  14.503 -0.5506 -0.1149  0.2917
  516TMC3    C3 7663   2.311   2.795  14.439  0.2766  0.5119 -0.1899
  516TMC3    C4 7664   2.410   2.771  14.705  0.0368 -0.4451  0.0296
  516TMC3    C5 7665   2.362   2.666  14.632 -0.3166 -0.1146 -0.4354
  516TMC3    C6 7666   2.307   2.673  14.505  0.3637 -0.2989 -0.1873
  516TMC3     C 7667   2.456   3.007  14.718  0.3134 -0.2170 -0.3358
  516TMC3     O 7668   2.523   3.096  14.666 -0.6639 -0.2594 -0.3335
  516TMC3     H 7669   2.374   3.009  14.458  1.7454 -0.4516  0.0284
  516TMC3    H1 7670   2.453   2.771  14.804  0.7287 -0.6333 -0.2705
  516TMC3    H2 7671   2.260   2.586  14.461 -0.5925 -0.8979  2.0175
  516TMC3    C7 7672   2.348   2.544  14.702  0.9771  0.2467  0.1187
  516TMC3    C8 7673   2.288   2.795  14.296 -0.4646 -0.0513 -0.1670
  516TMC3    O1 7674   2.352   2.553  14.826  0.1059 -0.1336  0.5314
  516TMC3    O2 7675   2.196   2.718  14.259  0.5138  0.3081 -0.2838
  517MPD2     C 7676   2.360   4.201   0.884  0.5308  0.0851  0.0493
  517MPD2    C1 7677   2.495   4.191   0.856 -0.9244 -0.1770  0.8662
  517MPD2    C2 7678   2.581   4.271   0.929 -0.5178 -0.2041  0.7788
  517MPD2    C3 7679   2.531   4.356   1.034  0.3632  0.3619 -0.4573
  517MPD2    C4 7680   2.398   4.369   1.055 -0.1242  0.0391  0.0173
  517MPD2    C5 7681   2.314   4.287   0.980 -1.0078  0.4566  0.2825
  517MPD2     H 7682   2.686   4.262   0.904 -0.8947 -3.3666  0.3296
  517MPD2    H1 7683   2.356   4.428   1.135 -1.4226  1.6381 -1.8602
  517MPD2    H2 7684   2.288   4.134   0.838  1.0292 -0.9752  0.8131
  517MPD2    H3 7685   2.208   4.274   1.002 -1.4045  1.6392 -0.8689
  517MPD2     N 7686   2.616   4.433   1.122  0.1735  0.5945  0.6046
  517MPD2    H5 7687   2.562   4.486   1.190 -0.3886 -1.4664  1.7393
  517MPD2    N1 7688   2.546   4.111   0.754 -0.5821 -0.2451  0.4470
  517MPD2    H7 7689   2.646   4.093   0.761 -0.2794  1.8126  1.4213
  518TMC3    C1 7690   2.550   3.966   0.567 -0.2452  0.5660  0.2000
  518TMC3    C2 7691   2.478   3.869   0.500 -0.2508  0.3926  0.1147
  518TMC3    C3 7692   2.547   3.762   0.453 -0.1157  0.3888  0.4261
  518TMC3    C4 7693   2.687   3.954   0.590 -0.5398 -0.1282 -0.6714
  518TMC3    C5 7694   2.751   3.850   0.540  0.0715 -0.7059  0.3383
  518TMC3    C6 7695   2.683   3.751   0.465 -0.3452 -0.0857  0.9154
  518TMC3     C 7696   2.470   4.062   0.648  0.2985  0.3916 -0.5945
  518TMC3     O 7697   2.359   4.086   0.610 -0.2868 -0.4407 -0.1932
  518TMC3     H 7698   2.370   3.866   0.512  0.0416  0.7848  3.0678
  518TMC3    H1 7699   2.748   4.040   0.615  1.1479 -0.8608 -2.2811
  518TMC3    H2 7700   2.745   3.665   0.442 -0.1427 -0.0586  1.3573
  518TMC3    C7 7701   2.898   3.835   0.563  0.3416 -0.0185 -0.1614
  518TMC3    C8 7702   2.477   3.643   0.399  0.6842  0.2577  0.2331
  518TMC3    O1 7703   2.943   3.884   0.665 -0.1832  0.0245  0.2203
  518TMC3    O2 7704   2.547   3.545   0.371  0.1749 -0.5633  0.6732
  519MPD2     C 7705   3.687   2.776  14.605 -0.4051 -0.5047  0.1431
  519MPD2    C1 7706   3.692   2.767  14.465  0.1250 -0.0641 -0.6969
  519MPD2    C2 7707   3.733   2.649  14.410  0.1942 -0.8905  0.1987
  519MPD2    C3 7708   3.786   2.545  14.482 -0.7509 -0.2599 -0.6339
  519MPD2    C4 7709   3.795   2.562  14.619 -0.3026 -0.8129 -0.3821
  519MPD2    C5 7710   3.737   2.675  14.679  0.1978  0.9069 -0.2479
  519MPD2     H 7711   3.726   2.641  14.302  0.5517 -0.1374  0.1141
  519MPD2    H1 7712   3.831   2.482  14.682 -0.9198 -0.4028  0.4880
  519MPD2    H2 7713   3.630   2.859  14.646 -0.3064 -0.2876 -0.1569
  519MPD2    H3 7714   3.736   2.675  14.787  1.7710  0.9009 -0.2305
  519MPD2     N 7715   3.833   2.419  14.424  0.2238 -0.3885 -0.4502
  519MPD2    H5 7716   3.868   2.347  14.486  1.1722  2.2140  2.0202
  519MPD2    N1 7717   3.634   2.869  14.395 -0.2931 -0.5077  0.4474
  519MPD2    H7 7718   3.609   2.951  14.451  1.8794  0.3372  0.1734
  520TMC3    C1 7719   3.876   2.258  14.259 -0.0164  0.0404  0.1687
  520TMC3    C2 7720   3.825   2.207  14.146 -0.0156  0.0783 -0.1865
  520TMC3    C3 7721   3.890   2.102  14.088  0.9408  0.2630  0.1276
  520TMC3    C4 7722   3.992   2.213  14.312 -0.5433 -0.1887  0.1262
  520TMC3    C5 7723   4.060   2.117  14.240  0.2565 -0.7061 -0.6201
  520TMC3    C6 7724   4.017   2.060  14.122 -0.4413  0.0214  0.1720
  520TMC3     C 7725   3.845   2.393  14.291 -0.0921 -0.3329  0.4661
  520TMC3     O 7726   3.807   2.454  14.194  0.1615 -0.5593  0.1158
  520TMC3     H 7727   3.736   2.252  14.104 -1.0485 -0.8682  0.9689
  520TMC3    H1 7728   4.034   2.262  14.399 -2.8308  1.1241  0.4979
  520TMC3    H2 7729   4.058   1.966  14.088  2.3751  0.2152  3.0236
  520TMC3    C7 7730   4.199   2.103  14.252  0.1042 -0.6916 -0.0262
  520TMC3    C8 7731   3.832   2.022  13.983  0.1591  1.1274  0.2351
  520TMC3    O1 7732   4.245   2.114  14.362  0.1092 -0.3315 -0.2219
  520TMC3    O2 7733   3.912   1.959  13.912 -0.1579 -0.1573 -0.0459
  521MPD2     C 7734   0.230   0.206   0.113  0.2230 -0.0568  0.6053
  521MPD2    C1 7735   0.218   0.254  17.656  0.1736 -0.3489  0.1451
  521MPD2    C2 7736   0.304   0.209  17.562 -0.2434  0.7608 -0.1969
  521MPD2    C3 7737   0.386   0.095  17.583 -0.2844 -0.0009 -0.6584
  521MPD2    C4 7738   0.396   0.052   0.042  0.2737  0.1514 -0.2090
  521MPD2    C5 7739   0.325   0.115   0.145  0.2364  0.1832  0.0026
  521MPD2     H 7740   0.305   0.246  17.460  0.7466  1.2453 -0.0072
  521MPD2    H1 7741   0.453   4.683   0.074  2.3585  1.4520 -0.4000
  521MPD2    H2 7742   0.168   0.235   0.197 -1.0484 -0.7619 -0.0772
  521MPD2    H3 7743   0.313   0.078   0.246  1.9549 -1.7986 -0.5164
  521MPD2     N 7744   0.472   0.055  17.476  0.1333  0.3064  0.2770
  521MPD2    H5 7745   0.470   0.116  17.395  0.8506 -0.9103 -0.6549
  521MPD2    N1 7746   0.130   0.364  17.629  0.5322 -0.1877  0.4492
  521MPD2    H7 7747   0.065   0.382   0.031 -2.2084 -3.4516 -1.0797
  522TMC3    C1 7748   0.636   4.653  17.364 -0.7024 -0.2414  0.1160
  522TMC3    C2 7749   0.748   4.582  17.384 -0.1669  0.5175 -0.3513
  522TMC3    C3 7750   0.847   4.597  17.290 -0.3284  1.2091 -0.0184
  522TMC3    C4 7751   0.614   0.026  17.261 -0.2318  0.3910 -0.7347
  522TMC3    C5 7752   0.721   0.039  17.171 -0.3152 -0.3292 -0.1944
  522TMC3    C6 7753   0.842   4.686  17.188 -0.1252  0.4489 -0.0093
  522TMC3     C 7754   0.554   4.657  17.480  0.2779 -0.5002  0.3060
  522TMC3     O 7755   0.561   4.574  17.569  0.7460  0.1711  0.1910
  522TMC3     H 7756   0.767   4.520  17.471 -0.8014  3.2794  1.7380
  522TMC3    H1 7757   0.520   0.078  17.247 -0.5126  0.2969  0.8458
  522TMC3    H2 7758   0.920   4.710  17.117  0.2576 -1.0432 -0.0950
  522TMC3    C7 7759   0.719   0.150  17.069  0.1899  0.1707 -0.6584
  522TMC3    C8 7760   0.979   4.558  17.329  0.1375 -0.0282  0.2147
  522TMC3    O1 7761   0.817   0.161  16.996 -0.2944 -0.2185  0.1338
  522TMC3    O2 7762   1.001   4.460  17.400 -0.3383 -0.0848 -0.1479
  523MPD2     C 7763   3.207   4.276  10.230 -1.0983 -0.9414 -0.1679
  523MPD2    C1 7764   3.106   4.241  10.141  0.4966  1.2233 -0.6476
  523MPD2    C2 7765   3.086   4.317  10.033 -0.0559 -0.1606 -0.4878
  523MPD2    C3 7766   3.168   4.422  10.000 -0.2221  0.6955 -0.0673
  523MPD2    C4 7767   3.281   4.444  10.080 -0.7943  0.0801  0.0347
  523MPD2    C5 7768   3.299   4.364  10.191  0.2334  0.6274  0.5175
  523MPD2     H 7769   3.002   4.289   9.970  0.3997 -2.3011 -0.1225
  523MPD2    H1 7770   3.359   4.516  10.060 -0.0189 -0.6542  0.4024
  523MPD2    H2 7771   3.215   4.219  10.322 -1.2917 -1.3956 -0.4348
  523MPD2    H3 7772   3.386   4.382  10.253  1.1704  0.8211 -0.8595
  523MPD2     N 7773   3.143   4.512   9.895  0.2262  0.2759 -0.0823
  523MPD2    H5 7774   3.195   4.599   9.892  1.5582 -0.5007  0.6170
  523MPD2    N1 7775   3.018   4.130  10.181  0.2125 -0.2883  0.1651
  523MPD2    H7 7776   3.050   4.076  10.260  0.5040 -0.5623 -0.1374
  524TMC3    C1 7777   3.030   4.598   9.699 -0.9150  0.0012 -0.2113
  524TMC3    C2 7778   2.937   4.578   9.597 -0.3626  0.1333  0.4453
  524TMC3    C3 7779   2.905   4.679   9.509 -0.2971 -0.0323  0.3308
  524TMC3    C4 7780   3.085   0.003   9.714 -0.2357 -0.1777 -0.5425
  524TMC3    C5 7781   3.055   0.097   9.624  0.5842  0.0772  0.1334
  524TMC3    C6 7782   2.963   0.081   9.522  0.1439  0.6700 -0.0580
  524TMC3     C 7783   3.049   4.490   9.795 -0.2994  0.2163  0.4502
  524TMC3     O 7784   2.988   4.387   9.774  0.0592  0.0176  0.3405
  524TMC3     H 7785   2.912   4.475   9.575  0.5269 -0.1979  0.9815
  524TMC3    H1 7786   3.153   0.024   9.795 -1.3710 -1.7539  0.8151
  524TMC3    H2 7787   2.957   0.149   9.438 -0.8745 -1.4633 -1.7173
  524TMC3    C7 7788   3.139   0.210   9.629  0.6887 -0.5619 -0.7245
  524TMC3    C8 7789   2.789   4.659   9.427  0.3530 -0.2422 -0.2068
  524TMC3    O1 7790   3.249   0.187   9.679 -0.2287  0.4147 -0.1574
  524TMC3    O2 7791   2.752   4.540   9.425 -0.2892 -0.1546 -0.5569
  525MPD2     C 7792   0.480   2.004  14.497  0.3839  0.1533  0.3336
  525MPD2    C1 7793   0.605   2.046  14.546 -0.2533 -0.2645  0.7202
  525MPD2    C2 7794   0.663   2.166  14.513  0.1553  0.8244  0.0908
  525MPD2    C3 7795   0.588   2.252  14.430  0.0432 -0.2555 -0.3465
  525MPD2    C4 7796   0.470   2.208  14.375  0.1033 -0.1494  0.2198
  525MPD2    C5 7797   0.423   2.085  14.405  0.6887 -0.1165  0.0456
  525MPD2     H 7798   0.762   2.188  14.551  0.5610  1.2779 -1.2457
  525MPD2    H1 7799   0.418   2.273  14.305 -0.5944  0.1157  0.9868
  525MPD2    H2 7800   0.445   1.904  14.518 -2.4256  0.9419 -0.7396
  525MPD2    H3 7801   0.336   2.050  14.350 -1.1579  1.5142  1.9135
  525MPD2     N 7802   0.623   2.384  14.401 -0.0921  0.2997  0.7101
  525MPD2    H5 7803   0.562   2.446  14.348 -0.4588  0.2527  1.0781
  525MPD2    N1 7804   0.668   1.969  14.650  0.4205  0.5146 -0.4148
  525MPD2    H7 7805   0.766   1.983  14.671 -0.0620  0.7629  1.6145
  526TMC3    C1 7806   0.670   1.836  14.844  0.2281 -0.5276 -0.0650
  526TMC3    C2 7807   0.601   1.829  14.961 -0.3565  0.1938 -0.4497
  526TMC3    C3 7808   0.674   1.831  15.078 -0.3980  0.4378 -0.0828
  526TMC3    C4 7809   0.802   1.823  14.837  1.2955  0.0230  0.4992
  526TMC3    C5 7810   0.874   1.802  14.951  0.4178  0.1668 -0.1163
  526TMC3    C6 7811   0.811   1.817  15.076  0.1698 -0.5690 -0.0548
  526TMC3     C 7812   0.598   1.886  14.725  0.2361 -0.2340 -0.0190
  526TMC3     O 7813   0.478   1.887  14.745 -0.4615 -0.7445 -0.8510
  526TMC3     H 7814   0.493   1.826  14.954 -0.5823  2.7577  1.9148
  526TMC3    H1 7815   0.839   1.837  14.736 -0.4721  0.7571 -0.0450
  526TMC3    H2 7816   0.866   1.815  15.169 -0.0124  0.1537  0.0665
  526TMC3    C7 7817   1.018   1.773  14.946  1.3320 -0.0217 -0.2063
  526TMC3    C8 7818   0.594   1.843  15.204  0.3106  0.4146 -0.0991
  526TMC3    O1 7819   1.069   1.773  15.060 -0.0230 -0.5489  0.0620
  526TMC3    O2 7820   0.660   1.892  15.294 -0.2385  0.1016 -1.0340
  527MPD2     C 7821   0.129   4.083   1.828 -0.2468  0.3079  0.0017
  527MPD2    C1 7822   0.097   4.211   1.793 -0.6745  0.2545 -0.3239
  527MPD2    C2 7823   0.148   4.263   1.677 -0.2410  0.1624 -0.1716
  527MPD2    C3 7824   0.215   4.181   1.590  0.1357 -0.0759  0.2592
  527MPD2    C4 7825   0.222   4.045   1.620 -0.1449 -0.0439  0.7333
  527MPD2    C5 7826   0.186   3.998   1.746 -0.3882 -0.3524  0.0134
  527MPD2     H 7827   0.129   4.365   1.646 -3.0745 -0.8728 -1.8266
  527MPD2    H1 7828   0.263   3.981   1.543  1.2677 -0.7864  2.0933
  527MPD2    H2 7829   0.101   4.054   1.929  0.1080 -2.4879 -0.7162
  527MPD2    H3 7830   0.204   3.898   1.783 -1.7217 -0.6638 -0.1765
  527MPD2     N 7831   0.286   4.222   1.472  1.1217  0.1216 -0.0490
  527MPD2    H5 7832   0.342   4.148   1.430  0.7001  0.0432 -0.4788
  527MPD2    N1 7833   0.038   4.294   1.886  0.2388 -0.3336 -0.2198
  527MPD2    H7 7834   0.054   4.392   1.866  1.1800 -0.1927  1.2625
  528TMC3    C1 7835   4.644   4.341   2.089  0.2468 -0.1372 -0.5207
  528TMC3    C2 7836   0.006   4.449   2.110  0.1336 -0.1787 -0.2927
  528TMC3    C3 7837   4.689   4.519   2.222 -0.2717  1.0600 -0.1003
  528TMC3    C4 7838   4.540   4.305   2.167 -0.5664 -0.4456 -0.1726
  528TMC3    C5 7839   4.501   4.394   2.264 -0.2326 -0.6426  0.2442
  528TMC3    C6 7840   4.576   4.504   2.302  0.3109 -0.6094  0.6851
  528TMC3     C 7841   4.680   4.247   1.986 -0.7190 -0.8426 -0.2646
  528TMC3     O 7842   4.624   4.142   2.004 -0.3015 -0.0455 -0.3755
  528TMC3     H 7843   0.098   4.467   2.054 -0.1953 -2.2389 -1.5243
  528TMC3    H1 7844   4.464   4.235   2.133 -0.0028  0.0464 -2.4438
  528TMC3    H2 7845   4.562   4.580   2.378  1.1895 -0.7961  1.0414
  528TMC3    C7 7846   4.369   4.371   2.311  0.0859  0.1355  0.8136
  528TMC3    C8 7847   0.075   4.605   2.280  0.0336  0.1438  0.4880
  528TMC3    O1 7848   4.293   4.322   2.229 -0.5451 -0.4957 -0.1855
  528TMC3    O2 7849   0.150   4.669   2.208  0.1291 -0.3732 -0.7640
  529MPD2     C 7850   0.967   3.558   1.151 -0.5157  0.2175 -0.6078
  529MPD2    C1 7851   1.030   3.445   1.096  0.7833 -0.5412  0.0679
  529MPD2    C2 7852   1.076   3.446   0.963  0.1748  0.0925 -0.5192
  529MPD2    C3 7853   1.059   3.563   0.884 -0.4415  0.1268 -0.2260
  529MPD2    C4 7854   0.998   3.671   0.943 -0.1785  0.0756 -0.0923
  529MPD2    C5 7855   0.951   3.666   1.070 -0.3604 -0.4543  0.3023
  529MPD2     H 7856   1.123   3.353   0.932  1.8109  0.1208  1.9588
  529MPD2    H1 7857   0.983   3.760   0.883  0.2171  0.7315  0.7845
  529MPD2    H2 7858   0.939   3.574   1.254  2.4507  1.1785  0.0403
  529MPD2    H3 7859   0.909   3.752   1.120  0.6441 -1.0884  2.2714
  529MPD2     N 7860   1.113   3.576   0.753 -0.4916 -0.2192  0.7017
  529MPD2    H5 7861   1.110   3.669   0.714  1.8867  0.0536  1.1336
  529MPD2    N1 7862   1.057   3.327   1.170 -1.0944 -0.6215 -0.2811
  529MPD2    H7 7863   1.096   3.252   1.115  0.8265  0.2017 -0.0314
  530TMC3    C1 7864   1.088   3.185   1.352  0.0117 -0.0427  0.0537
  530TMC3    C2 7865   1.143   3.189   1.477 -0.8231 -0.5553 -0.3277
  530TMC3    C3 7866   1.209   3.075   1.517  0.2295 -0.4114  0.4178
  530TMC3    C4 7867   1.090   3.079   1.273  0.6765 -0.2412 -0.7581
  530TMC3    C5 7868   1.149   2.967   1.320  0.5562 -0.3312 -0.1073
  530TMC3    C6 7869   1.214   2.963   1.438  0.0525 -0.3148  0.1794
  530TMC3     C 7870   1.032   3.311   1.303 -0.5378  0.0240 -1.1822
  530TMC3     O 7871   1.009   3.395   1.393 -0.5631 -0.0774  0.4965
  530TMC3     H 7872   1.138   3.281   1.535  0.2905  0.1826 -1.4072
  530TMC3    H1 7873   1.052   3.079   1.171  0.3818  2.1037 -0.6409
  530TMC3    H2 7874   1.256   2.873   1.482  0.8024  0.2609  0.6613
  530TMC3    C7 7875   1.080   2.845   1.286 -0.5375 -0.2211  0.0623
  530TMC3    C8 7876   1.293   3.086   1.636 -0.0895 -0.5967 -0.4468
  530TMC3    O1 7877   0.998   2.856   1.196 -0.1719 -0.0891  0.8226
  530TMC3    O2 7878   1.254   3.157   1.728 -0.7783 -0.6888 -0.3615
  531MPD2     C 7879   4.461   0.659  12.873  0.1683  0.4427 -0.2918
  531MPD2    C1 7880   4.323   0.686  12.868 -0.1130  0.8591  0.1221
  531MPD2    C2 7881   4.260   0.677  12.745  0.5142 -0.0694 -0.6806
  531MPD2    C3 7882   4.312   0.634  12.630  0.2616  0.3460 -0.6659
  531MPD2    C4 7883   4.446   0.605  12.640  0.0335  0.1521 -0.1830
  531MPD2    C5 7884   4.520   0.625  12.757 -0.1327  0.4058  0.3976
  531MPD2     H 7885   4.159   0.717  12.741 -0.6333 -2.9536 -0.6922
  531MPD2    H1 7886   4.504   0.573  12.554 -2.1957 -2.2896 -0.7842
  531MPD2    H2 7887   4.522   0.676  12.961 -1.3530  1.0847  0.6216
  531MPD2    H3 7888   4.628   0.609  12.753 -0.4742 -2.0161  0.5204
  531MPD2     N 7889   4.247   0.630  12.505 -0.2932  0.3576 -0.3918
  531MPD2    H5 7890   4.306   0.585  12.436 -1.2812  0.1021 -1.0685
  531MPD2    N1 7891   4.262   0.730  12.988  0.3357 -0.1787 -1.1871
  531MPD2    H7 7892   4.326   0.755  13.062 -1.3293 -2.0321  0.8572
  532TMC3    C1 7893   4.086   0.838  13.112 -0.8965 -0.1094 -0.2861
  532TMC3    C2 7894   3.949   0.872  13.100  0.0433  0.0441  0.8384
  532TMC3    C3 7895   3.917   1.002  13.142 -0.3644  0.4011 -0.4778
  532TMC3    C4 7896   4.185   0.917  13.164  0.6087  0.0438 -0.6372
  532TMC3    C5 7897   4.135   1.032  13.224  0.3888 -0.7027 -0.1457
  532TMC3    C6 7898   4.002   1.078  13.211  0.5156 -0.2001  0.4646
  532TMC3     C 7899   4.124   0.755  13.000 -0.1592 -0.6500 -0.1481
  532TMC3     O 7900   4.028   0.741  12.922 -0.2751  0.2621 -0.1424
  532TMC3     H 7901   3.882   0.788  13.087 -1.0749  1.1224 -0.2901
  532TMC3    H1 7902   4.267   0.858  13.202  0.2843  0.4181  0.6574
  532TMC3    H2 7903   3.960   1.164  13.262  2.1887  0.9148 -0.0688
  532TMC3    C7 7904   4.202   1.073  13.344  0.1413  0.0642 -0.2099
  532TMC3    C8 7905   3.856   1.081  13.031 -0.4992 -0.0763  0.7608
  532TMC3    O1 7906   4.135   1.105  13.441 -0.2104 -0.0621 -0.1132
  532TMC3    O2 7907   3.821   1.196  13.059  0.4781  0.4575  0.1683
  533TMC3    C1 7908   0.747   2.591  14.418  0.2515 -0.3005 -0.1576
  533TMC3    C2 7909   0.866   2.659  14.435 -0.0217 -1.1073  0.0916
  533TMC3    C3 7910   0.871   2.794  14.462  0.0513  0.6276  0.0785
  533TMC3    C4 7911   0.632   2.667  14.426 -0.1753  0.2441  0.4931
  533TMC3    C5 7912   0.642   2.799  14.434 -0.0946  1.0364 -0.0380
  533TMC3    C6 7913   0.756   2.869  14.452 -0.1913  0.0326 -0.6715
  533TMC3     C 7914   0.744   2.444  14.443  0.6040 -0.4712  0.3364
  533TMC3     O 7915   0.846   2.402  14.491 -0.1555 -0.6103 -0.2989
  533TMC3     H 7916   0.967   2.621  14.435 -0.2045 -1.5907 -0.6888
  533TMC3    H1 7917   0.533   2.624  14.427 -0.6902  1.4477  1.5403
  533TMC3    H2 7918   0.750   2.975  14.427  0.4029  0.4148  0.8381
  533TMC3    C7 7919   0.518   2.878  14.441  0.2134 -0.0123 -0.5778
  533TMC3    C8 7920   0.987   2.847  14.536  0.1763  0.4676  0.2109
  533TMC3    O1 7921   0.431   2.850  14.361 -0.3568  0.1336  0.1795
  533TMC3    O2 7922   1.090   2.779  14.533 -0.0998  0.2154  0.2225
  534MPD2     C 7923   3.445   3.952   1.874 -0.1707 -0.8333  0.9773
  534MPD2    C1 7924   3.540   3.877   1.935  0.7741  0.2274 -0.2832
  534MPD2    C2 7925   3.504   3.751   1.986  0.8259  0.0580  0.5897
  534MPD2    C3 7926   3.375   3.698   1.975 -0.3542  0.1801 -0.2878
  534MPD2    C4 7927   3.286   3.782   1.914  0.1000 -0.1406 -0.1835
  534MPD2    C5 7928   3.319   3.904   1.870 -0.2397 -0.5715  0.3056
  534MPD2     H 7929   3.588   3.693   2.024  0.7818 -1.7946 -2.1091
  534MPD2    H1 7930   3.186   3.741   1.905 -0.9280  2.4049 -0.4135
  534MPD2    H2 7931   3.463   4.054   1.840  1.8724 -1.0058  1.5094
  534MPD2    H3 7932   3.244   3.965   1.821 -1.3087 -2.0158  0.1473
  534MPD2     N 7933   3.335   3.572   2.017 -0.2323  0.2659  0.3385
  534MPD2    H5 7934   3.241   3.548   1.989 -0.2013 -0.4011  0.8127
  534MPD2    N1 7935   3.667   3.922   1.956  0.1724 -0.0162 -0.1420
  534MPD2    H7 7936   3.729   3.857   2.004  1.0656  1.8478  1.2157
  535TMC3    C1 7937   3.371   3.351   2.068  0.0061 -0.3997  0.0102
  535TMC3    C2 7938   3.235   3.350   2.113 -0.7500  0.1759  0.0541
  535TMC3    C3 7939   3.172   3.231   2.106 -0.0554 -0.5026  0.6483
  535TMC3    C4 7940   3.440   3.234   2.040 -0.2367  0.0801 -0.0613
  535TMC3    C5 7941   3.367   3.124   2.040  0.2629 -0.3251  0.5078
  535TMC3    C6 7942   3.235   3.109   2.072 -0.1422  0.4524  0.4636
  535TMC3     C 7943   3.432   3.478   2.055 -0.1785  0.1856  0.2653
  535TMC3     O 7944   3.558   3.478   2.052 -0.6507 -0.5062  0.2411
  535TMC3     H 7945   3.191   3.442   2.150  0.2734  0.2669  1.0745
  535TMC3    H1 7946   3.545   3.238   2.013 -0.0462 -0.1653  0.6411
  535TMC3    H2 7947   3.179   3.019   2.048  0.3354 -0.2757  2.0324
  535TMC3    C7 7948   3.423   3.020   1.960  0.4585 -0.3767  0.2989
  535TMC3    C8 7949   3.029   3.217   2.104 -0.1102 -0.4932  0.6342
  535TMC3    O1 7950   3.473   3.043   1.851  0.1857 -0.0497  0.2070
  535TMC3    O2 7951   2.985   3.129   2.024 -0.0862 -0.0101  0.2963
  536MPD2     C 7952   2.524   2.061  16.323 -0.5335  0.3678 -0.1363
  536MPD2    C1 7953   2.403   1.999  16.366  0.0866 -0.2485 -0.1593
  536MPD2    C2 7954   2.290   2.035  16.291 -1.2119  1.2814 -1.1132
  536MPD2    C3 7955   2.277   2.114  16.183 -0.5815  0.0763  0.7609
  536MPD2    C4 7956   2.398   2.165  16.136 -0.4672 -0.8821  0.2730
  536MPD2    C5 7957   2.514   2.132  16.207 -0.3777 -0.3225 -0.2768
  536MPD2     H 7958   2.196   1.991  16.323 -0.2637  1.8621  2.5394
  536MPD2    H1 7959   2.409   2.234  16.053 -2.2838 -0.8861  0.0243
  536MPD2    H2 7960   2.619   2.027  16.361  0.2191  0.9484 -1.4904
  536MPD2    H3 7961   2.604   2.174  16.164  0.1432 -0.0160  1.0925
  536MPD2     N 7962   2.153   2.163  16.124 -0.4660  0.0230 -0.4579
  536MPD2    H5 7963   2.165   2.228  16.047 -4.2467 -0.1253 -1.1600
  536MPD2    N1 7964   2.405   1.903  16.470 -0.5589  0.3616 -0.0283
  536MPD2    H7 7965   2.492   1.885  16.518 -1.2848  0.6973  1.4131
  537TMC3    C1 7966   2.323   1.741  16.619 -0.1761  0.7048 -0.4620
  537TMC3    C2 7967   2.454   1.690  16.619 -0.4476 -0.1855 -0.0633
  537TMC3    C3 7968   2.489   1.585  16.703 -0.4499 -0.3066 -0.2391
  537TMC3    C4 7969   2.228   1.681  16.699 -0.2809  0.1431  0.3587
  537TMC3    C5 7970   2.266   1.581  16.786 -0.1641 -0.1622 -0.0662
  537TMC3    C6 7971   2.400   1.527  16.792 -0.3043  0.1309 -0.4454
  537TMC3     C 7972   2.292   1.843  16.522 -0.0944 -0.8563  0.3707
  537TMC3     O 7973   2.172   1.853  16.506  0.5159 -0.1495 -0.3610
  537TMC3     H 7974   2.535   1.752  16.583 -0.9969 -0.1974 -1.3262
  537TMC3    H1 7975   2.129   1.723  16.695 -0.0344  0.6102 -0.9674
  537TMC3    H2 7976   2.431   1.442  16.850 -1.5789 -0.7774 -1.0938
  537TMC3    C7 7977   2.160   1.495  16.841 -0.7023 -0.1472 -0.2463
  537TMC3    C8 7978   2.630   1.577  16.735 -0.7995  0.7985  0.0841
  537TMC3    O1 7979   2.058   1.496  16.776  0.4664  0.1077 -0.3737
  537TMC3    O2 7980   2.657   1.548  16.850 -0.8311  0.2276 -0.3359
  538TMC3    C1 7981   3.854   4.687  10.841 -0.0302  0.2697 -0.1375
  538TMC3    C2 7982   3.958   4.653  10.762  0.1225 -0.5206 -0.0503
  538TMC3    C3 7983   3.927   4.572  10.650  0.5989 -0.2833 -0.1187
  538TMC3    C4 7984   3.723   4.646  10.810  0.3201 -0.5159  0.7952
  538TMC3    C5 7985   3.705   4.568  10.703 -0.1269 -0.5243 -0.0307
  538TMC3    C6 7986   3.809   4.523  10.622  0.3914  0.5261 -0.1193
  538TMC3     C 7987   3.872   0.023  10.969  0.3578 -0.4807  0.1830
  538TMC3     O 7988   3.775   0.062  11.036 -0.2151  0.1909  1.0372
  538TMC3     H 7989   4.060   4.687  10.779  0.2029 -0.9316  0.2719
  538TMC3    H1 7990   3.637   4.666  10.872 -0.1149 -1.0373  0.3566
  538TMC3    H2 7991   3.787   4.475  10.528 -1.0027 -0.4767  0.7008
  538TMC3    C7 7992   3.577   4.538  10.669  0.1434  0.5166  0.5500
  538TMC3    C8 7993   4.033   4.501  10.570 -0.8545  0.2397 -0.2905
  538TMC3    O1 7994   3.493   4.630  10.648  0.2407 -0.0276 -0.3514
  538TMC3    O2 7995   4.011   4.382  10.543 -0.2068  0.2297  0.2351
  539MPD2     C 7996   2.836   4.224  12.064 -0.3539 -0.4022  0.3366
  539MPD2    C1 7997   2.928   4.210  11.957  0.2186 -0.1580 -0.0116
  539MPD2    C2 7998   2.971   4.328  11.894  0.4812 -0.4411 -0.5518
  539MPD2    C3 7999   2.944   4.452  11.941  0.2387 -0.6196  0.0477
  539MPD2    C4 8000   2.858   4.467  12.056 -0.6587  0.0841 -0.0166
  539MPD2    C5 8001   2.809   4.349  12.111 -0.0294  1.0347 -0.3570
  539MPD2     H 8002   3.032   4.313  11.806  1.7519 -1.7016  0.5206
  539MPD2    H1 8003   2.838   4.566  12.095 -0.2476  0.6232 -1.1646
  539MPD2    H2 8004   2.784   4.143  12.114 -2.4750 -0.0826 -1.3536
  539MPD2    H3 8005   2.743   4.358  12.197  0.4091  0.7203  0.0138
  539MPD2     N 8006   2.964   4.575  11.868 -0.0495  0.2782 -0.1125
  539MPD2    H5 8007   2.919   4.663  11.888 -0.9383 -0.0564 -0.6382
  539MPD2    N1 8008   2.972   4.084  11.920 -0.3195 -0.1994 -0.2296
  539MPD2    H7 8009   3.034   4.084  11.839  0.4863 -2.1172  0.3979
  540TMC3    C1 8010   3.009   4.695  11.674 -0.0291  0.2600 -0.0163
  540TMC3    C2 8011   3.046   4.679  11.542  0.4269 -0.5826 -0.2176
  540TMC3    C3 8012   2.968   0.021  11.449  0.2308  0.4280  0.4918
  540TMC3    C4 8013   2.902   0.053  11.708 -0.4512  0.4462  0.0800
  540TMC3    C5 8014   2.819   0.100  11.613  0.4097 -0.1057  0.2155
  540TMC3    C6 8015   2.848   0.079  11.476 -0.2748  0.0343  0.3101
  540TMC3     C 8016   3.044   4.583  11.754 -0.6333  0.7078  0.0364
  540TMC3     O 8017   3.135   4.509  11.715  0.6147 -0.2770  0.0534
  540TMC3     H 8018   3.146   4.641  11.528  1.2804  0.9799  1.6175
  540TMC3    H1 8019   2.872   0.058  11.812  0.5488  0.5154  0.3599
  540TMC3    H2 8020   2.781   0.120  11.402 -0.6993  0.3896  0.8959
  540TMC3    C7 8021   2.679   0.118  11.640 -0.6911 -0.2209  0.6469
  540TMC3    C8 8022   3.012   0.003  11.308  0.1896  0.1954  0.4424
  540TMC3    O1 8023   2.591   0.093  11.557  0.4055 -0.3158 -0.2376
  540TMC3    O2 8024   3.132   4.691  11.295 -0.3221 -0.1122 -0.1314
  541MPD2     C 8025   0.621   1.175  12.666 -0.2861 -0.5071  0.6061
  541MPD2    C1 8026   0.746   1.122  12.627 -0.2351 -0.7052 -0.3849
  541MPD2    C2 8027   0.814   1.177  12.516 -1.5221 -0.5305 -0.6849
  541MPD2    C3 8028   0.756   1.285  12.446  0.4880  0.3838 -0.0231
  541MPD2    C4 8029   0.636   1.332  12.488 -0.3007  0.2968 -0.5901
  541MPD2    C5 8030   0.565   1.277  12.590 -0.3601 -0.3089 -0.0021
  541MPD2     H 8031   0.908   1.137  12.481 -1.2130 -1.1727  0.9004
  541MPD2    H1 8032   0.576   1.407  12.439 -0.0404  1.3308  0.6821
  541MPD2    H2 8033   0.566   1.136  12.750  0.0957  1.2266  1.6698
  541MPD2    H3 8034   0.466   1.315  12.610 -0.3056 -0.5287  0.6582
  541MPD2     N 8035   0.809   1.348  12.325 -0.1359  0.3059 -0.3098
  541MPD2    H5 8036   0.757   1.424  12.283 -0.4309  0.5683  0.5352
  541MPD2    N1 8037   0.794   1.015  12.708 -0.3271  0.2713 -0.4796
  541MPD2    H7 8038   0.747   0.995  12.796 -0.4024 -0.3604 -0.6627
  542TMC3    C1 8039   0.956   1.396  12.140  0.1657 -0.0800  0.2224
  542TMC3    C2 8040   1.038   1.344  12.049 -0.3718  0.5964 -0.1192
  542TMC3    C3 8041   1.069   1.417  11.940 -0.0272 -0.0559  0.5891
  542TMC3    C4 8042   0.896   1.521  12.123 -0.4252  0.1923 -0.0076
  542TMC3    C5 8043   0.935   1.592  12.008  0.4349  0.5725 -0.3418
  542TMC3    C6 8044   1.027   1.545  11.918 -0.3139 -0.3113  0.4842
  542TMC3     C 8045   0.925   1.311  12.259 -0.2303  1.0849 -0.6650
  542TMC3     O 8046   1.010   1.228  12.295  0.1538 -0.2520  0.1733
  542TMC3     H 8047   1.065   1.240  12.044 -0.2743  0.5522  1.3490
  542TMC3    H1 8048   0.816   1.549  12.191 -0.3084  1.8071 -0.5425
  542TMC3    H2 8049   1.059   1.601  11.831 -0.3091  1.1814  1.4439
  542TMC3    C7 8050   0.908   1.737  11.997 -0.0096  0.3307 -0.8480
  542TMC3    C8 8051   1.166   1.368  11.843  0.5081  0.1779  0.4840
  542TMC3    O1 8052   0.962   1.813  11.920 -0.0573 -0.1585 -0.3400
  542TMC3    O2 8053   1.161   1.409  11.729 -0.1767  0.6743 -0.5924
  543TMC3    C1 8054   0.451   2.568  17.462 -0.3350 -0.2474  0.0323
  543TMC3    C2 8055   0.463   2.435  17.497  0.5106 -0.5946 -0.2635
  543TMC3    C3 8056   0.516   2.411  17.615  0.1599  0.4085  0.2953
  543TMC3    C4 8057   0.500   2.674  17.542 -0.0947 -0.0383  0.3331
  543TMC3    C5 8058   0.546   2.640  17.666 -0.1813 -0.1170  0.2011
  543TMC3    C6 8059   0.549   2.508   0.031  0.4237 -0.4290  1.1397
  543TMC3     C 8060   0.501   2.579  17.326 -0.3108  0.5258  0.1263
  543TMC3     O 8061   0.622   2.604  17.323  0.1736 -0.1675  0.1076
  543TMC3     H 8062   0.438   2.349  17.436 -0.2780 -1.8730  1.9003
  543TMC3    H1 8063   0.500   2.776  17.506  0.7700 -0.3554 -0.5571
  543TMC3    H2 8064   0.596   2.471   0.122 -0.1128 -3.3183  0.2325
  543TMC3    C7 8065   0.606   2.747   0.068  0.6035  0.3346  0.5589
  543TMC3    C8 8066   0.546   2.267  17.646 -0.0289  0.1805  0.3443
  543TMC3    O1 8067   0.611   2.858   0.014 -0.1624 -0.3108  0.1106
  543TMC3    O2 8068   0.601   2.202  17.559  0.9818  0.4684  0.1892
  544MPD2     C 8069   0.562   1.870   0.307 -0.7863  0.0238 -0.2862
  544MPD2    C1 8070   0.647   1.901   0.196 -0.8128 -0.5548  0.3625
  544MPD2    C2 8071   0.628   2.023   0.134  0.6261  0.5159  0.6306
  544MPD2    C3 8072   0.524   2.108   0.165  0.6116  0.4012  0.9189
  544MPD2    C4 8073   0.435   2.075   0.270  0.1050  0.3023  0.4403
  544MPD2    C5 8074   0.461   1.963   0.340 -0.1298  0.5392 -0.0860
  544MPD2     H 8075   0.692   2.055   0.052 -0.9467  2.0812 -0.0028
  544MPD2    H1 8076   0.355   2.139   0.307 -1.4577 -1.6884  0.4835
  544MPD2    H2 8077   0.586   1.796   0.382 -1.7853 -1.1754 -1.1672
  544MPD2    H3 8078   0.404   1.945   0.431  0.9354 -0.3657  0.3941
  544MPD2     N 8079   0.493   2.230   0.093  1.0137 -0.2180  0.0334
  544MPD2    H5 8080   0.417   2.285   0.132 -0.7119 -0.9807 -2.2404
  544MPD2    N1 8081   0.741   1.802   0.161 -0.2190 -0.5075 -0.3325
  544MPD2    H7 8082   0.760   1.726   0.227  1.5850 -0.7239 -1.1255
  545TMC3    C1 8083   0.860   1.666   0.009  0.4387 -0.1155 -0.1700
  545TMC3    C2 8084   0.913   1.659  17.554  0.0752  0.4020  0.1397
  545TMC3    C3 8085   0.975   1.538  17.516  0.1312 -0.0644 -0.6835
  545TMC3    C4 8086   0.862   1.558   0.091  0.0774 -0.4246 -0.0036
  545TMC3    C5 8087   0.916   1.438   0.040  0.0733 -0.0753  0.0524
  545TMC3    C6 8088   0.971   1.424  17.590  0.6654  0.1504  0.5029
  545TMC3     C 8089   0.809   1.795   0.042 -0.2770 -0.0082  0.0340
  545TMC3     O 8090   0.812   1.886  17.633 -0.2551 -0.6848  0.0292
  545TMC3     H 8091   0.930   1.749  17.498 -3.9025 -0.3042 -2.2429
  545TMC3    H1 8092   0.804   1.554   0.182  0.0004 -2.6169 -0.1601
  545TMC3    H2 8093   1.013   1.336  17.544  0.3856  0.2448  0.0675
  545TMC3    C7 8094   0.918   1.320   0.124 -0.2396 -0.1349  0.5936
  545TMC3    C8 8095   1.057   1.541  17.394 -0.4062  0.1359 -0.0864
  545TMC3    O1 8096   0.854   1.340   0.225 -0.8512 -0.1485 -0.0810
  545TMC3    O2 8097   1.114   1.647  17.365  0.0175 -0.5400 -0.4893
  546MPD2     C 8098   2.319   2.270  17.346  0.9756  0.0039  0.6654
  546MPD2    C1 8099   2.210   2.320  17.414 -0.2544  0.0778  0.9646
  546MPD2    C2 8100   2.216   2.441  17.477  0.0172 -0.0477 -0.5873
  546MPD2    C3 8101   2.329   2.520  17.479  0.0984  0.2448 -0.3259
  546MPD2    C4 8102   2.436   2.475  17.403  0.0467  0.9392  0.1175
  546MPD2    C5 8103   2.430   2.355  17.343 -0.2038  0.0366  0.6438
  546MPD2     H 8104   2.125   2.463  17.531  1.4171  1.5380  1.1341
  546MPD2    H1 8105   2.530   2.530  17.401  0.2888  0.3833 -3.9255
  546MPD2    H2 8106   2.327   2.172  17.302 -0.0912  0.3252 -0.2447
  546MPD2    H3 8107   2.520   2.326  17.291  0.4072  0.0624  1.6895
  546MPD2     N 8108   2.348   2.640  17.552 -0.3937  0.7169  0.1332
  546MPD2    H5 8109   2.434   2.693  17.544  2.2176 -3.2086  2.1436
  546MPD2    N1 8110   2.089   2.245  17.432 -0.3423  0.4741  0.2088
  546MPD2    H7 8111   2.013   2.288  17.482  0.8137  0.5763  1.8856
  547TMC3    C1 8112   1.935   2.080  17.386  0.2169 -0.3461 -0.4627
  547TMC3    C2 8113   1.856   2.167  17.319 -0.2836 -0.7797 -0.7322
  547TMC3    C3 8114   1.728   2.124  17.303 -0.3430  0.1887 -0.4748
  547TMC3    C4 8115   1.902   1.953  17.424  0.5062  0.2537  0.3519
  547TMC3    C5 8116   1.772   1.912  17.413  0.4329 -0.9865  0.2347
  547TMC3    C6 8117   1.681   1.998  17.351 -0.3438  0.6115 -0.2716
  547TMC3     C 8118   2.079   2.113  17.396  0.6635  0.1601 -0.5784
  547TMC3     O 8119   2.160   2.022  17.373 -0.7791  0.2734  0.1466
  547TMC3     H 8120   1.888   2.270  17.304 -1.5833 -0.1706  0.6586
  547TMC3    H1 8121   1.970   1.891  17.482  0.8516  0.2873 -0.0224
  547TMC3    H2 8122   1.582   1.959  17.329  0.6620 -1.2015 -1.5504
  547TMC3    C7 8123   1.717   1.893  17.543 -0.7943  0.2553 -0.4609
  547TMC3    C8 8124   1.641   2.227  17.261  0.2462  0.7590  0.3978
  547TMC3    O1 8125   1.652   1.987  17.584 -0.0245  0.1894  0.5244
  547TMC3    O2 8126   1.694   2.299  17.178  0.2875  0.5742 -0.4479
  548MPD2     C 8127   2.500   2.232  12.581 -0.0753  0.0933  0.1219
  548MPD2    C1 8128   2.413   2.170  12.664 -0.5126  0.1455  0.4422
  548MPD2    C2 8129   2.364   2.042  12.636 -0.4077  0.2326 -0.5211
  548MPD2    C3 8130   2.390   1.987  12.511 -0.0921  0.1886  0.6245
  548MPD2    C4 8131   2.469   2.054  12.418  0.2094  0.1735 -0.3418
  548MPD2    C5 8132   2.524   2.174  12.456 -0.0432 -0.6176 -0.1649
  548MPD2     H 8133   2.278   2.004  12.690  0.3713  2.7550  2.5171
  548MPD2    H1 8134   2.510   2.012  12.327  1.8552  0.0879  0.4328
  548MPD2    H2 8135   2.537   2.332  12.601 -0.4383  0.0450  1.0246
  548MPD2    H3 8136   2.585   2.234  12.389  1.5215  0.6485  2.4020
  548MPD2     N 8137   2.347   1.855  12.485 -0.0682  0.2322  0.4569
  548MPD2    H5 8138   2.307   1.803  12.562  0.4102  1.7126  1.6772
  548MPD2    N1 8139   2.384   2.236  12.787  0.3831 -0.0049  0.1283
  548MPD2    H7 8140   2.399   2.336  12.791  2.2504 -0.3207  1.0706
  549TMC3    C1 8141   2.232   2.255  12.972 -0.0238 -0.2375  0.3934
  549TMC3    C2 8142   2.226   2.396  12.968  0.4253  0.8952 -0.0652
  549TMC3    C3 8143   2.116   2.467  13.017 -0.4529 -0.3473  0.5711
  549TMC3    C4 8144   2.132   2.189  13.040 -0.1885 -0.3109 -0.3772
  549TMC3    C5 8145   2.042   2.263  13.121 -0.0340 -0.1809  0.0485
  549TMC3    C6 8146   2.030   2.399  13.095  0.2324 -0.4693  0.6023
  549TMC3     C 8147   2.325   2.170  12.893 -0.4513 -0.4634  0.0174
  549TMC3     O 8148   2.326   2.046  12.913  0.1381  0.7073  0.4972
  549TMC3     H 8149   2.307   2.448  12.917  2.0713 -0.7426  0.8524
  549TMC3    H1 8150   2.131   2.081  13.038  1.6932 -0.2990 -1.8224
  549TMC3    H2 8151   1.942   2.456  13.123 -0.2551 -0.6976 -0.4906
  549TMC3    C7 8152   1.935   2.190  13.194  0.1176 -0.0817 -0.2699
  549TMC3    C8 8153   2.037   2.535  12.910 -0.5353  0.4683 -0.6874
  549TMC3    O1 8154   1.836   2.253  13.237 -0.4383 -0.0842 -0.8600
  549TMC3    O2 8155   1.935   2.479  12.864 -0.6441  0.2049 -0.4131
  550TMC3    C1 8156   0.487   0.966  12.228 -0.0303  0.4212  0.3108
  550TMC3    C2 8157   0.408   1.014  12.327 -0.4763 -0.0484 -0.3521
  550TMC3    C3 8158   0.279   1.031  12.304 -0.3150 -0.7131  1.2186
  550TMC3    C4 8159   0.437   0.918  12.112  0.1210 -0.8500  0.1578
  550TMC3    C5 8160   0.302   0.931  12.088 -0.6858 -0.3389 -0.4262
  550TMC3    C6 8161   0.223   0.997  12.187 -0.3711 -0.5487  0.3008
  550TMC3     C 8162   0.627   0.956  12.252 -0.0594 -0.1836 -0.0059
  550TMC3     O 8163   0.657   0.914  12.363  0.0575  0.2445 -0.1748
  550TMC3     H 8164   0.447   1.044  12.424 -0.7089 -0.4337 -0.1395
  550TMC3    H1 8165   0.506   0.869  12.045  0.4072  0.9088 -0.8376
  550TMC3    H2 8166   0.117   1.009  12.166 -0.4682 -0.0456  1.0384
  550TMC3    C7 8167   0.248   0.934  11.952 -0.1167 -0.3754 -0.0331
  550TMC3    C8 8168   0.197   1.092  12.406 -0.2821  0.0554 -0.0100
  550TMC3    O1 8169   0.137   0.982  11.949  0.4862 -0.3199 -0.9007
  550TMC3    O2 8170   0.249   1.182  12.469  0.4247  0.5793 -0.1504
  551TMC3    C1 8171   3.160   3.632  13.355 -0.0018  0.4693  0.0126
  551TMC3    C2 8172   3.225   3.715  13.268  0.3830 -0.2223  0.1007
  551TMC3    C3 8173   3.301   3.817  13.310 -0.4730 -0.5655  0.3641
  551TMC3    C4 8174   3.188   3.633  13.487 -0.2311 -0.1014 -0.3382
  551TMC3    C5 8175   3.290   3.719  13.527 -0.3448 -0.4081  0.2838
  551TMC3    C6 8176   3.343   3.818  13.444  0.7760  0.0909 -0.5889
  551TMC3     C 8177   3.075   3.530  13.299 -0.7606  0.1879 -0.3918
  551TMC3     O 8178   3.086   3.512  13.177 -0.8330  0.3794 -0.5594
  551TMC3     H 8179   3.213   3.708  13.160  1.5496  1.5313 -0.1361
  551TMC3    H1 8180   3.157   3.553  13.553  0.9486 -0.8168 -0.6619
  551TMC3    H2 8181   3.417   3.894  13.468 -0.1185  1.1672 -1.2471
  551TMC3    C7 8182   3.298   3.744  13.670  0.3605 -0.4885 -0.1305
  551TMC3    C8 8183   3.321   3.937  13.221  0.4756 -0.5917  0.0713
  551TMC3    O1 8184   3.258   3.653  13.743 -0.0520  0.1451  0.5370
  551TMC3    O2 8185   3.421   4.003  13.235 -0.3138  0.1104  0.2576
  552MPD2     C 8186   4.449   0.848  14.044 -1.2368  0.0140 -0.2958
  552MPD2    C1 8187   4.562   0.863  13.968  0.4471 -0.2171  0.6785
  552MPD2    C2 8188   4.683   0.894  14.028  0.5925  0.4277 -0.5907
  552MPD2    C3 8189   4.686   0.892  14.161 -0.2975  0.0809  0.1989
  552MPD2    C4 8190   4.574   0.885  14.238 -0.3210  0.8136  0.1405
  552MPD2    C5 8191   4.454   0.867  14.178 -0.8861 -0.0847 -0.3768
  552MPD2     H 8192   0.056   0.891  13.969  0.2291 -3.3803 -0.9418
  552MPD2    H1 8193   4.569   0.882  14.347  1.2857 -1.6954  0.1585
  552MPD2    H2 8194   4.354   0.826  13.996 -0.2236 -2.4979 -1.1684
  552MPD2    H3 8195   4.366   0.862  14.241 -2.2995 -1.0956 -2.4572
  552MPD2     N 8196   0.098   0.901  14.225 -0.2136 -0.0683  0.0000
  552MPD2    H5 8197   0.106   0.877  14.324  4.0420 -0.2407 -0.3783
  552MPD2    N1 8198   4.560   0.837  13.827 -0.2381  0.4680 -0.0452
  552MPD2    H7 8199   4.639   0.860  13.768 -0.0058 -0.5295 -0.1232
  553TMC3    C1 8200   4.503   0.734  13.630  0.2375  0.0555  0.5082
  553TMC3    C2 8201   4.580   0.811  13.547  0.5904  0.5004  0.1462
  553TMC3    C3 8202   4.655   0.745  13.454  0.3302  0.0051 -0.6241
  553TMC3    C4 8203   4.505   0.596  13.617 -0.0101 -1.0368 -0.2732
  553TMC3    C5 8204   4.583   0.532  13.524  0.0797  0.1706  0.8278
  553TMC3    C6 8205   4.654   0.608  13.439  0.3390  0.6661 -0.7988
  553TMC3     C 8206   4.455   0.773  13.760  0.2952 -0.1226  0.2217
  553TMC3     O 8207   4.357   0.724  13.801 -0.2537  0.1373  0.4497
  553TMC3     H 8208   4.591   0.919  13.558  0.0741  0.6942 -1.1766
  553TMC3    H1 8209   4.446   0.538  13.688  1.6333 -3.7534 -1.1043
  553TMC3    H2 8210   0.010   0.561  13.375  1.4955  0.2486  0.8574
  553TMC3    C7 8211   4.621   0.398  13.556  0.5715  0.1504  0.1290
  553TMC3    C8 8212   0.027   0.827  13.370  0.6482 -0.0808  0.4114
  553TMC3    O1 8213   4.533   0.325  13.600 -0.5738 -0.2389 -0.3553
  553TMC3    O2 8214   0.069   0.933  13.415  0.3317  0.4562  1.1657
  554TMC3    C1 8215   2.209   4.487  11.430 -0.4380  0.2154 -0.3445
  554TMC3    C2 8216   2.116   4.391  11.389  0.0950 -0.5169  0.1311
  554TMC3    C3 8217   2.076   4.396  11.255 -0.0731 -0.3658  0.2337
  554TMC3    C4 8218   2.258   4.581  11.351  0.5806  0.2950  0.5575
  554TMC3    C5 8219   2.215   4.590  11.222 -0.1095 -0.3121 -0.6233
  554TMC3    C6 8220   2.120   4.501  11.179  1.0205 -0.6185  0.0151
  554TMC3     C 8221   2.265   4.472  11.562 -0.1265  0.0082  0.3014
  554TMC3     O 8222   2.318   4.568  11.618  0.3895 -0.3157 -0.3488
  554TMC3     H 8223   2.100   4.304  11.452 -0.5593  0.6767  1.6271
  554TMC3    H1 8224   2.344   4.633  11.392  0.1134  3.6587 -2.6818
  554TMC3    H2 8225   2.076   4.510  11.080  1.9438 -2.8254 -0.5915
  554TMC3    C7 8226   2.301   4.647  11.120  0.7044  0.0109 -0.1030
  554TMC3    C8 8227   2.036   4.281  11.177 -0.2213 -0.4956 -0.4116
  554TMC3    O1 8228   2.259   4.625  11.008  0.3902  0.1224 -0.0987
  554TMC3    O2 8229   2.083   4.269  11.065 -0.2960 -0.3049 -0.3722
  555TMC3    C1 8230   0.851   3.833  14.901  0.4230  0.1886 -0.5442
  555TMC3    C2 8231   0.963   3.899  14.852 -0.5760  0.3239  0.1835
  555TMC3    C3 8232   1.079   3.826  14.877  0.4078 -0.0233  0.0500
  555TMC3    C4 8233   0.861   3.715  14.975 -1.2543 -0.0211  0.2885
  555TMC3    C5 8234   0.984   3.661  14.995  0.9450 -0.1854 -0.1652
  555TMC3    C6 8235   1.092   3.711  14.941 -0.0664 -0.1115 -0.2964
  555TMC3     C 8236   0.718   3.913  14.898  0.2467 -0.8870 -0.5066
  555TMC3     O 8237   0.613   3.849  14.922  0.3999  0.1245  0.5863
  555TMC3     H 8238   0.974   3.985  14.786  0.2837  1.6965  2.0976
  555TMC3    H1 8239   0.773   3.666  15.014 -1.4580  0.5844  0.5833
  555TMC3    H2 8240   1.177   3.647  14.922  2.3520  2.1574  2.9452
  555TMC3    C7 8241   1.003   3.538  15.075  0.7556  0.0866 -0.2574
  555TMC3    C8 8242   1.194   3.894  14.814  0.1958 -0.3840 -0.0210
  555TMC3    O1 8243   0.912   3.456  15.078  0.3966  0.3559  0.5404
  555TMC3    O2 8244   1.171   3.938  14.699  0.2091  0.0367  0.0699
  556MPD2     C 8245   4.635   0.795  10.223  0.9518 -0.4482  0.2471
  556MPD2    C1 8246   4.577   0.694  10.304 -0.1727  1.0308 -0.8826
  556MPD2    C2 8247   4.554   0.567  10.254  0.0036 -0.0436  0.2757
  556MPD2    C3 8248   4.579   0.539  10.122  0.0152  0.4143 -0.1514
  556MPD2    C4 8249   4.620   0.640  10.040  0.2758  0.0918 -0.4925
  556MPD2    C5 8250   4.655   0.764  10.091 -0.3448  0.6886  0.0402
  556MPD2     H 8251   4.509   0.493  10.320  1.0141 -0.2280  0.7632
  556MPD2    H1 8252   4.636   0.624   9.934  1.8598  1.4559 -0.4622
  556MPD2    H2 8253   4.675   0.889  10.257  1.0938 -0.0037 -1.1329
  556MPD2    H3 8254   4.708   0.839  10.034  1.5841 -0.1866  0.6782
  556MPD2     N 8255   4.548   0.409  10.078 -0.4029 -0.2024 -0.6170
  556MPD2    H5 8256   4.505   0.343  10.141  0.5292 -0.3402 -0.1232
  556MPD2    N1 8257   4.528   0.710  10.429 -0.2800 -0.3872  0.1538
  556MPD2    H7 8258   4.486   0.627  10.468 -0.9657 -0.6004 -1.0774
  557TMC3    C1 8259   4.517   0.227   9.922 -0.4399 -0.8649  0.5629
  557TMC3    C2 8260   4.519   0.184   9.791 -0.5637 -0.4890  0.4681
  557TMC3    C3 8261   4.539   0.058   9.758  0.1093 -0.4566  0.3458
  557TMC3    C4 8262   4.523   0.134  10.020 -0.5909 -0.7507  0.3467
  557TMC3    C5 8263   4.538   0.005   9.985 -0.1337 -0.4979  0.0054
  557TMC3    C6 8264   4.549   4.683   9.853  0.0347 -0.3826 -0.8310
  557TMC3     C 8265   4.553   0.365   9.942  0.2341 -0.3333 -0.5228
  557TMC3     O 8266   4.582   0.426   9.840  0.2417  0.0053  0.2863
  557TMC3     H 8267   4.518   0.263   9.717 -0.2931 -0.3641  0.6005
  557TMC3    H1 8268   4.528   0.154  10.126 -2.9453  0.6101  0.2115
  557TMC3    H2 8269   4.555   4.576   9.838 -0.7931 -0.5363 -0.0983
  557TMC3    C7 8270   4.529   4.617  10.093  0.8464 -0.4224  0.5102
  557TMC3    C8 8271   4.480   0.007   9.637  0.6661 -0.3702  0.5718
  557TMC3    O1 8272   4.576   4.511  10.059 -0.2573 -0.9566 -0.3179
  557TMC3    O2 8273   4.445   4.609   9.645  0.3567  0.0845 -0.3859
  558TMC3    C1 8274   1.519   3.060  10.620 -0.5265 -0.0731  0.0731
  558TMC3    C2 8275   1.435   3.042  10.726  0.0749 -0.3357 -0.8009
  558TMC3    C3 8276   1.323   2.968  10.706  0.3225 -0.2286  0.0894
  558TMC3    C4 8277   1.494   2.995  10.501  0.1355 -0.4444 -0.0992
  558TMC3    C5 8278   1.374   2.944  10.474 -0.4714 -0.1306 -0.6657
  558TMC3    C6 8279   1.283   2.931  10.578 -0.3484 -0.2055 -0.2586
  558TMC3     C 8280   1.655   3.095  10.648 -0.4126  0.5283  0.7376
  558TMC3     O 8281   1.732   3.021  10.591  0.3443  0.5262 -0.4739
  558TMC3     H 8282   1.452   3.091  10.821  0.2899 -1.5479 -0.2078
  558TMC3    H1 8283   1.571   2.984  10.426 -1.9069 -1.5069 -2.0479
  558TMC3    H2 8284   1.199   2.865  10.566 -0.4218 -0.2877  0.6644
  558TMC3    C7 8285   1.341   2.902  10.335  0.1902 -0.0794  0.5450
  558TMC3    C8 8286   1.263   2.912  10.825 -0.7889 -0.1516 -0.3750
  558TMC3    O1 8287   1.233   2.838  10.322 -0.4907 -0.4596  0.0791
  558TMC3    O2 8288   1.155   2.852  10.812  0.0162 -0.0672  0.2390
  559MPD2     C 8289   1.903   3.588  10.781  0.6107 -0.4881 -0.4173
  559MPD2    C1 8290   1.805   3.615  10.887 -0.4993  0.0397  0.0617
  559MPD2    C2 8291   1.854   3.643  11.012  0.4379 -0.1783  0.0027
  559MPD2    C3 8292   1.990   3.651  11.033  0.2752  0.5668  0.4071
  559MPD2    C4 8293   2.082   3.635  10.936  0.1100 -0.8330 -0.7814
  559MPD2    C5 8294   2.040   3.611  10.811 -0.6479 -0.4295 -0.1036
  559MPD2     H 8295   1.794   3.663  11.100 -1.4595 -3.1580 -0.5920
  559MPD2    H1 8296   2.188   3.640  10.959  0.1641 -1.0968 -0.9793
  559MPD2    H2 8297   1.866   3.579  10.680 -1.0278 -2.0549  0.3259
  559MPD2    H3 8298   2.117   3.591  10.738 -0.4637  0.3963 -0.1329
  559MPD2     N 8299   2.038   3.664  11.165 -0.0913 -0.2821 -0.2331
  559MPD2    H5 8300   1.977   3.659  11.246  1.1041 -2.0120  0.5755
  559MPD2    N1 8301   1.668   3.633  10.850  0.7409  0.7711  0.1321
  559MPD2    H7 8302   1.649   3.638  10.750  1.5467 -0.0828 -0.0658
  560TMC3    C1 8303   2.190   3.689  11.342 -0.6638  0.4293  0.5700
  560TMC3    C2 8304   2.132   3.583  11.406 -0.0621  0.2638  0.5044
  560TMC3    C3 8305   2.166   3.563  11.540 -0.5256  0.3046  0.1131
  560TMC3    C4 8306   2.285   3.771  11.397 -0.3789  0.6384 -0.4326
  560TMC3    C5 8307   2.320   3.745  11.529  0.2437 -0.1498 -0.0957
  560TMC3    C6 8308   2.259   3.641  11.598 -0.7149  1.2812  0.2301
  560TMC3     C 8309   2.168   3.697  11.203  0.4358  0.3526 -0.5096
  560TMC3     O 8310   2.252   3.758  11.140 -0.5664  0.8301 -0.3445
  560TMC3     H 8311   2.057   3.519  11.362 -0.3957  0.6427  0.5201
  560TMC3    H1 8312   2.331   3.850  11.339 -1.8110 -0.8430 -3.5719
  560TMC3    H2 8313   2.283   3.635  11.704 -2.3897 -1.0045  0.4758
  560TMC3    C7 8314   2.403   3.842  11.604  0.4068  0.2868  0.0358
  560TMC3    C8 8315   2.104   3.449  11.608  0.6267  0.2295 -0.1204
  560TMC3    O1 8316   2.405   3.821  11.723 -0.1737  0.4318  0.9634
  560TMC3    O2 8317   1.987   3.426  11.580  0.5663 -0.8356  0.2790
  561TMC3    C1 8318   4.495   2.634  11.631 -0.0078 -0.4833  0.8517
  561TMC3    C2 8319   4.413   2.575  11.723  0.0596  0.3287 -0.2377
  561TMC3    C3 8320   4.340   2.662  11.805  0.6484 -0.1707  0.9969
  561TMC3    C4 8321   4.503   2.771  11.620  0.4002  0.3783  0.7357
  561TMC3    C5 8322   4.429   2.856  11.697  0.4567  0.0158  0.1804
  561TMC3    C6 8323   4.338   2.796  11.789  0.3832 -0.1114  0.0814
  561TMC3     C 8324   4.576   2.536  11.555 -0.1173 -0.6151  0.4346
  561TMC3     O 8325   4.544   2.420  11.570  0.0165 -0.3050 -0.0096
  561TMC3     H 8326   4.394   2.469  11.733 -0.3898  0.1884 -2.6610
  561TMC3    H1 8327   4.574   2.814  11.550  0.6891  0.9449  1.3759
  561TMC3    H2 8328   4.274   2.864  11.845 -0.9392  0.3471 -1.9707
  561TMC3    C7 8329   4.381   2.977  11.634 -0.2205  0.0787 -0.0170
  561TMC3    C8 8330   4.262   2.599  11.914 -0.0113  0.2841  0.4303
  561TMC3    O1 8331   4.267   3.008  11.657  1.2040  0.3211  0.9356
  561TMC3    O2 8332   4.302   2.492  11.944  0.3778  0.1474 -0.6283
  562TMC3    C1 8333   0.584   4.437  16.045 -0.0154 -0.0416  0.2978
  562TMC3    C2 8334   0.522   4.542  15.997  0.8127 -0.6501  0.5135
  562TMC3    C3 8335   0.514   4.557  15.860  0.3206  0.3138 -0.0933
  562TMC3    C4 8336   0.668   4.357  15.965 -0.5305 -0.4224 -0.3382
  562TMC3    C5 8337   0.672   4.393  15.829  0.0204 -0.0922  0.0641
  562TMC3    C6 8338   0.590   4.487  15.781 -0.0826 -0.2321  0.1882
  562TMC3     C 8339   0.562   4.419  16.184  0.1346  0.3291  0.1876
  562TMC3     O 8340   0.521   4.516  16.251  0.1927  0.4561 -0.5091
  562TMC3     H 8341   0.469   4.616  16.057  0.1688 -1.3908  0.8500
  562TMC3    H1 8342   0.723   4.272  16.005  0.8828 -1.3514 -4.2594
  562TMC3    H2 8343   0.600   4.497  15.673 -0.4908 -0.3013  0.1469
  562TMC3    C7 8344   0.738   4.294  15.744  0.2267  0.9698  0.0008
  562TMC3    C8 8345   0.410   4.642  15.810 -1.1471 -0.1120  0.0278
  562TMC3    O1 8346   0.701   4.283  15.625 -0.0227  0.1930 -0.3979
  562TMC3    O2 8347   0.326   4.674  15.897 -0.2021  0.3798 -0.6670
  563MPD2     C 8348   3.580   0.273  16.497 -0.2317 -0.2349 -0.1343
  563MPD2    C1 8349   3.525   0.389  16.446  0.5787  0.8260 -0.4157
  563MPD2    C2 8350   3.617   0.480  16.393  0.1580 -0.4973  0.4577
  563MPD2    C3 8351   3.753   0.453  16.387  0.1726 -0.0977  0.6274
  563MPD2    C4 8352   3.806   0.331  16.432  0.6333 -0.4354 -0.2556
  563MPD2    C5 8353   3.713   0.243  16.481 -0.1491 -0.3863 -0.6597
  563MPD2     H 8354   3.586   0.574  16.347 -0.9877 -0.1175  2.0189
  563MPD2    H1 8355   3.896   0.294  16.385  1.6577  1.4765  0.2116
  563MPD2    H2 8356   3.505   0.204  16.534  0.3529 -0.9108 -0.2223
  563MPD2    H3 8357   3.739   0.141  16.506 -1.8084 -0.7850 -0.5211
  563MPD2     N 8358   3.829   0.551  16.331 -0.0280  0.1701  0.3003
  563MPD2    H5 8359   3.775   0.626  16.288  0.1197  0.4997  0.6809
  563MPD2    N1 8360   3.380   0.407  16.457 -0.0137 -0.2735  0.1346
  563MPD2    H7 8361   3.328   0.329  16.496  3.1351 -2.1918  0.5089
  564TMC3    C1 8362   3.184   0.522  16.488 -0.1180  0.5119  0.0288
  564TMC3    C2 8363   3.092   0.426  16.454  0.1049  0.8227 -0.3771
  564TMC3    C3 8364   2.974   0.411  16.526 -0.5089  0.7398 -0.2661
  564TMC3    C4 8365   3.168   0.596  16.602 -0.6796  0.4185  0.2625
  564TMC3    C5 8366   3.068   0.567  16.684  0.0272 -0.3783  0.2569
  564TMC3    C6 8367   2.966   0.485  16.643 -0.2780 -0.2732  0.1938
  564TMC3     C 8368   3.317   0.525  16.438  0.4138 -0.3748 -0.9997
  564TMC3     O 8369   3.364   0.636  16.414  0.3972  0.4628  0.0242
  564TMC3     H 8370   3.109   0.377  16.359 -1.8466  1.5006 -1.0635
  564TMC3    H1 8371   3.248   0.664  16.630 -1.2172  1.4766 -0.7820
  564TMC3    H2 8372   2.873   0.475  16.699 -0.8263 -0.9571 -0.8282
  564TMC3    C7 8373   3.124   0.532  16.820 -0.0620 -0.2548  0.2911
  564TMC3    C8 8374   2.897   0.288  16.517 -0.2297  0.2867  0.2758
  564TMC3    O1 8375   3.228   0.588  16.853  0.0005  0.1371 -0.1555
  564TMC3    O2 8376   2.795   0.271  16.582 -0.4807 -0.3119 -0.1038
  565TMC3    C1 8377   4.132   2.344  10.018 -0.5333  0.1229 -0.0351
  565TMC3    C2 8378   4.118   2.221  10.078 -0.3661  0.5203  0.2199
  565TMC3    C3 8379   4.066   2.116  10.005 -0.4716 -0.1418 -0.4221
  565TMC3    C4 8380   4.082   2.369   9.894 -0.1563  0.0667  0.5328
  565TMC3    C5 8381   4.035   2.255   9.825 -0.3889 -0.4624  0.5956
  565TMC3    C6 8382   4.016   2.132   9.882 -0.5962  0.4900 -0.2246
  565TMC3     C 8383   4.209   2.450  10.076  0.1450 -0.7232  0.4372
  565TMC3     O 8384   4.202   2.558  10.016 -0.3542  0.0671 -0.1157
  565TMC3     H 8385   4.165   2.205  10.174  2.8031 -2.3813 -1.8153
  565TMC3    H1 8386   4.097   2.459   9.836  0.0291 -0.2082  0.1576
  565TMC3    H2 8387   3.988   2.044   9.826 -3.1386 -0.7653  3.0112
  565TMC3    C7 8388   3.963   2.288   9.704  0.2655  0.4554  0.5351
  565TMC3    C8 8389   4.075   1.978  10.058 -0.0765 -0.4820 -0.2289
  565TMC3    O1 8390   3.982   2.395   9.647  0.9187  0.3777 -0.2151
  565TMC3    O2 8391   4.060   1.894   9.971  0.2279  0.0795  0.4391
  566MPD2     C 8392   0.098   3.834  14.373  0.5536 -0.0888  0.1019
  566MPD2    C1 8393   0.156   3.864  14.254 -0.0754  0.4869  0.6655
  566MPD2    C2 8394   0.084   3.872  14.136  0.7714  0.6530  0.2292
  566MPD2    C3 8395   4.670   3.839  14.142 -0.1025 -0.3245  0.1521
  566MPD2    C4 8396   4.617   3.795  14.259  0.2738  0.0361  0.0311
  566MPD2    C5 8397   4.687   3.789  14.373  0.0602 -0.3492 -0.3723
  566MPD2     H 8398   0.122   3.903  14.039  0.9731 -0.7264 -0.1311
  566MPD2    H1 8399   4.514   3.762  14.269  0.2455  0.2720  0.4804
  566MPD2    H2 8400   0.152   3.826  14.467  1.3962  0.0139 -0.3767
  566MPD2    H3 8401   4.639   3.756  14.464  0.5952  1.4589  0.5591
  566MPD2     N 8402   4.609   3.833  14.016  0.1917  0.0308  0.4864
  566MPD2    H5 8403   4.670   3.854  13.937  1.1784  1.2843  1.5851
  566MPD2    N1 8404   0.298   3.881  14.254 -0.7052  0.3235 -0.5472
  566MPD2    H7 8405   0.343   3.851  14.340  0.9507 -0.1538 -1.5726
  567TMC3    C1 8406   0.512   3.947  14.191 -0.4553  0.1504  0.5039
  567TMC3    C2 8407   0.588   4.043  14.140 -0.0130  0.4102 -0.2859
  567TMC3    C3 8408   0.720   4.018  14.147  0.5927 -0.5142  0.1551
  567TMC3    C4 8409   0.560   3.841  14.267 -0.0216  0.3234 -0.0338
  567TMC3    C5 8410   0.692   3.833  14.278  0.2608 -0.1636 -0.0947
  567TMC3    C6 8411   0.775   3.924  14.213 -0.0320  0.2678 -0.1757
  567TMC3     C 8412   0.367   3.947  14.157 -0.3218 -0.3603 -0.2600
  567TMC3     O 8413   0.340   4.003  14.053  0.1264  0.3414  0.7485
  567TMC3     H 8414   0.547   4.133  14.096 -2.1231 -1.6698 -2.5551
  567TMC3    H1 8415   0.500   3.754  14.290 -0.5135  0.6185 -0.1993
  567TMC3    H2 8416   0.883   3.916  14.218  0.3079  4.3632 -0.8020
  567TMC3    C7 8417   0.764   3.741  14.361 -0.1595 -0.0100  0.2852
  567TMC3    C8 8418   0.812   4.085  14.060 -0.2628  0.6093 -0.3397
  567TMC3    O1 8419   0.879   3.711  14.333 -0.0388  0.3270  0.2705
  567TMC3    O2 8420   0.927   4.070  14.086 -0.2240 -0.5079  0.2658
  568MPD2     C 8421   2.603   3.864  17.383  0.1861  0.1387  0.7736
  568MPD2    C1 8422   2.669   3.980  17.422  1.0175  0.2627  0.5700
  568MPD2    C2 8423   2.650   4.096  17.347 -0.4469  0.6052  0.4136
  568MPD2    C3 8424   2.557   4.091  17.238  0.0323 -0.1058  0.2740
  568MPD2    C4 8425   2.482   3.976  17.220  0.4314  0.0550 -0.3187
  568MPD2    C5 8426   2.509   3.862  17.286  0.8084 -0.0634 -0.7414
  568MPD2     H 8427   2.707   4.186  17.368 -0.0153  0.2787  0.6360
  568MPD2    H1 8428   2.404   3.975  17.144 -2.5696  0.7381  2.7304
  568MPD2    H2 8429   2.627   3.769  17.429  0.4444  0.7899  1.9869
  568MPD2    H3 8430   2.453   3.771  17.267 -0.3810  0.2282  1.3790
  568MPD2     N 8431   2.543   4.198  17.146  0.5592 -0.1418 -0.0161
  568MPD2    H5 8432   2.608   4.275  17.156 -0.8902  1.0179  0.5267
  568MPD2    N1 8433   2.776   3.969  17.516  0.1218  0.0953  0.4682
  568MPD2    H7 8434   2.815   3.878  17.536  0.9033  0.3052 -0.1076
  569TMC3    C1 8435   2.477   4.335  16.973  0.1578  0.8499 -0.5643
  569TMC3    C2 8436   2.475   4.445  17.057  0.2481  0.3420  0.2773
  569TMC3    C3 8437   2.538   4.556  17.006  0.1892 -0.8315 -0.2835
  569TMC3    C4 8438   2.520   4.338  16.840 -0.2273 -0.4082 -0.1240
  569TMC3    C5 8439   2.595   4.448  16.806  0.3228 -0.8395  0.2920
  569TMC3    C6 8440   2.602   4.558  16.883 -0.7493 -0.0991  0.2136
  569TMC3     C 8441   2.470   4.202  17.031  0.5200  0.2393  0.0960
  569TMC3     O 8442   2.419   4.111  16.965 -0.1799 -0.1317 -0.1279
  569TMC3     H 8443   2.453   4.437  17.163 -0.4362  4.1143  0.4199
  569TMC3    H1 8444   2.538   4.243  16.792 -0.6397 -1.5584  2.0123
  569TMC3    H2 8445   2.644   4.653  16.855  2.1623 -1.0704  1.2939
  569TMC3    C7 8446   2.700   4.430  16.704 -0.3115  0.1485 -0.8265
  569TMC3    C8 8447   2.553   4.670  17.090  0.4704 -1.2546 -0.0888
  569TMC3    O1 8448   2.745   4.316  16.692  0.2443 -0.1960 -0.4468
  569TMC3    O2 8449   2.461   4.704  17.165 -0.6387  0.2229 -0.0649
  570TMC3    C1 8450   2.217   3.306  16.341  0.1296 -0.7395 -0.4969
  570TMC3    C2 8451   2.264   3.331  16.214  0.3575  0.6418 -0.4287
  570TMC3    C3 8452   2.369   3.422  16.212 -0.1849 -0.3354  0.1016
  570TMC3    C4 8453   2.259   3.375  16.453  0.4229 -0.1154  0.4572
  570TMC3    C5 8454   2.345   3.478  16.437 -0.1517 -0.1216  0.0944
  570TMC3    C6 8455   2.411   3.496  16.316 -0.1104  0.0642 -0.4741
  570TMC3     C 8456   2.131   3.185  16.357  0.1649  0.4027  0.2336
  570TMC3     O 8457   2.108   3.117  16.254  0.0313 -0.0830  0.2607
  570TMC3     H 8458   2.222   3.271  16.133  2.3882  1.6079 -2.2021
  570TMC3    H1 8459   2.205   3.369  16.547 -0.6563 -0.2940 -0.1773
  570TMC3    H2 8460   2.491   3.568  16.305 -0.4048  0.8399  2.5878
  570TMC3    C7 8461   2.400   3.544  16.555  0.1063  0.2763  0.6567
  570TMC3    C8 8462   2.431   3.458  16.078  0.3852 -0.4503 -1.0647
  570TMC3    O1 8463   2.377   3.481  16.654 -0.1454  0.4878  0.6485
  570TMC3    O2 8464   2.525   3.537  16.082  0.6263 -0.2135 -0.1247
  571MPD2     C 8465   0.102   4.516  17.665  0.0357 -0.0774 -0.2211
  571MPD2    C1 8466   0.166   4.437   0.081 -0.7368 -0.3605  0.0472
  571MPD2    C2 8467   0.159   4.476   0.212 -0.4985  0.2751  0.5031
  571MPD2    C3 8468   0.094   4.592   0.260  0.2913 -0.0888 -0.2862
  571MPD2    C4 8469   0.025   4.666   0.165  0.5931 -0.6894 -0.3666
  571MPD2    C5 8470   0.037   4.633   0.031  0.2827 -0.0077 -0.4223
  571MPD2     H 8471   0.210   4.417   0.287 -0.1819 -1.0691 -0.7545
  571MPD2    H1 8472   4.679   0.032   0.191  0.5469 -0.0919 -2.3751
  571MPD2    H2 8473   0.096   4.498  17.558  0.3181 -0.4036 -0.1787
  571MPD2    H3 8474   4.700   4.689  17.630 -1.7619 -1.4014  0.0316
  571MPD2     N 8475   0.118   4.656   0.384  0.5941  0.4296 -0.2330
  571MPD2    H5 8476   0.071   0.028   0.390  0.2981  0.2822 -0.3283
  571MPD2    N1 8477   0.238   4.331   0.029 -0.1752 -0.4549 -0.3932
  571MPD2    H7 8478   0.216   4.296  17.610  1.6312 -0.0218 -0.9733
  572TMC3    C1 8479   0.274   4.711   0.556  0.4094  0.4417 -0.5691
  572TMC3    C2 8480   0.345   4.665   0.662  0.3893 -0.0803 -0.8593
  572TMC3    C3 8481   0.396   0.042   0.740 -0.4327  0.7834 -0.0859
  572TMC3    C4 8482   0.255   0.124   0.526  0.3448 -0.7634 -0.5584
  572TMC3    C5 8483   0.323   0.218   0.600 -0.3393  0.0208  0.2552
  572TMC3    C6 8484   0.393   0.181   0.708  0.0574 -0.6351  0.2056
  572TMC3     C 8485   0.216   4.608   0.469  0.6365  0.5377 -0.3043
  572TMC3     O 8486   0.276   4.504   0.477 -0.5099 -0.1001  0.2147
  572TMC3     H 8487   0.333   4.564   0.697  0.4340  0.6885  1.3925
  572TMC3    H1 8488   0.196   0.152   0.440 -0.6597 -1.7949 -0.2020
  572TMC3    H2 8489   0.440   0.253   0.773 -1.5889  0.8325 -0.2287
  572TMC3    C7 8490   0.363   0.338   0.542 -0.3299  0.5543 -0.1042
  572TMC3    C8 8491   0.476   0.010   0.851  0.1441 -0.1561  0.4430
  572TMC3    O1 8492   0.286   0.403   0.476  0.3636 -0.4563 -0.3656
  572TMC3    O2 8493   0.490   0.098   0.930 -0.0320 -0.4998 -0.0404
  573MPD2     C 8494   1.720   0.463   0.911 -0.4057  0.7701  0.5896
  573MPD2    C1 8495   1.747   0.594   0.887 -0.0051  0.0359 -0.0112
  573MPD2    C2 8496   1.726   0.647   0.761  0.2942  0.2473 -0.4153
  573MPD2    C3 8497   1.670   0.566   0.659  0.0166 -0.5530 -0.3724
  573MPD2    C4 8498   1.630   0.434   0.691  0.2651 -0.0509 -0.6375
  573MPD2    C5 8499   1.658   0.381   0.818  0.8879 -0.4508 -0.3493
  573MPD2     H 8500   1.746   0.749   0.730  0.2450  0.8623  1.5938
  573MPD2    H1 8501   1.585   0.371   0.615  1.5513 -3.2153  1.2300
  573MPD2    H2 8502   1.744   0.429   1.011 -0.7933  0.7083  0.6634
  573MPD2    H3 8503   1.634   0.277   0.840  0.4115 -0.5354 -1.2680
  573MPD2     N 8504   1.660   0.605   0.521 -0.0412 -0.5739 -0.3468
  573MPD2    H5 8505   1.604   0.549   0.457 -0.3099  0.3292 -0.8889
  573MPD2    N1 8506   1.801   0.678   0.991 -0.4384  0.4519  0.0090
  573MPD2    H7 8507   1.816   0.645   1.086 -0.2308 -2.8588 -1.1476
  574TMC3    C1 8508   1.681   0.722   0.319  0.0046  0.0815 -0.0347
  574TMC3    C2 8509   1.562   0.670   0.271 -0.2570 -0.6479 -0.4082
  574TMC3    C3 8510   1.503   0.725   0.158  0.5024  0.5700  0.1820
  574TMC3    C4 8511   1.745   0.814   0.245 -0.2403 -0.3983 -0.6882
  574TMC3    C5 8512   1.689   0.865   0.127  0.5273 -0.1584  0.0723
  574TMC3    C6 8513   1.563   0.828   0.085  0.0899 -0.2707  0.0012
  574TMC3     C 8514   1.730   0.704   0.453  0.4324 -0.2851 -0.8076
  574TMC3     O 8515   1.819   0.779   0.491 -0.2197  0.4812  0.0521
  574TMC3     H 8516   1.498   0.619   0.343 -2.3552 -0.2492 -2.0027
  574TMC3    H1 8517   1.846   0.838   0.278  0.1791  1.4980 -3.3909
  574TMC3    H2 8518   1.519   0.861  17.666 -1.4173  1.4287  1.2940
  574TMC3    C7 8519   1.724   0.997   0.076 -0.1247 -0.5427  0.5965
  574TMC3    C8 8520   1.357   0.728   0.174  0.1333  0.4974  0.9021
  574TMC3    O1 8521   1.671   1.042  17.647  0.1897  0.1422  0.3383
  574TMC3    O2 8522   1.299   0.647   0.250  0.2046  0.0309 -0.6901
  575TMC3    C1 8523   4.327   1.095  10.162  0.2428  0.3837 -0.1305
  575TMC3    C2 8524   4.394   1.057  10.048 -0.0789  0.4832  0.0512
  575TMC3    C3 8525   4.425   1.150   9.954 -0.3159 -0.4578 -0.1973
  575TMC3    C4 8526   4.292   1.224  10.183 -0.3127  0.4013 -0.2296
  575TMC3    C5 8527   4.314   1.316  10.086  0.0253  0.1719 -0.5964
  575TMC3    C6 8528   4.383   1.281   9.974  0.4257  0.5860 -0.5892
  575TMC3     C 8529   4.260   1.000  10.250  0.4920  0.6576 -0.2819
  575TMC3     O 8530   4.214   1.049  10.352 -0.2639 -0.3861  0.2160
  575TMC3     H 8531   4.441   0.960  10.054 -0.4811  0.1821 -1.6653
  575TMC3    H1 8532   4.209   1.252  10.248 -1.2809 -1.4576 -0.6679
  575TMC3    H2 8533   4.399   1.353   9.895 -1.1780  1.0810 -0.4656
  575TMC3    C7 8534   4.277   1.457  10.094 -0.6542  0.2092 -0.4544
  575TMC3    C8 8535   4.503   1.119   9.837 -0.1939  0.0501 -0.0944
  575TMC3    O1 8536   4.269   1.529   9.995 -0.8876  0.5737  0.0144
  575TMC3    O2 8537   4.546   1.215   9.776  0.2055  0.2154 -0.5518
  576MPD2     C 8538   3.159   2.854  12.881 -0.0773 -0.6011  0.3256
  576MPD2    C1 8539   3.252   2.958  12.882  0.1593 -0.3869 -0.9525
  576MPD2    C2 8540   3.267   3.041  12.990  0.1332  0.7261 -0.0961
  576MPD2    C3 8541   3.193   3.010  13.105  0.4073  0.0383  0.4799
  576MPD2    C4 8542   3.097   2.914  13.104 -0.0539  0.1661  0.0812
  576MPD2    C5 8543   3.086   2.831  12.994 -0.2583  0.0670  0.5462
  576MPD2     H 8544   3.340   3.121  12.984 -0.0258  1.1270  2.9835
  576MPD2    H1 8545   3.031   2.899  13.188 -1.9067  0.1883 -1.3815
  576MPD2    H2 8546   3.149   2.779  12.803  0.1730  2.5521 -2.7284
  576MPD2    H3 8547   3.017   2.748  13.008 -0.6341  0.1491 -0.8421
  576MPD2     N 8548   3.233   3.086  13.219 -0.0192 -0.0332 -0.3723
  576MPD2    H5 8549   3.294   3.164  13.199 -0.8479  0.9212  0.7962
  576MPD2    N1 8550   3.339   2.980  12.769  0.2185  0.6509  0.5185
  576MPD2    H7 8551   3.395   3.065  12.772 -0.3610  1.0473  0.1242
  577TMC3    C1 8552   3.483   2.930  12.592  0.4329  0.4604 -0.4803
  577TMC3    C2 8553   3.573   2.839  12.557  0.4087 -0.6825 -0.1094
  577TMC3    C3 8554   3.664   2.874  12.459 -0.4235  0.4725 -0.2243
  577TMC3    C4 8555   3.478   3.048  12.534  0.5576 -0.5796  0.2962
  577TMC3    C5 8556   3.575   3.084  12.445  0.8287 -0.5393  0.2340
  577TMC3    C6 8557   3.674   2.999  12.411  0.2698 -0.6164 -0.6473
  577TMC3     C 8558   3.369   2.889  12.672  0.3803  0.1023 -0.2613
  577TMC3     O 8559   3.347   2.769  12.658  0.3253 -0.4270  0.1960
  577TMC3     H 8560   3.581   2.741  12.601 -1.4783  0.6135  3.1047
  577TMC3    H1 8561   3.396   3.112  12.562 -0.2833 -1.3763 -0.3522
  577TMC3    H2 8562   3.745   3.035  12.336  1.0366 -0.2232  0.2638
  577TMC3    C7 8563   3.583   3.225  12.406  0.0745  0.2885  0.5543
  577TMC3    C8 8564   3.779   2.786  12.442 -0.5590  0.3725  0.0538
  577TMC3    O1 8565   3.702   3.262  12.400  0.1710  0.0852  0.2811
  577TMC3    O2 8566   3.788   2.711  12.536  0.0598  0.5681 -0.2877
  578MPD2     C 8567   1.459   3.478   1.783  0.4977  0.1518  0.3491
  578MPD2    C1 8568   1.512   3.412   1.681  0.1082 -0.8960 -0.3220
  578MPD2    C2 8569   1.634   3.347   1.701  0.1742 -0.1698  0.3489
  578MPD2    C3 8570   1.686   3.333   1.827 -0.5401 -0.3211 -0.3898
  578MPD2    C4 8571   1.631   3.403   1.935 -0.5372 -0.2589 -0.0200
  578MPD2    C5 8572   1.524   3.475   1.906  0.0290 -0.6203  0.0303
  578MPD2     H 8573   1.672   3.299   1.612 -0.7581  1.5563 -0.9804
  578MPD2    H1 8574   1.686   3.409   2.028  0.8445  1.2433 -0.9323
  578MPD2    H2 8575   1.369   3.540   1.777  0.0091 -0.5124  0.8155
  578MPD2    H3 8576   1.473   3.529   1.985 -0.2676 -0.3908 -0.3179
  578MPD2     N 8577   1.813   3.267   1.843  0.9893  0.1169 -0.0886
  578MPD2    H5 8578   1.829   3.213   1.759  1.2157 -1.7483  1.1506
  578MPD2    N1 8579   1.442   3.417   1.557  0.0493 -0.6924  0.3034
  578MPD2    H7 8580   1.353   3.466   1.564  0.1927 -0.3859  0.0118
  579TMC3    C1 8581   2.046   3.234   1.905 -0.6107  0.0132  0.6200
  579TMC3    C2 8582   2.140   3.239   2.011 -0.0495  0.0314 -0.2350
  579TMC3    C3 8583   2.273   3.229   1.986 -1.2889 -0.5370 -0.8599
  579TMC3    C4 8584   2.085   3.227   1.780  0.6267 -0.8556 -0.7519
  579TMC3    C5 8585   2.223   3.213   1.753  0.0560 -0.4315 -0.0369
  579TMC3    C6 8586   2.318   3.218   1.859  0.0049 -0.4470 -0.5667
  579TMC3     C 8587   1.911   3.283   1.942 -0.8473 -0.3292  0.0662
  579TMC3     O 8588   1.901   3.353   2.041 -0.5727  0.4272  0.2531
  579TMC3     H 8589   2.095   3.255   2.108 -1.1573 -0.2275 -0.7067
  579TMC3    H1 8590   2.018   3.249   1.698  0.3189 -0.2085 -0.3254
  579TMC3    H2 8591   2.424   3.214   1.838 -0.4103  0.1591 -2.7393
  579TMC3    C7 8592   2.269   3.159   1.630 -0.0761 -0.2528  0.5698
  579TMC3    C8 8593   2.362   3.293   2.083 -0.2971  0.5557  0.1403
  579TMC3    O1 8594   2.389   3.173   1.610 -0.1563  0.0987 -1.2161
  579TMC3    O2 8595   2.308   3.347   2.180 -0.6138 -0.2660  0.1700
  580TMC3    C1 8596   1.709   1.976  12.444  0.0793  0.2180 -0.0200
  580TMC3    C2 8597   1.798   2.080  12.465  0.0095 -0.1139 -0.4851
  580TMC3    C3 8598   1.933   2.051  12.458 -0.2775 -0.0607 -0.1030
  580TMC3    C4 8599   1.761   1.844  12.434 -0.2879  0.9396  0.8432
  580TMC3    C5 8600   1.897   1.824  12.428 -0.2314  0.3105 -0.4610
  580TMC3    C6 8601   1.986   1.924  12.444 -0.0156  0.0083  0.0527
  580TMC3     C 8602   1.616   2.012  12.338 -0.2996 -0.0453  0.7386
  580TMC3     O 8603   1.607   2.133  12.317  0.5246  0.0608  0.9753
  580TMC3     H 8604   1.774   2.185  12.473 -1.6345 -0.6019  0.9288
  580TMC3    H1 8605   1.692   1.760  12.425  1.2162 -0.2459  0.4938
  580TMC3    H2 8606   2.093   1.905  12.449 -0.0927 -0.0955  1.1914
  580TMC3    C7 8607   1.931   1.711  12.512 -0.0120 -0.6159 -0.0153
  580TMC3    C8 8608   2.026   2.158  12.446  0.5825  0.8535  0.6041
  580TMC3    O1 8609   2.015   1.733  12.597 -0.8298  0.1206 -0.3602
  580TMC3    O2 8610   2.008   2.250  12.526  0.4681  0.1085 -0.3523
  581MPD2     C 8611   4.085   2.126  15.116 -0.6956  0.0926  0.4839
  581MPD2    C1 8612   3.997   2.139  15.224  0.3265 -0.0437  0.1867
  581MPD2    C2 8613   3.867   2.190  15.202  0.0353  0.5338 -0.0997
  581MPD2    C3 8614   3.834   2.233  15.072 -0.1460  0.1166  0.1308
  581MPD2    C4 8615   3.922   2.228  14.973 -0.1140 -0.4385 -0.8469
  581MPD2    C5 8616   4.043   2.169  14.998 -0.3573 -0.2756  0.0281
  581MPD2     H 8617   3.787   2.183  15.274 -0.0070 -0.1932 -0.2158
  581MPD2    H1 8618   3.898   2.260  14.872 -0.2538  2.8523  0.2521
  581MPD2    H2 8619   4.185   2.085  15.122 -0.7701 -0.3888 -1.8209
  581MPD2    H3 8620   4.111   2.158  14.914 -0.3231 -0.3693  0.0671
  581MPD2     N 8621   3.703   2.278  15.049  0.1224  0.8630  0.1147
  581MPD2    H5 8622   3.643   2.303  15.127 -1.9764 -0.3400 -1.1114
  581MPD2    N1 8623   4.058   2.093  15.340 -0.2375 -0.1117 -0.2934
  581MPD2    H7 8624   4.155   2.065  15.331 -0.5799 -1.6709  0.8134
  582TMC3    C1 8625   4.084   2.037  15.566  0.4508  0.3563 -0.8680
  582TMC3    C2 8626   4.101   2.117  15.680 -0.2197 -0.0619  0.2660
  582TMC3    C3 8627   4.085   2.067  15.807  0.0066  0.4453  0.8925
  582TMC3    C4 8628   4.061   1.905  15.587  0.1848  0.4793 -0.1941
  582TMC3    C5 8629   4.033   1.862  15.716 -0.0332  0.0282  0.0804
  582TMC3    C6 8630   4.041   1.942  15.826  0.1808 -0.1541  0.0660
  582TMC3     C 8631   3.998   2.090  15.461  0.4415  0.0124 -0.0055
  582TMC3     O 8632   3.883   2.098  15.502 -0.0860  0.1520 -0.1568
  582TMC3     H 8633   4.127   2.221  15.662  2.5954 -0.3424  2.7266
  582TMC3    H1 8634   4.049   1.838  15.502 -0.7695  1.0217 -0.4931
  582TMC3    H2 8635   4.014   1.910  15.926 -0.6449 -3.3152 -1.1808
  582TMC3    C7 8636   4.011   1.725  15.741 -0.6111 -0.0361  0.2929
  582TMC3    C8 8637   4.105   2.161  15.912 -0.0784  0.2319 -0.8801
  582TMC3    O1 8638   4.100   1.661  15.797  0.3697  0.8379 -0.1453
  582TMC3    O2 8639   4.091   2.280  15.901 -1.2329 -0.2167  0.0431
  583MPD2     C 8640   4.046   3.822  16.920  0.2609 -0.7871 -0.2027
  583MPD2    C1 8641   4.086   3.946  16.874 -1.1216  0.1512  0.1524
  583MPD2    C2 8642   4.046   4.059  16.938  0.5260 -0.2099 -0.2356
  583MPD2    C3 8643   3.996   4.042  17.065  0.6297  0.5400  0.3938
  583MPD2    C4 8644   3.949   3.921  17.105 -0.3404  0.5503  0.3809
  583MPD2    C5 8645   3.968   3.814  17.031  0.8919  0.3136 -0.3822
  583MPD2     H 8646   4.092   4.147  16.895  0.2387 -0.1438 -0.4033
  583MPD2    H1 8647   3.894   3.909  17.198 -1.7753 -1.1916 -0.7014
  583MPD2    H2 8648   4.075   3.726  16.879  2.3945  0.0506 -0.6616
  583MPD2    H3 8649   3.937   3.721  17.076  0.3137 -0.5854 -2.6343
  583MPD2     N 8650   3.992   4.148  17.154  0.1525 -0.3884  0.5435
  583MPD2    H5 8651   3.961   4.120  17.246  1.2369 -1.5136  0.5571
  583MPD2    N1 8652   4.178   3.948  16.761  0.5699 -0.5600 -0.0076
  583MPD2    H7 8653   4.199   4.030  16.705  0.2851  0.5402  1.4890
  584TMC3    C1 8654   4.000   4.367  17.249 -0.2167  0.8141  0.4838
  584TMC3    C2 8655   3.959   4.494  17.239 -0.1694 -0.5236  0.0002
  584TMC3    C3 8656   3.977   4.582  17.344  0.8012  0.3889 -0.9333
  584TMC3    C4 8657   4.047   4.321  17.367 -0.5109 -0.7361 -0.1934
  584TMC3    C5 8658   4.040   4.398  17.477  0.1246 -0.0502  0.7998
  584TMC3    C6 8659   4.012   4.529  17.466  0.4242  0.4256  0.3809
  584TMC3     C 8660   3.992   4.279  17.126 -0.0246 -0.1218 -0.1323
  584TMC3     O 8661   3.999   4.328  17.010  0.1478  0.3133  0.7629
  584TMC3     H 8662   3.916   4.534  17.148  1.5887 -0.2036 -0.7062
  584TMC3    H1 8663   4.084   4.219  17.369  0.6010 -0.3302 -0.0288
  584TMC3    H2 8664   3.999   4.591  17.553 -0.5868 -0.9372  1.1916
  584TMC3    C7 8665   4.046   4.331  17.605 -0.1307  0.9583 -0.5039
  584TMC3    C8 8666   3.962   0.006  17.323  0.3572 -0.4680 -0.4761
  584TMC3    O1 8667   4.034   4.208  17.607  0.1496  0.1248  0.2817
  584TMC3    O2 8668   3.878   0.043  17.240  0.6630 -0.0248 -0.2540
  585MPD2     C 8669   3.289   2.383   1.097 -0.4314  0.1713 -0.3756
  585MPD2    C1 8670   3.413   2.421   1.053 -0.0857 -0.2256  0.1619
  585MPD2    C2 8671   3.430   2.439   0.915 -0.7957 -0.0429  0.5575
  585MPD2    C3 8672   3.322   2.437   0.830 -0.1922  0.0231  0.0266
  585MPD2    C4 8673   3.192   2.409   0.878 -0.1809  0.4414  0.1655
  585MPD2    C5 8674   3.181   2.369   1.007  0.4820  0.2548 -0.3169
  585MPD2     H 8675   3.531   2.458   0.882 -1.3627  1.3843 -0.3390
  585MPD2    H1 8676   3.104   2.427   0.817  1.0668  3.3173 -0.7676
  585MPD2    H2 8677   3.261   2.358   1.198 -0.0707  0.3959 -0.2202
  585MPD2    H3 8678   3.083   2.346   1.047  0.4305 -1.2003 -1.2934
  585MPD2     N 8679   3.344   2.478   0.695 -0.5743 -0.1695 -0.7076
  585MPD2    H5 8680   3.254   2.481   0.648 -0.0691  0.2377 -1.6351
  585MPD2    N1 8681   3.525   2.431   1.136 -0.1592 -0.6694  0.6692
  585MPD2    H7 8682   3.616   2.464   1.103 -0.8617  0.5240 -0.0778
  586TMC3    C1 8683   3.451   2.541   0.495 -0.7755  0.6032 -0.1635
  586TMC3    C2 8684   3.564   2.569   0.422  0.6412  0.6773 -0.0948
  586TMC3    C3 8685   3.539   2.613   0.292  0.3324 -0.2488 -0.2713
  586TMC3    C4 8686   3.325   2.541   0.433  0.2131 -0.1262  0.2111
  586TMC3    C5 8687   3.314   2.557   0.299 -0.0395  0.2564 -0.4318
  586TMC3    C6 8688   3.417   2.605   0.227 -0.5964 -0.3415  0.1171
  586TMC3     C 8689   3.465   2.500   0.634 -0.0410 -0.1263  0.3541
  586TMC3     O 8690   3.579   2.489   0.677 -0.1621  0.4580 -0.1310
  586TMC3     H 8691   3.660   2.587   0.469  0.9985 -1.5926  0.0580
  586TMC3    H1 8692   3.238   2.495   0.478  1.7278 -2.2839  0.9140
  586TMC3    H2 8693   3.396   2.630   0.124  0.7560 -1.0645 -0.3411
  586TMC3    C7 8694   3.196   2.497   0.224  0.1563  0.0114  0.7199
  586TMC3    C8 8695   3.658   2.634   0.208  0.7176 -0.2891  0.2586
  586TMC3    O1 8696   3.106   2.449   0.290  0.5002 -0.0033  0.1458
  586TMC3    O2 8697   3.768   2.620   0.255  0.8240 -0.3216 -0.2291
  587TMC3    C1 8698   1.217   1.843  16.277 -0.5770 -0.2314 -0.6495
  587TMC3    C2 8699   1.197   1.920  16.389 -0.4336 -0.0369 -0.2227
  587TMC3    C3 8700   1.300   1.993  16.425  0.2373  0.2813  0.1991
  587TMC3    C4 8701   1.324   1.843  16.200 -0.1101  0.4762 -0.2607
  587TMC3    C5 8702   1.434   1.911  16.254  0.7935  0.1824 -0.2908
  587TMC3    C6 8703   1.422   1.987  16.368  0.3197  0.2795  0.3350
  587TMC3     C 8704   1.106   1.763  16.227 -0.7368  0.5317  0.1706
  587TMC3     O 8705   1.133   1.654  16.168 -0.9649 -0.1755  0.0865
  587TMC3     H 8706   1.111   1.908  16.454 -0.3490 -2.2733 -0.5423
  587TMC3    H1 8707   1.319   1.773  16.118  0.5695 -0.9087  0.8791
  587TMC3    H2 8708   1.494   2.064  16.392 -0.7038  1.3789 -0.1525
  587TMC3    C7 8709   1.570   1.888  16.201  0.4998  0.3183  0.5728
  587TMC3    C8 8710   1.295   2.043  16.557 -0.1597  0.4166 -0.1327
  587TMC3    O1 8711   1.660   1.929  16.279 -0.1174 -0.2477  0.2810
  587TMC3    O2 8712   1.394   2.027  16.625 -0.6915 -0.3724 -0.0651
  588TMC3    C1 8713   3.622   4.069   9.668 -0.4742  0.2396  1.1229
  588TMC3    C2 8714   3.563   3.942   9.670 -0.2768  0.1033  0.4445
  588TMC3    C3 8715   3.595   3.857   9.769 -0.2985 -0.9837  0.5912
  588TMC3    C4 8716   3.732   4.094   9.744  0.3816  0.1007 -0.5918
  588TMC3    C5 8717   3.781   3.999   9.827  0.0934 -0.5199  0.5362
  588TMC3    C6 8718   3.708   3.884   9.844 -0.1675 -0.4047 -0.0723
  588TMC3     C 8719   3.594   4.157   9.559 -0.0406  0.3555  0.4476
  588TMC3     O 8720   3.544   4.114   9.454  0.3002  0.0638 -0.3224
  588TMC3     H 8721   3.472   3.931   9.613 -1.9722  1.5276  2.8813
  588TMC3    H1 8722   3.784   4.187   9.723  0.4237 -0.3127 -2.3520
  588TMC3    H2 8723   3.750   3.812   9.913  2.8475  1.1164 -0.3058
  588TMC3    C7 8724   3.885   4.036   9.919  0.0407  0.8069 -0.3438
  588TMC3    C8 8725   3.529   3.729   9.774  0.3040  0.3385 -0.0904
  588TMC3    O1 8726   3.867   4.002  10.033 -0.2660 -0.1340 -0.5800
  588TMC3    O2 8727   3.440   3.693   9.693  0.1261  0.6625  0.0771
  589TMC3    C1 8728   2.417   1.569   1.274 -0.5260  0.1393  0.7090
  589TMC3    C2 8729   2.480   1.576   1.398  0.0176  0.0185  0.8846
  589TMC3    C3 8730   2.588   1.495   1.424 -0.6237  0.0165  0.1166
  589TMC3    C4 8731   2.456   1.474   1.186 -0.5909  0.0218  0.1107
  589TMC3    C5 8732   2.572   1.407   1.205  0.7281  0.6037  0.6860
  589TMC3    C6 8733   2.645   1.419   1.325 -0.0556 -0.4267  0.1511
  589TMC3     C 8734   2.303   1.648   1.243 -0.3384 -0.2626  0.3992
  589TMC3     O 8735   2.237   1.617   1.147 -0.3725  0.3657  0.2774
  589TMC3     H 8736   2.429   1.634   1.474 -1.4787  0.4054 -0.4151
  589TMC3    H1 8737   2.408   1.471   1.089 -1.1921  1.2035  0.3725
  589TMC3    H2 8738   2.735   1.361   1.343  0.9986  1.4189  0.8360
  589TMC3    C7 8739   2.606   1.302   1.112 -0.1174 -0.1362 -0.2192
  589TMC3    C8 8740   2.658   1.515   1.557 -0.1049  0.0916 -0.0545
  589TMC3    O1 8741   2.674   1.208   1.145 -0.1489  0.4232 -0.3155
  589TMC3    O2 8742   2.601   1.588   1.637  0.2382 -0.8199  0.1216
  590MPD2     C 8743   2.083   0.173  17.065 -0.2189 -0.4937  0.1975
  590MPD2    C1 8744   2.034   0.301  17.040 -0.4522  0.2672 -1.0988
  590MPD2    C2 8745   2.092   0.374  16.938 -0.5907 -0.2308 -0.0446
  590MPD2    C3 8746   2.207   0.327  16.880 -0.0479 -0.2345 -0.6028
  590MPD2    C4 8747   2.263   0.208  16.914 -0.1296 -0.0403 -0.4430
  590MPD2    C5 8748   2.201   0.132  17.007 -0.0813 -0.0370 -0.0285
  590MPD2     H 8749   2.064   0.473  16.905  4.1985  1.7840  1.8322
  590MPD2    H1 8750   2.348   0.160  16.868  0.1196  0.4218 -0.4714
  590MPD2    H2 8751   2.032   0.106  17.133 -1.9039  0.9536  0.3461
  590MPD2    H3 8752   2.241   0.035  17.036 -2.2951 -1.0083 -0.2110
  590MPD2     N 8753   2.255   0.395  16.762  0.0287  0.0987  1.2197
  590MPD2    H5 8754   2.206   0.481  16.742  1.3209  0.2075 -1.5080
  590MPD2    N1 8755   1.910   0.347  17.098 -0.0558  0.8577 -0.0826
  590MPD2    H7 8756   1.851   0.267  17.119 -0.6878  1.4047  0.2375
  591TMC3    C1 8757   2.368   0.461  16.559  0.3962  0.2951 -0.4690
  591TMC3    C2 8758   2.469   0.434  16.471 -0.0591 -0.0953 -0.2651
  591TMC3    C3 8759   2.481   0.522  16.369  0.8817  0.1266 -0.0593
  591TMC3    C4 8760   2.287   0.573  16.558  0.1044  0.4519 -0.0996
  591TMC3    C5 8761   2.294   0.647  16.444  0.1066  0.5655 -0.2270
  591TMC3    C6 8762   2.392   0.617  16.351  0.3477 -0.0284  1.0922
  591TMC3     C 8763   2.348   0.364  16.668 -0.0347  0.0598 -0.7737
  591TMC3     O 8764   2.414   0.262  16.662 -0.0849  0.3583  0.3188
  591TMC3     H 8765   2.544   0.358  16.487 -0.3227 -0.4799 -0.9013
  591TMC3    H1 8766   2.202   0.584  16.624 -1.1861  1.0798 -1.8644
  591TMC3    H2 8767   2.389   0.677  16.261  0.2301 -1.4074  0.1839
  591TMC3    C7 8768   2.198   0.759  16.426  0.2836 -0.0090  0.1630
  591TMC3    C8 8769   2.575   0.479  16.264  0.1290 -0.7546  0.0435
  591TMC3    O1 8770   2.105   0.765  16.506 -0.1798 -0.5836  0.0591
  591TMC3    O2 8771   2.627   0.368  16.265 -0.1222 -0.5486 -0.4855
  592MPD2     C 8772   2.602   1.866  11.233 -0.7099  0.4160  0.1525
  592MPD2    C1 8773   2.559   1.844  11.360 -0.4314  0.0469 -0.6105
  592MPD2    C2 8774   2.435   1.791  11.383  0.3831  0.0339 -0.3919
  592MPD2    C3 8775   2.352   1.757  11.274 -0.3064  0.1426 -0.3515
  592MPD2    C4 8776   2.406   1.761  11.138  0.6871 -0.8953  0.0796
  592MPD2    C5 8777   2.526   1.829  11.124  0.3219 -0.4771  0.1476
  592MPD2     H 8778   2.398   1.780  11.485  0.9657  0.3128 -0.1560
  592MPD2    H1 8779   2.345   1.730  11.054  0.5745  1.0723 -0.5681
  592MPD2    H2 8780   2.697   1.912  11.206 -1.5366  1.4879 -0.8993
  592MPD2    H3 8781   2.574   1.848  11.029  1.7726 -0.9859  0.7857
  592MPD2     N 8782   2.217   1.723  11.308 -0.3651 -0.1901 -0.4606
  592MPD2    H5 8783   2.189   1.719  11.405 -2.0715 -0.2251 -0.9575
  592MPD2    N1 8784   2.646   1.894  11.451  0.5350 -0.0240 -0.6210
  592MPD2    H7 8785   2.737   1.923  11.417  0.5262  0.1304 -0.5124
  593TMC3    C1 8786   2.738   1.946  11.661  0.6786  0.0524 -0.0105
  593TMC3    C2 8787   2.725   1.930  11.793 -0.6146 -0.6786  0.5624
  593TMC3    C3 8788   2.813   1.998  11.874 -0.0278 -0.0666  0.3873
  593TMC3    C4 8789   2.813   2.041  11.601 -0.6682 -1.0962  1.0685
  593TMC3    C5 8790   2.887   2.122  11.681  0.6516  0.5320  0.1010
  593TMC3    C6 8791   2.888   2.100  11.818 -0.8743 -0.0590 -0.7734
  593TMC3     C 8792   2.632   1.880  11.586  0.0467 -0.4697 -0.2839
  593TMC3     O 8793   2.536   1.837  11.645  0.0936 -0.2566 -0.0243
  593TMC3     H 8794   2.654   1.860  11.836 -2.1725  0.7336  0.2839
  593TMC3    H1 8795   2.799   2.068  11.497  1.9674 -3.4596  0.1179
  593TMC3    H2 8796   2.950   2.168  11.876 -1.2454 -0.3581 -0.0229
  593TMC3    C7 8797   2.979   2.220  11.628  0.0831 -0.2908  0.2777
  593TMC3    C8 8798   2.808   1.976  12.014 -0.2301  0.2259 -0.2004
  593TMC3    O1 8799   3.009   2.310  11.704  0.3143 -0.0874 -0.3474
  593TMC3    O2 8800   2.719   1.903  12.058 -0.4519 -0.1485  0.1995
  594MPD2     C 8801   0.836   0.985  13.931  0.2036  0.3645 -0.2122
  594MPD2    C1 8802   0.828   1.048  14.055  0.1118 -0.3124 -0.1053
  594MPD2    C2 8803   0.936   1.115  14.102  0.0910  0.1271 -0.2562
  594MPD2    C3 8804   1.049   1.120  14.042 -0.4644 -0.7272  0.3311
  594MPD2    C4 8805   1.062   1.047  13.927  0.8217  0.6856  0.0193
  594MPD2    C5 8806   0.958   0.977  13.877  0.2149  0.2685 -0.7225
  594MPD2     H 8807   0.914   1.187  14.180  1.3181 -0.1506  0.3458
  594MPD2    H1 8808   1.142   1.043  13.854 -0.0345 -2.0534 -0.7750
  594MPD2    H2 8809   0.745   0.943  13.888 -0.1091 -0.7563  1.5385
  594MPD2    H3 8810   0.963   0.929  13.780 -0.5518  2.0147 -1.6426
  594MPD2     N 8811   1.149   1.205  14.093  0.0785 -0.6012 -0.1199
  594MPD2    H5 8812   1.142   1.241  14.187  3.5417  0.8282 -0.3854
  594MPD2    N1 8813   0.703   1.043  14.120  0.0203  0.2430 -0.7976
  594MPD2    H7 8814   0.632   0.993  14.067  0.7967 -1.4626 -0.2278
  595TMC3    C1 8815   1.578   1.316  14.243 -0.1241  0.1180  0.1246
  595TMC3    C2 8816   1.503   1.239  14.152 -0.5108 -0.5995  0.2369
  595TMC3    C3 8817   1.370   1.277  14.136  0.2452  0.2603  0.0220
  595TMC3    C4 8818   1.523   1.411  14.323 -0.4781 -0.5091  0.6020
  595TMC3    C5 8819   1.381   1.435  14.313  0.5852 -0.0270  0.4938
  595TMC3    C6 8820   1.309   1.377  14.215  0.7029 -0.2864  0.8096
  595TMC3     C 8821   1.718   1.293  14.268 -0.8740 -0.2011 -0.1081
  595TMC3     O 8822   1.784   1.371  14.331  0.3171 -0.3078  0.5558
  595TMC3     H 8823   1.545   1.163  14.088  1.1087  1.8080 -1.5461
  595TMC3    H1 8824   1.585   1.465  14.393 -1.7320 -0.8529  1.9755
  595TMC3    H2 8825   1.208   1.414  14.198  1.0799  0.2298 -0.3235
  595TMC3    C7 8826   1.316   1.516  14.418  0.4652 -0.1443 -0.5248
  595TMC3    C8 8827   1.284   1.185  14.060 -0.4600 -0.1910  0.3637
  595TMC3    O1 8828   1.195   1.516  14.404  0.2749  0.0011  0.4861
  595TMC3    O2 8829   1.343   1.112  13.983 -0.1641 -0.3664  1.0992
  596MPD2     C 8830   0.327   3.860  16.714  0.0082  0.4582  0.3249
  596MPD2    C1 8831   0.302   3.974  16.634 -0.1477  0.4873 -0.6343
  596MPD2    C2 8832   0.324   3.966  16.500 -0.0061  0.5074  0.4381
  596MPD2    C3 8833   0.387   3.851  16.440  0.0947  0.1293  0.4206
  596MPD2    C4 8834   0.418   3.746  16.526  0.4936  0.4362  0.0011
  596MPD2    C5 8835   0.381   3.752  16.653  0.2617 -0.4245 -0.0411
  596MPD2     H 8836   0.283   4.040  16.433  1.3219  3.4988  2.9436
  596MPD2    H1 8837   0.467   3.658  16.489 -0.6798 -0.5850  0.8728
  596MPD2    H2 8838   0.310   3.848  16.821 -0.6550 -0.6313  0.1017
  596MPD2    H3 8839   0.392   3.660  16.710  2.0132 -0.7074 -0.8373
  596MPD2     N 8840   0.394   3.826  16.302 -0.4718  0.4778 -0.0644
  596MPD2    H5 8841   0.410   3.729  16.274  0.4490  0.8851 -0.9410
  596MPD2    N1 8842   0.255   4.099  16.683  0.2126  0.1463 -0.0608
  596MPD2    H7 8843   0.267   4.174  16.616 -1.4667  0.5682  0.1005
  597TMC3    C1 8844   0.165   4.263  16.819 -0.5879 -0.1144  0.2804
  597TMC3    C2 8845   0.197   4.366  16.745  0.2173  0.9015 -0.4502
  597TMC3    C3 8846   0.154   4.488  16.793  0.6096 -1.0303 -0.5891
  597TMC3    C4 8847   0.095   4.278  16.938  0.6040 -0.4482  0.4803
  597TMC3    C5 8848   0.046   4.399  16.973 -0.8113  0.5247  0.7398
  597TMC3    C6 8849   0.076   4.512  16.901 -0.7319  0.1389  0.1999
  597TMC3     C 8850   0.203   4.123  16.802  0.5035  0.2971 -0.9613
  597TMC3     O 8851   0.187   4.039  16.893 -0.0852 -0.2251  0.1174
  597TMC3     H 8852   0.255   4.366  16.653  2.4139 -1.6158  0.9204
  597TMC3    H1 8853   0.084   4.198  17.011 -0.2923 -1.2458 -0.5209
  597TMC3    H2 8854   0.056   4.607  16.949 -0.4332 -0.5113  1.6156
  597TMC3    C7 8855   4.682   4.407  17.100 -0.2842  0.0105 -0.2639
  597TMC3    C8 8856   0.217   4.608  16.737  1.0247  0.4650  0.1372
  597TMC3    O1 8857   4.647   4.308  17.162 -0.0808  0.0718 -0.4679
  597TMC3    O2 8858   0.328   4.589  16.683 -0.1143  0.2463 -0.2802
  598TMC3    C1 8859   3.293   0.877  15.750  0.3618  0.7181  0.2221
  598TMC3    C2 8860   3.236   0.849  15.624 -0.0584  0.5204  0.2241
  598TMC3    C3 8861   3.263   0.927  15.521 -0.1424 -0.1221 -0.0226
  598TMC3    C4 8862   3.379   0.979  15.767 -0.3497 -0.1746  0.0367
  598TMC3    C5 8863   3.406   1.054  15.657  0.2464  1.1174 -0.3417
  598TMC3    C6 8864   3.348   1.036  15.535 -0.2601  0.0784  0.2195
  598TMC3     C 8865   3.228   0.832  15.864 -0.2661 -0.1706  0.3638
  598TMC3     O 8866   3.218   0.917  15.948  0.2407  0.0835 -0.2460
  598TMC3     H 8867   3.168   0.765  15.610  1.7493 -1.1209  1.2168
  598TMC3    H1 8868   3.434   1.006  15.857  1.1661  1.9433 -1.5349
  598TMC3    H2 8869   3.354   1.105  15.451 -0.4326 -1.4214 -1.0333
  598TMC3    C7 8870   3.531   1.128  15.656  0.0151  0.2362 -0.3303
  598TMC3    C8 8871   3.286   0.863  15.393  0.1075  0.5392 -0.1680
  598TMC3    O1 8872   3.594   1.121  15.761  0.1291 -0.5317  0.4215
  598TMC3    O2 8873   3.359   0.928  15.319 -0.1785  0.0137  0.3554
  599MPD2     C 8874   3.221   3.026  15.942  0.0605  0.4747 -0.6253
  599MPD2    C1 8875   3.228   2.892  15.972 -1.0041 -0.2534 -0.5947
  599MPD2    C2 8876   3.122   2.830  16.031  0.0886  0.5516 -0.1102
  599MPD2    C3 8877   3.006   2.902  16.060  0.4582 -0.1594 -0.1194
  599MPD2    C4 8878   2.998   3.035  16.021  0.3881 -0.3761 -0.6479
  599MPD2    C5 8879   3.106   3.097  15.967 -0.5632  0.0666 -0.5357
  599MPD2     H 8880   3.129   2.727  16.062  0.8929  0.3912 -0.8337
  599MPD2    H1 8881   2.913   3.097  16.047  2.2123  0.7034  2.6809
  599MPD2    H2 8882   3.302   3.086  15.902  0.9308  0.0911  0.5544
  599MPD2    H3 8883   3.099   3.203  15.947  0.2106  0.1940 -0.1389
  599MPD2     N 8884   2.901   2.852  16.136  0.0427  0.2928 -0.0303
  599MPD2    H5 8885   2.830   2.920  16.160  0.0414  0.8339 -1.5510
  599MPD2    N1 8886   3.352   2.835  15.952 -0.1478 -0.2043 -0.9621
  599MPD2    H7 8887   3.424   2.901  15.926 -0.2397  0.1350 -0.3591
  600TMC3    C1 8888   2.781   2.713  16.288 -0.4398 -0.3531 -0.7864
  600TMC3    C2 8889   2.708   2.600  16.321 -0.7089 -0.0265 -0.3072
  600TMC3    C3 8890   2.671   2.587  16.451 -0.3160  0.4194  0.3687
  600TMC3    C4 8891   2.821   2.801  16.392  0.2457 -0.0363  0.2506
  600TMC3    C5 8892   2.783   2.780  16.520 -0.6012  0.6106 -0.7416
  600TMC3    C6 8893   2.710   2.669  16.551 -0.3700  0.4051 -0.6806
  600TMC3     C 8894   2.888   2.724  16.186 -0.9366  0.2763 -0.2495
  600TMC3     O 8895   2.932   2.619  16.144  0.5697  0.8838  0.9858
  600TMC3     H 8896   2.680   2.528  16.244  0.9610  1.8146 -2.6676
  600TMC3    H1 8897   2.889   2.882  16.368  0.0321  0.0865  0.0604
  600TMC3    H2 8898   2.674   2.646  16.651 -0.2871 -0.6271 -0.8866
  600TMC3    C7 8899   2.833   2.865  16.635  0.4447  0.0650 -0.6018
  600TMC3    C8 8900   2.572   2.482  16.490  0.4403 -0.0011 -0.4806
  600TMC3    O1 8901   2.774   2.865  16.741 -0.1297  0.4411  0.5355
  600TMC3    O2 8902   2.586   2.443  16.606 -0.1561  0.5725 -0.1090
  601MPD2     C 8903   0.748   0.599   0.325  0.2025 -0.3258 -0.1314
  601MPD2    C1 8904   0.615   0.635   0.332 -0.0643  0.0859  0.2934
  601MPD2    C2 8905   0.530   0.547   0.398  0.0694 -0.2087 -0.4923
  601MPD2    C3 8906   0.577   0.428   0.453 -0.7632  0.1673 -0.0704
  601MPD2    C4 8907   0.710   0.394   0.450 -0.0263  0.5998  0.3144
  601MPD2    C5 8908   0.792   0.483   0.386  0.3054  0.2850 -0.1581
  601MPD2     H 8909   0.428   0.582   0.404  0.4807  0.5117  2.4359
  601MPD2    H1 8910   0.749   0.300   0.486  0.3132  2.0410  3.7245
  601MPD2    H2 8911   0.825   0.668   0.294  0.5017 -1.1279 -1.1788
  601MPD2    H3 8912   0.895   0.449   0.392  0.2011  0.0631  0.3287
  601MPD2     N 8913   0.495   0.339   0.525 -0.3427  0.2408 -1.1732
  601MPD2    H5 8914   0.547   0.263   0.569  1.3790  1.4574 -1.1217
  601MPD2    N1 8915   0.562   0.762   0.312 -0.4110 -0.0298  0.0729
  601MPD2    H7 8916   0.466   0.779   0.341 -0.3505  1.0585 -0.3697
  602TMC3    C1 8917   0.537   0.980   0.217  0.2466  0.2313  0.2040
  602TMC3    C2 8918   0.426   1.000   0.289  0.1409 -0.4856 -0.2129
  602TMC3    C3 8919   0.342   1.097   0.244  0.2768 -0.6793 -0.6610
  602TMC3    C4 8920   0.571   1.051   0.104  0.5221 -0.2405 -0.1218
  602TMC3    C5 8921   0.494   1.150   0.073 -0.3925  0.1169  0.2148
  602TMC3    C6 8922   0.379   1.181   0.140  0.5126  0.3047  0.2479
  602TMC3     C 8923   0.621   0.862   0.239 -0.0393  0.5332  0.7187
  602TMC3     O 8924   0.716   0.857   0.166  0.0231  0.3004  0.4166
  602TMC3     H 8925   0.399   0.937   0.373  0.1214 -1.6427 -1.0974
  602TMC3    H1 8926   0.652   1.021   0.039  0.1101 -0.6663 -0.4415
  602TMC3    H2 8927   0.316   1.260   0.101 -1.7088 -1.0330  1.1277
  602TMC3    C7 8928   0.541   1.236  17.634 -1.0329  0.1463 -0.7565
  602TMC3    C8 8929   0.211   1.139   0.312 -0.4019  0.2307  0.0329
  602TMC3    O1 8930   0.650   1.200  17.583 -0.1625  0.2507 -0.0461
  602TMC3    O2 8931   0.144   1.050   0.358  0.2321  0.3090 -0.0704
  603TMC3    C1 8932   3.981   1.316  10.585  0.2686  0.4611 -0.1704
  603TMC3    C2 8933   3.959   1.240  10.700 -0.3438 -0.5910 -0.9609
  603TMC3    C3 8934   3.957   1.315  10.819 -0.1051  0.4663  0.7811
  603TMC3    C4 8935   3.974   1.452  10.585  0.7367  0.0880  1.1917
  603TMC3    C5 8936   3.959   1.516  10.699 -0.2781  0.1074 -0.7176
  603TMC3    C6 8937   3.956   1.450  10.820  0.6819  0.4953  0.2088
  603TMC3     C 8938   3.955   1.259  10.456  0.8183  0.1866  0.3840
  603TMC3     O 8939   3.960   1.334  10.360  0.4719  0.2515  0.2797
  603TMC3     H 8940   3.948   1.133  10.693  2.6277 -1.1249  2.5866
  603TMC3    H1 8941   3.991   1.506  10.493  2.2645  1.0801  2.0644
  603TMC3    H2 8942   3.931   1.510  10.907  0.4220  0.3579  0.2309
  603TMC3    C7 8943   3.947   1.660  10.709 -0.1014  0.0150 -0.0310
  603TMC3    C8 8944   3.885   1.252  10.927  0.3662 -0.4657  0.3694
  603TMC3    O1 8945   3.984   1.727  10.808  0.0112  0.3130 -0.4508
  603TMC3    O2 8946   3.826   1.149  10.903  0.3559 -0.2963  0.2363
  604MPD2     C 8947   3.816   4.542  16.531  0.2782  1.0512  0.2450
  604MPD2    C1 8948   3.885   4.664  16.536  0.6076 -0.7922  0.0307
  604MPD2    C2 8949   3.934   0.001  16.423  0.3388 -0.8134  0.7558
  604MPD2    C3 8950   3.932   4.651  16.301  0.1558 -0.0173  0.3291
  604MPD2    C4 8951   3.866   4.527  16.298 -0.6151 -1.0705  0.5120
  604MPD2    C5 8952   3.810   4.472  16.412 -0.0779 -0.6262 -0.2107
  604MPD2     H 8953   4.001   0.087  16.422 -0.7214  0.0011  0.2052
  604MPD2    H1 8954   3.854   4.460  16.214 -0.1868 -0.2230 -0.2304
  604MPD2    H2 8955   3.783   4.501  16.626 -0.9459 -0.5414 -0.8798
  604MPD2    H3 8956   3.764   4.374  16.412  1.3151 -1.2802 -0.2827
  604MPD2     N 8957   3.998   4.710  16.197  0.0349 -0.3887  0.4284
  604MPD2    H5 8958   4.036   0.084  16.216  4.7327 -1.8535 -1.8778
  604MPD2    N1 8959   3.904   4.714  16.672 -0.1082 -0.2708 -0.0731
  604MPD2    H7 8960   3.843   4.676  16.744 -0.5635  2.7071  1.1298
  605TMC3    C1 8961   3.935   0.173  16.821  0.0720 -0.3262  0.3636
  605TMC3    C2 8962   4.018   0.269  16.871 -0.0496  0.8068 -0.8221
  605TMC3    C3 8963   3.974   0.376  16.940  0.3305  0.2658 -0.3018
  605TMC3    C4 8964   3.798   0.182  16.850 -0.4924 -0.8355  0.2869
  605TMC3    C5 8965   3.753   0.282  16.932  0.6094  0.1117 -0.4364
  605TMC3    C6 8966   3.841   0.376  16.983  0.2832 -0.3695  0.9234
  605TMC3     C 8967   3.990   0.092  16.715  0.0022  0.8019 -0.7497
  605TMC3     O 8968   4.087   0.129  16.646  0.3178 -0.5178  0.7228
  605TMC3     H 8969   4.120   0.276  16.835  0.5950  1.0586  1.0613
  605TMC3    H1 8970   3.729   0.107  16.815  0.3389 -0.1574 -2.8179
  605TMC3    H2 8971   3.803   0.453  17.049 -0.7142 -2.1711  2.4379
  605TMC3    C7 8972   3.611   0.313  16.932 -0.1758 -0.0261 -0.1483
  605TMC3    C8 8973   4.076   0.450  17.005 -0.1026  0.2748 -0.2741
  605TMC3    O1 8974   3.575   0.420  16.886 -0.4863  0.1442  0.9168
  605TMC3    O2 8975   4.189   0.401  17.006  0.4747  0.0825  0.1765
  606TMC3    C1 8976   0.387   3.376  17.578 -0.2078 -0.1259  0.9739
  606TMC3    C2 8977   0.502   3.385  17.639 -0.9027 -0.0054  0.4074
  606TMC3    C3 8978   0.584   3.279  17.635  0.5367 -0.4163 -0.5526
  606TMC3    C4 8979   0.350   3.259  17.517  0.2259  0.3170  0.7634
  606TMC3    C5 8980   0.434   3.157  17.525  0.1994 -0.0208  0.4332
  606TMC3    C6 8981   0.562   3.173  17.568 -0.3716 -0.4771  0.4236
  606TMC3     C 8982   0.296   3.485  17.568  0.2755 -0.0292  0.6733
  606TMC3     O 8983   0.211   3.491  17.479  0.4304  0.3009  0.4331
  606TMC3     H 8984   0.537   3.482  17.673  1.3527  0.1625 -2.4360
  606TMC3    H1 8985   0.250   3.242  17.478  0.8357 -1.0056 -0.2437
  606TMC3    H2 8986   0.630   3.088  17.574 -0.1959 -0.4219 -0.8137
  606TMC3    C7 8987   0.405   3.043  17.442 -0.2753 -0.4301 -0.1524
  606TMC3    C8 8988   0.720   3.303  17.667  0.9280  0.1334 -0.3134
  606TMC3    O1 8989   0.499   2.982  17.395  0.5229 -0.0906  0.2387
  606TMC3    O2 8990   0.731   3.362   0.097 -0.1578  0.5850  0.0524
  607MPD2     C 8991   3.447   1.707  11.260  0.7008  0.9678 -0.2526
  607MPD2    C1 8992   3.331   1.661  11.324  0.0015 -0.1609  0.5012
  607MPD2    C2 8993   3.225   1.634  11.237  0.8133 -0.0165  0.6452
  607MPD2    C3 8994   3.227   1.648  11.103 -0.1292 -0.3107 -0.5051
  607MPD2    C4 8995   3.346   1.669  11.040 -0.5615 -0.6644 -0.1794
  607MPD2    C5 8996   3.457   1.698  11.122 -0.3345 -0.7192  0.6048
  607MPD2     H 8997   3.131   1.605  11.282 -0.9681  1.3915 -2.1562
  607MPD2    H1 8998   3.344   1.698  10.936  2.6980  1.1768  0.2796
  607MPD2    H2 8999   3.532   1.734  11.322  0.2392  0.2472  0.6975
  607MPD2    H3 9000   3.541   1.737  11.066 -0.3526  0.0793  1.1353
  607MPD2     N 9001   3.100   1.627  11.044  0.0598 -0.4341  0.3323
  607MPD2    H5 9002   3.028   1.628  11.116 -0.5979  0.2361 -0.3325
  607MPD2    N1 9003   3.315   1.662  11.470  0.4915  0.2983  0.5393
  607MPD2    H7 9004   3.233   1.615  11.506  1.4288 -0.2531  1.9457
  608TMC3    C1 9005   3.328   1.719  11.692  0.3927  0.0640  0.1494
  608TMC3    C2 9006   3.205   1.664  11.699  0.4597  0.5175 -0.3858
  608TMC3    C3 9007   3.129   1.707  11.806  0.2413 -0.2895 -0.1716
  608TMC3    C4 9008   3.367   1.823  11.764  0.1196 -0.3211  0.0192
  608TMC3    C5 9009   3.294   1.862  11.868  0.4254  0.1367  0.2830
  608TMC3    C6 9010   3.170   1.807  11.893 -0.1978 -0.2182  0.0351
  608TMC3     C 9011   3.394   1.723  11.565 -0.2186 -0.6827 -0.2854
  608TMC3     O 9012   3.500   1.779  11.552  0.2096  0.1192  0.1019
  608TMC3     H 9013   3.179   1.578  11.639  0.6958  1.7953 -2.3115
  608TMC3    H1 9014   3.474   1.844  11.760 -0.3714  2.4859  2.0578
  608TMC3    H2 9015   3.099   1.835  11.971 -1.2892 -0.8744 -0.7251
  608TMC3    C7 9016   3.313   2.003  11.902 -0.1914 -0.0409 -0.4867
  608TMC3    C8 9017   2.985   1.669  11.810 -0.6965  0.3820  0.6830
  608TMC3    O1 9018   3.252   2.035  12.002  0.1942 -0.0335  0.2369
  608TMC3    O2 9019   2.928   1.652  11.919 -0.0697 -0.2905 -0.3821
  609TMC3    C1 9020   2.144   4.696   9.498  0.1966  0.4410  0.6919
  609TMC3    C2 9021   2.157   4.561   9.474 -0.4287  0.3356 -0.0136
  609TMC3    C3 9022   2.276   4.513   9.518  0.3949  0.0878 -0.3233
  609TMC3    C4 9023   2.232   0.057   9.565 -0.4324 -0.3828 -0.1958
  609TMC3    C5 9024   2.344   4.712   9.609 -0.1597  0.2039  0.0104
  609TMC3    C6 9025   2.372   4.580   9.587  0.3491  0.2921  0.3640
  609TMC3     C 9026   2.030   0.049   9.451 -0.2647  0.1603  0.3296
  609TMC3     O 9027   1.983   0.143   9.517 -0.0542  0.3735  0.3855
  609TMC3     H 9028   2.070   4.498   9.468 -1.1185  1.2243  0.5637
  609TMC3    H1 9029   2.208   0.161   9.585  3.1079  0.1943  1.0312
  609TMC3    H2 9030   2.470   4.535   9.596  1.6401  2.3641 -3.3871
  609TMC3    C7 9031   2.447   0.077   9.666  0.3452 -0.0973  0.0766
  609TMC3    C8 9032   2.291   4.372   9.507  0.4782  0.2165  0.4621
  609TMC3    O1 9033   2.439   0.197   9.646  0.0627 -0.1490 -0.0339
  609TMC3    O2 9034   2.380   4.316   9.570  0.2323  0.3913  0.0409
  610TMC3    C1 9035   2.774   1.161  12.158 -0.0823  0.3414  0.2278
  610TMC3    C2 9036   2.831   1.203  12.045  0.4769 -0.2963  0.1965
  610TMC3    C3 9037   2.935   1.294  12.066  1.1699 -0.2804  0.1533
  610TMC3    C4 9038   2.800   1.216  12.277 -0.1301  0.0253 -0.6219
  610TMC3    C5 9039   2.903   1.302  12.299 -0.3588  0.8198 -0.1598
  610TMC3    C6 9040   2.977   1.335  12.190 -0.4101  0.6498 -0.7674
  610TMC3     C 9041   2.672   1.050  12.154 -0.4142 -0.3791 -0.7843
  610TMC3     O 9042   2.584   1.055  12.238  0.6964 -0.0391  0.1365
  610TMC3     H 9043   2.790   1.175  11.949  1.4675  0.3392 -0.4078
  610TMC3    H1 9044   2.746   1.168  12.357  2.9975  0.0988  1.5057
  610TMC3    H2 9045   3.069   1.390  12.206 -0.1663  0.1253 -0.3945
  610TMC3    C7 9046   2.958   1.319  12.426  0.0199 -0.2344 -0.5424
  610TMC3    C8 9047   3.019   1.303  11.949  0.3903 -0.1553  0.8052
  610TMC3    O1 9048   3.079   1.341  12.435 -0.2862 -0.3829  0.3938
  610TMC3    O2 9049   2.966   1.248  11.853 -0.1764 -0.5758 -0.4474
  611MPD2     C 9050   3.131   1.323  10.202 -0.3744 -0.1060 -0.1241
  611MPD2    C1 9051   3.063   1.419  10.127 -0.1114 -0.8219 -0.3239
  611MPD2    C2 9052   3.115   1.548  10.116  0.2045 -0.0785  0.2990
  611MPD2    C3 9053   3.241   1.583  10.160  0.2637 -0.5368 -0.3376
  611MPD2    C4 9054   3.310   1.493  10.235  0.4294  0.2048  0.7703
  611MPD2    C5 9055   3.254   1.363  10.255  0.1269  0.1898 -0.2755
  611MPD2     H 9056   3.049   1.621  10.070 -0.5329 -1.4417 -0.8020
  611MPD2    H1 9057   3.406   1.509  10.281 -0.0721 -0.0338  1.8826
  611MPD2    H2 9058   3.088   1.224  10.209 -0.5478  0.1788  2.8872
  611MPD2    H3 9059   3.318   1.296  10.313  2.6991  0.6965 -2.5662
  611MPD2     N 9060   3.283   1.717  10.145  0.3220  0.0205 -0.0276
  611MPD2    H5 9061   3.382   1.721  10.167  0.5272 -0.0796 -0.9008
  611MPD2    N1 9062   2.939   1.372  10.078 -1.1410  0.2303 -0.0014
  611MPD2    H7 9063   2.911   1.281  10.112  0.3547 -0.5377 -0.8255
  612TMC3    C1 9064   3.279   1.957  10.134 -0.1219 -0.6322 -0.1746
  612TMC3    C2 9065   3.377   1.971  10.222  0.0626 -0.0706 -0.0567
  612TMC3    C3 9066   3.414   2.098  10.244  0.0613 -0.3013 -0.1733
  612TMC3    C4 9067   3.227   2.058  10.054  0.8250 -0.7741 -0.4051
  612TMC3    C5 9068   3.268   2.185  10.082  0.1292  0.3161 -0.5673
  612TMC3    C6 9069   3.360   2.203  10.172 -0.3516 -0.0346 -1.5379
  612TMC3     C 9070   3.214   1.828  10.096  0.6075  0.4741  0.3889
  612TMC3     O 9071   3.096   1.838  10.064 -0.0938 -0.3215  0.2883
  612TMC3     H 9072   3.401   1.892  10.292  1.0653  1.7362  1.6380
  612TMC3    H1 9073   3.145   2.046   9.984 -0.6971  0.4019  1.1847
  612TMC3    H2 9074   3.391   2.304  10.196  0.2737 -0.3638 -0.9752
  612TMC3    C7 9075   3.200   2.300  10.028  0.4083  0.0243 -0.3719
  612TMC3    C8 9076   3.536   2.130  10.322 -0.8494  0.2541  0.2450
  612TMC3    O1 9077   3.203   2.402  10.093 -0.4272 -0.5614  0.1048
  612TMC3    O2 9078   3.563   2.246  10.343 -0.4407  0.2208  0.3554
  613MPD2     C 9079   1.857   4.455  15.666 -0.3287  0.3682 -0.7363
  613MPD2    C1 9080   1.875   4.321  15.637  0.8121  0.2757  1.0347
  613MPD2    C2 9081   1.806   4.234  15.718 -0.3209 -0.2681 -0.2228
  613MPD2    C3 9082   1.741   4.279  15.834  0.1261  0.0970  0.7668
  613MPD2    C4 9083   1.720   4.414  15.860 -0.0756  0.4994 -0.1523
  613MPD2    C5 9084   1.786   4.508  15.772  0.1262  0.0665 -0.0297
  613MPD2     H 9085   1.803   4.129  15.691  0.8711  0.1892 -2.0623
  613MPD2    H1 9086   1.666   4.463  15.940  1.2249 -0.9642  1.5989
  613MPD2    H2 9087   1.910   4.526  15.603  1.6026 -0.2556  0.1829
  613MPD2    H3 9088   1.790   4.615  15.788 -1.0553  0.6179 -3.4039
  613MPD2     N 9089   1.677   4.189  15.916  0.4193  0.2426  0.2351
  613MPD2    H5 9090   1.605   4.224  15.978 -0.0254  2.0784 -1.3143
  613MPD2    N1 9091   1.944   4.269  15.519  0.1356  0.1802  0.2177
  613MPD2    H7 9092   1.956   4.168  15.518  1.6076  0.3684 -0.6434
  614TMC3    C1 9093   2.035   4.264  15.309 -0.2779 -0.1729  0.3431
  614TMC3    C2 9094   2.077   4.146  15.361  0.7448 -0.0011 -0.6249
  614TMC3    C3 9095   2.029   4.023  15.313 -0.5309  1.1963 -0.3489
  614TMC3    C4 9096   1.964   4.266  15.192  0.8560  0.1085 -0.4433
  614TMC3    C5 9097   1.924   4.147  15.144 -0.4506 -0.4721 -0.3058
  614TMC3    C6 9098   1.945   4.023  15.208 -0.4495 -0.1016  0.4814
  614TMC3     C 9099   1.971   4.345  15.407 -0.4782 -0.2847 -0.6564
  614TMC3     O 9100   1.922   4.449  15.371  0.2874 -0.2089  0.3227
  614TMC3     H 9101   2.146   4.144  15.444  0.4843 -0.9532 -0.4335
  614TMC3    H1 9102   1.911   4.357  15.167  0.7180 -0.5345 -2.4380
  614TMC3    H2 9103   1.927   3.930  15.154 -0.4196  0.6538 -0.8329
  614TMC3    C7 9104   1.843   4.151  15.024 -0.4945  0.6276 -0.3202
  614TMC3    C8 9105   1.996   3.940  15.433 -0.3282  0.3415  0.2493
  614TMC3    O1 9106   1.835   4.258  14.957  0.2636  0.0545  0.8757
  614TMC3    O2 9107   2.001   3.989  15.546 -0.1676  0.1589 -0.1499
  615MPD2     C 9108   0.733   0.955  16.075  0.1876  1.0718  0.3471
  615MPD2    C1 9109   0.744   0.870  16.188 -0.3706  0.2691 -0.0445
  615MPD2    C2 9110   0.678   0.745  16.190 -0.1410 -0.1104 -0.0443
  615MPD2    C3 9111   0.604   0.706  16.080  0.3192  0.6297 -0.4900
  615MPD2    C4 9112   0.594   0.794  15.972  0.6673  0.5256  0.4405
  615MPD2    C5 9113   0.662   0.916  15.966  0.4712  0.9431  0.4420
  615MPD2     H 9114   0.677   0.685  16.280  0.6932 -1.5316 -0.9776
  615MPD2    H1 9115   0.538   0.774  15.882  0.3244  2.2626  0.2534
  615MPD2    H2 9116   0.787   1.049  16.062  1.4882  0.2602 -0.1909
  615MPD2    H3 9117   0.665   0.978  15.877  0.4811 -1.2863 -1.0922
  615MPD2     N 9118   0.533   0.582  16.061 -0.1771  0.1072  0.4062
  615MPD2    H5 9119   0.486   0.569  15.972  1.3842 -2.6848 -0.0064
  615MPD2    N1 9120   0.827   0.907  16.299  0.2512  0.1489  0.2149
  615MPD2    H7 9121   0.813   0.846  16.379  0.7111  1.1365  1.0433
  616TMC3    C1 9122   0.984   1.035  16.421 -0.2238  0.5224  0.9202
  616TMC3    C2 9123   1.096   1.108  16.427  0.4250 -0.2145  0.7499
  616TMC3    C3 9124   1.159   1.134  16.546  0.5749 -0.5767 -0.3016
  616TMC3    C4 9125   0.931   0.986  16.533 -0.2235  0.0568 -0.1115
  616TMC3    C5 9126   0.992   1.005  16.653 -0.6145 -0.0871  0.5810
  616TMC3    C6 9127   1.112   1.071  16.657  0.0731 -0.2631  0.2938
  616TMC3     C 9128   0.924   1.001  16.294  0.2299 -0.1312  0.0117
  616TMC3     O 9129   0.984   1.042  16.194 -0.2673  0.1260  0.0191
  616TMC3     H 9130   1.145   1.144  16.336 -2.0057  2.5166  0.5302
  616TMC3    H1 9131   0.836   0.935  16.529 -0.3376  0.3767 -1.6286
  616TMC3    H2 9132   1.141   1.114  16.753 -2.4568  0.1856  0.8594
  616TMC3    C7 9133   0.920   0.972  16.779  0.1465 -0.2035 -0.0476
  616TMC3    C8 9134   1.296   1.174  16.543  0.0263  0.5132 -0.1755
  616TMC3    O1 9135   0.982   0.966  16.884  0.4528  0.2165  0.5569
  616TMC3    O2 9136   1.360   1.169  16.648  0.1863 -0.5692  0.3356
  617MPD2     C 9137   3.663   3.592  14.005  0.3308 -0.2375 -0.0460
  617MPD2    C1 9138   3.668   3.467  14.064 -0.7010  0.1326 -0.1726
  617MPD2    C2 9139   3.552   3.407  14.113  0.5502 -0.0570 -0.0672
  617MPD2    C3 9140   3.434   3.463  14.085  0.5434 -0.3130  0.7290
  617MPD2    C4 9141   3.431   3.572  14.004 -0.4872 -0.2797 -0.5691
  617MPD2    C5 9142   3.540   3.642  13.970 -0.4940  0.2251  0.2946
  617MPD2     H 9143   3.554   3.320  14.177  0.6438  0.6716  0.9261
  617MPD2    H1 9144   3.339   3.624  13.981 -0.2436  1.5747  2.7517
  617MPD2    H2 9145   3.746   3.652  13.970 -0.7581  1.5417  0.4133
  617MPD2    H3 9146   3.530   3.731  13.908 -0.4283 -0.7420 -1.0925
  617MPD2     N 9147   3.309   3.409  14.135  0.1123 -0.2140 -0.4740
  617MPD2    H5 9148   3.224   3.454  14.104  0.1617  0.4710  0.3854
  617MPD2    N1 9149   3.791   3.404  14.083  0.1611 -0.4265  0.1604
  617MPD2    H7 9150   3.871   3.461  14.060  0.0537  0.1103  1.1417
  618TMC3    C1 9151   3.946   3.220  14.082  0.4037 -0.0393  0.1226
  618TMC3    C2 9152   3.943   3.087  14.043 -0.3649  0.0759  0.5265
  618TMC3    C3 9153   4.025   3.038  13.945  0.0942 -0.2568  0.2099
  618TMC3    C4 9154   4.032   3.302  14.011 -0.1080  0.0569 -0.4106
  618TMC3    C5 9155   4.121   3.248  13.921 -0.3972 -0.2773 -0.2344
  618TMC3    C6 9156   4.117   3.113  13.878 -0.0247  0.3175 -0.5651
  618TMC3     C 9157   3.814   3.271  14.117 -0.3927  1.7512 -0.0139
  618TMC3     O 9158   3.727   3.181  14.130  1.0213  0.2856 -0.3000
  618TMC3     H 9159   3.869   3.017  14.080  1.8435 -1.0033  2.8923
  618TMC3    H1 9160   4.042   3.401  14.054  0.6672  0.0284 -0.5340
  618TMC3    H2 9161   4.199   3.072  13.819 -0.0402 -1.0197  0.3309
  618TMC3    C7 9162   4.217   3.334  13.845 -0.3246 -0.1114 -0.3059
  618TMC3    C8 9163   3.962   2.932  13.867  0.6742  0.4692 -0.0418
  618TMC3    O1 9164   4.276   3.280  13.755  0.0964  0.1386 -0.3360
  618TMC3    O2 9165   3.906   2.842  13.923 -0.3815  0.3992 -0.1411
  619MPD2     C 9166   0.463   0.620  13.476 -0.2180  0.2033 -0.6543
  619MPD2    C1 9167   0.400   0.675  13.367 -0.0395  0.2251  0.2459
  619MPD2    C2 9168   0.348   0.587  13.273 -0.6575 -0.0389  0.7187
  619MPD2    C3 9169   0.350   0.451  13.286 -0.0604  0.4299  0.1344
  619MPD2    C4 9170   0.423   0.402  13.388  0.1780 -0.1235 -0.2529
  619MPD2    C5 9171   0.472   0.488  13.483  0.5339 -0.0160 -0.0629
  619MPD2     H 9172   0.303   0.634  13.187  1.2493 -0.0140 -0.2583
  619MPD2    H1 9173   0.445   0.296  13.394  0.2194 -0.0849  0.2639
  619MPD2    H2 9174   0.505   0.684  13.553 -1.0560  2.0504 -1.7144
  619MPD2    H3 9175   0.519   0.452  13.574  0.3054  0.6991  0.3316
  619MPD2     N 9176   0.271   0.358  13.211 -0.3432  0.2101  0.3009
  619MPD2    H5 9177   0.264   0.267  13.255  0.9040 -1.1303 -2.2602
  619MPD2    N1 9178   0.381   0.817  13.352 -0.0867  0.1465  0.1281
  619MPD2    H7 9179   0.338   0.863  13.273 -2.4443 -0.9982  0.7543
  620TMC3    C1 9180   0.385   1.052  13.395  0.6145  0.2701 -0.6175
  620TMC3    C2 9181   0.374   1.067  13.260  0.1188 -0.4755  0.4266
  620TMC3    C3 9182   0.307   1.177  13.221  0.5652  0.1425  0.1767
  620TMC3    C4 9183   0.330   1.138  13.485  0.8850  0.1308 -0.5663
  620TMC3    C5 9184   0.268   1.256  13.444  0.4677  0.2783 -0.0881
  620TMC3    C6 9185   0.249   1.270  13.309  0.1959 -0.1188 -0.3590
  620TMC3     C 9186   0.426   0.916  13.445 -1.3255  0.4679  0.6799
  620TMC3     O 9187   0.451   0.904  13.567 -0.6158 -0.0750  0.2580
  620TMC3     H 9188   0.427   1.011  13.184  0.7322  0.2020  0.3561
  620TMC3    H1 9189   0.329   1.106  13.588 -2.3534 -1.3894 -1.0836
  620TMC3    H2 9190   0.212   1.359  13.259 -0.8030 -0.7499 -0.7364
  620TMC3    C7 9191   0.155   1.266  13.529 -0.5323 -0.2625 -0.2702
  620TMC3    C8 9192   0.305   1.217  13.086 -0.0248 -0.6216  0.3418
  620TMC3    O1 9193   0.175   1.261  13.649  0.2665 -0.0411 -0.0015
  620TMC3    O2 9194   0.344   1.326  13.056  0.1689  0.2707  0.0531
  621MPD2     C 9195   1.205   0.521   9.652 -0.6381  0.4683  0.2272
  621MPD2    C1 9196   1.281   0.433   9.720 -0.4422 -0.4152  0.2691
  621MPD2    C2 9197   1.406   0.406   9.680 -0.0125 -0.1983  0.1079
  621MPD2    C3 9198   1.460   0.460   9.567  0.6682 -0.2459 -0.3566
  621MPD2    C4 9199   1.383   0.546   9.490 -0.7242 -0.7838  0.0378
  621MPD2    C5 9200   1.253   0.575   9.538 -0.5687  0.0321 -0.2305
  621MPD2     H 9201   1.471   0.331   9.723  1.0169 -0.4291 -1.8380
  621MPD2    H1 9202   1.417   0.583   9.394  0.3219 -0.2119  0.6326
  621MPD2    H2 9203   1.107   0.551   9.687 -1.7713 -0.6998 -1.9219
  621MPD2    H3 9204   1.190   0.638   9.476 -0.1169  1.5034  0.8161
  621MPD2     N 9205   1.599   0.443   9.538  0.0121  0.0777  0.8327
  621MPD2    H5 9206   1.655   0.379   9.592  1.0264  1.7963  1.8217
  621MPD2    N1 9207   1.246   0.361   9.841  0.0881 -0.5120  0.2524
  621MPD2    H7 9208   1.305   0.286   9.877 -0.0949 -0.5628  0.4448
  622TMC3    C1 9209   1.164   0.352  10.059  0.2938  0.0985 -0.2656
  622TMC3    C2 9210   1.120   0.432  10.159 -0.5370  0.5713 -0.2991
  622TMC3    C3 9211   1.107   0.363  10.280 -0.1725  0.4658 -0.0295
  622TMC3    C4 9212   1.183   0.226  10.060  0.8168  1.0098 -0.8046
  622TMC3    C5 9213   1.166   0.159  10.181 -0.5597  0.3347 -0.9481
  622TMC3    C6 9214   1.136   0.226  10.295  0.2012 -0.3173 -0.3405
  622TMC3     C 9215   1.145   0.410   9.924 -0.3832 -0.7254  0.4985
  622TMC3     O 9216   1.089   0.522   9.917  0.5319 -0.2636 -0.2732
  622TMC3     H 9217   1.122   0.540  10.153  2.6002  0.4323 -1.5537
  622TMC3    H1 9218   1.210   0.166   9.974  1.3618 -1.0987  0.8472
  622TMC3    H2 9219   1.114   0.175  10.388  0.9876  0.7393  0.4296
  622TMC3    C7 9220   1.198   0.013  10.196 -0.7381  0.1012 -0.1852
  622TMC3    C8 9221   1.015   0.413  10.377  0.6294  0.5557 -0.0867
  622TMC3    O1 9222   1.216   4.697  10.308  0.0196  0.2120 -0.0281
  622TMC3    O2 9223   1.027   0.379  10.492  0.4930  0.6470  0.0377
  623MPD2     C 9224   4.464   1.216  16.485 -0.0559  0.6855  0.3784
  623MPD2    C1 9225   4.408   1.093  16.511 -0.2738  0.5006 -0.2655
  623MPD2    C2 9226   4.456   1.024  16.621  0.4297 -0.4591  0.6209
  623MPD2    C3 9227   4.569   1.064  16.690  0.0194  0.3487  0.2280
  623MPD2    C4 9228   4.624   1.181  16.658 -0.6843 -0.6043 -0.1201
  623MPD2    C5 9229   4.562   1.264  16.564  0.0839  0.2956 -0.5368
  623MPD2     H 9230   4.408   0.930  16.647  2.5307 -1.8514 -0.6041
  623MPD2    H1 9231   4.703   1.213  16.724  0.2784 -1.8101 -0.6724
  623MPD2    H2 9232   4.427   1.279  16.405  1.3914 -0.0455 -0.8456
  623MPD2    H3 9233   4.612   1.357  16.538 -1.2895  0.9888 -0.6482
  623MPD2     N 9234   4.624   0.987  16.793 -0.4056  0.7963 -0.2063
  623MPD2    H5 9235   4.563   0.911  16.822  1.0814 -0.1170  0.5235
  623MPD2    N1 9236   4.327   1.034  16.419  0.1373 -0.1047  0.1712
  623MPD2    H7 9237   4.297   1.094  16.343 -2.0814  0.4396  1.4673
  624TMC3    C1 9238   0.139   0.711  17.042  0.5322  0.8315  0.3598
  624TMC3    C2 9239   0.028   0.676  17.120 -0.5675  0.6033  0.3714
  624TMC3    C3 9240   4.648   0.765  17.112  0.0299  0.4721  0.5455
  624TMC3    C4 9241   0.146   0.821  16.962 -0.0572  0.1544  0.3298
  624TMC3    C5 9242   0.039   0.908  16.960  0.0749  0.3230  0.3553
  624TMC3    C6 9243   4.646   0.884  17.039  0.1264  0.2938  0.1160
  624TMC3     C 9244   0.235   0.599  17.034  0.3006  0.1169 -0.1647
  624TMC3     O 9245   0.219   0.513  17.122  0.0940 -0.1931 -0.5276
  624TMC3     H 9246   0.023   0.593  17.189  0.7081 -0.7591 -1.1618
  624TMC3    H1 9247   0.218   0.839  16.883 -2.5013 -0.1456 -1.9841
  624TMC3    H2 9248   4.548   0.923  17.012 -0.1431  0.2470  1.0207
  624TMC3    C7 9249   0.026   0.995  16.845  0.5423 -0.1624  0.1750
  624TMC3    C8 9250   4.519   0.714  17.169 -0.1175  0.0407 -0.4731
  624TMC3    O1 9251   0.129   1.051  16.808  0.0527 -0.3589  0.2575
  624TMC3    O2 9252   4.503   0.595  17.186  0.2965 -0.0837 -0.1310
  625MPD2     C 9253   4.608   1.387   0.969 -0.1327  0.3774  0.1491
  625MPD2    C1 9254   4.668   1.513   0.985  0.2200 -0.6280  1.2031
  625MPD2    C2 9255   0.086   1.512   1.002  0.2834 -0.3861 -0.0940
  625MPD2    C3 9256   0.167   1.396   1.010 -0.1463  0.4778 -0.4592
  625MPD2    C4 9257   0.105   1.278   1.004  0.3205 -0.6749  0.2023
  625MPD2    C5 9258   4.690   1.272   0.980  0.5930  0.0717  0.4428
  625MPD2     H 9259   0.141   1.606   1.000 -0.3188 -0.0621 -1.4347
  625MPD2    H1 9260   0.154   1.183   1.017 -0.6427 -1.2796 -0.5142
  625MPD2    H2 9261   4.502   1.363   0.957 -0.0396 -0.2763  0.6163
  625MPD2    H3 9262   4.638   1.178   0.977  0.6832  0.0772 -0.9303
  625MPD2     N 9263   0.312   1.410   1.009 -0.2774 -0.2990 -0.1031
  625MPD2    H5 9264   0.341   1.507   1.000 -1.5740  0.4190  3.4924
  625MPD2    N1 9265   4.603   1.634   0.969 -0.2538 -0.4638 -0.2353
  625MPD2    H7 9266   4.657   1.715   0.999  0.9811 -0.8235 -1.5171
  626TMC3    C1 9267   4.447   1.789   0.894 -0.1368 -0.0358 -0.1446
  626TMC3    C2 9268   4.400   1.822   0.772 -0.6578 -0.1062  0.0940
  626TMC3    C3 9269   4.366   1.948   0.760  0.0688  0.3639 -0.1126
  626TMC3    C4 9270   4.445   1.873   1.003 -0.3360 -0.0744  0.3010
  626TMC3    C5 9271   4.390   1.995   0.982  0.1464  1.3115  0.1437
  626TMC3    C6 9272   4.361   2.041   0.862 -0.5829  0.0962  0.4522
  626TMC3     C 9273   4.479   1.648   0.911 -0.1133  0.1867 -0.2556
  626TMC3     O 9274   4.408   1.562   0.862  0.4538 -0.1657  0.0674
  626TMC3     H 9275   4.401   1.744   0.697  0.9323 -0.8595  0.8945
  626TMC3    H1 9276   4.467   1.849   1.107 -0.1614  0.0533  0.2936
  626TMC3    H2 9277   4.316   2.137   0.837  1.8110  0.9053 -0.6911
  626TMC3    C7 9278   4.330   2.060   1.096 -0.4676  0.0414 -0.4102
  626TMC3    C8 9279   4.343   1.996   0.633 -0.2270 -0.5014  0.2395
  626TMC3    O1 9280   4.406   2.064   1.193 -0.0457  0.0897 -0.0364
  626TMC3    O2 9281   4.373   2.114   0.615  1.1975 -0.2225  0.1198
  627MPD2     C 9282   2.906   2.405  14.560  0.6606 -1.0361 -0.0877
  627MPD2    C1 9283   2.979   2.329  14.655  0.3174 -0.1207  0.6437
  627MPD2    C2 9284   2.925   2.207  14.694  0.1371 -0.8136  0.0805
  627MPD2    C3 9285   2.805   2.166  14.648  0.4395  0.7222  0.1254
  627MPD2    C4 9286   2.726   2.244  14.562  0.2655  0.1856 -0.2543
  627MPD2    C5 9287   2.779   2.362  14.516 -0.2021 -0.6800 -0.5548
  627MPD2     H 9288   2.979   2.143  14.763 -0.0088 -0.6728  0.3243
  627MPD2    H1 9289   2.623   2.219  14.537 -0.2250  0.8650  1.0603
  627MPD2    H2 9290   2.956   2.495  14.525  0.2106 -0.4003  0.9121
  627MPD2    H3 9291   2.714   2.406  14.441 -1.2005 -0.2914  0.5382
  627MPD2     N 9292   2.753   2.045  14.703  0.1878  0.1048 -0.2328
  627MPD2    H5 9293   2.798   2.002  14.783 -1.7678 -1.4140  0.0546
  627MPD2    N1 9294   3.104   2.382  14.694  0.5280  0.0699  0.2469
  627MPD2    H7 9295   3.121   2.478  14.666 -0.9805 -0.3144 -1.9897
  628TMC3    C1 9296   3.312   2.375  14.825 -0.4453  0.6295 -0.2693
  628TMC3    C2 9297   3.413   2.299  14.865 -0.1275  0.0194 -0.1344
  628TMC3    C3 9298   3.516   2.353  14.935  0.5424  0.8774  0.5109
  628TMC3    C4 9299   3.318   2.513  14.838  0.4133  0.4273  0.1954
  628TMC3    C5 9300   3.425   2.563  14.900  0.1228 -0.2030  0.4371
  628TMC3    C6 9301   3.515   2.482  14.971  0.0248 -0.0619 -0.0896
  628TMC3     C 9302   3.199   2.304  14.758  0.2402 -0.4283  0.0739
  628TMC3     O 9303   3.203   2.181  14.771 -0.3613 -0.1593 -0.1226
  628TMC3     H 9304   3.408   2.190  14.864 -0.3294  0.0216  0.8255
  628TMC3    H1 9305   3.225   2.565  14.817  1.2137  2.3338  1.4744
  628TMC3    H2 9306   3.602   2.533  15.011 -1.0203  1.5089  0.1948
  628TMC3    C7 9307   3.450   2.708  14.911  0.2682  1.1279  0.2321
  628TMC3    C8 9308   3.637   2.274  14.931 -0.6132  0.1570  0.5143
  628TMC3    O1 9309   3.504   2.741  15.014  0.6403 -0.2329  0.0761
  628TMC3    O2 9310   3.661   2.211  14.826  0.3602 -0.1102 -0.5814
  629MPD2     C 9311   1.690   1.454  16.354  0.2906 -0.4651 -0.1062
  629MPD2    C1 9312   1.687   1.350  16.442 -0.0760 -0.4579  0.4263
  629MPD2    C2 9313   1.566   1.289  16.475 -0.6455 -0.4883 -0.3295
  629MPD2    C3 9314   1.453   1.326  16.412 -0.2352 -0.3189 -0.4664
  629MPD2    C4 9315   1.462   1.429  16.315  0.2774 -0.5456  0.2739
  629MPD2    C5 9316   1.578   1.499  16.292 -0.3426  0.5554  0.2244
  629MPD2     H 9317   1.566   1.203  16.542  0.9618  0.9658  1.5498
  629MPD2    H1 9318   1.373   1.475  16.271  1.2220  0.7783 -0.2634
  629MPD2    H2 9319   1.782   1.506  16.332 -0.4691  0.4279 -1.1839
  629MPD2    H3 9320   1.591   1.576  16.217 -1.1935 -0.4030 -0.9009
  629MPD2     N 9321   1.321   1.270  16.444  0.2426  0.2290 -0.3922
  629MPD2    H5 9322   1.247   1.294  16.379 -2.4914 -0.5349  2.4381
  629MPD2    N1 9323   1.808   1.324  16.510  0.0235  0.2673  0.1119
  629MPD2    H7 9324   1.887   1.374  16.471  0.6948 -0.0434  1.0859
  630TMC3    C1 9325   1.972   1.225  16.631  1.0245 -0.4384  0.1420
  630TMC3    C2 9326   2.062   1.293  16.550 -0.4957  0.2731  0.6395
  630TMC3    C3 9327   2.178   1.228  16.517 -0.2829 -0.0296  0.0921
  630TMC3    C4 9328   2.009   1.112  16.693 -0.2332 -0.1072 -0.7109
  630TMC3    C5 9329   2.121   1.044  16.655 -0.4299 -0.1038  0.2007
  630TMC3    C6 9330   2.204   1.099  16.564  0.2103  0.0444  0.4324
  630TMC3     C 9331   1.831   1.250  16.618 -0.7331  1.3039 -0.0155
  630TMC3     O 9332   1.749   1.202  16.700  0.0504 -0.3284  0.6066
  630TMC3     H 9333   2.056   1.399  16.527  0.0771 -0.4506 -2.7543
  630TMC3    H1 9334   1.940   1.068  16.764  0.7621  0.6433  0.7354
  630TMC3    H2 9335   2.292   1.044  16.531  1.2732  1.1680  1.3805
  630TMC3    C7 9336   2.189   0.986  16.771 -0.0536 -0.2613  0.7171
  630TMC3    C8 9337   2.298   1.306  16.479  0.0713 -0.4768 -0.4198
  630TMC3    O1 9338   2.121   0.933  16.853  0.0453 -0.0939 -0.0276
  630TMC3    O2 9339   2.408   1.273  16.531  0.1475  0.4112 -0.3674
  631MPD2     C 9340   4.471   0.473  15.701  0.5900 -0.9323  0.5217
  631MPD2    C1 9341   4.585   0.538  15.669 -0.2268 -0.1596  0.2455
  631MPD2    C2 9342   4.708   0.482  15.700 -0.1121  1.0764  0.7901
  631MPD2    C3 9343   0.005   0.372  15.777 -0.7848  0.5566 -0.1147
  631MPD2    C4 9344   4.605   0.318  15.828 -0.3308 -0.8267 -0.0236
  631MPD2    C5 9345   4.483   0.360  15.776  0.3038  0.6740  0.5810
  631MPD2     H 9346   0.082   0.527  15.662  0.9667 -0.4621  1.5956
  631MPD2    H1 9347   4.605   0.235  15.898  1.4601 -1.6787 -1.0537
  631MPD2    H2 9348   4.377   0.512  15.664  0.9463 -1.9089 -1.4000
  631MPD2    H3 9349   4.384   0.329  15.808  0.3780 -0.5497 -0.3845
  631MPD2     N 9350   0.137   0.348  15.819 -0.1004 -0.1259 -0.7885
  631MPD2    H5 9351   0.210   0.394  15.766  0.7130  2.3112  2.4369
  631MPD2    N1 9352   4.570   0.658  15.590 -0.3259 -0.5187  0.7272
  631MPD2    H7 9353   4.476   0.695  15.580  0.3294  0.7957 -0.5036
  632TMC3    C1 9354   4.606   0.860  15.484 -0.5076  0.3442  0.7041
  632TMC3    C2 9355   4.484   0.900  15.537 -0.1281  0.7742 -0.0049
  632TMC3    C3 9356   4.424   1.001  15.466 -0.2103 -0.1771  0.8221
  632TMC3    C4 9357   4.651   0.908  15.371 -0.3681 -0.9646  0.6879
  632TMC3    C5 9358   4.594   1.020  15.315 -0.0860 -0.2118  0.6322
  632TMC3    C6 9359   4.469   1.059  15.351  0.4849 -0.3050  0.0418
  632TMC3     C 9360   4.663   0.732  15.526 -0.4203  0.2777  0.3287
  632TMC3     O 9361   0.062   0.719  15.492 -0.1473  0.3607  0.2520
  632TMC3     H 9362   4.466   0.884  15.643  0.7708  0.2863  0.0729
  632TMC3    H1 9363   0.023   0.871  15.322 -0.4971 -1.6959  1.0076
  632TMC3    H2 9364   4.430   1.150  15.305  0.6022  0.4183  1.3795
  632TMC3    C7 9365   4.635   1.052  15.174  0.2988 -0.4596  0.0829
  632TMC3    C8 9366   4.310   1.057  15.540  0.3832 -0.0274  0.0272
  632TMC3    O1 9367   4.550   1.105  15.103  0.4317  0.1241  0.3807
  632TMC3    O2 9368   4.268   1.168  15.521 -0.6554 -0.3227  0.2535
  633MPD2     C 9369   4.297   3.651  17.430 -0.0434  0.3262  0.3394
  633MPD2    C1 9370   4.302   3.605  17.302 -0.2931 -0.3234 -0.1341
  633MPD2    C2 9371   4.278   3.471  17.273 -0.1814  0.1886  0.0268
  633MPD2    C3 9372   4.257   3.384  17.374  0.3287 -0.2245 -0.3259
  633MPD2    C4 9373   4.255   3.429  17.506 -0.4033 -0.2354 -0.0546
  633MPD2    C5 9374   4.278   3.560  17.530  0.6128  0.1645  0.7373
  633MPD2     H 9375   4.259   3.443  17.171 -0.2945  0.4033 -0.0118
  633MPD2    H1 9376   4.227   3.368  17.591  0.7191 -0.8434 -0.1135
  633MPD2    H2 9377   4.297   3.756  17.455  1.1969  0.5439 -0.5663
  633MPD2    H3 9378   4.266   3.603  17.629 -2.8903 -0.9624  0.8149
  633MPD2     N 9379   4.224   3.248  17.351  0.3675  0.1591  0.6483
  633MPD2    H5 9380   4.243   3.184  17.428 -0.1592  0.7664  1.2848
  633MPD2    N1 9381   4.316   3.695  17.186  0.1311  0.0975 -0.1662
  633MPD2    H7 9382   4.315   3.645  17.098 -0.0579  2.1799 -1.3373
  634TMC3    C1 9383   4.389   3.889  17.070 -0.5569  0.7786 -0.4303
  634TMC3    C2 9384   4.477   3.809  17.001  0.8516  0.4658 -0.2565
  634TMC3    C3 9385   4.567   3.865  16.915 -0.1356  0.2679 -0.4851
  634TMC3    C4 9386   4.380   4.022  17.053  0.3927  0.7164 -0.1498
  634TMC3    C5 9387   4.473   4.073  16.968  0.5126  0.3554 -0.3811
  634TMC3    C6 9388   4.569   4.001  16.907 -0.0908 -0.4449  0.1738
  634TMC3     C 9389   4.324   3.830  17.187  0.1220  0.3417  0.8277
  634TMC3     O 9390   4.315   3.908  17.279  0.1421 -0.5774 -0.0922
  634TMC3     H 9391   4.487   3.705  17.029  0.2341 -0.0498 -1.9661
  634TMC3    H1 9392   4.296   4.078  17.094  1.0397 -0.0431  2.2476
  634TMC3    H2 9393   4.646   4.058  16.855 -0.9818  0.3133 -0.3284
  634TMC3    C7 9394   4.449   4.199  16.899  0.2944  0.0467  0.1437
  634TMC3    C8 9395   4.605   3.794  16.793 -0.7465  0.6951  0.4713
  634TMC3    O1 9396   4.486   4.208  16.784  0.1107  0.8558  0.7036
  634TMC3    O2 9397   4.599   3.675  16.806 -0.2809 -0.1993  0.2773
  635TMC3    C1 9398   0.419   4.166   0.032 -0.3711 -0.2672 -0.0889
  635TMC3    C2 9399   0.505   4.079   0.104  0.0771  0.0180 -0.0488
  635TMC3    C3 9400   0.562   3.973   0.045  0.2207  0.3679 -0.2279
  635TMC3    C4 9401   0.398   4.145  17.571 -1.3125  0.1149 -0.0157
  635TMC3    C5 9402   0.466   4.042  17.513 -0.0873 -0.1225 -0.1746
  635TMC3    C6 9403   0.545   3.958  17.583  0.3875 -0.2740 -0.3348
  635TMC3     C 9404   0.336   4.267   0.107 -0.0642 -0.1218 -0.0390
  635TMC3     O 9405   0.363   4.275   0.227 -0.1848  0.0640  0.5074
  635TMC3     H 9406   0.519   4.091   0.211 -2.2865  1.6029  0.0915
  635TMC3    H1 9407   0.332   4.212  17.518 -4.2857 -0.6047  2.8095
  635TMC3    H2 9408   0.586   3.865  17.545  1.0173  0.5590 -1.6999
  635TMC3    C7 9409   0.454   4.024  17.372  0.8907 -0.4099 -0.3084
  635TMC3    C8 9410   0.635   3.866   0.115  0.4524  0.4646 -0.7138
  635TMC3    O1 9411   0.370   4.085  17.315  0.5055  0.1544 -0.2097
  635TMC3    O2 9412   0.653   3.761   0.061  0.3607 -0.1261 -0.3697
  636MPD2     C 9413   0.890   4.061  15.657  0.6950 -0.8981 -0.4186
  636MPD2    C1 9414   0.930   4.150  15.755  0.0373  0.2301 -0.2630
  636MPD2    C2 9415   1.050   4.114  15.821  0.0255 -0.7890 -0.0663
  636MPD2    C3 9416   1.119   3.999  15.788  0.1624  0.1073 -0.5215
  636MPD2    C4 9417   1.076   3.917  15.684 -0.2257  0.0848 -0.0830
  636MPD2    C5 9418   0.962   3.953  15.618 -0.3763 -0.2222  0.6492
  636MPD2     H 9419   1.073   4.178  15.905  0.3750 -1.2282  0.1689
  636MPD2    H1 9420   1.124   3.826  15.652  1.0761  0.6055  0.4048
  636MPD2    H2 9421   0.795   4.078  15.607 -0.8824 -1.8311  2.2944
  636MPD2    H3 9422   0.917   3.886  15.545 -1.9629 -0.5308  1.9127
  636MPD2     N 9423   1.230   3.975  15.866 -0.3033  0.1105 -0.5285
  636MPD2    H5 9424   1.258   4.043  15.936  0.6819  0.0390 -0.8419
  636MPD2    N1 9425   0.850   4.254  15.806 -0.1420 -0.2084  0.1334
  636MPD2    H7 9426   0.876   4.295  15.896 -1.2999  0.5198  0.1298
  637TMC3    C1 9427   1.420   3.857  15.956  0.4785 -0.3603 -0.0051
  637TMC3    C2 9428   1.482   3.979  15.978  0.2272  1.0270  0.4472
  637TMC3    C3 9429   1.615   3.969  15.994  0.2079 -0.4454  0.6429
  637TMC3    C4 9430   1.478   3.731  15.958 -0.5884  0.0022 -0.4634
  637TMC3    C5 9431   1.613   3.732  15.976 -0.6453  0.2012 -0.1762
  637TMC3    C6 9432   1.682   3.849  15.984 -0.4700  0.2733  0.0397
  637TMC3     C 9433   1.302   3.860  15.876 -0.1573  0.0468  0.0121
  637TMC3     O 9434   1.288   3.758  15.807  0.1165  0.0795  0.0197
  637TMC3     H 9435   1.440   4.076  15.953  0.1915  0.7149 -0.6974
  637TMC3    H1 9436   1.417   3.641  15.953 -0.7027  0.0504  0.1335
  637TMC3    H2 9437   1.786   3.841  16.015 -0.7804 -1.5990  0.5374
  637TMC3    C7 9438   1.671   3.633  15.886  0.0724  0.0834  0.1817
  637TMC3    C8 9439   1.696   4.053  15.907  0.2311  0.5374  0.0296
  637TMC3    O1 9440   1.624   3.517  15.886 -0.1441 -0.2613  0.5664
  637TMC3    O2 9441   1.791   3.990  15.857  0.1618 -0.6248  0.0098
  638MPD2     C 9442   0.567   3.142  14.692  0.4824 -0.7142 -0.1661
  638MPD2    C1 9443   0.573   3.017  14.634 -0.1040  0.0971  0.0548
  638MPD2    C2 9444   0.584   2.901  14.717 -0.3057  0.0545 -0.4098
  638MPD2    C3 9445   0.599   2.917  14.854 -0.4264 -0.5136 -0.0032
  638MPD2    C4 9446   0.604   3.037  14.910 -0.3130 -0.0724  0.1625
  638MPD2    C5 9447   0.596   3.147  14.825  0.9768  0.0944  0.2478
  638MPD2     H 9448   0.588   2.803  14.671 -2.6360  0.8881 -2.3639
  638MPD2    H1 9449   0.623   3.061  15.014 -0.5710 -1.4739  0.5247
  638MPD2    H2 9450   0.536   3.226  14.631 -1.7778  0.9184  3.2814
  638MPD2    H3 9451   0.588   3.237  14.884 -2.0926 -1.3293  2.0347
  638MPD2     N 9452   0.624   2.810  14.942 -0.3130 -0.1565 -0.0413
  638MPD2    H5 9453   0.636   2.832  15.041  0.9502 -0.6720 -0.0783
  638MPD2    N1 9454   0.522   3.003  14.500 -0.8745  0.0370 -0.3612
  638MPD2    H7 9455   0.465   3.079  14.465 -0.8272 -1.4293 -3.5899
  639TMC3    C1 9456   0.681   2.608  15.013 -0.5549 -0.6819  0.3087
  639TMC3    C2 9457   0.624   2.481  15.025  0.3283  0.9788  0.5467
  639TMC3    C3 9458   0.640   2.430  15.152 -0.0586  0.1078  0.3947
  639TMC3    C4 9459   0.769   2.660  15.103  0.0748  0.3953  0.4155
  639TMC3    C5 9460   0.795   2.597  15.220  0.4931  0.3006  0.1275
  639TMC3    C6 9461   0.722   2.480  15.251  0.8706 -0.6138  0.3631
  639TMC3     C 9462   0.652   2.681  14.899 -0.0599  0.1350  0.0067
  639TMC3     O 9463   0.633   2.620  14.795  0.4092 -0.2463 -0.3389
  639TMC3     H 9464   0.551   2.440  14.956 -0.1031  0.8046  1.1117
  639TMC3    H1 9465   0.826   2.749  15.079 -0.4816  0.5832 -0.2273
  639TMC3    H2 9466   0.733   2.439  15.351 -0.1681  0.2290  0.8152
  639TMC3    C7 9467   0.927   2.615  15.277 -0.5686 -0.3546 -0.5376
  639TMC3    C8 9468   0.541   2.331  15.193  0.4483 -0.6664  0.0830
  639TMC3    O1 9469   0.979   2.727  15.277  0.2395 -0.5327  0.5272
  639TMC3    O2 9470   0.510   2.334  15.313  0.2418 -0.8425  0.1474
  640MPD2     C 9471   2.203   1.601   9.389  0.1640 -0.2671  0.0386
  640MPD2    C1 9472   2.080   1.536   9.351  0.5299 -0.7231 -0.2756
  640MPD2    C2 9473   1.959   1.603   9.378  0.1977  0.2979  0.3330
  640MPD2    C3 9474   1.956   1.736   9.422 -0.8237 -0.2202 -0.0162
  640MPD2    C4 9475   2.076   1.794   9.454 -0.4969 -0.4617  0.0848
  640MPD2    C5 9476   2.196   1.729   9.431  0.5585  0.4642  0.4796
  640MPD2     H 9477   1.864   1.555   9.357 -0.5111  1.4210  1.0052
  640MPD2    H1 9478   2.073   1.891   9.502  0.6384 -0.4774  0.1835
  640MPD2    H2 9479   2.296   1.549   9.372  1.3282  1.9416 -0.4053
  640MPD2    H3 9480   2.288   1.765   9.477  0.6645  2.6405 -1.4459
  640MPD2     N 9481   1.842   1.808   9.457 -0.3917 -0.0060  0.0745
  640MPD2    H5 9482   1.858   1.891   9.514  2.1054 -0.8740  0.6440
  640MPD2    N1 9483   2.087   1.397   9.319 -0.1279 -0.1374  0.0176
  640MPD2    H7 9484   2.181   1.359   9.312 -0.3744 -0.1440 -3.2091
  641TMC3    C1 9485   2.046   1.180   9.280 -0.0898  0.3385  0.0694
  641TMC3    C2 9486   2.144   1.146   9.365  0.0561  0.5771  0.0344
  641TMC3    C3 9487   2.206   1.030   9.353 -0.0473  0.8148  0.5422
  641TMC3    C4 9488   2.013   1.101   9.171  0.8424  0.9428  0.1972
  641TMC3    C5 9489   2.068   0.976   9.166 -0.4087 -0.6263  0.0801
  641TMC3    C6 9490   2.164   0.936   9.256  0.2715 -0.4006  0.0540
  641TMC3     C 9491   1.986   1.310   9.293  0.0643  0.4868 -0.5013
  641TMC3     O 9492   1.874   1.337   9.253  0.4112 -0.4585 -0.1632
  641TMC3     H 9493   2.174   1.220   9.439  1.3531 -0.9270  1.0134
  641TMC3    H1 9494   1.940   1.134   9.098 -1.8424 -0.0493  2.4078
  641TMC3    H2 9495   2.209   0.838   9.251  2.0633  0.4936 -1.3528
  641TMC3    C7 9496   1.997   0.873   9.091 -0.2002  0.0512 -0.1756
  641TMC3    C8 9497   2.333   1.009   9.417  0.3717  0.8481 -1.3861
  641TMC3    O1 9498   1.905   0.905   9.025 -0.1824  0.0765  0.9301
  641TMC3    O2 9499   2.374   0.894   9.430 -0.1510  0.0461 -0.6052
  642TMC3    C1 9500   2.272   1.677  12.351 -0.3958 -0.2511  0.1374
  642TMC3    C2 9501   2.279   1.590  12.457 -0.4684  0.1793 -0.0098
  642TMC3    C3 9502   2.200   1.474  12.451  0.0504 -0.2684 -0.0342
  642TMC3    C4 9503   2.202   1.645  12.236 -0.5610 -0.2704 -0.5647
  642TMC3    C5 9504   2.122   1.534  12.240 -0.4052 -0.5311 -0.1520
  642TMC3    C6 9505   2.129   1.441  12.340 -0.1652  0.0101 -0.4768
  642TMC3     C 9506   2.342   1.800  12.356 -0.2370 -0.7851  0.6108
  642TMC3     O 9507   2.343   1.867  12.255 -0.1859 -0.5652  0.0834
  642TMC3     H 9508   2.341   1.613  12.542 -1.7266  1.0905  0.6633
  642TMC3    H1 9509   2.200   1.709  12.149  0.1103  0.8051  0.2126
  642TMC3    H2 9510   2.067   1.352  12.347  1.8654 -1.3763 -0.2077
  642TMC3    C7 9511   2.062   1.499  12.108 -0.7794 -0.1398  0.1560
  642TMC3    C8 9512   2.217   1.361  12.536 -0.4296 -0.6619  0.4592
  642TMC3    O1 9513   2.043   1.590  12.029  0.5165 -0.7990  0.1508
  642TMC3    O2 9514   2.192   1.248  12.491  0.3430  0.1508  0.6717
  643TMC3    C1 9515   1.385   2.118   0.685  0.1091 -0.4021  0.5669
  643TMC3    C2 9516   1.259   2.178   0.664 -0.1672 -0.8527  0.1724
  643TMC3    C3 9517   1.215   2.182   0.538 -0.1252 -0.6981  0.2584
  643TMC3    C4 9518   1.449   2.047   0.579  0.5473  0.1564  0.7786
  643TMC3    C5 9519   1.399   2.050   0.456  0.4910 -0.2743  0.1844
  643TMC3    C6 9520   1.284   2.117   0.433 -0.0314 -0.1919 -0.0979
  643TMC3     C 9521   1.474   2.200   0.774  0.6586  0.0875  0.2883
  643TMC3     O 9522   1.438   2.315   0.796 -0.2590 -0.1803 -0.6921
  643TMC3     H 9523   1.215   2.249   0.733  1.0271  0.1442 -0.0993
  643TMC3    H1 9524   1.554   2.019   0.581  0.6172  0.4260  0.8885
  643TMC3    H2 9525   1.249   2.131   0.331 -1.7520 -0.1881  0.4968
  643TMC3    C7 9526   1.471   2.002   0.343 -0.1849 -0.8108  0.2461
  643TMC3    C8 9527   1.149   2.311   0.507 -0.5536 -0.1145 -0.2825
  643TMC3    O1 9528   1.451   2.066   0.240 -0.0412  0.3924  0.3719
  643TMC3    O2 9529   1.043   2.337   0.561  0.1777 -0.4399  0.4213
  644MPD2     C 9530   2.901   1.685   9.386  0.4434 -0.8076  0.7040
  644MPD2    C1 9531   2.930   1.591   9.481  0.4014  0.9857 -0.0839
  644MPD2    C2 9532   2.920   1.632   9.612  0.5731  0.6383  0.0203
  644MPD2    C3 9533   2.879   1.764   9.647 -0.0599 -0.1287  0.1912
  644MPD2    C4 9534   2.856   1.852   9.547  0.3769  0.6451  0.5003
  644MPD2    C5 9535   2.865   1.815   9.417 -0.1295 -0.0110 -0.0861
  644MPD2     H 9536   2.943   1.560   9.689  1.8862  0.6774 -0.3364
  644MPD2    H1 9537   2.814   1.951   9.559  1.1926  1.1218 -0.5114
  644MPD2    H2 9538   2.930   1.668   9.283 -3.3777 -1.3562 -0.2748
  644MPD2    H3 9539   2.852   1.893   9.342 -0.8788 -0.1298 -0.0822
  644MPD2     N 9540   2.857   1.794   9.784  0.0625 -0.5159  0.4586
  644MPD2    H5 9541   2.889   1.721   9.847 -1.3964  1.0707  3.0116
  644MPD2    N1 9542   2.979   1.468   9.441  0.0162  0.5534 -0.3672
  644MPD2    H7 9543   3.001   1.468   9.342  1.4025  0.0632 -0.0495
  645TMC3    C1 9544   2.801   1.928   9.975  1.4850 -0.0777  0.5243
  645TMC3    C2 9545   2.702   1.840  10.021  0.3781  0.0374  0.2898
  645TMC3    C3 9546   2.606   1.884  10.108  0.2359  0.3037  0.1253
  645TMC3    C4 9547   2.793   2.059  10.014  0.1625 -0.3690  0.2889
  645TMC3    C5 9548   2.709   2.090  10.120 -0.0240 -0.3717 -0.7165
  645TMC3    C6 9549   2.610   2.005  10.164 -0.3977  0.1730 -0.8613
  645TMC3     C 9550   2.816   1.915   9.832 -0.3760  0.3733  0.3911
  645TMC3     O 9551   2.758   2.007   9.774  0.0568  0.2619 -0.1158
  645TMC3     H 9552   2.682   1.747   9.970 -0.9708  0.7414 -0.4628
  645TMC3    H1 9553   2.874   2.126   9.987 -1.5010  1.8850  0.8429
  645TMC3    H2 9554   2.542   2.031  10.244 -0.1482  1.3764 -1.0362
  645TMC3    C7 9555   2.657   2.230  10.116  0.5380 -0.5782 -0.2319
  645TMC3    C8 9556   2.544   1.784  10.185 -0.1007 -0.2707 -0.1104
  645TMC3    O1 9557   2.536   2.249  10.095 -0.0331  0.1520  0.1586
  645TMC3    O2 9558   2.448   1.807  10.252  0.4584 -0.0028  0.5578
  646MPD2     C 9559   0.871   1.476  14.693 -0.4725 -0.1008  0.2643
  646MPD2    C1 9560   0.781   1.410  14.766 -0.0033 -0.7083 -0.0934
  646MPD2    C2 9561   0.645   1.443  14.757 -0.1273  0.1215 -0.3480
  646MPD2    C3 9562   0.606   1.535  14.663 -0.2681 -0.3528 -0.0346
  646MPD2    C4 9563   0.699   1.592  14.577  0.2398 -0.2345 -0.1407
  646MPD2    C5 9564   0.834   1.555  14.591 -0.2919  0.4638  0.6637
  646MPD2     H 9565   0.570   1.379  14.803 -0.9907  0.8562 -0.7308
  646MPD2    H1 9566   0.676   1.662  14.497 -0.3985  0.1036  0.3328
  646MPD2    H2 9567   0.978   1.462  14.704 -0.5662  1.6258  3.3303
  646MPD2    H3 9568   0.911   1.608  14.537 -0.2243 -0.8520 -0.5307
  646MPD2     N 9569   0.472   1.571  14.650  0.7226  0.0903 -0.3477
  646MPD2    H5 9570   0.408   1.551  14.727  0.3967  2.5232  0.0089
  646MPD2    N1 9571   0.830   1.324  14.868 -0.3256 -0.1796 -0.0074
  646MPD2    H7 9572   0.929   1.311  14.882 -0.4079 -0.2202  0.5460
  647TMC3    C1 9573   0.832   1.172  15.041 -0.1297 -0.0813  0.3325
  647TMC3    C2 9574   0.756   1.108  15.131  0.0198 -0.8187 -0.3241
  647TMC3    C3 9575   0.824   1.056  15.235 -0.1664 -0.5751  0.0564
  647TMC3    C4 9576   0.970   1.175  15.036 -0.6032 -0.4832  0.2564
  647TMC3    C5 9577   1.031   1.104  15.133 -0.6092  0.0336  0.2775
  647TMC3    C6 9578   0.959   1.045  15.231 -0.5215  0.7529  0.2775
  647TMC3     C 9579   0.753   1.244  14.945  0.3608  0.2506  0.0734
  647TMC3     O 9580   0.637   1.217  14.942 -0.2889  0.3736  0.0168
  647TMC3     H 9581   0.648   1.110  15.123  0.0920 -0.4163 -1.2075
  647TMC3    H1 9582   1.026   1.240  14.971  0.4597 -0.4489  1.2021
  647TMC3    H2 9583   1.015   0.975  15.293 -0.9474 -0.9372 -1.2654
  647TMC3    C7 9584   1.179   1.106  15.149  0.2099  0.5706 -0.4561
  647TMC3    C8 9585   0.748   0.967  15.316 -0.4024 -0.5632 -0.4620
  647TMC3    O1 9586   1.209   1.082  15.261  0.2604 -0.1807 -0.0239
  647TMC3    O2 9587   0.651   0.913  15.269 -0.0500 -0.6138 -0.5680
  648TMC3    C1 9588   0.347   3.867  16.067  0.0577 -0.1685 -0.2842
  648TMC3    C2 9589   0.396   3.750  16.019  0.9676  0.2906  0.2231
  648TMC3    C3 9590   0.317   3.676  15.931  0.3713  0.5779  0.2028
  648TMC3    C4 9591   0.225   3.917  16.025  0.2708 -0.6021  0.2523
  648TMC3    C5 9592   0.154   3.848  15.932 -0.3243  0.1547 -0.3899
  648TMC3    C6 9593   0.200   3.729  15.888 -0.7832 -0.2364 -0.4096
  648TMC3     C 9594   0.379   3.921  16.203  0.0723 -0.4882 -0.2598
  648TMC3     O 9595   0.362   4.039  16.221  0.3583  0.6319 -0.2254
  648TMC3     H 9596   0.485   3.707  16.065  0.1060 -1.5135  0.2122
  648TMC3    H1 9597   0.194   4.008  16.075  0.0120 -0.5546  0.0105
  648TMC3    H2 9598   0.144   3.683  15.807 -0.9202  1.2381 -1.1565
  648TMC3    C7 9599   0.046   3.912  15.858 -0.0448 -0.1201 -0.7076
  648TMC3    C8 9600   0.366   3.552  15.881  0.8630 -0.2140  0.5955
  648TMC3    O1 9601   0.032   3.881  15.742  0.1582  0.4892 -0.1542
  648TMC3    O2 9602   0.488   3.537  15.873  0.0973 -0.4999  0.2931
  649TMC3    C1 9603   3.924   0.151  12.509 -0.0187  0.0618 -0.2377
  649TMC3    C2 9604   4.046   0.204  12.473  0.3992  0.8969  0.2226
  649TMC3    C3 9605   4.144   0.191  12.569 -0.2695 -0.1192 -0.3095
  649TMC3    C4 9606   3.889   0.097  12.630  0.2203 -0.3649 -0.0806
  649TMC3    C5 9607   3.991   0.076  12.712 -0.7595  0.0289 -0.3465
  649TMC3    C6 9608   4.118   0.123  12.692 -0.5319 -0.4875 -0.3195
  649TMC3     C 9609   3.803   0.164  12.424  0.2911  0.1583  0.0944
  649TMC3     O 9610   3.701   0.166  12.489  0.7360  0.3116 -0.6764
  649TMC3     H 9611   4.048   0.261  12.380  0.6006 -1.1882 -1.0620
  649TMC3    H1 9612   3.791   0.054  12.645 -0.2557  0.6289 -0.3241
  649TMC3    H2 9613   4.200   0.101  12.760  0.6785 -0.1195 -1.6651
  649TMC3    C7 9614   3.943   0.028  12.842 -0.2527  0.1226 -0.2154
  649TMC3    C8 9615   4.279   0.238  12.550 -0.5339 -0.1823 -0.1585
  649TMC3    O1 9616   3.828   0.044  12.869  0.5334 -0.0729 -0.1421
  649TMC3    O2 9617   4.362   0.209  12.639  0.2448 -0.4728  0.2979
  650TMC3    C1 9618   2.186   1.221  13.237  0.6691 -0.6788 -0.0741
  650TMC3    C2 9619   2.162   1.345  13.300  0.8182  0.3718  0.2615
  650TMC3    C3 9620   2.057   1.417  13.253 -0.3028 -0.5685 -0.6477
  650TMC3    C4 9621   2.104   1.176  13.132  0.1090  0.6895  0.1559
  650TMC3    C5 9622   2.011   1.258  13.088  0.6760 -0.2607 -0.0877
  650TMC3    C6 9623   1.982   1.378  13.144 -0.1425 -0.2435  0.4387
  650TMC3     C 9624   2.268   1.127  13.309  0.1607 -0.0696 -0.4254
  650TMC3     O 9625   2.356   1.173  13.378 -0.0560  0.3473 -0.4266
  650TMC3     H 9626   2.221   1.375  13.386  0.9918  0.5965  0.0651
  650TMC3    H1 9627   2.129   1.085  13.077 -0.1153  0.6056  0.1961
  650TMC3    H2 9628   1.884   1.411  13.112 -0.1680  0.3600  1.1194
  650TMC3    C7 9629   1.965   1.231  12.954  0.1962 -0.1099 -0.0454
  650TMC3    C8 9630   2.022   1.538  13.315  0.4819 -0.1797  0.3070
  650TMC3    O1 9631   1.935   1.116  12.941 -0.3992  0.3837  0.7864
  650TMC3    O2 9632   2.110   1.596  13.377 -0.0179  0.5340 -0.6604
  651MPD2     C 9633   0.588   3.484  10.799 -0.6140  0.4056 -0.1060
  651MPD2    C1 9634   0.646   3.524  10.912 -0.7149 -0.2718  0.6673
  651MPD2    C2 9635   0.779   3.538  10.915  0.2776 -0.1010 -0.5041
  651MPD2    C3 9636   0.851   3.532  10.803  0.3974  0.4027  0.2948
  651MPD2    C4 9637   0.789   3.521  10.681 -0.2160  0.1260  0.5551
  651MPD2    C5 9638   0.657   3.489  10.678  0.3601  0.3208 -0.1193
  651MPD2     H 9639   0.827   3.555  11.011 -1.6301 -1.2914  0.6516
  651MPD2    H1 9640   0.846   3.526  10.589  1.8932 -0.3502  1.8574
  651MPD2    H2 9641   0.485   3.453  10.793 -0.5892  0.6879 -2.2262
  651MPD2    H3 9642   0.609   3.461  10.585 -0.0065  4.1592 -1.0875
  651MPD2     N 9643   0.990   3.553  10.806 -0.1743 -0.3844 -0.3561
  651MPD2    H5 9644   1.033   3.573  10.716 -1.6176  3.2227 -0.2411
  651MPD2    N1 9645   0.576   3.529  11.039  0.1571  0.6251 -0.4309
  651MPD2    H7 9646   0.615   3.569  11.124  0.1379 -0.2171 -0.0191
  652TMC3    C1 9647   1.425   3.636  10.868 -0.3847  0.1317  0.4876
  652TMC3    C2 9648   1.307   3.612  10.942  0.8105 -0.9512  0.1675
  652TMC3    C3 9649   1.191   3.637  10.880 -0.3273  0.2529  1.1367
  652TMC3    C4 9650   1.427   3.705  10.746 -0.5541 -0.1630  0.6309
  652TMC3    C5 9651   1.305   3.747  10.700  0.5842  0.4557  0.4099
  652TMC3    C6 9652   1.189   3.708  10.762 -0.0592 -0.5715  0.1724
  652TMC3     C 9653   1.557   3.617  10.931  0.0885 -0.6575 -0.1581
  652TMC3     O 9654   1.549   3.585  11.049  0.1040  0.4567 -0.2609
  652TMC3     H 9655   1.307   3.559  11.037  2.6893  0.5075  1.0040
  652TMC3    H1 9656   1.514   3.722  10.684 -0.7713 -2.3068 -0.2884
  652TMC3    H2 9657   1.099   3.739  10.710  0.1435 -0.4032 -0.0742
  652TMC3    C7 9658   1.297   3.855  10.609  0.0606  0.2079 -0.0082
  652TMC3    C8 9659   1.068   3.568  10.918 -0.7205  0.1449 -0.4018
  652TMC3    O1 9660   1.194   3.871  10.552  0.3339  0.8124  0.5780
  652TMC3    O2 9661   1.050   3.543  11.037 -0.1392 -0.1399 -0.2474
  653MPD2     C 9662   4.508   3.710   0.332  0.0735  0.5231  0.0702
  653MPD2    C1 9663   4.419   3.790   0.267 -0.1721 -0.2017  0.1952
  653MPD2    C2 9664   4.307   3.732   0.209 -0.3710  0.4219 -0.0007
  653MPD2    C3 9665   4.275   3.599   0.226  0.0631 -0.0514 -0.4867
  653MPD2    C4 9666   4.375   3.522   0.293 -0.1721 -0.4793  0.1529
  653MPD2    C5 9667   4.487   3.574   0.341 -0.5386 -0.7385  0.3334
  653MPD2     H 9668   4.244   3.800   0.153 -0.1119  0.4334 -0.2833
  653MPD2    H1 9669   4.370   3.416   0.315 -0.3409 -0.5770 -0.3393
  653MPD2    H2 9670   4.607   3.750   0.352  0.3902  0.8096 -2.0660
  653MPD2    H3 9671   4.567   3.513   0.381  0.1486 -0.2097 -0.2315
  653MPD2     N 9672   4.146   3.558   0.196  0.6987 -0.3033 -0.2871
  653MPD2    H5 9673   4.079   3.625   0.159  0.5187  0.2513  1.0611
  653MPD2    N1 9674   4.445   3.926   0.269  0.7033  0.3270 -0.2357
  653MPD2    H7 9675   4.527   3.955   0.321 -0.4045 -0.3196  1.8507
  654TMC3    C1 9676   3.972   3.406   0.142 -0.3915  0.0159 -0.3169
  654TMC3    C2 9677   3.877   3.505   0.143  0.2582  0.6995  0.3890
  654TMC3    C3 9678   3.765   3.487   0.067 -0.8933  0.0182 -0.0009
  654TMC3    C4 9679   3.949   3.299   0.068 -0.1598 -0.2546  0.2225
  654TMC3    C5 9680   3.834   3.276   0.004 -0.4792 -0.0851  0.3753
  654TMC3    C6 9681   3.740   3.374  17.673 -0.0837 -0.4204 -0.3551
  654TMC3     C 9682   4.113   3.422   0.185 -0.4086 -0.7760  0.4954
  654TMC3     O 9683   4.177   3.320   0.193 -0.5585 -0.4442  0.2858
  654TMC3     H 9684   3.886   3.588   0.212  0.1250  1.2226 -0.2220
  654TMC3    H1 9685   4.025   3.222   0.069  0.4106  0.3074  0.7636
  654TMC3    H2 9686   3.641   3.355  17.633 -0.1244 -1.6905  0.3311
  654TMC3    C7 9687   3.838   3.188  17.563 -0.4321 -0.1633 -0.2639
  654TMC3    C8 9688   3.654   3.587   0.058  0.0721  0.4066  0.7596
  654TMC3    O1 9689   3.742   3.198  17.486  0.2337 -0.1972  0.1448
  654TMC3    O2 9690   3.546   3.556   0.013  0.2639  0.8716  0.1978
  655MPD2     C 9691   0.564   3.860  15.719 -0.5919 -0.1645  0.3121
  655MPD2    C1 9692   0.447   3.902  15.658  0.1020 -0.3950  0.0944
  655MPD2    C2 9693   0.380   3.813  15.573 -0.4645 -0.1711  0.0881
  655MPD2    C3 9694   0.439   3.693  15.535 -0.1032 -0.0830 -0.1090
  655MPD2    C4 9695   0.546   3.645  15.595  1.1236 -0.0713  0.9649
  655MPD2    C5 9696   0.603   3.735  15.688  0.2104 -0.3514 -0.1089
  655MPD2     H 9697   0.282   3.848  15.542 -0.6211 -0.1793  0.5706
  655MPD2    H1 9698   0.590   3.546  15.591  2.2246  0.3818  1.5503
  655MPD2    H2 9699   0.620   3.916  15.792 -0.7099  0.4312 -0.0558
  655MPD2    H3 9700   0.697   3.710  15.737 -0.4166  0.8445  1.6778
  655MPD2     N 9701   0.383   3.616  15.428 -0.0583 -0.2200 -0.2477
  655MPD2    H5 9702   0.424   3.526  15.406  0.3377 -0.1291  0.1176
  655MPD2    N1 9703   0.389   4.027  15.696  0.3311 -0.1555 -0.2280
  655MPD2    H7 9704   0.306   4.047  15.642  0.2377 -3.4933 -1.2983
  656TMC3    C1 9705   0.338   4.228  15.818 -0.2823  0.5208 -0.2956
  656TMC3    C2 9706   0.313   4.256  15.951 -0.6973  0.3887 -0.1896
  656TMC3    C3 9707   0.230   4.350  15.982 -0.2398 -0.3439  0.0540
  656TMC3    C4 9708   0.272   4.292  15.717 -0.0522 -0.3604  0.0015
  656TMC3    C5 9709   0.181   4.383  15.750 -0.5740  0.2513  0.2422
  656TMC3    C6 9710   0.152   4.410  15.880  0.9043 -0.5483 -0.0518
  656TMC3     C 9711   0.420   4.109  15.806 -0.5206  0.0761 -0.4587
  656TMC3     O 9712   0.511   4.085  15.889 -1.1866  0.3750  0.0298
  656TMC3     H 9713   0.364   4.212  16.036 -0.8542  0.3060 -0.1386
  656TMC3    H1 9714   0.274   4.265  15.612 -1.7307 -1.6078  0.2838
  656TMC3    H2 9715   0.079   4.485  15.908  0.6996 -0.7069 -0.1640
  656TMC3    C7 9716   0.109   4.439  15.637 -0.1962  0.0578  0.7498
  656TMC3    C8 9717   0.149   4.332  16.104  0.1523 -0.5094  0.3723
  656TMC3    O1 9718   0.156   4.424  15.525 -0.2418 -0.1516  0.0709
  656TMC3    O2 9719   0.134   4.217  16.142 -0.7031 -0.4916 -0.0695
  657TMC3    C1 9720   4.077   3.530  14.842  0.6695  0.2438  0.4569
  657TMC3    C2 9721   4.068   3.533  14.980  0.6663 -0.1182 -0.9521
  657TMC3    C3 9722   3.997   3.629  15.038 -0.2299  0.2454  0.2304
  657TMC3    C4 9723   4.014   3.616  14.763  0.2201 -0.0944 -0.2832
  657TMC3    C5 9724   3.949   3.723  14.828 -0.2565 -0.5019 -0.0745
  657TMC3    C6 9725   3.943   3.732  14.970 -0.1069  0.0272  0.3330
  657TMC3     C 9726   4.165   3.434  14.770  0.1457  0.3035  0.5112
  657TMC3     O 9727   4.142   3.413  14.651  0.2777 -0.1295  0.0647
  657TMC3     H 9728   4.095   3.445  15.037 -0.5291  0.2009  0.0848
  657TMC3    H1 9729   4.020   3.623  14.655 -0.8633  2.1587 -0.1969
  657TMC3    H2 9730   3.865   3.796  15.009  0.2569  0.9267 -0.4339
  657TMC3    C7 9731   3.848   3.800  14.756  0.5120  0.1005 -0.2749
  657TMC3    C8 9732   4.015   3.642  15.185 -0.2540  0.5670  0.2319
  657TMC3    O1 9733   3.794   3.888  14.818 -0.1268 -0.2602 -0.1463
  657TMC3    O2 9734   4.050   3.540  15.248  0.0023  0.1161 -0.1580
  658MPD2     C 9735   0.727   3.432  14.765  0.2999 -0.1236  0.0241
  658MPD2    C1 9736   0.613   3.515  14.758  0.0262 -0.2666 -0.2968
  658MPD2    C2 9737   0.595   3.576  14.638 -0.2883 -0.5182  0.5860
  658MPD2    C3 9738   0.697   3.598  14.554 -0.7234  0.3440 -0.8602
  658MPD2    C4 9739   0.811   3.523  14.562  0.2893  0.0617 -0.9902
  658MPD2    C5 9740   0.825   3.440  14.665 -0.2660 -0.2345  0.2506
  658MPD2     H 9741   0.499   3.626  14.624  0.7641  1.4253  0.3294
  658MPD2    H1 9742   0.888   3.530  14.486  1.5869 -0.1107  0.3178
  658MPD2    H2 9743   0.750   3.369  14.849 -0.0398  0.3019  0.4371
  658MPD2    H3 9744   0.914   3.379  14.678 -0.8351 -1.1355 -0.0230
  658MPD2     N 9745   0.686   3.704  14.461 -0.4788 -0.2287  0.0348
  658MPD2    H5 9746   0.598   3.754  14.468  0.0086  0.7141 -0.5374
  658MPD2    N1 9747   0.511   3.527  14.860  0.3125 -0.2970  0.1345
  658MPD2    H7 9748   0.442   3.599  14.840 -2.0270 -1.9826  2.0604
  659TMC3    C1 9749   0.372   3.505  15.044 -0.7999  0.1651  0.0380
  659TMC3    C2 9750   0.384   3.518  15.177  0.2204 -0.6516 -0.8406
  659TMC3    C3 9751   0.266   3.559  15.244  0.3812  0.1303 -0.6236
  659TMC3    C4 9752   0.265   3.532  14.970  0.1372 -0.0291  0.4727
  659TMC3    C5 9753   0.160   3.582  15.041 -0.4153 -0.2791  0.1384
  659TMC3    C6 9754   0.159   3.599  15.172 -0.4680  0.3244 -0.2939
  659TMC3     C 9755   0.505   3.480  14.986 -0.2999 -0.1386 -0.1185
  659TMC3     O 9756   0.593   3.417  15.041  0.0393 -0.3578 -0.4445
  659TMC3     H 9757   0.483   3.508  15.220  0.2582  1.1685 -0.4966
  659TMC3    H1 9758   0.271   3.524  14.862 -1.1476 -1.8125  0.5255
  659TMC3    H2 9759   0.067   3.622  15.225 -1.7885 -2.9150 -1.1382
  659TMC3    C7 9760   0.041   3.633  14.976 -0.2696 -0.7291 -0.2537
  659TMC3    C8 9761   0.271   3.644  15.360 -1.0345  0.9804 -0.0832
  659TMC3    O1 9762   4.690   3.713  15.039 -0.1338  0.4339 -0.3347
  659TMC3    O2 9763   0.194   3.736  15.370 -0.4375  0.3764 -0.2530
  660MPD2     C 9764   3.868   2.222  13.095  0.2070  0.8494  0.1735
  660MPD2    C1 9765   3.776   2.132  13.041  0.0264 -1.1223 -0.1256
  660MPD2    C2 9766   3.731   2.031  13.121 -0.0702  0.1021  0.2328
  660MPD2    C3 9767   3.782   2.004  13.255  0.1530  0.6266  0.2395
  660MPD2    C4 9768   3.870   2.090  13.305  0.7897  1.1525  0.1796
  660MPD2    C5 9769   3.921   2.192  13.220  0.1418 -0.3324 -0.0624
  660MPD2     H 9770   3.660   1.956  13.087  0.1512 -0.3554  0.7790
  660MPD2    H1 9771   3.912   2.081  13.405 -2.1709 -0.0415  1.3071
  660MPD2    H2 9772   3.919   2.300  13.040 -0.9039  0.9748 -0.6619
  660MPD2    H3 9773   3.989   2.261  13.268 -1.6205  1.7341 -0.5053
  660MPD2     N 9774   3.730   1.904  13.334  0.2243  0.5441 -0.4833
  660MPD2    H5 9775   3.755   1.915  13.432  0.5499 -1.6544 -0.2975
  660MPD2    N1 9776   3.712   2.168  12.919  0.4287 -0.1602  0.2127
  660MPD2    H7 9777   3.748   2.253  12.877 -0.1473 -0.9073 -1.7663
  661TMC3    C1 9778   3.571   2.148  12.723  0.4301  0.1967  0.0788
  661TMC3    C2 9779   3.626   2.236  12.644 -0.4624 -0.4376  0.2261
  661TMC3    C3 9780   3.554   2.296  12.541  0.2146 -0.1019 -0.4281
  661TMC3    C4 9781   3.439   2.118  12.708 -0.1765 -0.5062 -0.0293
  661TMC3    C5 9782   3.379   2.170  12.596  0.5474 -0.2930 -0.3533
  661TMC3    C6 9783   3.427   2.264  12.514 -0.4227  0.6340  0.3968
  661TMC3     C 9784   3.633   2.092  12.839  0.0983 -0.6269 -0.3455
  661TMC3     O 9785   3.595   1.978  12.867  0.5234 -0.2776 -0.4955
  661TMC3     H 9786   3.729   2.270  12.649 -0.4263 -0.8902  2.5229
  661TMC3    H1 9787   3.382   2.056  12.776 -0.6405  0.3271  0.3493
  661TMC3    H2 9788   3.370   2.295  12.427  2.1811  1.5854 -0.9876
  661TMC3    C7 9789   3.234   2.149  12.592 -1.0624  0.6027 -0.2402
  661TMC3    C8 9790   3.622   2.381  12.447 -0.8510  1.1328  0.8092
  661TMC3    O1 9791   3.167   2.136  12.692  1.1306  0.5048  0.1844
  661TMC3    O2 9792   3.742   2.357  12.438 -0.5307 -0.0529 -0.4022
  662MPD2     C 9793   3.799   2.565  17.406 -0.0339 -0.5323 -0.3469
  662MPD2    C1 9794   3.821   2.492  17.520 -0.2236  0.0226  0.1689
  662MPD2    C2 9795   3.774   2.542  17.637  0.1136  0.0560  0.1684
  662MPD2    C3 9796   3.693   2.654  17.642  1.5490 -1.5155  0.1349
  662MPD2    C4 9797   3.674   2.723  17.526 -0.0328  0.0539  0.0627
  662MPD2    C5 9798   3.732   2.681  17.411  0.3197 -0.2825  0.7969
  662MPD2     H 9799   3.795   2.483   0.051 -1.1433 -0.0911  0.3764
  662MPD2    H1 9800   3.620   2.816  17.533  0.9452  0.6364 -0.1548
  662MPD2    H2 9801   3.831   2.544  17.304  1.0942  0.5889 -0.2325
  662MPD2    H3 9802   3.712   2.733  17.318 -1.2203  1.4393  2.0854
  662MPD2     N 9803   3.631   2.692   0.085 -0.3517  0.1088  0.0661
  662MPD2    H5 9804   3.553   2.757   0.086 -0.5747 -0.1461 -1.2798
  662MPD2    N1 9805   3.871   2.362  17.526  0.2955 -0.1559  0.7296
  662MPD2    H7 9806   3.876   2.327  17.621 -0.8732 -3.0006 -0.2485
  663TMC3    C1 9807   3.889   2.137  17.462  0.7281 -0.0453 -0.2890
  663TMC3    C2 9808   3.841   2.103  17.584  0.1682  0.2985 -0.0944
  663TMC3    C3 9809   3.782   1.982  17.606 -0.6757 -0.1529  0.2849
  663TMC3    C4 9810   3.886   2.044  17.360  0.3188  0.0764 -0.9448
  663TMC3    C5 9811   3.852   1.916  17.386 -0.3288  0.3783  0.4708
  663TMC3    C6 9812   3.807   1.887  17.513 -0.0610 -0.3527  0.3864
  663TMC3     C 9813   3.888   2.277  17.423  1.1548  0.3154 -0.4907
  663TMC3     O 9814   3.890   2.301  17.304 -0.2799 -0.0495  0.2154
  663TMC3     H 9815   3.795   2.183  17.642 -1.7475 -1.5502  0.9422
  663TMC3    H1 9816   3.908   2.072  17.258 -0.8439 -2.1280 -1.8010
  663TMC3    H2 9817   3.752   1.794  17.523  0.4474 -0.7049 -0.0932
  663TMC3    C7 9818   3.861   1.819  17.281  0.4721  0.3470  0.1484
  663TMC3    C8 9819   3.648   2.015  17.621 -0.1441  0.0676 -0.1576
  663TMC3    O1 9820   3.859   1.862  17.168 -0.2833 -0.5365  0.3640
  663TMC3    O2 9821   3.600   2.105  17.552 -0.3825 -0.5053 -0.3710
  664MPD2     C 9822   1.974   0.469   0.030  0.7938 -0.0166  0.0492
  664MPD2    C1 9823   2.030   0.586   0.068  0.4229  0.3726  0.0281
  664MPD2    C2 9824   2.055   0.602   0.201 -0.5902  0.2838  0.6454
  664MPD2    C3 9825   2.008   0.511   0.299 -0.2370  0.2158 -0.2134
  664MPD2    C4 9826   1.944   0.392   0.259  0.4629  0.7370 -0.0497
  664MPD2    C5 9827   1.934   0.377   0.124 -0.2575  0.4849 -0.3726
  664MPD2     H 9828   2.106   0.692   0.235 -1.0315  0.8549 -0.1866
  664MPD2    H1 9829   1.892   0.325   0.326  1.2121  0.2900  0.0813
  664MPD2    H2 9830   1.967   0.451  17.597 -0.1303 -0.0433  0.1130
  664MPD2    H3 9831   1.886   0.284   0.095  0.8257 -0.6820  1.5591
  664MPD2     N 9832   2.037   0.543   0.435 -0.9246 -0.2968  0.3267
  664MPD2    H5 9833   2.099   0.622   0.451 -0.6229 -0.7181  1.3095
  664MPD2    N1 9834   2.068   0.678  17.638 -1.0133  0.2186  0.7250
  664MPD2    H7 9835   2.064   0.644  17.543 -1.2580 -0.8524  1.1219
  665TMC3    C1 9836   2.046   0.526   0.668 -0.2405  0.2617  0.2477
  665TMC3    C2 9837   2.051   0.439   0.776 -0.0894 -0.2858  0.0802
  665TMC3    C3 9838   2.121   0.475   0.882  0.0945  0.1043  0.8520
  665TMC3    C4 9839   2.083   0.656   0.674 -0.0042 -0.5661  0.3823
  665TMC3    C5 9840   2.146   0.690   0.795 -0.6472  0.6041  0.5226
  665TMC3    C6 9841   2.159   0.601   0.898  0.6332 -0.1108 -0.7531
  665TMC3     C 9842   2.004   0.465   0.548 -0.3817 -0.4985 -0.7803
  665TMC3     O 9843   1.933   0.368   0.560 -0.1458 -0.1687  0.1096
  665TMC3     H 9844   2.013   0.338   0.762 -0.9472  0.0448  0.0151
  665TMC3    H1 9845   2.059   0.727   0.596  1.0876 -0.9957 -0.3506
  665TMC3    H2 9846   2.210   0.628   0.990 -1.3149  0.3513  0.1971
  665TMC3    C7 9847   2.157   0.832   0.823 -0.1748 -0.6329  0.3902
  665TMC3    C8 9848   2.112   0.401   1.006 -0.0247 -0.4414  0.4244
  665TMC3    O1 9849   2.108   0.906   0.739  0.4399  0.9434  0.3019
  665TMC3    O2 9850   2.185   0.442   1.098  0.2786 -0.0377 -0.1936
  666TMC3    C1 9851   1.815   0.492   9.455 -0.3452 -0.2066 -0.3609
  666TMC3    C2 9852   1.863   0.405   9.553  0.8984  0.0103  0.2616
  666TMC3    C3 9853   1.976   0.441   9.622  0.4855  0.0690 -0.3436
  666TMC3    C4 9854   1.881   0.611   9.446  0.4701 -0.4811 -0.1513
  666TMC3    C5 9855   2.001   0.645   9.512  0.0723  0.1604 -0.3101
  666TMC3    C6 9856   2.048   0.556   9.608 -0.1507 -0.5454  0.2100
  666TMC3     C 9857   1.668   0.500   9.432 -0.4399 -0.2945  0.0993
  666TMC3     O 9858   1.625   0.577   9.345 -0.0522 -0.9436  0.1356
  666TMC3     H 9859   1.818   0.309   9.576  0.1265  0.4075  0.3925
  666TMC3    H1 9860   1.842   0.680   9.371 -0.6543  0.1823  1.0291
  666TMC3    H2 9861   2.125   0.582   9.679 -0.6844  1.3272  0.1113
  666TMC3    C7 9862   1.999   0.783   9.551 -0.0031 -0.0405 -0.2342
  666TMC3    C8 9863   2.004   0.355   9.738  0.1822  0.7731 -0.8324
  666TMC3    O1 9864   1.915   0.851   9.496 -0.1595  1.0960 -0.2882
  666TMC3    O2 9865   1.916   0.310   9.807 -0.3375 -0.5374 -0.6296
  667MPD2     C 9866   2.765   0.643  15.041 -0.1541  0.0356  0.2757
  667MPD2    C1 9867   2.721   0.620  15.171 -0.3415 -0.3664  0.4573
  667MPD2    C2 9868   2.654   0.503  15.200 -0.6160 -0.4647 -0.1578
  667MPD2    C3 9869   2.631   0.405  15.105  0.1676  1.0869 -0.0510
  667MPD2    C4 9870   2.694   0.418  14.980 -0.2062  0.3322  0.1796
  667MPD2    C5 9871   2.759   0.537  14.952 -0.6231  0.1563 -0.3534
  667MPD2     H 9872   2.594   0.498  15.290  2.3773 -1.4001  1.7630
  667MPD2    H1 9873   2.694   0.339  14.906  1.1118  1.2280 -0.7773
  667MPD2    H2 9874   2.815   0.727  14.994  0.1924  0.0930  0.7476
  667MPD2    H3 9875   2.798   0.556  14.853 -2.0122  1.1459 -0.7080
  667MPD2     N 9876   2.547   0.296  15.122 -0.5260  0.8003  0.3832
  667MPD2    H5 9877   2.527   0.243  15.038  3.0832  0.4175 -0.2647
  667MPD2    N1 9878   2.724   0.721  15.274 -0.3802 -0.4485 -0.0458
  667MPD2    H7 9879   2.682   0.702  15.364  2.8316 -4.0170  0.7298
  668TMC3    C1 9880   2.755   0.932  15.373 -0.1654  0.7549  0.6285
  668TMC3    C2 9881   2.852   1.022  15.397  0.4790 -0.0388 -0.2256
  668TMC3    C3 9882   2.855   1.090  15.519  0.1416 -0.6660  0.5194
  668TMC3    C4 9883   2.656   0.909  15.473  0.1200  0.0465 -0.2513
  668TMC3    C5 9884   2.667   0.975  15.596  0.6844  0.4317  0.1962
  668TMC3    C6 9885   2.770   1.067  15.622 -0.9590 -0.2524  0.6221
  668TMC3     C 9886   2.778   0.845  15.263  0.2963 -0.1331  0.0719
  668TMC3     O 9887   2.835   0.889  15.165  0.6381 -0.9635  0.2909
  668TMC3     H 9888   2.934   1.034  15.328  1.2821 -0.0922  0.7265
  668TMC3    H1 9889   2.575   0.839  15.457  0.8619 -1.2607  1.8219
  668TMC3    H2 9890   2.763   1.134  15.707 -1.1641  1.4561 -0.7364
  668TMC3    C7 9891   2.548   0.982  15.683  0.4952 -1.1465 -0.7624
  668TMC3    C8 9892   2.957   1.186  15.536  0.1976 -0.2207  0.0198
  668TMC3    O1 9893   2.553   1.056  15.782 -0.6041  0.3165  0.0692
  668TMC3    O2 9894   2.972   1.229  15.652 -0.1766  0.4913  0.0178
  669TMC3    C1 9895   0.451   0.910  14.467 -0.2647 -0.1445 -0.1084
  669TMC3    C2 9896   0.342   0.883  14.390 -0.2123  0.4220  0.5449
  669TMC3    C3 9897   0.330   0.947  14.268 -0.5081 -0.4043  0.4271
  669TMC3    C4 9898   0.561   0.989  14.423  0.9500  0.5784 -0.4048
  669TMC3    C5 9899   0.553   1.040  14.299  0.0347  0.2385  0.7687
  669TMC3    C6 9900   0.444   1.017  14.220  0.4099  0.7033  0.2401
  669TMC3     C 9901   0.461   0.830  14.585 -0.0221 -0.3634  0.2196
  669TMC3     O 9902   0.386   0.732  14.593 -0.2642  0.2546  0.5284
  669TMC3     H 9903   0.268   0.813  14.426  1.3191 -1.7774 -0.5961
  669TMC3    H1 9904   0.643   1.009  14.491 -0.0189  1.5724  0.4861
  669TMC3    H2 9905   0.453   1.036  14.113  0.1874 -2.4659 -0.3419
  669TMC3    C7 9906   0.681   1.072  14.251 -0.3250  0.1785 -0.6863
  669TMC3    C8 9907   0.221   0.939  14.171 -0.0053 -0.1920  0.0239
  669TMC3    O1 9908   0.752   1.132  14.327  0.4183  0.3627 -0.7105
  669TMC3    O2 9909   0.238   0.990  14.063 -0.0104 -0.1705 -0.2389
  670MPD2     C 9910   3.527   2.946  13.357  0.0839 -0.3019  0.3842
  670MPD2    C1 9911   3.605   3.038  13.426 -0.3717 -0.3848  0.1660
  670MPD2    C2 9912   3.610   3.037  13.570  0.4274  0.2994 -0.7380
  670MPD2    C3 9913   3.524   2.953  13.638 -0.7372  0.1792  0.1449
  670MPD2    C4 9914   3.451   2.858  13.567  0.4448 -1.0131 -0.4434
  670MPD2    C5 9915   3.451   2.852  13.432 -0.3830  0.6684 -1.3827
  670MPD2     H 9916   3.678   3.105  13.621  0.5940  1.6307 -2.7493
  670MPD2    H1 9917   3.385   2.790  13.620 -1.4856 -1.1227 -2.9950
  670MPD2    H2 9918   3.537   2.935  13.250 -1.0541 -1.7241  0.4279
  670MPD2    H3 9919   3.410   2.769  13.375  0.8104 -0.3696 -0.7109
  670MPD2     N 9920   3.514   2.965  13.776 -0.3562  0.1397 -0.0354
  670MPD2    H5 9921   3.571   3.037  13.818  0.3490 -0.2582 -0.3078
  670MPD2    N1 9922   3.698   3.119  13.358  0.0952  0.1508  0.0988
  670MPD2    H7 9923   3.765   3.166  13.419  1.6178 -1.6580 -0.1586
  671TMC3    C1 9924   3.433   2.955  13.987 -0.2395 -0.0903  0.3297
  671TMC3    C2 9925   3.549   2.961  14.063 -0.1190 -0.2872  0.2310
  671TMC3    C3 9926   3.541   2.946  14.195  0.4843 -0.6639 -0.1923
  671TMC3    C4 9927   3.308   2.945  14.049  0.1301  0.2852  0.3109
  671TMC3    C5 9928   3.312   2.927  14.183  0.0065 -0.4343 -0.3296
  671TMC3    C6 9929   3.421   2.937  14.263  0.5946 -0.1150  0.3029
  671TMC3     C 9930   3.442   2.888  13.865 -0.4813  0.6582 -0.2043
  671TMC3     O 9931   3.371   2.788  13.852 -0.1021  0.1665 -0.4104
  671TMC3     H 9932   3.648   2.947  14.022  0.1812  2.5322  0.0255
  671TMC3    H1 9933   3.216   2.933  13.992  1.2287 -1.3744 -1.1103
  671TMC3    H2 9934   3.415   2.946  14.371  0.7372  1.2460  0.1934
  671TMC3    C7 9935   3.254   2.797  14.207  0.3073 -0.3534  0.0814
  671TMC3    C8 9936   3.659   2.891  14.263  0.0253 -0.1205 -0.3670
  671TMC3    O1 9937   3.144   2.778  14.162 -0.1893 -1.0681  0.6732
  671TMC3    O2 9938   3.742   2.832  14.192 -0.0560  0.3844  0.2711
  672MPD2     C 9939   0.262   3.062   0.334  0.1715  0.6829 -0.0998
  672MPD2    C1 9940   0.221   3.024   0.458  0.4100  0.6344 -0.0083
  672MPD2    C2 9941   0.300   3.070   0.559  0.1140 -0.3005 -0.9180
  672MPD2    C3 9942   0.409   3.150   0.551 -0.3392 -0.4065 -0.0537
  672MPD2    C4 9943   0.436   3.198   0.419 -0.0100  0.2891  0.1455
  672MPD2    C5 9944   0.371   3.141   0.316  0.9948 -0.2413 -0.0026
  672MPD2     H 9945   0.266   3.059   0.662  1.0703 -1.7342 -0.7603
  672MPD2    H1 9946   0.515   3.270   0.399 -0.3130  1.4378  3.0140
  672MPD2    H2 9947   0.207   3.026   0.248 -0.2145 -0.7346  0.7440
  672MPD2    H3 9948   0.395   3.160   0.212 -0.2887 -1.5232 -0.5451
  672MPD2     N 9949   0.470   3.211   0.658  0.3257 -0.1106  0.1913
  672MPD2    H5 9950   0.535   3.288   0.643 -0.2430  0.2486 -0.4106
  672MPD2    N1 9951   0.106   2.956   0.490  0.0853 -0.7366 -0.1488
  672MPD2    H7 9952   0.101   2.924   0.587 -1.9066  2.0007  0.6583
  673TMC3    C1 9953   4.619   2.861   0.453 -0.1970  0.3146 -0.2297
  673TMC3    C2 9954   4.641   2.746   0.527 -0.0295 -0.5734 -1.2198
  673TMC3    C3 9955   4.534   2.666   0.555 -0.6981 -0.8817  0.5185
  673TMC3    C4 9956   4.495   2.900   0.421  0.0272 -0.1686 -0.5505
  673TMC3    C5 9957   4.387   2.819   0.464 -0.0141  0.1260  1.1465
  673TMC3    C6 9958   4.410   2.703   0.529 -0.2577  0.1464  0.1042
  673TMC3     C 9959   0.011   2.926   0.395 -0.1605 -0.2916 -0.0063
  673TMC3     O 9960   4.711   2.984   0.284  0.1504 -0.6482 -0.4722
  673TMC3     H 9961   0.020   2.722   0.570  0.7585  0.2534 -2.5571
  673TMC3    H1 9962   4.480   2.998   0.377 -1.7567 -0.6013 -0.9075
  673TMC3    H2 9963   4.325   2.645   0.563 -1.4286  0.1650 -2.7959
  673TMC3    C7 9964   4.252   2.875   0.482 -1.0365 -0.4181  0.0372
  673TMC3    C8 9965   4.553   2.528   0.591 -0.9568  0.3387  0.5371
  673TMC3    O1 9966   4.160   2.800   0.511  0.4646 -0.0221  0.0510
  673TMC3    O2 9967   4.471   2.456   0.546  0.6201 -0.1205 -0.6093
  674MPD2     C 9968   4.335   2.373   0.881 -0.2327 -0.3710 -0.0924
  674MPD2    C1 9969   4.207   2.361   0.838 -0.0350  0.3112 -0.0626
  674MPD2    C2 9970   4.100   2.392   0.916  0.6038 -0.2630 -0.5715
  674MPD2    C3 9971   4.127   2.429   1.050 -0.1897 -0.0258 -0.1804
  674MPD2    C4 9972   4.259   2.433   1.096 -0.2658 -0.1364  0.5795
  674MPD2    C5 9973   4.358   2.412   1.006 -0.6183 -0.1655 -0.3734
  674MPD2     H 9974   3.994   2.389   0.893  0.3357  0.2390  0.6161
  674MPD2    H1 9975   4.293   2.475   1.190 -2.1970  0.6047  0.9331
  674MPD2    H2 9976   4.415   2.358   0.808 -1.4140 -1.5419 -1.1594
  674MPD2    H3 9977   4.461   2.437   1.029 -0.0037 -0.8263 -2.4487
  674MPD2     N 9978   4.014   2.459   1.137  0.4941  0.7129 -0.0882
  674MPD2    H5 9979   3.921   2.464   1.096  0.3397  0.2876  0.1985
  674MPD2    N1 9980   4.198   2.318   0.703  0.2897  0.0286  0.0582
  674MPD2    H7 9981   4.281   2.284   0.656  1.5718  2.7381  0.3992
  675TMC3    C1 9982   4.084   2.278   0.497 -0.3519 -0.1504  0.2794
  675TMC3    C2 9983   3.976   2.228   0.438 -0.2504  0.0377  0.0118
  675TMC3    C3 9984   3.923   2.282   0.325 -0.5659 -0.2860 -0.0113
  675TMC3    C4 9985   4.152   2.378   0.427  0.3670 -0.9439  0.1517
  675TMC3    C5 9986   4.095   2.430   0.313  0.1534  0.9694  0.8443
  675TMC3    C6 9987   3.977   2.381   0.260 -0.1078  0.4486 -0.1640
  675TMC3     C 9988   4.073   2.296   0.643 -0.5891 -0.8847 -0.6360
  675TMC3     O 9989   3.973   2.253   0.699 -0.0031 -0.0935  0.6177
  675TMC3     H 9990   3.932   2.142   0.484  1.1081 -1.0771 -0.7529
  675TMC3    H1 9991   4.242   2.420   0.469  0.7448 -2.0258  0.4439
  675TMC3    H2 9992   3.932   2.420   0.170  1.4225  0.7611 -0.8040
  675TMC3    C7 9993   4.153   2.542   0.240 -0.1148 -0.6732 -0.6819
  675TMC3    C8 9994   3.779   2.264   0.302 -0.2762 -0.2456  0.0144
  675TMC3    O1 9995   4.081   2.596   0.159  0.9135  0.0085 -0.6504
  675TMC3    O2 9996   3.741   2.293   0.187  0.4327 -0.3416  0.1935
  676MPD2     C 9997   2.012   1.741  10.628  0.1790 -0.1317  0.3376
  676MPD2    C1 9998   1.920   1.687  10.711 -0.4874  0.5840 -0.0622
  676MPD2    C2 9999   1.920   1.547  10.723  0.0716 -0.0700 -0.3372
  676MPD2    C310000   2.014   1.476  10.651 -0.5187  0.6568 -0.2123
  676MPD2    C410001   2.104   1.538  10.566 -0.0994  0.0746  0.2677
  676MPD2    C510002   2.107   1.670  10.553 -0.4818  0.1829 -0.5596
  676MPD2     H10003   1.852   1.502  10.794 -0.2725  1.9081  0.5925
  676MPD2    H110004   2.186   1.485  10.519 -0.7106 -0.4688 -0.1752
  676MPD2    H210005   2.006   1.845  10.600  2.5557 -0.1273 -0.1536
  676MPD2    H310006   2.181   1.718  10.490 -0.3174  0.6380 -0.0171
  676MPD2     N10007   2.021   1.338  10.660  0.6591  0.4303 -0.4836
  676MPD2    H510008   2.084   1.293  10.595 -1.7951 -2.5046 -0.8330
  676MPD2    N110009   1.824   1.759  10.785 -0.6540 -0.3142 -0.7545
  676MPD2    H710010   1.755   1.705  10.836 -1.6200 -0.4145 -2.1660
  677TMC3    C110011   1.731   1.953  10.878  0.3753 -1.0401 -0.1654
  677TMC3    C210012   1.597   1.942  10.840  0.8410 -0.2347 -0.8000
  677TMC3    C310013   1.505   1.981  10.933  0.3829 -0.7409  0.1376
  677TMC3    C410014   1.759   1.990  11.004 -0.2359 -0.3356  0.0350
  677TMC3    C510015   1.671   2.040  11.094  0.2641 -0.6773 -0.6500
  677TMC3    C610016   1.539   2.038  11.054  0.6260 -0.5071  0.1491
  677TMC3     C10017   1.842   1.891  10.810 -0.2337  0.0044  0.0996
  677TMC3     O10018   1.948   1.950  10.804 -0.4062  0.1856 -0.0438
  677TMC3     H10019   1.560   1.911  10.743  0.6338 -1.0508 -0.4620
  677TMC3    H110020   1.864   1.981  11.027 -0.4735 -0.0302  1.2225
  677TMC3    H210021   1.469   2.068  11.131 -0.2207 -1.9796 -0.0602
  677TMC3    C710022   1.685   1.983  11.227  0.2758 -0.0564 -0.6368
  677TMC3    C810023   1.364   1.990  10.895 -0.0410 -0.3188 -1.2540
  677TMC3    O110024   1.583   1.954  11.294  0.1254 -1.2051 -0.5430
  677TMC3    O210025   1.330   2.022  10.782  0.2365  0.5372  0.4061
  678MPD2     C10026   3.035   1.477   1.894  0.3654  0.6818  0.0837
  678MPD2    C110027   3.091   1.453   1.770  0.0139  0.3404 -1.2260
  678MPD2    C210028   2.999   1.438   1.671  0.0215  0.4314  0.1441
  678MPD2    C310029   2.864   1.457   1.686  0.5632  0.2675 -0.9121
  678MPD2    C410030   2.809   1.487   1.810  0.3896  0.4360 -0.6090
  678MPD2    C510031   2.900   1.490   1.916  0.3814 -0.0277  0.6322
  678MPD2     H10032   3.038   1.409   1.575 -3.4185  1.7676 -1.6429
  678MPD2    H110033   2.701   1.487   1.816  0.5038  0.9095  1.3768
  678MPD2    H210034   3.099   1.498   1.979  1.0970 -2.3193  0.2700
  678MPD2    H310035   2.864   1.516   2.015 -3.4523 -0.2957 -0.7014
  678MPD2     N10036   2.782   1.455   1.567 -0.2088 -0.3108 -0.3549
  678MPD2    H510037   2.829   1.418   1.485 -2.3920  0.9507 -2.2017
  678MPD2    N110038   3.229   1.451   1.736 -0.3733 -0.2219  0.5960
  678MPD2    H710039   3.253   1.416   1.644  0.1455  1.4894  0.0690
  679TMC3    C110040   3.684   1.468   1.739  0.1293 -0.1947  0.1342
  679TMC3    C210041   3.570   1.459   1.818 -0.0267 -0.1663 -0.4236
  679TMC3    C310042   3.455   1.500   1.758  0.3398  0.2641  0.4913
  679TMC3    C410043   3.684   1.524   1.614  0.6489 -0.1234  0.0595
  679TMC3    C510044   3.565   1.559   1.562  1.1929 -0.3894 -0.5958
  679TMC3    C610045   3.453   1.558   1.635 -0.0769  0.3094  1.1873
  679TMC3     C10046   3.803   1.394   1.772 -0.6526  0.3764  0.5602
  679TMC3     O10047   3.885   1.359   1.686  0.5808  0.0933  0.4227
  679TMC3     H10048   3.566   1.401   1.909  0.2966 -0.4947 -0.6181
  679TMC3    H110049   3.775   1.545   1.559  0.4515  2.7118  0.8290
  679TMC3    H210050   3.361   1.604   1.600  0.6464 -0.3568 -1.6498
  679TMC3    C710051   3.545   1.611   1.430 -0.6252 -0.1465  0.5962
  679TMC3    C810052   3.330   1.476   1.827  0.1311 -0.5082 -0.2559
  679TMC3    O110053   3.427   1.625   1.397  0.1548  0.1927 -0.4607
  679TMC3    O210054   3.326   1.480   1.949 -0.0380  0.1469 -0.0274
  680MPD2     C10055   3.427   0.469  13.522  0.4481 -0.0408  0.2745
  680MPD2    C110056   3.537   0.396  13.551  0.1341 -0.6352 -0.2307
  680MPD2    C210057   3.647   0.462  13.594 -0.3222  0.6904 -0.9898
  680MPD2    C310058   3.643   0.601  13.611 -0.9155  0.1464 -0.4510
  680MPD2    C410059   3.528   0.672  13.575  0.3808  0.0107  0.2038
  680MPD2    C510060   3.424   0.604  13.532 -0.0821 -0.3106  0.0244
  680MPD2     H10061   3.743   0.413  13.611 -1.7871 -2.0055 -0.4556
  680MPD2    H110062   3.516   0.779  13.586 -2.1437 -0.1567 -1.0517
  680MPD2    H210063   3.334   0.428  13.483  2.0799 -0.8500 -2.7936
  680MPD2    H310064   3.332   0.656  13.511 -0.8686 -1.3531  0.8545
  680MPD2     N10065   3.747   0.673  13.660  0.0060  0.7033  0.0065
  680MPD2    H510066   3.727   0.773  13.659  0.8316  0.8757  0.4137
  680MPD2    N110067   3.552   0.263  13.537  0.2869  0.3671 -0.7069
  680MPD2    H710068   3.644   0.221  13.549 -0.2881 -0.8418 -0.5387
  681TMC3    C110069   3.470   0.040  13.509  0.8752 -0.5662 -0.8599
  681TMC3    C210070   3.385   4.677  13.586 -0.1266  0.0631 -0.0995
  681TMC3    C310071   3.428   4.551  13.607  0.2993  0.3366 -0.2666
  681TMC3    C410072   3.593   4.705  13.456 -0.0277  0.2958  0.2221
  681TMC3    C510073   3.626   4.577  13.491  0.1025  0.1636  0.3883
  681TMC3    C610074   3.550   4.497  13.569 -0.3451  0.1074 -0.1847
  681TMC3     C10075   3.446   0.182  13.503  0.1214 -0.4231 -0.2203
  681TMC3     O10076   3.328   0.210  13.498  0.1756 -0.0315  0.2096
  681TMC3     H10077   3.299   0.007  13.633  0.5417 -1.0407  2.2203
  681TMC3    H110078   3.660   0.054  13.403  1.0285  0.1712  1.3876
  681TMC3    H210079   3.570   4.392  13.587  0.8615 -0.0004 -2.2295
  681TMC3    C710080   3.741   4.514  13.425 -0.2897 -0.4467 -0.5978
  681TMC3    C810081   3.360   4.486  13.717 -0.3096  0.0853 -0.5829
  681TMC3    O110082   3.798   4.419  13.483  0.0908  0.4999 -0.0511
  681TMC3    O210083   3.357   4.363  13.716 -0.0884  0.0137 -0.2146
  682MPD2     C10084   1.461   1.810  10.095  0.2927  0.0471 -0.4361
  682MPD2    C110085   1.476   1.676  10.080 -0.8008 -0.0894  0.8830
  682MPD2    C210086   1.408   1.588  10.165  0.2923 -0.1486 -0.1677
  682MPD2    C310087   1.318   1.639  10.263  0.1814  0.7699  0.1238
  682MPD2    C410088   1.307   1.773  10.277  0.2189  0.6029 -0.4685
  682MPD2    C510089   1.374   1.858  10.192  0.0414  0.6755 -0.1295
  682MPD2     H10090   1.428   1.483  10.153  1.3358 -0.1371  1.4833
  682MPD2    H110091   1.221   1.815  10.329 -0.1779 -0.9558  0.1266
  682MPD2    H210092   1.496   1.885  10.025  0.3353  1.0083  0.6097
  682MPD2    H310093   1.365   1.966  10.203  1.4231  0.9472 -1.6049
  682MPD2     N10094   1.249   1.554  10.356 -0.0947 -0.0600  0.0085
  682MPD2    H510095   1.191   1.592  10.431  0.4025 -0.5021  0.6094
  682MPD2    N110096   1.551   1.615   9.973 -0.2386  0.3564  0.3550
  682MPD2    H710097   1.537   1.515   9.962 -3.5075  1.0146 -1.4359
  683TMC3    C110098   1.044   1.315  10.635 -0.4515  0.0020 -0.6863
  683TMC3    C210099   1.113   1.210  10.688  0.2622  0.5846  0.1282
  683TMC3    C310100   1.232   1.178  10.628  0.3817  0.4104  0.0617
  683TMC3    C410101   1.094   1.395  10.533 -0.1513  0.0409 -0.5922
  683TMC3    C510102   1.215   1.363  10.482  0.4349 -0.4159 -0.3991
  683TMC3    C610103   1.284   1.254  10.529 -0.4265 -0.0318  0.2297
  683TMC3     C10104   0.935   1.375  10.713 -0.9627 -0.6868 -1.0840
  683TMC3     O10105   0.917   1.494  10.717  0.2574 -1.1010 -0.0183
  683TMC3     H10106   1.078   1.158  10.776 -0.2761 -0.2061 -0.5496
  683TMC3    H110107   1.036   1.480  10.500  0.4692  2.1712  3.8471
  683TMC3    H210108   1.379   1.234  10.482 -0.9195 -3.7898  0.8259
  683TMC3    C710109   1.258   1.419  10.358  0.2350  0.4744 -0.1743
  683TMC3    C810110   1.327   1.077  10.685  0.3371 -0.0587  0.2286
  683TMC3    O110111   1.323   1.342  10.290 -0.0159 -0.0046 -0.1138
  683TMC3    O210112   1.426   1.062  10.615 -0.1438  0.6451  0.2020
  684MPD2     C10113   3.646   1.218  16.314 -0.5363  0.7726 -0.7117
  684MPD2    C110114   3.771   1.217  16.359  0.1450  0.0528 -0.1111
  684MPD2    C210115   3.808   1.319  16.450 -0.2782  0.2331 -0.0920
  684MPD2    C310116   3.721   1.422  16.477 -0.4978 -0.2546  0.4890
  684MPD2    C410117   3.595   1.421  16.432  0.7841  0.1346 -0.2344
  684MPD2    C510118   3.559   1.320  16.352  0.2269 -0.3900 -0.3145
  684MPD2     H10119   3.909   1.325  16.489  0.3271 -0.9312 -1.4857
  684MPD2    H110120   3.517   1.491  16.460  0.9085  0.6121 -1.0823
  684MPD2    H210121   3.609   1.137  16.252  2.4881 -0.5178 -0.8691
  684MPD2    H310122   3.460   1.328  16.309  1.1335  1.4223 -2.0912
  684MPD2     N10123   3.758   1.528  16.571 -0.3705 -0.1965  0.4187
  684MPD2    H510124   3.691   1.603  16.588 -0.8555 -1.0262  2.1379
  684MPD2    N110125   3.872   1.125  16.320  0.4392 -0.1970 -0.0700
  684MPD2    H710126   3.961   1.138  16.367  0.5230  0.3432 -0.3802
  685TMC3    C110127   3.965   0.925  16.242 -0.6022 -0.0817 -0.6702
  685TMC3    C210128   3.919   0.790  16.240 -0.6093 -0.7641  0.0049
  685TMC3    C310129   4.006   0.703  16.295 -0.2737 -0.2844  0.5703
  685TMC3    C410130   4.085   0.971  16.296 -0.0222  0.1112 -0.6740
  685TMC3    C510131   4.163   0.869  16.340  0.0483  0.3012 -0.3791
  685TMC3    C610132   4.131   0.734  16.342  0.1786 -0.7402 -0.1705
  685TMC3     C10133   3.852   1.022  16.233  0.7190  0.2935  0.2297
  685TMC3     O10134   3.752   0.991  16.175  0.0840 -0.1603  0.2511
  685TMC3     H10135   3.826   0.764  16.191 -0.6140 -0.8793  0.0772
  685TMC3    H110136   4.118   1.074  16.294  0.8856 -0.1877 -1.1366
  685TMC3    H210137   4.202   0.660  16.376 -0.2960 -2.2848 -2.4635
  685TMC3    C710138   4.285   0.901  16.421  0.4514  0.0171 -0.5131
  685TMC3    C810139   3.964   0.568  16.337 -0.3987  0.4688 -0.0706
  685TMC3    O110140   4.327   0.799  16.481 -0.3861  0.3206  0.1576
  685TMC3    O210141   4.050   0.506  16.401  0.1483  0.1913  0.4406
  686MPD2     C10142   0.304   0.524  15.421  0.1640  0.0458 -0.1866
  686MPD2    C110143   0.345   0.548  15.551 -0.0865  0.6388  1.0020
  686MPD2    C210144   0.436   0.466  15.612 -0.0135  0.5073  0.2544
  686MPD2    C310145   0.496   0.358  15.544 -0.0670  0.7478 -0.1426
  686MPD2    C410146   0.460   0.348  15.413 -0.1215  0.1186  0.6430
  686MPD2    C510147   0.367   0.427  15.354  0.4113  0.1170 -0.4120
  686MPD2     H10148   0.451   0.488  15.718 -1.8201  1.1106  0.3843
  686MPD2    H110149   0.512   0.272  15.356 -0.7718  0.4652 -0.4094
  686MPD2    H210150   0.223   0.578  15.373 -0.5638  2.4300  3.7019
  686MPD2    H310151   0.341   0.418  15.249  0.7496 -0.1983 -0.4663
  686MPD2     N10152   0.595   0.279  15.601 -0.0128 -0.2276  0.9149
  686MPD2    H510153   0.632   0.217  15.529 -1.7875 -0.5302  0.2757
  686MPD2    N110154   0.290   0.656  15.620 -0.2404 -0.1835 -0.1115
  686MPD2    H710155   0.229   0.717  15.566  1.3254  0.2185 -1.4074
  687TMC3    C110156   0.533   0.295  15.842  0.4587 -0.8332 -0.2975
  687TMC3    C210157   0.401   0.275  15.832  0.3328 -0.6565 -0.7918
  687TMC3    C310158   0.326   0.283  15.953  0.0614  0.3747 -0.2054
  687TMC3    C410159   0.591   0.332  15.958  1.4814 -0.3190  0.1152
  687TMC3    C510160   0.511   0.346  16.069  0.3220 -0.1185  0.3496
  687TMC3    C610161   0.378   0.320  16.071 -0.3239 -0.6111  0.7218
  687TMC3     C10162   0.630   0.265  15.735  0.6788  0.5624  0.1213
  687TMC3     O10163   0.733   0.207  15.773  0.6172  0.1827  0.0973
  687TMC3     H10164   0.361   0.261  15.733  1.2255  0.6314 -1.3342
  687TMC3    H110165   0.693   0.369  15.963  0.7128  1.8384 -0.5756
  687TMC3    H210166   0.321   0.351  16.158 -1.0708 -0.8452  0.3263
  687TMC3    C710167   0.562   0.464  16.140 -0.0626  0.4284  0.0725
  687TMC3    C810168   0.176   0.300  15.943 -0.7270 -0.1970  0.5946
  687TMC3    O110169   0.638   0.453  16.231  0.2155 -0.0661 -0.0593
  687TMC3    O210170   0.104   0.271  16.035 -0.2842 -0.1162 -0.2216
  688MPD2     C10171   4.443   4.663  17.471  0.4555  0.1700 -0.1407
  688MPD2    C110172   4.489   4.533  17.474 -0.1488 -0.0770 -0.8106
  688MPD2    C210173   4.556   4.491  17.363  0.0398  0.2051 -0.2641
  688MPD2    C310174   4.567   4.565  17.248  0.7753 -0.3053  0.7479
  688MPD2    C410175   4.504   4.691  17.249 -0.2393 -0.3916 -0.0656
  688MPD2    C510176   4.454   0.022  17.360  0.4267 -0.3297  0.4176
  688MPD2     H10177   4.601   4.393  17.377  0.6729  0.6565  0.8891
  688MPD2    H110178   4.510   0.034  17.160 -1.0758  0.4463  0.4507
  688MPD2    H210179   4.388   4.705  17.554  1.2163  0.9807 -0.0526
  688MPD2    H310180   4.408   0.120  17.364  2.3889  0.5996  0.4193
  688MPD2     N10181   4.628   4.529  17.127 -0.9579  0.6523  0.5862
  688MPD2    H510182   4.615   4.592  17.049 -1.2324 -0.9593 -0.6578
  688MPD2    N110183   4.480   4.450  17.587  0.1842  0.3613 -0.9492
  688MPD2    H710184   4.537   4.366  17.591  2.2906  1.7936 -0.7201
  689TMC3    C110185   4.440   4.389   0.136 -0.3334 -0.1018 -0.0281
  689TMC3    C210186   4.484   4.431   0.260  0.5652 -0.2282 -0.6318
  689TMC3    C310187   4.488   4.337   0.361 -0.1297  0.1381 -0.2865
  689TMC3    C410188   4.418   4.254   0.110  0.0390 -0.3496  0.2934
  689TMC3    C510189   4.429   4.162   0.213  0.5389  0.4356 -0.0469
  689TMC3    C610190   4.472   4.203   0.336 -0.0937 -0.4686 -0.1430
  689TMC3     C10191   4.421   4.490   0.035  0.6772  0.0182 -0.2248
  689TMC3     O10192   4.387   4.602   0.070  0.8112 -0.3374  0.4080
  689TMC3     H10193   4.518   4.533   0.268  0.1609 -0.1971  0.6502
  689TMC3    H110194   4.374   4.225   0.016 -2.8320  1.0371  1.2037
  689TMC3    H210195   4.468   4.126   0.412  1.8298  0.5460  0.9954
  689TMC3    C710196   4.385   4.022   0.189 -0.1001 -0.1391 -0.2084
  689TMC3    C810197   4.558   4.367   0.485 -0.3386 -0.4457 -0.0716
  689TMC3    O110198   4.330   3.994   0.084  0.1943  0.0217 -0.8906
  689TMC3    O210199   4.591   4.272   0.554  0.3973  0.1749 -0.4727
  690MPD2     C10200   1.592   1.833  15.418  0.3127 -0.6475  0.5081
  690MPD2    C110201   1.632   1.742  15.322 -0.4812 -0.5163  0.1977
  690MPD2    C210202   1.770   1.728  15.303  0.9042 -0.1236  0.1778
  690MPD2    C310203   1.863   1.795  15.382 -0.3854 -0.5166 -0.9037
  690MPD2    C410204   1.816   1.875  15.484 -0.4282 -0.1423  0.4244
  690MPD2    C510205   1.683   1.899  15.493  0.3282  0.2660  0.4273
  690MPD2     H10206   1.800   1.654  15.230 -1.5155 -3.2216  2.3251
  690MPD2    H110207   1.885   1.915  15.557  2.2567 -0.4999 -1.9075
  690MPD2    H210208   1.487   1.855  15.431  0.2662 -0.2119 -0.5760
  690MPD2    H310209   1.649   1.968  15.569  3.9582  3.2298 -0.6286
  690MPD2     N10210   1.997   1.782  15.344  0.0758  0.0605  0.0393
  690MPD2    H510211   2.012   1.736  15.255  1.4301 -1.3574  0.9847
  690MPD2    N110212   1.548   1.666  15.233  0.2149  0.0567  0.4909
  690MPD2    H710213   1.589   1.609  15.160 -0.5830 -0.2631  0.2919
  691TMC3    C110214   1.389   1.516  15.233  0.2535 -0.3481  0.0637
  691TMC3    C210215   1.255   1.490  15.194 -0.3378  0.1578 -0.2020
  691TMC3    C310216   1.171   1.412  15.273 -0.1800 -0.9295  0.0429
  691TMC3    C410217   1.443   1.437  15.336  0.7684  0.1486 -0.0752
  691TMC3    C510218   1.355   1.371  15.419 -0.5774 -0.0581  0.3821
  691TMC3    C610219   1.216   1.370  15.397  0.1404 -0.0774 -0.6586
  691TMC3     C10220   1.411   1.659  15.248 -0.2489 -0.4620  0.1231
  691TMC3     O10221   1.338   1.732  15.312  0.3949 -0.0594  0.3251
  691TMC3     H10222   1.215   1.547  15.111 -0.0722  1.6037  0.6524
  691TMC3    H110223   1.548   1.453  15.358  0.7849 -0.5104  0.3214
  691TMC3    H210224   1.150   1.316  15.464 -0.5405  1.7751  0.1605
  691TMC3    C710225   1.402   1.383  15.557 -0.3611 -0.1143 -0.3017
  691TMC3    C810226   1.026   1.430  15.265  0.0357  0.4554 -0.6518
  691TMC3    O110227   1.502   1.444  15.578  0.4397  0.2476  0.5695
  691TMC3    O210228   0.974   1.426  15.156 -0.1902 -0.3930 -0.5692
  692TMC3    C110229   3.518   2.665  15.966 -0.2738  0.3775 -0.5383
  692TMC3    C210230   3.607   2.753  16.027  0.0471 -0.0882 -0.2331
  692TMC3    C310231   3.725   2.704  16.081 -0.2470 -0.0113  0.1585
  692TMC3    C410232   3.538   2.532  15.953  0.0086 -0.6138  0.2313
  692TMC3    C510233   3.644   2.483  16.022  0.6511 -0.0995 -0.2013
  692TMC3    C610234   3.739   2.564  16.076  0.1100 -0.2342  0.4943
  692TMC3     C10235   3.379   2.700  15.958  0.5576 -0.1338 -0.4668
  692TMC3     O10236   3.304   2.604  15.966 -0.2065 -0.1856 -0.0544
  692TMC3     H10237   3.564   2.846  16.061 -0.8182 -0.3781 -0.5235
  692TMC3    H110238   3.462   2.462  15.921 -1.0886  0.8257 -0.2771
  692TMC3    H210239   3.824   2.523  16.129 -0.6690 -0.0232  1.8903
  692TMC3    C710240   3.645   2.343  16.015 -0.2284  0.4640 -0.0032
  692TMC3    C810241   3.747   2.747  16.222 -0.2851  0.2328  0.2414
  692TMC3    O110242   3.598   2.287  15.917  0.1783  0.2119 -0.1910
  692TMC3    O210243   3.741   2.657  16.305 -0.2939 -0.1973  0.2893
  693MPD2     C10244   3.212   4.191  10.591  0.6268  0.6458 -0.3116
  693MPD2    C110245   3.213   4.326  10.569  0.3798 -0.5111 -0.9497
  693MPD2    C210246   3.328   4.398  10.591 -0.3750 -0.0498 -0.2777
  693MPD2    C310247   3.445   4.331  10.621  0.8078  0.1401  0.0706
  693MPD2    C410248   3.444   4.193  10.629 -0.2999 -0.0087 -0.4763
  693MPD2    C510249   3.326   4.123  10.622  0.7030  0.6557  0.5505
  693MPD2     H10250   3.330   4.505  10.573  0.9944  0.3266  2.0652
  693MPD2    H110251   3.538   4.142  10.644  0.5098  1.7720  0.4364
  693MPD2    H210252   3.133   4.127  10.553 -0.6476  1.8369  0.3427
  693MPD2    H310253   3.327   4.016  10.604  1.0190  0.6888  0.3680
  693MPD2     N10254   3.569   4.406  10.640  0.2549 -0.8766 -0.3510
  693MPD2    H510255   3.641   4.341  10.671  2.1067  0.9764 -0.7632
  693MPD2    N110256   3.085   4.391  10.537  0.6265 -0.3489 -0.7887
  693MPD2    H710257   3.001   4.334  10.534  0.8931 -0.8787  1.4818
  694TMC3    C110258   2.928   4.548  10.510  0.1702  0.1908  0.1259
  694TMC3    C210259   2.836   4.463  10.461  0.3410 -0.1670  0.0719
  694TMC3    C310260   2.706   4.493  10.483  0.3102  0.3570  0.5036
  694TMC3    C410261   2.888   4.670  10.559  0.6893  0.1904  0.3260
  694TMC3    C510262   2.752   4.703  10.573 -1.1402  0.0467 -0.3839
  694TMC3    C610263   2.661   4.613  10.543  0.2492 -0.2581  0.2065
  694TMC3     C10264   3.067   4.519  10.504 -0.1131  0.0474  0.0246
  694TMC3     O10265   3.147   4.615  10.500  0.2337  0.6180 -0.2901
  694TMC3     H10266   2.873   4.368  10.424  1.5153  1.1065 -1.9936
  694TMC3    H110267   2.958   0.026  10.595  1.4360  0.0791 -0.8756
  694TMC3    H210268   2.555   4.631  10.549  0.0126 -0.3349 -3.6298
  694TMC3    C710269   2.743   0.084  10.675  0.7727 -0.3073 -0.1361
  694TMC3    C810270   2.609   4.390  10.464  0.0136  0.1416  0.4845
  694TMC3    O110271   2.814   0.182  10.684  0.5426 -0.1436 -0.2035
  694TMC3    O210272   2.519   4.377  10.545  0.4222  0.0745  0.0366
  695MPD2     C10273   3.612   1.912  13.799 -0.5705 -0.3714  0.0980
  695MPD2    C110274   3.593   1.982  13.917 -0.5214 -0.3154  0.1410
  695MPD2    C210275   3.471   2.035  13.944 -0.2786  0.0676  0.0127
  695MPD2    C310276   3.362   2.020  13.861  0.3151  0.1044 -0.7019
  695MPD2    C410277   3.383   1.953  13.740 -0.1744 -0.6053  0.7111
  695MPD2    C510278   3.508   1.901  13.709 -0.2795  0.1536 -0.0297
  695MPD2     H10279   3.473   2.097  14.033  0.9317 -0.4533  0.3497
  695MPD2    H110280   3.301   1.942  13.670  0.2983  3.1471 -0.4335
  695MPD2    H210281   3.710   1.869  13.784 -1.3774 -1.3087 -2.4539
  695MPD2    H310282   3.532   1.860  13.612 -1.0141  0.3179 -0.2847
  695MPD2     N10283   3.240   2.088  13.893 -0.0457 -0.3206 -0.1280
  695MPD2    H510284   3.247   2.162  13.962  1.8433  2.4363 -3.2423
  695MPD2    N110285   3.696   2.021  14.006 -0.2920 -0.0684  1.2117
  695MPD2    H710286   3.662   2.077  14.083  1.0496 -1.4898  2.8209
  696TMC3    C110287   3.023   2.160  13.901  0.0706 -0.2633  0.1370
  696TMC3    C210288   3.027   2.176  14.037 -0.4698 -0.0665  0.5497
  696TMC3    C310289   2.929   2.257  14.098 -0.0005 -0.4508 -0.0533
  696TMC3    C410290   2.939   2.227  13.818  0.2005 -0.0476  0.2766
  696TMC3    C510291   2.845   2.304  13.876  0.0422  0.3807 -0.0364
  696TMC3    C610292   2.838   2.312  14.013 -0.5709 -0.1349 -0.2030
  696TMC3     C10293   3.119   2.081  13.831  0.3902  0.1263  0.4043
  696TMC3     O10294   3.096   2.033  13.720 -0.0281  0.2605  0.0702
  696TMC3     H10295   3.097   2.126  14.103 -0.9699  0.0296  1.1509
  696TMC3    H110296   2.941   2.206  13.712  0.6471 -0.9509  0.4626
  696TMC3    H210297   2.759   2.364  14.066  0.9968  1.2377  0.7597
  696TMC3    C710298   2.841   2.431  13.811  0.7670 -0.4891  0.0856
  696TMC3    C810299   2.982   2.355  14.183 -0.0373 -0.1567  0.4172
  696TMC3    O110300   2.858   2.427  13.689  0.3546 -0.2832 -0.2836
  696TMC3    O210301   2.956   2.469  14.157  0.5318 -0.0505  0.1234
  697MPD2     C10302   2.936   4.430  15.826  0.7728  0.2850  0.0242
  697MPD2    C110303   2.956   4.400  15.696 -0.3657  0.0055 -0.4160
  697MPD2    C210304   2.987   4.497  15.607  0.5148 -0.1631 -0.3272
  697MPD2    C310305   3.001   4.624  15.656 -0.5433 -0.7291  0.0862
  697MPD2    C410306   2.969   4.659  15.787  0.5742 -1.0381  0.0763
  697MPD2    C510307   2.936   4.561  15.870  0.1686 -0.6862  0.9626
  697MPD2     H10308   3.007   4.463  15.506 -0.0147  1.4932 -0.9778
  697MPD2    H110309   2.968   0.041  15.828  0.6760 -0.4039 -1.4507
  697MPD2    H210310   2.918   4.362  15.909 -0.5898  0.6849  0.0650
  697MPD2    H310311   2.916   4.586  15.974 -2.4900  1.0870  0.0233
  697MPD2     N10312   3.030   0.012  15.569  0.1363  0.3981  0.2154
  697MPD2    H510313   3.067   4.699  15.479 -1.8002  1.1954 -0.8641
  697MPD2    N110314   2.936   4.272  15.643 -0.1923  0.4967  0.1799
  697MPD2    H710315   2.948   4.270  15.542  1.0321 -2.3457  0.3641
  698TMC3    C110316   3.090   0.225  15.490  0.3120 -0.5040 -0.1594
  698TMC3    C210317   3.169   0.325  15.540 -0.1169  0.2983 -0.7197
  698TMC3    C310318   3.266   0.381  15.457 -0.1928  0.5499 -0.0110
  698TMC3    C410319   3.097   0.181  15.356  0.3325 -0.6164 -0.1851
  698TMC3    C510320   3.200   0.239  15.280  0.2507 -0.4608 -0.2875
  698TMC3    C610321   3.281   0.338  15.327 -0.0962  0.1181  0.6760
  698TMC3     C10322   3.015   0.148  15.589 -0.3671 -0.8592 -0.5876
  698TMC3     O10323   2.987   0.215  15.689 -0.4292 -0.1715 -0.1246
  698TMC3     H10324   3.167   0.345  15.647  0.1462 -1.8500 -0.3187
  698TMC3    H110325   3.031   0.101  15.323 -0.0227 -0.6676  0.6454
  698TMC3    H210326   3.337   0.395  15.253  2.4618  0.3567  2.7746
  698TMC3    C710327   3.226   0.167  15.159  0.9333  0.1990 -0.2542
  698TMC3    C810328   3.330   0.500  15.508 -0.3769  0.0881 -0.2740
  698TMC3    O110329   3.142   0.086  15.133 -0.3941 -0.0171  0.1752
  698TMC3    O210330   3.285   0.548  15.612 -0.4827  0.5251  0.4348
  699TMC3    C110331   3.602   1.694  13.384  0.0982  0.3329  0.2487
  699TMC3    C210332   3.671   1.656  13.494  0.3557  0.0548 -0.1581
  699TMC3    C310333   3.632   1.543  13.554 -0.2015  0.1875 -0.1125
  699TMC3    C410334   3.492   1.640  13.343 -0.3928  0.4345 -0.3636
  699TMC3    C510335   3.444   1.526  13.412 -0.2282 -0.5388  0.5119
  699TMC3    C610336   3.528   1.472  13.506  0.2760 -0.4028 -0.1243
  699TMC3     C10337   3.646   1.794  13.289 -0.0590 -0.2802 -0.3408
  699TMC3     O10338   3.601   1.768  13.177  0.4873  0.6643  0.7964
  699TMC3     H10339   3.736   1.727  13.543  0.2462  2.1847 -3.1310
  699TMC3    H110340   3.420   1.694  13.283  1.8889  2.1311 -1.5524
  699TMC3    H210341   3.510   1.377  13.555 -1.3559  0.8016  1.5875
  699TMC3    C710342   3.308   1.538  13.456  0.1162  0.1533 -0.0862
  699TMC3    C810343   3.636   1.540  13.696 -0.1225 -0.1320 -0.7301
  699TMC3    O110344   3.219   1.574  13.379  0.2670 -0.2543 -0.2064
  699TMC3    O210345   3.538   1.490  13.750  0.7915  0.1362 -0.3107
  700TMC3    C110346   2.360   0.293   0.232  0.3444  0.3660 -0.4635
  700TMC3    C210347   2.388   0.161   0.251 -0.5440 -0.0736  0.2776
  700TMC3    C310348   2.486   0.124   0.340  0.1587 -0.2225 -0.0481
  700TMC3    C410349   2.436   0.395   0.280 -0.1322  0.1341  0.2175
  700TMC3    C510350   2.534   0.354   0.375 -0.7568 -0.2217 -0.1886
  700TMC3    C610351   2.554   0.222   0.413 -0.0282 -0.4841  0.1381
  700TMC3     C10352   2.301   0.311   0.095 -0.5522 -0.0589  0.2958
  700TMC3     O10353   2.233   0.215   0.061  0.1386 -0.1977  0.0765
  700TMC3     H10354   2.324   0.080   0.214  0.3945 -1.0308  0.7540
  700TMC3    H110355   2.422   0.496   0.243 -1.3404  0.1687  0.7590
  700TMC3    H210356   2.632   0.182   0.477 -1.1028 -1.0728  1.0896
  700TMC3    C710357   2.614   0.460   0.432 -0.2579 -0.4423 -0.0714
  700TMC3    C810358   2.533   4.708   0.340  0.3404 -0.2439  0.1939
  700TMC3    O110359   2.595   0.572   0.390  0.1396  0.1842  0.2296
  700TMC3    O210360   2.544   4.653   0.232 -0.3917 -0.3480  0.5298
  701TMC3    C110361   2.202   3.649  15.712 -0.3864  0.0389 -0.1303
  701TMC3    C210362   2.218   3.593  15.586 -0.4878  0.0134  0.0667
  701TMC3    C310363   2.286   3.675  15.499 -1.0937  0.4535 -0.1902
  701TMC3    C410364   2.266   3.768  15.758  0.7987 -0.3455 -1.0652
  701TMC3    C510365   2.340   3.837  15.668  0.0101  0.2561  0.5849
  701TMC3    C610366   2.343   3.797  15.538  0.2518 -0.0344  0.5403
  701TMC3     C10367   2.130   3.577  15.820 -0.2026 -0.0599 -0.1592
  701TMC3     O10368   2.112   3.625  15.932 -0.2719 -0.3242 -0.1237
  701TMC3     H10369   2.158   3.511  15.549  1.0822 -0.5350 -1.2526
  701TMC3    H110370   2.276   3.785  15.864  0.6378  0.0619 -1.1156
  701TMC3    H210371   2.391   3.859  15.464  1.5548  0.7215  2.0251
  701TMC3    C710372   2.386   3.969  15.684  0.6719 -0.1983  0.1669
  701TMC3    C810373   2.325   3.624  15.367  0.9498  0.5791 -0.1183
  701TMC3    O110374   2.401   4.043  15.588  0.3802  0.4922  0.1169
  701TMC3    O210375   2.423   3.670  15.310 -0.0020 -0.7421 -0.0759
  702MPD2     C10376   2.462   0.766  10.455  0.0558 -0.1393 -0.3412
  702MPD2    C110377   2.385   0.884  10.438  0.3327  0.0455 -0.1752
  702MPD2    C210378   2.420   0.977  10.343 -1.4659 -1.1910  0.1491
  702MPD2    C310379   2.522   0.951  10.254 -0.1526 -0.2895  0.6356
  702MPD2    C410380   2.594   0.833  10.266  0.5664  0.6879 -0.2118
  702MPD2    C510381   2.559   0.743  10.362  0.1175 -1.3687 -0.8091
  702MPD2     H10382   2.372   1.075  10.343 -0.3149 -0.6329  1.1042
  702MPD2    H110383   2.678   0.809  10.203  0.9884  1.1906  0.1619
  702MPD2    H210384   2.441   0.689  10.528 -1.2431 -1.1536 -1.7842
  702MPD2    H310385   2.599   0.642  10.365 -0.7821 -1.7266 -0.7821
  702MPD2     N10386   2.565   1.048  10.159  0.0825  0.1594  0.2136
  702MPD2    H510387   2.661   1.039  10.125  0.4197 -0.9712  1.4405
  702MPD2    N110388   2.277   0.924  10.514 -0.1448  0.4453 -0.0564
  702MPD2    H710389   2.237   1.015  10.491 -2.5671 -0.1753  1.6570
  703TMC3    C110390   2.553   1.259  10.045 -0.2532 -0.7972 -0.4206
  703TMC3    C210391   2.465   1.341   9.974 -0.1272  0.1241 -0.6025
  703TMC3    C310392   2.520   1.433   9.884  0.3103  0.4661 -0.5771
  703TMC3    C410393   2.687   1.280  10.038 -0.0721 -0.3759  0.4182
  703TMC3    C510394   2.736   1.382   9.960 -0.1827  0.3364  0.3336
  703TMC3    C610395   2.654   1.450   9.878 -0.6658  0.1824 -0.3203
  703TMC3     C10396   2.490   1.154  10.127  0.3947  0.2414  0.1065
  703TMC3     O10397   2.368   1.170  10.132 -0.3525  0.3839 -0.0771
  703TMC3     H10398   2.360   1.315   9.971 -0.2967  0.8571 -0.9736
  703TMC3    H110399   2.751   1.221  10.102  1.7947 -0.7063 -1.7530
  703TMC3    H210400   2.699   1.522   9.809 -0.9950 -0.2528 -0.9887
  703TMC3    C710401   2.865   1.445   9.988  0.6504 -0.3508 -0.1716
  703TMC3    C810402   2.446   1.547   9.834 -0.0725  0.1610  0.1968
  703TMC3    O110403   2.886   1.557   9.943  0.2495 -0.1146 -0.1982
  703TMC3    O210404   2.517   1.623   9.772 -0.1508  0.3066 -0.5036
  704TMC3    C110405   4.116   4.131  12.196 -0.0898  0.9515  0.2915
  704TMC3    C210406   4.249   4.129  12.223  0.1372 -0.7413  0.1372
  704TMC3    C310407   4.303   4.026  12.295 -0.0754  0.2956 -0.3482
  704TMC3    C410408   4.044   4.023  12.234 -0.1798 -0.3240  0.7032
  704TMC3    C510409   4.094   3.921  12.294  0.2897 -0.0456  0.1098
  704TMC3    C610410   4.227   3.914  12.324 -0.0181 -0.6441 -0.3293
  704TMC3     C10411   4.078   4.191  12.071  0.2261  0.2353 -0.6848
  704TMC3     O10412   3.959   4.225  12.052  0.0739  0.0482  0.8870
  704TMC3     H10413   4.312   4.215  12.204  0.7453 -1.2078  0.0360
  704TMC3    H110414   3.954   4.001  12.178  0.6156 -2.6815  0.3459
  704TMC3    H210415   4.267   3.824  12.368 -2.1386 -1.3686  0.1403
  704TMC3    C710416   4.032   3.791  12.269 -0.1950 -0.5136  1.0696
  704TMC3    C810417   4.443   4.018  12.304  0.0389  0.3598 -0.4090
  704TMC3    O110418   3.912   3.779  12.280  0.1031  0.0495 -0.0042
  704TMC3    O210419   4.508   4.081  12.219  0.4564 -0.0442  0.4639
  705MPD2     C10420   3.793   3.110  16.965  0.0542 -0.3991  0.1343
  705MPD2    C110421   3.766   2.983  16.923  0.2534  0.5759  0.2965
  705MPD2    C210422   3.670   2.907  16.993 -0.4424 -0.1503  0.0336
  705MPD2    C310423   3.608   2.968  17.101  0.0586 -0.2154 -0.0290
  705MPD2    C410424   3.637   3.095  17.138  0.6356  0.2814 -0.4464
  705MPD2    C510425   3.740   3.162  17.083  0.3254  0.0804 -0.1598
  705MPD2     H10426   3.657   2.802  16.968  0.0442 -0.1805 -0.1113
  705MPD2    H110427   3.592   3.131  17.229 -0.2319  0.8063 -1.0812
  705MPD2    H210428   3.869   3.174  16.922 -0.7233  1.9413  2.2727
  705MPD2    H310429   3.776   3.259  17.116 -1.3417  1.4130 -2.2698
  705MPD2     N10430   3.515   2.900  17.182 -0.8438  0.8731 -0.3096
  705MPD2    H510431   3.466   2.952  17.254 -1.1004 -1.1165  0.9388
  705MPD2    N110432   3.841   2.938  16.818  1.1162 -0.0070  0.5546
  705MPD2    H710433   3.910   2.998  16.774  1.0050  0.6761  1.3142
  706TMC3    C110434   4.041   2.626  16.526 -0.4759  0.3593  0.0060
  706TMC3    C210435   4.072   2.722  16.429  0.3019  0.2907  0.1977
  706TMC3    C310436   4.033   2.852  16.459 -1.1886  0.9452 -1.2420
  706TMC3    C410437   3.983   2.655  16.649 -0.0853  0.4151  0.0709
  706TMC3    C510438   3.947   2.786  16.666 -0.6756 -1.3014  0.0835
  706TMC3    C610439   3.967   2.886  16.573  0.4459 -0.7581 -0.8947
  706TMC3     C10440   4.067   2.481  16.513 -0.0966  0.5503 -1.0095
  706TMC3     O10441   4.096   2.424  16.617  0.2240 -0.0420  0.5092
  706TMC3     H10442   4.103   2.706  16.326 -0.0484 -1.9275  0.4323
  706TMC3    H110443   3.965   2.583  16.728 -1.6031  0.2930 -0.3919
  706TMC3    H210444   3.920   2.983  16.586  1.1258 -0.5777  0.1945
  706TMC3    C710445   3.852   2.806  16.775  0.5443  0.1216 -0.3831
  706TMC3    C810446   4.062   2.963  16.367 -0.2600 -0.3443  0.5328
  706TMC3    O110447   3.793   2.707  16.819 -0.0128  0.1448  0.5374
  706TMC3    O210448   4.028   3.076  16.401 -0.3399 -0.1417  0.4764
  707TMC3    C110449   1.268   1.273   1.662 -0.0486  0.2634 -0.5281
  707TMC3    C210450   1.296   1.188   1.766  0.8474  0.4998 -0.5019
  707TMC3    C310451   1.192   1.111   1.820 -0.2978 -0.2072  0.6937
  707TMC3    C410452   1.144   1.282   1.601  0.0397  0.5945 -0.1590
  707TMC3    C510453   1.042   1.205   1.658 -0.1808  0.0090  0.5064
  707TMC3    C610454   1.061   1.131   1.778  0.4834  0.2120 -0.1467
  707TMC3     C10455   1.382   1.301   1.579  0.1688  0.0483 -0.3014
  707TMC3     O10456   1.485   1.251   1.624  0.0680 -0.6024 -0.7935
  707TMC3     H10457   1.397   1.181   1.805  0.9581  0.6586 -0.7569
  707TMC3    H110458   1.127   1.345   1.514  2.1405 -1.8159 -2.3374
  707TMC3    H210459   0.991   1.069   1.833 -0.5816 -1.2582 -3.1800
  707TMC3    C710460   0.911   1.221   1.591  0.1151 -0.9044  0.4217
  707TMC3    C810461   1.230   1.036   1.936 -0.0381  0.3697  0.2017
  707TMC3    O110462   0.893   1.330   1.542  0.5804  0.4050  0.0864
  707TMC3    O210463   1.172   1.055   2.043  0.0375 -0.0001 -0.2564
  708MPD2     C10464   2.024   0.455  14.488  0.5774  0.6893 -0.3369
  708MPD2    C110465   1.914   0.514  14.521  0.2640  0.2326 -0.2370
  708MPD2    C210466   1.843   0.493  14.639 -0.1886  0.3455 -0.2096
  708MPD2    C310467   1.896   0.411  14.737 -0.1448  0.5593 -0.8114
  708MPD2    C410468   2.023   0.357  14.710  0.2467 -0.4176 -0.3677
  708MPD2    C510469   2.076   0.375  14.581  0.0353  0.8263 -0.3157
  708MPD2     H10470   1.740   0.526  14.636  0.0066  0.8131 -1.7381
  708MPD2    H110471   2.081   0.313  14.789 -0.8079 -0.2228  0.5151
  708MPD2    H210472   2.083   0.484  14.402 -2.3523 -2.0557 -3.2557
  708MPD2    H310473   2.177   0.338  14.567 -0.2303  1.4425 -3.8081
  708MPD2     N10474   1.837   0.380  14.861 -0.3589 -0.0371  0.0613
  708MPD2    H510475   1.897   0.342  14.933 -1.1842 -0.4806  0.5152
  708MPD2    N110476   1.857   0.593  14.414  0.5456 -0.6478 -0.6268
  708MPD2    H710477   1.896   0.584  14.320 -1.5865  0.3026 -1.6020
  709TMC3    C110478   1.692   0.723  14.302 -0.0018 -0.5823  0.2327
  709TMC3    C210479   1.657   0.625  14.220 -0.5920 -0.0772  0.2614
  709TMC3    C310480   1.528   0.640  14.179 -0.1331 -0.3806  0.0324
  709TMC3    C410481   1.615   0.839  14.321 -0.0144  0.1131 -0.6221
  709TMC3    C510482   1.484   0.849  14.284 -0.6645  0.0150  0.2468
  709TMC3    C610483   1.447   0.747  14.203 -1.1525 -1.0313  0.5881
  709TMC3     C10484   1.742   0.669  14.428 -0.3777  0.1706  0.7980
  709TMC3     O10485   1.682   0.708  14.525  0.0397 -0.6044  0.2563
  709TMC3     H10486   1.709   0.531  14.206 -1.0519 -0.2106 -0.6009
  709TMC3    H110487   1.656   0.909  14.393  1.3205  0.1615 -1.4235
  709TMC3    H210488   1.345   0.753  14.168 -0.7626 -2.0238 -0.7053
  709TMC3    C710489   1.393   0.879  14.390 -0.4211 -0.1196  1.3733
  709TMC3    C810490   1.476   0.545  14.083 -0.1420  0.6863 -0.0597
  709TMC3    O110491   1.285   0.931  14.373 -0.3005  0.8588 -0.0277
  709TMC3    O210492   1.355   0.528  14.085 -0.0319  0.3159  0.1763
  710TMC3    C110493   3.059   1.725   0.717 -0.0321 -0.4287  0.6859
  710TMC3    C210494   3.109   1.734   0.592  0.2255  0.0317 -0.6356
  710TMC3    C310495   3.245   1.712   0.576  0.3921  0.0165  0.0386
  710TMC3    C410496   3.143   1.708   0.831 -0.2540  0.4582 -0.4757
  710TMC3    C510497   3.278   1.699   0.809  0.1539  0.1543 -0.1799
  710TMC3    C610498   3.322   1.679   0.680  0.3472 -0.0011 -0.7828
  710TMC3     C10499   2.925   1.786   0.736 -0.4469  0.4769  0.0277
  710TMC3     O10500   2.863   1.792   0.634 -0.0515  1.2052 -0.4782
  710TMC3     H10501   3.041   1.762   0.512 -0.2512  2.9170  0.7846
  710TMC3    H110502   3.105   1.703   0.932 -0.7070  1.0952 -0.6136
  710TMC3    H210503   3.424   1.651   0.656  0.5315 -1.7583  1.9935
  710TMC3    C710504   3.363   1.677   0.923  0.1721 -0.0422 -0.7500
  710TMC3    C810505   3.321   1.776   0.466  0.3453  0.0004  0.2934
  710TMC3    O110506   3.305   1.632   1.024  0.4524 -0.3151 -0.0461
  710TMC3    O210507   3.441   1.760   0.466 -0.0888  0.0917 -0.3372
  711TMC3    C110508   2.968   3.279  15.044  0.7381  0.8274  0.5283
  711TMC3    C210509   2.972   3.369  15.152 -1.0958  0.4457 -0.0910
  711TMC3    C310510   3.071   3.352  15.246  0.1726  0.3014 -0.2699
  711TMC3    C410511   3.062   3.182  15.021  0.0625  0.3195 -0.4148
  711TMC3    C510512   3.153   3.168  15.116  0.1821 -0.2569  0.3311
  711TMC3    C610513   3.163   3.248  15.227 -0.0093  0.4828  0.0723
  711TMC3     C10514   2.845   3.252  14.990  0.2051  0.2000  0.5405
  711TMC3     O10515   2.833   3.221  14.873  0.3097  0.0137  0.3377
  711TMC3     H10516   2.899   3.446  15.178 -1.9959 -0.1778 -0.7467
  711TMC3    H110517   3.053   3.118  14.935 -0.0217 -0.3210  0.0739
  711TMC3    H210518   3.242   3.228  15.298 -0.0820  0.3298  0.1097
  711TMC3    C710519   3.209   3.041  15.142 -0.2082 -0.7436  0.2272
  711TMC3    C810520   3.082   3.439  15.366 -0.9204 -0.4049 -0.5523
  711TMC3    O110521   3.293   3.034  15.228 -0.6827 -0.5592  0.9326
  711TMC3    O210522   2.984   3.489  15.419 -0.3842 -0.1245 -0.3633
  712MPD2     C10523   4.714   4.395  13.667  0.0503  0.3167  0.3206
  712MPD2    C110524   4.605   4.443  13.602  0.3745 -0.0661  0.5134
  712MPD2    C210525   4.607   4.549  13.518  0.9479  0.3544  0.1454
  712MPD2    C310526   0.014   4.609  13.490 -0.5725  0.4580  0.2404
  712MPD2    C410527   0.129   4.554  13.546  0.5079  0.2233  0.7653
  712MPD2    C510528   0.122   4.446  13.628 -0.2005  0.3645  0.8592
  712MPD2     H10529   4.518   4.585  13.468  2.0136 -1.2488 -2.9279
  712MPD2    H110530   0.227   4.585  13.512  0.4524  0.1099  0.5015
  712MPD2    H210531   4.713   4.300  13.719 -3.5216 -0.8038 -1.8377
  712MPD2    H310532   0.213   4.394  13.655  1.6927  2.5880 -1.3000
  712MPD2     N10533   0.029   4.715  13.396 -1.0953 -0.3064 -0.1482
  712MPD2    H510534   0.123   0.032  13.383 -0.8888 -0.6703  0.3523
  712MPD2    N110535   4.484   4.385  13.627  0.1130 -0.1075  0.3522
  712MPD2    H710536   4.410   4.417  13.566 -0.0461  0.3769  0.7927
  713TMC3    C110537   4.684   0.186  13.262 -0.4814 -0.3333 -0.6592
  713TMC3    C210538   0.081   0.202  13.181  0.4443  0.3474 -0.2487
  713TMC3    C310539   0.088   0.302  13.084 -0.0181  0.3859 -0.2465
  713TMC3    C410540   4.578   0.259  13.221  0.6442  0.3794 -0.0850
  713TMC3    C510541   4.581   0.355  13.122  0.2185  0.6643  0.0688
  713TMC3    C610542   4.696   0.385  13.062  0.4054  0.7423 -0.1500
  713TMC3     C10543   4.645   0.062  13.327  0.1874 -0.8440 -0.5900
  713TMC3     O10544   4.521   0.043  13.331 -0.5470  0.5347 -0.0306
  713TMC3     H10545   0.164   0.138  13.206  0.3185  0.4155  0.3494
  713TMC3    H110546   4.485   0.254  13.275  1.0244  0.2497  0.5549
  713TMC3    H210547   4.704   0.453  12.978  0.2187  1.1001  0.1180
  713TMC3    C710548   4.494   0.470  13.157  0.3420 -0.7182  0.4483
  713TMC3    C810549   0.206   0.381  13.091  0.2489  0.1286  0.0120
  713TMC3    O110550   4.543   0.578  13.186  0.0691 -1.1022  0.2528
  713TMC3    O210551   0.221   0.480  13.020 -0.2690  0.2394  0.0579
  714MPD2     C10552   1.687   2.948   1.929  0.7166 -0.9594  0.6980
  714MPD2    C110553   1.706   2.893   1.804  0.3603  0.0778 -0.3138
  714MPD2    C210554   1.603   2.907   1.711  0.1510  0.1708  0.5498
  714MPD2    C310555   1.494   2.986   1.739 -0.0353  0.5401  0.0733
  714MPD2    C410556   1.487   3.056   1.853  0.0519 -0.5068  0.0305
  714MPD2    C510557   1.582   3.028   1.952 -0.3076 -0.3395  0.7624
  714MPD2     H10558   1.600   2.843   1.623 -0.1241  1.3289 -0.2797
  714MPD2    H110559   1.405   3.124   1.875 -0.2957 -1.5965  2.0847
  714MPD2    H210560   1.763   2.932   2.004 -1.6410  1.5046  3.6157
  714MPD2    H310561   1.583   3.071   2.052  1.4456  0.4376  0.4167
  714MPD2     N10562   1.403   2.997   1.631 -0.2673  1.0401 -0.2436
  714MPD2    H510563   1.410   2.942   1.546 -3.3986 -2.3023  1.6602
  714MPD2    N110564   1.832   2.834   1.784 -0.3826  0.6226 -0.0187
  714MPD2    H710565   1.900   2.842   1.858 -0.4709 -0.3524  0.1680
  715TMC3    C110566   2.021   2.748   1.683  0.4380  0.0728 -0.2152
  715TMC3    C210567   2.072   2.652   1.596  0.1729 -0.4692 -0.2931
  715TMC3    C310568   2.207   2.626   1.601  0.5753 -0.3382  0.5343
  715TMC3    C410569   2.102   2.816   1.775 -0.0120 -0.4101  0.7068
  715TMC3    C510570   2.235   2.787   1.776  0.6236  0.0385  0.5580
  715TMC3    C610571   2.293   2.693   1.684  1.0539  0.1495 -0.0752
  715TMC3     C10572   1.880   2.767   1.672  0.2632  0.1298  0.0072
  715TMC3     O10573   1.823   2.737   1.570 -0.6579  0.5604  0.2061
  715TMC3     H10574   2.005   2.612   1.520  2.1513 -1.7293 -1.3593
  715TMC3    H110575   2.070   2.893   1.844 -1.9858  0.5609 -1.3132
  715TMC3    H210576   2.397   2.666   1.692  0.6945 -0.7469  1.4413
  715TMC3    C710577   2.317   2.809   1.897  0.0231  0.5911 -0.4976
  715TMC3    C810578   2.256   2.512   1.520 -0.1668 -0.1085 -0.3112
  715TMC3    O110579   2.435   2.800   1.876  0.3794  0.2523  0.0741
  715TMC3    O210580   2.206   2.480   1.413 -0.0837  0.2025  0.2277
  716MPD2     C10581   2.584   1.269   9.528 -0.0268  0.2125  0.2767
  716MPD2    C110582   2.515   1.146   9.526  0.0102  0.3835 -0.3755
  716MPD2    C210583   2.562   1.043   9.606 -0.2735  0.2761  0.3623
  716MPD2    C310584   2.685   1.058   9.677  0.5473  0.0175  0.1670
  716MPD2    C410585   2.743   1.185   9.686  0.0330  0.4867 -0.0612
  716MPD2    C510586   2.695   1.286   9.603  0.1580 -0.2351  0.1834
  716MPD2     H10587   2.510   0.949   9.591 -1.1417  0.8517 -0.2517
  716MPD2    H110588   2.848   1.199   9.713  0.5813  2.3316 -3.1367
  716MPD2    H210589   2.553   1.355   9.470 -1.4073 -1.2738 -1.2060
  716MPD2    H310590   2.743   1.382   9.601 -0.7983  0.3017  3.3529
  716MPD2     N10591   2.747   0.945   9.739  0.0707 -0.4051 -0.2228
  716MPD2    H510592   2.711   0.852   9.717  1.0113 -0.9200  0.4266
  716MPD2    N110593   2.398   1.130   9.447 -0.2895 -0.2567 -0.3140
  716MPD2    H710594   2.367   1.215   9.400 -0.5824 -0.2613 -0.1307
  717TMC3    C110595   2.903   0.818   9.856  0.6525 -0.2504  0.1277
  717TMC3    C210596   2.826   0.711   9.851  0.6357 -0.2496  1.0987
  717TMC3    C310597   2.887   0.590   9.861  0.1798 -0.1782 -0.3749
  717TMC3    C410598   3.042   0.810   9.853  0.2678  0.3838 -0.8400
  717TMC3    C510599   3.100   0.687   9.857  0.6674 -0.5823  0.7504
  717TMC3    C610600   3.021   0.576   9.862 -0.1583  0.6302  0.5634
  717TMC3     C10601   2.854   0.949   9.825 -0.0345 -0.7831 -0.4443
  717TMC3     O10602   2.926   1.041   9.863  0.1516  0.0133  0.4763
  717TMC3     H10603   2.719   0.726   9.855  0.2833 -2.1573 -1.4700
  717TMC3    H110604   3.103   0.897   9.830 -0.1810  1.4300  1.9406
  717TMC3    H210605   3.067   0.478   9.859 -0.9998  0.1980  1.8434
  717TMC3    C710606   3.243   0.663   9.888 -1.0316  0.0797 -0.1234
  717TMC3    C810607   2.802   0.475   9.832  0.2057  0.0513  0.3837
  717TMC3    O110608   3.285   0.545   9.912  0.1193  0.2918 -0.8542
  717TMC3    O210609   2.701   0.491   9.765 -0.1549 -0.0622 -1.2495
  718MPD2     C10610   1.529   4.235  13.109 -0.1397  0.1342  0.1332
  718MPD2    C110611   1.588   4.115  13.104  0.3114 -0.0556 -0.6129
  718MPD2    C210612   1.547   4.017  13.193 -0.1120  0.1510  0.8295
  718MPD2    C310613   1.420   4.028  13.248  0.1068 -0.0846  0.3898
  718MPD2    C410614   1.355   4.147  13.243  0.1533 -0.1254  0.3207
  718MPD2    C510615   1.413   4.255  13.181 -0.0518 -0.3603 -0.1706
  718MPD2     H10616   1.601   3.924  13.205 -1.9376 -1.0463 -0.0915
  718MPD2    H110617   1.259   4.163  13.290  1.2008  0.9142  2.0942
  718MPD2    H210618   1.567   4.318  13.049  0.1032 -0.0655  0.0152
  718MPD2    H310619   1.355   4.347  13.184 -0.0246 -0.3430 -0.1773
  718MPD2     N10620   1.366   3.905  13.293  0.2180 -0.4717 -0.4347
  718MPD2    H510621   1.416   3.817  13.291 -2.0115 -1.7270 -1.1066
  718MPD2    N110622   1.689   4.080  13.011  0.2675 -0.4412  0.4815
  718MPD2    H710623   1.733   3.988  13.017  1.6642  0.0527 -2.3246
  719TMC3    C110624   1.807   4.098  12.801  0.2294  0.1275 -0.1528
  719TMC3    C210625   1.804   3.965  12.804  0.1918 -0.8412  0.1725
  719TMC3    C310626   1.787   3.899  12.684  0.0304  0.4446 -0.1148
  719TMC3    C410627   1.793   4.166  12.684 -0.1248  0.3796  0.0298
  719TMC3    C510628   1.768   4.098  12.571 -0.3122  0.2405 -0.0141
  719TMC3    C610629   1.765   3.962  12.564  0.0995 -0.1663 -0.6640
  719TMC3     C10630   1.732   4.163  12.907 -0.4627  0.7087 -0.1514
  719TMC3     O10631   1.676   4.269  12.874 -0.3923 -0.0263  0.1766
  719TMC3     H10632   1.824   3.908  12.894  0.8717  0.9486  1.1487
  719TMC3    H110633   1.815   4.272  12.674  0.7822  0.0206 -1.6900
  719TMC3    H210634   1.735   3.901  12.479  0.4717 -0.4491 -0.5908
  719TMC3    C710635   1.747   4.168  12.441 -0.3928  0.0220  0.1938
  719TMC3    C810636   1.752   3.764  12.697  0.5213 -0.2656  0.0973
  719TMC3    O110637   1.790   4.282  12.432  0.4723 -0.3338  0.3877
  719TMC3    O210638   1.775   3.687  12.604 -0.4395  0.3719 -0.1923
  720MPD2     C10639   4.251   1.417  13.925  0.3599 -0.7286 -0.1780
  720MPD2    C110640   4.369   1.391  13.856  0.2911 -0.8562 -0.4219
  720MPD2    C210641   4.475   1.334  13.927 -0.5352 -0.2234 -0.3115
  720MPD2    C310642   4.471   1.309  14.065 -1.0910 -0.6509 -0.1564
  720MPD2    C410643   4.356   1.327  14.132  0.2821 -0.2388  0.1824
  720MPD2    C510644   4.253   1.379  14.058  0.1309 -1.0703 -0.4909
  720MPD2     H10645   4.568   1.323  13.872  0.7954 -1.4785  2.1879
  720MPD2    H110646   4.336   1.295  14.234  3.7144 -1.0305  0.5844
  720MPD2    H210647   4.153   1.440  13.884 -0.1964 -0.1183  1.4953
  720MPD2    H310648   4.156   1.386  14.106  0.7161 -0.2995  0.5725
  720MPD2     N10649   4.587   1.260  14.132  0.4068  0.2592 -0.4357
  720MPD2    H510650   4.665   1.253  14.068  3.0313  1.1233  2.6771
  720MPD2    N110651   4.391   1.447  13.726  0.0760 -0.1650 -0.5121
  720MPD2    H710652   4.470   1.402  13.680  0.6677  0.8339 -0.4711
  721TMC3    C110653   0.028   1.255  14.297 -0.4847 -0.1233 -0.4896
  721TMC3    C210654   0.065   1.215  14.427 -0.0411 -0.0912  0.1125
  721TMC3    C310655   0.186   1.252  14.467 -0.1915  0.2842 -0.0212
  721TMC3    C410656   0.113   1.313  14.207 -0.7629 -0.0012 -0.2431
  721TMC3    C510657   0.235   1.342  14.256 -0.5893  0.4240  0.0054
  721TMC3    C610658   0.273   1.315  14.382 -0.8229 -0.0372  0.3464
  721TMC3     C10659   4.608   1.264  14.266  0.8750  0.5203 -0.7997
  721TMC3     O10660   4.531   1.254  14.357 -0.1758  0.3164 -0.2018
  721TMC3     H10661   4.703   1.181  14.491 -0.4011  1.1263  0.3067
  721TMC3    H110662   0.089   1.337  14.104 -0.4910 -1.0251 -0.5415
  721TMC3    H210663   0.370   1.346  14.418 -0.5908 -0.2427 -0.1029
  721TMC3    C710664   0.351   1.367  14.163 -0.3079  0.1246 -0.0772
  721TMC3    C810665   0.232   1.213  14.604  1.0432  0.2962  0.0900
  721TMC3    O110666   0.455   1.376  14.226 -0.9331  1.3151  0.8810
  721TMC3    O210667   0.344   1.248  14.635  0.6629 -0.1013 -0.1497
  722MPD2     C10668   3.419   4.638  13.103  0.5877 -0.2509 -0.3199
  722MPD2    C110669   3.355   0.038  13.131 -0.3877 -0.1802  0.0135
  722MPD2    C210670   3.218   0.052  13.124  0.0698 -0.2416  0.0801
  722MPD2    C310671   3.139   4.653  13.094 -0.2545  0.2616  0.0246
  722MPD2    C410672   3.207   4.538  13.058 -0.0435  0.0993  0.6054
  722MPD2    C510673   3.340   4.537  13.066 -0.2664  0.0534 -0.1377
  722MPD2     H10674   3.178   0.146  13.160  0.0614  0.3745 -1.5385
  722MPD2    H110675   3.156   4.448  13.028 -1.2872  0.6353  1.0721
  722MPD2    H210676   3.527   4.629  13.100  0.4915 -2.3329  1.5397
  722MPD2    H310677   3.394   4.446  13.043 -2.2174 -1.1184 -0.1351
  722MPD2     N10678   2.999   4.665  13.101  0.5105  0.6298  0.9137
  722MPD2    H510679   2.965   0.035  13.138 -0.7441  0.3346  0.4768
  722MPD2    N110680   3.418   0.162  13.164 -0.0363  0.3458  0.3387
  722MPD2    H710681   3.362   0.242  13.192 -1.1000  0.4741 -2.2009
  723TMC3    C110682   2.766   4.606  13.121  0.1896  0.0577 -0.4219
  723TMC3    C210683   2.666   4.528  13.074  0.4090 -0.4214 -0.1996
  723TMC3    C310684   2.547   4.537  13.128 -0.8597 -0.4112 -0.1940
  723TMC3    C410685   2.748   4.700  13.220 -0.0163  0.8340  0.7201
  723TMC3    C510686   2.621   4.717  13.261 -0.2634  0.2872 -0.5043
  723TMC3    C610687   2.516   4.634  13.214 -0.1574  0.4539 -0.0411
  723TMC3     C10688   2.905   4.565  13.085 -0.7054  0.4179  0.4286
  723TMC3     O10689   2.917   4.450  13.040 -0.0707 -0.0606 -0.0047
  723TMC3     H10690   2.695   4.464  12.991  1.1504  0.3144 -0.5188
  723TMC3    H110691   2.824   0.044  13.267 -0.3584  0.9499  1.1120
  723TMC3    H210692   2.415   4.646  13.252  0.3007 -0.6401  1.5130
  723TMC3    C710693   2.598   0.094  13.369 -0.1343  0.0470 -0.0891
  723TMC3    C810694   2.465   4.419  13.137 -0.4015 -0.1504  1.0080
  723TMC3    O110695   2.689   0.165  13.401 -0.3521  0.2869  0.1719
  723TMC3    O210696   2.398   4.408  13.241  0.4218 -0.0184  0.7857
  724TMC3    C110697   3.635   2.380   9.935 -0.0448  0.9611 -0.3886
  724TMC3    C210698   3.688   2.419  10.050 -0.4917 -0.0444  0.3374
  724TMC3    C310699   3.771   2.526  10.062  0.2645  0.0328 -0.0908
  724TMC3    C410700   3.656   2.461   9.822 -0.2330  0.2607  0.4624
  724TMC3    C510701   3.744   2.561   9.834  0.0083 -0.4581  0.3946
  724TMC3    C610702   3.813   2.594   9.952 -0.1432 -0.6750  0.1257
  724TMC3     C10703   3.577   2.246   9.917  0.3066 -0.3041 -0.1855
  724TMC3     O10704   3.489   2.244   9.829 -0.3257  0.0264  0.1453
  724TMC3     H10705   3.642   2.380  10.140  0.9168 -0.5901  0.8128
  724TMC3    H110706   3.608   2.427   9.731  2.0301 -0.3416 -0.4992
  724TMC3    H210707   3.864   2.689   9.962 -0.0086 -0.7499  0.1591
  724TMC3    C710708   3.763   2.648   9.720 -0.4695  0.0954 -0.3275
  724TMC3    C810709   3.835   2.549  10.199 -0.4770  0.0433  0.6383
  724TMC3    O110710   3.857   2.727   9.723 -0.0715 -0.2303 -0.1835
  724TMC3    O210711   3.785   2.484  10.291  0.0887  0.5489 -0.4967
  725TMC3    C110712   4.706   1.779  12.512 -0.0169  0.0400  0.7530
  725TMC3    C210713   4.677   1.762  12.376 -0.0372  0.1616  0.2220
  725TMC3    C310714   4.621   1.641  12.339  0.2335 -0.1734  0.4941
  725TMC3    C410715   4.667   1.687  12.608  0.7936 -0.4881  0.2347
  725TMC3    C510716   4.598   1.576  12.562  0.3415  0.0336 -0.3537
  725TMC3    C610717   4.570   1.548  12.429  0.3532 -0.2206  0.2707
  725TMC3     C10718   0.071   1.892  12.548  0.5529  0.3427  0.2358
  725TMC3     O10719   0.079   1.984  12.470 -0.6285  0.3211 -0.4153
  725TMC3     H10720   0.016   1.824  12.308 -0.0649 -0.0349  0.0205
  725TMC3    H110721   4.695   1.695  12.712 -1.6569  4.2940  0.5524
  725TMC3    H210722   4.530   1.453  12.394 -3.2723  0.2054  3.2686
  725TMC3    C710723   4.628   1.460  12.640  0.3499 -0.3085  0.7943
  725TMC3    C810724   4.703   1.582  12.242  1.0819 -0.0855  0.4267
  725TMC3    O110725   0.018   1.451  12.706 -0.3378  0.5954 -0.3693
  725TMC3    O210726   0.023   1.468  12.269  0.0965  0.1224  0.6499
  726MPD2     C10727   3.119   3.306  10.703  0.1579  0.5194 -0.3329
  726MPD2    C110728   3.090   3.234  10.590  0.0517 -0.8502 -0.1738
  726MPD2    C210729   3.028   3.112  10.605 -0.1529 -0.1491 -0.2665
  726MPD2    C310730   3.000   3.067  10.735  0.3065 -0.3604  0.5734
  726MPD2    C410731   3.051   3.126  10.841 -0.4927 -0.2108  0.3936
  726MPD2    C510732   3.110   3.250  10.828  0.0248 -0.2856  0.2378
  726MPD2     H10733   2.993   3.054  10.520 -1.9404  1.0724 -0.3476
  726MPD2    H110734   3.040   3.089  10.942 -0.1583  1.3926  1.0284
  726MPD2    H210735   3.163   3.404  10.701 -1.1242  1.1374  1.4159
  726MPD2    H310736   3.148   3.301  10.916  1.5828  0.3878 -0.8347
  726MPD2     N10737   2.923   2.952  10.754  0.3930  0.7137  0.3943
  726MPD2    H510738   2.919   2.914  10.848 -0.2059 -0.3415 -0.0515
  726MPD2    N110739   3.114   3.275  10.458  0.3201  0.6311 -0.7499
  726MPD2    H710740   3.084   3.211  10.385 -0.8968 -0.1506  0.4543
  727TMC3    C110741   3.167   3.427  10.282 -0.0534 -0.8462 -0.7155
  727TMC3    C210742   3.204   3.553  10.239  0.4750  0.2700 -0.2607
  727TMC3    C310743   3.190   3.592  10.106  0.0798  0.6236  0.0523
  727TMC3    C410744   3.118   3.345  10.181 -0.7950 -0.0729  0.0721
  727TMC3    C510745   3.101   3.388  10.054 -1.1328  0.3277 -0.0739
  727TMC3    C610746   3.134   3.514  10.009 -0.2211 -0.2905 -0.5875
  727TMC3     C10747   3.181   3.394  10.423  0.2159 -0.6241  1.1980
  727TMC3     O10748   3.244   3.478  10.486 -0.0659 -0.2745 -0.2685
  727TMC3     H10749   3.232   3.618  10.321  2.1528 -1.3637  0.4595
  727TMC3    H110750   3.096   3.241  10.200 -0.2091 -0.2120 -0.0222
  727TMC3    H210751   3.138   3.540   9.903  0.3964 -1.5664 -0.8751
  727TMC3    C710752   3.044   3.301   9.959  0.3598 -0.6465  0.4382
  727TMC3    C810753   3.237   3.726  10.073  0.4539  0.2235  0.1749
  727TMC3    O110754   3.088   3.324   9.846  0.1823  0.1175 -0.6127
  727TMC3    O210755   3.312   3.771  10.161  0.3085 -0.3468  0.4923
  728TMC3    C110756   2.222   1.854  15.319  0.1330  0.2911 -0.6938
  728TMC3    C210757   2.320   1.912  15.386  0.6644  0.0042 -0.2864
  728TMC3    C310758   2.428   1.966  15.316  0.7376 -0.2978  0.2262
  728TMC3    C410759   2.215   1.849  15.180  0.1915 -0.6393 -0.4747
  728TMC3    C510760   2.321   1.900  15.114 -0.2731  0.2771 -0.7257
  728TMC3    C610761   2.423   1.957  15.180  0.0673 -0.0492 -0.0958
  728TMC3     C10762   2.102   1.846  15.404  0.4254 -0.6005 -0.4522
  728TMC3     O10763   2.105   1.911  15.507 -0.2322  0.1691  0.2449
  728TMC3     H10764   2.328   1.917  15.494  0.2857 -3.7784 -0.0701
  728TMC3    H110765   2.124   1.824  15.127  0.8644 -1.2658 -1.3463
  728TMC3    H210766   2.491   2.016  15.118  1.2134 -2.9543 -1.5820
  728TMC3    C710767   2.298   1.932  14.970  0.1465 -0.0348  0.3211
  728TMC3    C810768   2.507   2.065  15.385 -0.3551 -0.0552 -0.5044
  728TMC3    O110769   2.241   1.847  14.903 -0.6648 -0.4239 -0.7082
  728TMC3    O210770   2.460   2.118  15.486  0.2073  0.5356  0.2518
  729MPD2     C10771   4.446   2.699  16.448 -0.4074 -0.5350 -0.6102
  729MPD2    C110772   4.438   2.830  16.478  0.7804 -0.0213  1.0338
  729MPD2    C210773   4.394   2.866  16.601  0.0930  0.5451  0.9728
  729MPD2    C310774   4.349   2.778  16.697  0.4329  0.2308  0.3867
  729MPD2    C410775   4.347   2.642  16.664 -0.6112 -0.0834 -0.5210
  729MPD2    C510776   4.392   2.606  16.539 -0.0374 -0.1715  0.7263
  729MPD2     H10777   4.386   2.969  16.636 -0.1795  1.4767 -1.8632
  729MPD2    H110778   4.335   2.560  16.733 -0.5359  1.4074  1.2656
  729MPD2    H210779   4.477   2.673  16.348 -0.9828 -1.7447 -0.4741
  729MPD2    H310780   4.395   2.501  16.515  1.1366 -0.3784  1.7686
  729MPD2     N10781   4.306   2.808  16.822  0.0275 -0.1411  1.0663
  729MPD2    H510782   4.293   2.727  16.881 -1.1782 -1.3301 -0.8607
  729MPD2    N110783   4.466   2.925  16.371  0.1293  0.2523 -0.3901
  729MPD2    H710784   4.504   2.875  16.291 -0.2918 -0.0484 -0.4048
  730TMC3    C110785   4.264   2.932  17.025 -0.3070 -0.2510  0.4364
  730TMC3    C210786   4.361   2.872  17.103  0.5722  0.4345 -0.5079
  730TMC3    C310787   4.364   2.897  17.237  0.2267  0.7060  0.0627
  730TMC3    C410788   4.180   3.030  17.069  0.2588  0.1761 -0.4186
  730TMC3    C510789   4.200   3.069  17.203 -0.3566 -0.3145  0.6770
  730TMC3    C610790   4.284   3.002  17.287  0.0647 -0.9046 -0.1708
  730TMC3     C10791   4.290   2.933  16.884 -0.9399  0.6529  0.1831
  730TMC3     O10792   4.271   3.037  16.821  0.7393  0.3529 -0.4321
  730TMC3     H10793   4.405   2.784  17.055 -1.2215  0.5542 -2.3947
  730TMC3    H110794   4.108   3.073  17.001 -0.4020  0.0842  0.2243
  730TMC3    H210795   4.289   3.027  17.392  0.7463 -1.6803 -0.0238
  730TMC3    C710796   4.171   3.205  17.234 -0.0114  1.0269 -0.2709
  730TMC3    C810797   4.492   2.891  17.302 -0.6716 -1.0788  0.3087
  730TMC3    O110798   4.112   3.274  17.156  0.0509  0.8956  0.1989
  730TMC3    O210799   4.513   2.982  17.378  0.2554 -0.2703  0.3679
  731MPD2     C10800   4.378   1.374  11.944  0.3933 -0.1319 -0.0600
  731MPD2    C110801   4.323   1.288  11.853  0.2641  0.3504 -0.0664
  731MPD2    C210802   4.269   1.161  11.880 -0.3147 -0.1575  0.2576
  731MPD2    C310803   4.280   1.124  12.011 -0.3751 -0.1685  0.0828
  731MPD2    C410804   4.332   1.207  12.110 -0.2301 -0.3830  0.3844
  731MPD2    C510805   4.382   1.339  12.076 -0.1909 -0.0893 -0.6279
  731MPD2     H10806   4.218   1.088  11.818  0.7981 -0.8009  0.0829
  731MPD2    H110807   4.310   1.178  12.212  0.3074 -0.1621  0.5640
  731MPD2    H210808   4.407   1.473  11.911  2.1839 -0.3274  0.9406
  731MPD2    H310809   4.416   1.404  12.156 -0.5192  0.4925 -0.9602
  731MPD2     N10810   4.223   0.993  12.043 -0.6997  0.1450 -0.0948
  731MPD2    H510811   4.166   0.943  11.975 -0.1073 -0.2448 -0.2989
  731MPD2    N110812   4.345   1.324  11.722 -0.5607 -0.5173  0.1110
  731MPD2    H710813   4.410   1.399  11.700 -1.6317  0.6104  0.7801
  732TMC3    C110814   4.360   1.265  11.493 -0.2493 -0.2074  0.5489
  732TMC3    C210815   4.285   1.258  11.388 -1.0331  0.0713  0.0625
  732TMC3    C310816   4.332   1.189  11.279 -0.3725  0.2109 -0.1099
  732TMC3    C410817   4.485   1.201  11.508 -0.0631  0.2776 -0.1878
  732TMC3    C510818   4.528   1.137  11.396 -0.6536  0.1125  0.3280
  732TMC3    C610819   4.448   1.125  11.283  0.6731 -0.3679  0.5011
  732TMC3     C10820   4.283   1.256  11.616  0.1390 -0.2241 -0.3720
  732TMC3     O10821   4.182   1.186  11.607 -0.0199  0.1301  0.2309
  732TMC3     H10822   4.196   1.319  11.390 -0.8392  0.4682 -3.4891
  732TMC3    H110823   4.546   1.196  11.598  0.5362 -2.7807 -0.7705
  732TMC3    H210824   4.477   1.063  11.199 -0.0616  0.1303 -0.1200
  732TMC3    C710825   4.636   1.039  11.407 -0.1411 -0.1343  0.0682
  732TMC3    C810826   4.229   1.099  11.242  0.8918 -0.1301 -0.3642
  732TMC3    O110827   4.633   0.950  11.324 -0.3566 -0.0521  0.2473
  732TMC3    O210828   4.223   1.047  11.132  0.1137  0.1025 -0.9399
  733TMC3    C110829   0.983   3.653  13.255  0.1133  0.0362 -0.1225
  733TMC3    C210830   1.039   3.761  13.316  0.2309 -0.1206 -0.0101
  733TMC3    C310831   1.176   3.760  13.337 -0.1555  0.1339 -0.2567
  733TMC3    C410832   1.067   3.541  13.220 -0.3112 -0.1941  0.1353
  733TMC3    C510833   1.203   3.553  13.252 -0.6650 -0.1536  0.0395
  733TMC3    C610834   1.259   3.662  13.301 -0.9528 -0.9304 -0.1485
  733TMC3     C10835   0.840   3.648  13.240  0.1934  0.2758 -0.4793
  733TMC3     O10836   0.783   3.732  13.303  0.4031  0.3739 -0.5797
  733TMC3     H10837   0.976   3.841  13.354 -0.5803 -0.8119  0.0906
  733TMC3    H110838   1.032   3.455  13.165  0.5121 -0.9406  0.7797
  733TMC3    H210839   1.362   3.663  13.336 -0.3370 -0.3203 -2.0114
  733TMC3    C710840   1.287   3.466  13.164 -0.0843 -0.0334 -0.5885
  733TMC3    C810841   1.237   3.897  13.346 -0.4951 -0.3268  0.0701
  733TMC3    O110842   1.304   3.344  13.187  0.5475 -0.1699  0.3784
  733TMC3    O210843   1.162   3.981  13.384 -0.4045 -0.2012  0.0134
  734MPD2     C10844   2.608   1.486  11.497 -0.1495 -0.1668  0.2890
  734MPD2    C110845   2.709   1.547  11.420  0.1175 -0.3614 -0.1169
  734MPD2    C210846   2.807   1.613  11.489  0.2421  0.5504  0.2045
  734MPD2    C310847   2.823   1.607  11.626 -0.1989 -0.4145  0.5659
  734MPD2    C410848   2.727   1.532  11.694  0.5129  0.1692  0.9536
  734MPD2    C510849   2.622   1.477  11.627  0.0115 -0.5704  0.3281
  734MPD2     H10850   2.887   1.662  11.435  2.0323  0.1022  2.4245
  734MPD2    H110851   2.735   1.527  11.802  2.1100  0.1387  0.8343
  734MPD2    H210852   2.520   1.442  11.452  1.4243 -1.1862 -1.8095
  734MPD2    H310853   2.541   1.423  11.675 -0.5514  1.6739  1.8834
  734MPD2     N10854   2.941   1.663  11.680  0.4766 -0.5640 -0.0663
  734MPD2    H510855   3.010   1.703  11.617  1.5742  0.9048  2.0680
  734MPD2    N110856   2.698   1.529  11.276 -0.2164  0.2751  0.2121
  734MPD2    H710857   2.618   1.473  11.246 -0.9146  2.1713 -1.4754
  735TMC3    C110858   2.766   1.561  11.048  0.1808 -0.6769  0.1671
  735TMC3    C210859   2.847   1.637  10.967  0.3980 -0.2621  0.3621
  735TMC3    C310860   2.936   1.581  10.886  0.1763  0.3359 -0.5443
  735TMC3    C410861   2.764   1.424  11.034  0.7405 -0.2471  0.0975
  735TMC3    C510862   2.853   1.369  10.940 -0.3721 -0.1682  0.2487
  735TMC3    C610863   2.933   1.451  10.868 -0.5080  0.2768 -0.9172
  735TMC3     C10864   2.779   1.599  11.184 -0.2823  0.7258 -0.5423
  735TMC3     O10865   2.868   1.678  11.209 -0.0507 -0.3282  0.1818
  735TMC3     H10866   2.846   1.745  10.966  0.6645 -0.2324  2.1428
  735TMC3    H110867   2.702   1.362  11.097 -1.8960  0.7216 -1.5488
  735TMC3    H210868   3.010   1.404  10.807 -0.0820 -0.0195 -0.1441
  735TMC3    C710869   2.917   1.244  10.982 -0.0226  0.6331 -0.0751
  735TMC3    C810870   3.073   1.623  10.906 -0.6726 -0.7553  0.0304
  735TMC3    O110871   3.036   1.225  10.971 -0.3059  0.0705 -0.0635
  735TMC3    O210872   3.141   1.623  10.804  0.5865  0.2819 -0.7613
  736MPD2     C10873   2.737   0.954  11.128  0.0224  0.7500 -0.2844
  736MPD2    C110874   2.844   1.040  11.110  0.4723 -0.9480  0.1092
  736MPD2    C210875   2.967   1.005  11.149 -0.5546 -0.6474 -0.7501
  736MPD2    C310876   2.988   0.879  11.199  0.2654  0.3653  0.2428
  736MPD2    C410877   2.879   0.791  11.217  0.4635 -0.8118 -0.2890
  736MPD2    C510878   2.754   0.832  11.181 -0.5083  0.4231  0.0413
  736MPD2     H10879   3.050   1.073  11.133  1.9271 -2.6835  3.3926
  736MPD2    H110880   2.886   0.691  11.258  0.9323 -0.2856  0.8980
  736MPD2    H210881   2.638   0.991  11.101 -0.6271 -1.0666 -0.4192
  736MPD2    H310882   2.673   0.766  11.211 -0.0479 -0.5707 -0.8826
  736MPD2     N10883   3.120   0.832  11.210 -0.0972 -0.5765 -0.8651
  736MPD2    H510884   3.193   0.894  11.177  0.8672  0.6477  3.5129
  736MPD2    N110885   2.819   1.168  11.044  0.0972  0.1295 -0.0058
  736MPD2    H710886   2.721   1.194  11.033  0.5705  1.6032 -0.7848
  737TMC3    C110887   3.304   0.708  11.283 -0.2643 -0.3974 -0.3076
  737TMC3    C210888   3.360   0.808  11.355 -0.1142 -0.2897 -0.1122
  737TMC3    C310889   3.494   0.821  11.362 -1.1008  0.1730  0.4976
  737TMC3    C410890   3.383   0.630  11.204 -0.0982  0.1972 -0.3494
  737TMC3    C510891   3.520   0.652  11.210 -0.4936  0.5111 -1.1844
  737TMC3    C610892   3.575   0.745  11.291 -0.6054 -0.1697 -0.2829
  737TMC3     C10893   3.161   0.708  11.256  0.3468 -0.6387  0.5716
  737TMC3     O10894   3.104   0.602  11.279  0.2204  0.0566  0.1877
  737TMC3     H10895   3.292   0.884  11.394  0.3734  0.5338 -0.8558
  737TMC3    H110896   3.337   0.558  11.138 -0.2915 -0.9616  1.0569
  737TMC3    H210897   3.681   0.760  11.308 -0.7862  1.1217 -0.2914
  737TMC3    C710898   3.605   0.551  11.161 -0.0117  0.7277 -0.2456
  737TMC3    C810899   3.549   0.951  11.396 -0.0124 -0.0102  0.7898
  737TMC3    O110900   3.573   0.431  11.179  0.7459  0.0557 -0.0223
  737TMC3    O210901   3.498   1.011  11.489 -0.0383  0.2244  0.1727
  738MPD2     C10902   3.535   0.708  15.576  0.8813  0.3573 -0.1186
  738MPD2    C110903   3.524   0.646  15.454  0.2744 -0.5283 -0.3813
  738MPD2    C210904   3.616   0.672  15.351 -0.5096  0.1209 -1.1528
  738MPD2    C310905   3.695   0.787  15.363  0.6564 -0.4583 -0.0023
  738MPD2    C410906   3.710   0.854  15.481  0.3511 -0.0989 -0.0430
  738MPD2    C510907   3.633   0.813  15.586  0.4203 -0.1745 -0.0099
  738MPD2     H10908   3.626   0.605  15.267 -2.2765  0.2517 -1.4720
  738MPD2    H110909   3.775   0.939  15.499  1.3394 -1.3378  2.2743
  738MPD2    H210910   3.465   0.691  15.657  0.1130 -2.4340 -1.3377
  738MPD2    H310911   3.632   0.861  15.683  0.7842  0.3510 -0.2727
  738MPD2     N10912   3.788   0.835  15.259 -0.1314  0.0158  0.0467
  738MPD2    H510913   3.855   0.910  15.273  0.1263 -0.3852  0.9002
  738MPD2    N110914   3.440   0.533  15.436 -0.0678 -0.0140 -0.1625
  738MPD2    H710915   3.456   0.477  15.353  1.9583  0.4369 -0.0867
  739TMC3    C110916   3.917   0.813  15.054 -0.0022  0.4599 -0.3465
  739TMC3    C210917   3.916   0.804  14.918 -0.3522  0.7830  0.4153
  739TMC3    C310918   4.040   0.804  14.862  0.7037 -0.0788 -0.0771
  739TMC3    C410919   4.028   0.810  15.136  0.3571  0.0244 -0.4961
  739TMC3    C510920   4.149   0.808  15.071 -0.2126  0.0857 -0.0640
  739TMC3    C610921   4.157   0.816  14.929 -0.1034 -0.1087 -0.3436
  739TMC3     C10922   3.788   0.787  15.126 -0.1425  0.1239 -0.2931
  739TMC3     O10923   3.701   0.731  15.061  0.1266  0.1874 -0.4127
  739TMC3     H10924   3.823   0.792  14.863  1.3886 -0.3201 -2.3310
  739TMC3    H110925   4.012   0.791  15.241  0.6335 -0.2599 -0.5072
  739TMC3    H210926   4.253   0.812  14.880 -0.8801  1.9572 -2.0315
  739TMC3    C710927   4.263   0.745  15.138 -0.0693  0.2427  0.4519
  739TMC3    C810928   4.036   0.796  14.719 -0.2892 -0.1715  0.0306
  739TMC3    O110929   4.232   0.677  15.232  0.5355 -0.7789  0.0514
  739TMC3    O210930   3.925   0.797  14.669 -0.1797  0.6008  0.0785
  740TMC3    C110931   4.308   1.660  14.321 -0.3616 -0.3660  0.4909
  740TMC3    C210932   4.367   1.624  14.441  0.2066 -0.5907 -0.0476
  740TMC3    C310933   4.501   1.592  14.434 -0.0765 -0.2992  0.5038
  740TMC3    C410934   4.383   1.659  14.204 -0.1976  0.7889 -0.0366
  740TMC3    C510935   4.516   1.629  14.203  0.3456 -0.9387 -0.0091
  740TMC3    C610936   4.572   1.583  14.317 -0.3336  0.1171  0.7404
  740TMC3     C10937   4.186   1.734  14.324 -0.2763  0.8045  0.1686
  740TMC3     O10938   4.132   1.763  14.220  0.1713 -0.1144  0.2212
  740TMC3     H10939   4.320   1.635  14.538  1.8720  2.4253  0.4054
  740TMC3    H110940   4.328   1.683  14.113 -0.1188  0.3615 -0.1944
  740TMC3    H210941   4.672   1.540  14.320 -1.1472 -1.8871 -0.6790
  740TMC3    C710942   4.604   1.629  14.080 -0.1814 -0.1825 -0.2510
  740TMC3    C810943   4.578   1.564  14.553 -0.2693  0.3445  0.2961
  740TMC3    O110944   0.001   1.590  14.101  0.5191  0.8137  0.2689
  740TMC3    O210945   4.689   1.514  14.527 -0.1857  0.3508 -0.4685
  741TMC3    C110946   3.877   1.072  14.438  0.0669 -0.7357  0.9162
  741TMC3    C210947   3.757   1.031  14.396  0.3149  0.5412  0.1655
  741TMC3    C310948   3.653   1.044  14.481  0.1667 -0.3717 -0.0473
  741TMC3    C410949   3.899   1.130  14.563 -1.1502 -0.0158 -0.4467
  741TMC3    C510950   3.791   1.134  14.644 -0.9233  0.2909 -0.4109
  741TMC3    C610951   3.664   1.101  14.602  0.7236 -0.2657  0.3810
  741TMC3     C10952   3.983   1.077  14.339 -0.1941  0.4933 -0.6984
  741TMC3     O10953   4.102   1.062  14.373  0.6209 -0.7308  0.4455
  741TMC3     H10954   3.742   0.981  14.301  0.2698  1.3770 -0.2662
  741TMC3    H110955   4.001   1.153  14.593  0.8535 -3.4273 -4.5594
  741TMC3    H210956   3.579   1.087  14.666  0.2541 -0.1478 -0.2156
  741TMC3    C710957   3.804   1.135  14.789 -0.2727 -0.3828  0.2116
  741TMC3    C810958   3.531   0.974  14.454  0.4078  0.6728  0.3517
  741TMC3    O110959   3.712   1.094  14.852  0.4383 -0.0873 -0.9054
  741TMC3    O210960   3.422   1.011  14.495 -0.0698 -0.6567  0.2070
  742TMC3    C110961   3.481   4.581  15.245  0.1480  0.3105 -0.0506
  742TMC3    C210962   3.399   4.558  15.139 -0.4757  0.4035 -0.1955
  742TMC3    C310963   3.457   4.491  15.036 -0.4239  0.1285 -0.5055
  742TMC3    C410964   3.618   4.567  15.251 -0.4271  0.2630  0.2901
  742TMC3    C510965   3.678   4.523  15.136  0.5229  0.0009 -0.6742
  742TMC3    C610966   3.601   4.477  15.032  0.0919 -0.2273 -0.2837
  742TMC3     C10967   3.419   4.644  15.362 -0.5756  0.9481 -0.1571
  742TMC3     O10968   3.296   4.629  15.383  0.9756  0.0413  0.1106
  742TMC3     H10969   3.292   4.564  15.159 -0.1159 -1.0399  2.1292
  742TMC3    H110970   3.675   4.571  15.343  0.8089  1.4480 -0.5196
  742TMC3    H210971   3.652   4.438  14.944  1.6437  2.3741 -0.5264
  742TMC3    C710972   3.810   4.465  15.141  0.0508  0.3515 -0.6201
  742TMC3    C810973   3.378   4.393  14.953 -0.3890 -0.6788 -0.0685
  742TMC3    O110974   3.818   4.367  15.065  0.1342  0.6651  0.0834
  742TMC3    O210975   3.444   4.311  14.888 -0.3359  0.4790 -0.3269
  743MPD2     C10976   2.270   0.773   2.222  0.7816 -0.0831 -0.6607
  743MPD2    C110977   2.299   0.699   2.110  0.3666  0.0112  0.1196
  743MPD2    C210978   2.429   0.684   2.066 -0.0967  0.6646  0.5155
  743MPD2    C310979   2.533   0.741   2.135  0.1850 -0.4645  0.2060
  743MPD2    C410980   2.511   0.803   2.255 -0.3096  0.5486 -0.2315
  743MPD2    C510981   2.382   0.812   2.299 -0.4495  0.0758  0.1224
  743MPD2     H10982   2.459   0.622   1.982  0.0014 -2.8839  3.1258
  743MPD2    H110983   2.596   0.837   2.312 -0.7578  0.6379  0.3879
  743MPD2    H210984   2.174   0.783   2.270  0.2387 -0.5855 -1.6438
  743MPD2    H310985   2.355   0.867   2.388 -0.3184 -0.3888  0.4536
  743MPD2     N10986   2.658   0.725   2.066  0.0769 -0.3197 -0.4719
  743MPD2    H510987   2.656   0.674   1.979  1.0273  0.2841 -0.8483
  743MPD2    N110988   2.189   0.650   2.033  0.7014 -0.0115 -0.3899
  743MPD2    H710989   2.096   0.682   2.060  0.2916  0.1560 -1.9684
  744TMC3    C110990   2.083   0.518   1.853  0.1233  0.3234 -0.2976
  744TMC3    C210991   1.954   0.565   1.891  0.4071  0.0798 -0.1106
  744TMC3    C310992   1.853   0.555   1.799  0.2882 -0.6467 -0.6758
  744TMC3    C410993   2.104   0.473   1.725 -0.7928 -0.2117 -0.2943
  744TMC3    C510994   1.992   0.456   1.645 -0.5287  0.3524 -0.8759
  744TMC3    C610995   1.870   0.506   1.670  0.4914  0.4347  0.4065
  744TMC3     C10996   2.203   0.562   1.927 -0.1031 -0.4263  0.7310
  744TMC3     O10997   2.301   0.505   1.891  0.4875 -0.0945 -0.3136
  744TMC3     H10998   1.934   0.604   1.990 -0.5652 -1.0529  0.1348
  744TMC3    H110999   2.199   0.441   1.685 -1.7768 -0.5847 -2.3564
  744TMC3    H211000   1.786   0.495   1.603  0.8750  1.9644 -0.3179
  744TMC3    C711001   2.015   0.402   1.513 -0.4545 -0.2554 -0.8168
  744TMC3    C811002   1.721   0.618   1.822 -0.5064 -0.2806  1.1346
  744TMC3    O111003   2.130   0.397   1.476 -0.0270 -0.7518  0.5286
  744TMC3    O211004   1.668   0.663   1.723 -0.2930 -0.0684  0.1260
  745TMC3    C111005   4.316   4.260  13.727  0.1955  0.2472  0.9148
  745TMC3    C211006   4.248   4.247  13.844 -0.7016  0.8184 -0.7067
  745TMC3    C311007   4.119   4.206  13.837 -0.6228  0.2335  0.2217
  745TMC3    C411008   4.271   4.226  13.612 -0.5901 -0.6477  0.0593
  745TMC3    C511009   4.147   4.176  13.605 -0.6398  0.3561 -0.2747
  745TMC3    C611010   4.066   4.178  13.715  0.3169 -0.2568  0.3088
  745TMC3     C11011   4.460   4.300  13.732 -0.3316  0.3824  0.2394
  745TMC3     O11012   4.511   4.303  13.844 -0.6578 -0.5935 -0.4148
  745TMC3     H11013   4.308   4.270  13.932  1.2897  1.5107 -2.2459
  745TMC3    H111014   4.322   4.246  13.518  0.6537  0.2551  0.9198
  745TMC3    H211015   3.962   4.147  13.714  0.1409  0.4889 -2.4510
  745TMC3    C711016   4.109   4.096  13.486 -0.2807 -0.4399  0.4553
  745TMC3    C811017   4.031   4.200  13.953 -0.5603  0.3640  0.0578
  745TMC3    O111018   3.988   4.067  13.470 -0.8248 -0.2013  0.2755
  745TMC3    O211019   3.920   4.147  13.924 -0.0114  0.2680  0.9278
  746TMC3    C111020   1.971   1.111  10.709  0.2467  0.9261 -0.4079
  746TMC3    C211021   2.089   1.055  10.679  0.1123 -0.1240  0.4494
  746TMC3    C311022   2.088   0.924  10.639  0.2087 -0.0359  0.2309
  746TMC3    C411023   1.855   1.037  10.725 -0.1153 -0.1681 -0.0173
  746TMC3    C511024   1.864   0.903  10.700  0.2242 -0.2298  0.1889
  746TMC3    C611025   1.977   0.846  10.661 -0.7120  0.4053 -0.1666
  746TMC3     C11026   1.949   1.258  10.744  0.8627  0.2638 -0.7101
  746TMC3     O11027   1.903   1.282  10.852  0.2066  0.5632  0.8653
  746TMC3     H11028   2.179   1.112  10.660 -0.6551  1.2304  0.8845
  746TMC3    H111029   1.761   1.080  10.759 -1.0476 -1.7098 -0.6353
  746TMC3    H211030   1.984   0.743  10.628 -1.4426  0.2868  0.0592
  746TMC3    C711031   1.748   0.845  10.635  0.1749 -0.9718 -0.7118
  746TMC3    C811032   2.210   0.858  10.612  0.4386 -0.3260 -0.1196
  746TMC3    O111033   1.678   0.915  10.558  0.4087 -0.1087  1.0605
  746TMC3    O211034   2.233   0.741  10.641 -0.1388 -0.0534  0.0910
  747TMC3    C111035   4.491   0.820  10.636  0.8319  0.3278  0.1456
  747TMC3    C211036   4.380   0.749  10.662  0.5456 -0.5574  0.2710
  747TMC3    C311037   4.317   0.767  10.781  0.2447  1.0309 -0.2680
  747TMC3    C411038   4.544   0.899  10.729  0.2084 -0.6126 -0.4395
  747TMC3    C511039   4.487   0.917  10.852 -0.3939 -0.0707  0.3754
  747TMC3    C611040   4.366   0.855  10.880 -0.7453  0.0494  0.6237
  747TMC3     C11041   4.550   0.821  10.502 -0.6488  0.0013  0.2073
  747TMC3     O11042   4.610   0.922  10.470 -0.1050 -0.0270 -0.2420
  747TMC3     H11043   4.363   0.667  10.593 -0.3885  0.0129 -0.1720
  747TMC3    H111044   4.634   0.955  10.705 -0.1489  0.0130 -0.3212
  747TMC3    H211045   4.313   0.870  10.973 -1.3981  2.0346 -0.0598
  747TMC3    C711046   4.535   1.029  10.932 -0.4340 -0.4814  0.6216
  747TMC3    C811047   4.241   0.657  10.820  1.0760 -0.4020  0.0378
  747TMC3    O111048   4.460   1.126  10.953  0.0573 -0.1003 -0.1239
  747TMC3    O211049   4.263   0.548  10.771 -0.0891 -0.0504 -0.3631
  748MPD2     C11050   1.168   1.389   2.041 -0.0905  0.1884  0.6811
  748MPD2    C111051   1.154   1.509   1.978  0.5016 -0.2498  0.3972
  748MPD2    C211052   1.272   1.573   1.939  0.1094  0.1658 -0.1916
  748MPD2    C311053   1.399   1.523   1.976  0.0506  0.0356 -0.9074
  748MPD2    C411054   1.412   1.406   2.045  0.4837  0.1583 -0.5516
  748MPD2    C511055   1.292   1.340   2.075  0.8331  0.4321  0.6968
  748MPD2     H11056   1.272   1.667   1.884  0.6819 -0.5517 -1.4440
  748MPD2    H111057   1.502   1.371   2.095 -1.9577 -2.3752  2.0484
  748MPD2    H211058   1.078   1.330   2.053 -0.1002  0.0130 -0.2844
  748MPD2    H311059   1.296   1.246   2.129  2.2247  0.3312  0.4393
  748MPD2     N11060   1.510   1.593   1.937  0.6777 -0.9851  0.2977
  748MPD2    H511061   1.492   1.688   1.906  0.7126 -0.4636  1.8358
  748MPD2    N111062   1.026   1.558   1.937  0.2728 -0.4519 -0.2296
  748MPD2    H711063   0.950   1.498   1.967 -0.7522  1.1383  0.4130
  749TMC3    C111064   1.734   1.652   1.905 -0.2706 -0.4403  0.2238
  749TMC3    C211065   1.832   1.683   1.993 -0.4419 -0.0385 -0.4266
  749TMC3    C311066   1.891   1.809   1.987  0.2388  0.2715  0.6335
  749TMC3    C411067   1.704   1.730   1.794  0.0790  0.1424 -0.2398
  749TMC3    C511068   1.773   1.848   1.778  0.4715 -0.0297  0.0853
  749TMC3    C611069   1.859   1.894   1.878 -0.3608  0.9611 -0.2926
  749TMC3     C11070   1.638   1.547   1.943  0.6734 -0.5557 -0.2485
  749TMC3     O11071   1.689   1.439   1.974 -0.0880 -0.8009  0.1878
  749TMC3     H11072   1.843   1.627   2.085 -1.9251 -0.2726 -0.3928
  749TMC3    H111073   1.624   1.711   1.723  1.3243  0.3266 -1.6754
  749TMC3    H211074   1.920   1.984   1.873 -0.4651  1.0937  0.6827
  749TMC3    C711075   1.738   1.940   1.669 -0.8712  0.4356  0.3465
  749TMC3    C811076   2.033   1.810   2.028 -0.0394  0.3637  0.9231
  749TMC3    O111077   1.747   2.061   1.684  0.5409 -0.4359  0.4603
  749TMC3    O211078   2.098   1.912   2.009  0.8286 -0.1254 -0.2140
  750MPD2     C11079   2.272   2.514  11.643  0.5004 -0.0803  0.1522
  750MPD2    C111080   2.184   2.427  11.572  0.2036 -0.2288  0.9871
  750MPD2    C211081   2.207   2.417  11.433 -0.5520  0.3499  0.0531
  750MPD2    C311082   2.302   2.499  11.367 -0.0166  0.9650 -0.8408
  750MPD2    C411083   2.390   2.570  11.441 -0.4562  0.0310 -0.1237
  750MPD2    C511084   2.382   2.578  11.578 -0.0370 -0.4534  0.2366
  750MPD2     H11085   2.163   2.333  11.380  0.4743  0.9115 -1.6944
  750MPD2    H111086   2.463   2.630  11.386  0.6041  0.0152  1.2527
  750MPD2    H211087   2.265   2.518  11.751 -0.2234 -1.6382  0.1579
  750MPD2    H311088   2.458   2.623  11.641  0.4607 -1.1194  0.1183
  750MPD2     N11089   2.335   2.486  11.228  0.1092  0.4656  0.0364
  750MPD2    H511090   2.420   2.530  11.195  0.4726  0.3750  0.8596
  750MPD2    N111091   2.072   2.377  11.637 -0.4172  0.6751  0.2635
  750MPD2    H711092   2.077   2.388  11.738  0.2785  0.3097  0.2734
  751TMC3    C111093   2.326   2.389  11.009  0.2934 -0.0170  0.2142
  751TMC3    C211094   2.237   2.394  10.902  0.4451  0.6443  0.3917
  751TMC3    C311095   2.242   2.296  10.803  0.2222  0.6040  0.1706
  751TMC3    C411096   2.423   2.285  11.004 -0.1708  0.7986  0.0009
  751TMC3    C511097   2.417   2.190  10.905  0.4484 -0.1748 -0.2006
  751TMC3    C611098   2.330   2.197  10.798 -0.0467 -0.2843 -0.4875
  751TMC3     C11099   2.257   2.419  11.133  0.0217  0.0897 -0.5211
  751TMC3     O11100   2.139   2.394  11.146 -0.2056 -0.3483  0.1238
  751TMC3     H11101   2.182   2.485  10.881  0.6769  0.4731 -0.9127
  751TMC3    H111102   2.482   2.265  11.093  1.5055 -0.6519 -1.4275
  751TMC3    H211103   2.323   2.106  10.739 -0.6650 -1.8778  1.9900
  751TMC3    C711104   2.520   2.092  10.898 -0.3306 -0.2200  0.0617
  751TMC3    C811105   2.121   2.279  10.733  0.3446  0.5537  0.2008
  751TMC3    O111106   2.631   2.131  10.933  0.5231 -0.1104 -0.4818
  751TMC3    O211107   2.133   2.216  10.628 -0.3027  0.0664 -0.0740
  752TMC3    C111108   0.752   2.781  16.595 -0.2434 -0.8408 -0.4319
  752TMC3    C211109   0.643   2.823  16.671  0.3801 -0.5553  0.0628
  752TMC3    C311110   0.665   2.889  16.795  0.1722  0.8413 -0.2360
  752TMC3    C411111   0.880   2.799  16.640  0.0597  0.8668 -0.4511
  752TMC3    C511112   0.896   2.855  16.765  0.1241 -0.4886 -0.4922
  752TMC3    C611113   0.792   2.899  16.843 -0.4615  0.6621  0.1810
  752TMC3     C11114   0.722   2.771  16.453  0.0067  0.4425 -0.1055
  752TMC3     O11115   0.797   2.698  16.385  0.0451  0.3085 -0.6729
  752TMC3     H11116   0.539   2.812  16.641  0.1164 -0.1681  0.8520
  752TMC3    H111117   0.961   2.764  16.578 -1.4142 -1.4318 -1.0905
  752TMC3    H211118   0.808   2.922  16.948 -0.3001  0.0762  0.2872
  752TMC3    C711119   1.023   2.867  16.828 -0.4588  0.2939  0.5979
  752TMC3    C811120   0.553   2.947  16.862 -0.1266 -0.3717  0.4723
  752TMC3    O111121   1.012   2.929  16.931  0.2843 -0.8772  0.4406
  752TMC3    O211122   0.443   2.910  16.829  0.3221  0.3359 -0.3737
  753TMC3    C111123   3.037   4.089  13.570  0.6809  0.6730  0.4239
  753TMC3    C211124   3.030   4.013  13.684 -0.3665 -0.5321  0.2164
  753TMC3    C311125   2.935   3.915  13.693 -0.7281 -0.0469 -0.1647
  753TMC3    C411126   2.968   4.037  13.461 -0.9854 -0.8377  0.4590
  753TMC3    C511127   2.885   3.930  13.464  0.4193  0.3669 -0.0818
  753TMC3    C611128   2.874   3.863  13.582 -0.0611  0.1123 -0.2004
  753TMC3     C11129   3.015   4.223  13.622 -0.5146  0.2828  0.6124
  753TMC3     O11130   2.970   4.227  13.736 -0.0969 -0.3147 -0.2658
  753TMC3     H11131   3.084   4.038  13.774  1.4661  0.6849 -1.2087
  753TMC3    H111132   2.967   4.098  13.372 -0.0358  0.9001  1.6275
  753TMC3    H211133   2.817   3.771  13.577 -0.7099  0.4333  1.3598
  753TMC3    C711134   2.852   3.871  13.335  0.1305 -0.4727 -0.5196
  753TMC3    C811135   2.887   3.881  13.824 -0.6402 -0.4807 -0.4040
  753TMC3    O111136   2.948   3.868  13.256  0.1772  0.3402  0.5824
  753TMC3    O211137   2.820   3.779  13.829  0.0857 -0.0740  0.3563
  754MPD2     C11138   0.846   3.016  12.943  0.2228 -0.2581  0.6331
  754MPD2    C111139   0.811   2.884  12.963 -0.4687  1.1493 -0.1595
  754MPD2    C211140   0.698   2.848  12.896  0.0772 -0.1852 -0.1714
  754MPD2    C311141   0.618   2.937  12.823 -0.3407 -0.0974  0.2863
  754MPD2    C411142   0.656   3.069  12.811  0.0879  0.1351  0.0965
  754MPD2    C511143   0.771   3.107  12.876  0.3261  0.0664  0.0714
  754MPD2     H11144   0.657   2.748  12.901  0.1985 -0.2467 -0.3769
  754MPD2    H111145   0.593   3.153  12.785 -0.9694 -0.8191 -0.4128
  754MPD2    H211146   0.937   3.050  12.992  0.4927  0.0014 -0.0490
  754MPD2    H311147   0.811   3.208  12.866 -1.4728  0.9536  1.8075
  754MPD2     N11148   0.491   2.895  12.779  0.1988 -0.2209 -0.9502
  754MPD2    H511149   0.419   2.965  12.761  0.1476  0.2670  1.1961
  754MPD2    N111150   0.884   2.788  13.036  0.0347 -0.0488 -0.4347
  754MPD2    H711151   0.959   2.824  13.094 -0.4653 -0.5709  0.5409
  755MPD2     C11152   4.443   3.303  12.692  0.3158 -0.5046  0.3491
  755MPD2    C111153   4.421   3.188  12.766  0.4158 -0.1053  0.0545
  755MPD2    C211154   4.512   3.085  12.765  0.5410  0.0427 -0.5053
  755MPD2    C311155   4.623   3.098  12.690 -0.4079  0.1835 -0.2809
  755MPD2    C411156   4.651   3.210  12.616 -0.1181 -0.2121  0.5508
  755MPD2    C511157   4.554   3.306  12.610 -0.0940 -0.0812 -0.2387
  755MPD2     H11158   4.489   2.998  12.825 -2.6671  0.5466 -1.0019
  755MPD2    H111159   0.010   3.218  12.541  1.2426 -1.3987  1.8258
  755MPD2    H211160   4.360   3.371  12.681  0.2715 -0.7775 -0.9967
  755MPD2    H311161   4.568   3.384  12.536  2.3245 -1.0603 -0.8415
  755MPD2     N11162   0.004   2.998  12.685  0.7761 -0.9248  0.0901
  755MPD2    H511163   0.092   3.021  12.641  0.4854  1.0876  0.5387
  755MPD2    N111164   4.300   3.156  12.832  0.0456  0.1222 -0.4020
  755MPD2    H711165   4.289   3.058  12.858  0.5597  0.4413  1.0369
  756MPD2     C11166   1.322   2.824  10.044  0.0280 -0.0426 -0.0801
  756MPD2    C111167   1.415   2.910  10.097 -0.6483 -0.9316 -0.0810
  756MPD2    C211168   1.513   2.968  10.020 -0.1311  0.2553  0.1255
  756MPD2    C311169   1.510   2.951   9.884 -0.1459  0.5424  0.2197
  756MPD2    C411170   1.417   2.867   9.833 -0.4728  0.4974 -0.0853
  756MPD2    C511171   1.323   2.810   9.909 -0.1850 -0.0601 -0.3481
  756MPD2     H11172   1.582   3.037  10.066 -2.8277  2.3303  1.0374
  756MPD2    H111173   1.412   2.850   9.726  2.1210  0.3017 -0.1655
  756MPD2    H211174   1.240   2.782  10.102 -0.8531  0.5483 -0.8830
  756MPD2    H311175   1.247   2.755   9.854 -1.1726  0.1148  0.8415
  756MPD2     N11176   1.616   3.007   9.808 -0.4163  0.5901 -0.4278
  756MPD2    H511177   1.692   3.056   9.855  1.3446 -2.6896  0.1196
  756MPD2    N111178   1.426   2.937  10.234 -0.0762  0.2723  0.3317
  756MPD2    H711179   1.491   3.013  10.253  1.3116 -0.7348 -0.3488
  757MPD2     C11180   1.390   3.297   8.970 -0.0557 -0.1202  0.1646
  757MPD2    C111181   1.345   3.235   9.090 -0.3555  0.0011 -0.5004
  757MPD2    C211182   1.434   3.208   9.196 -0.5012 -0.5367 -0.0076
  757MPD2    C311183   1.570   3.240   9.178 -0.3121 -0.4009 -0.2204
  757MPD2    C411184   1.618   3.294   9.060 -0.1010 -0.1197 -0.6854
  757MPD2    C511185   1.534   3.318   8.957  0.2591  0.1303  0.3480
  757MPD2     H11186   1.398   3.175   9.292 -2.8590  0.7762 -0.4486
  757MPD2    H111187   1.722   3.311   9.037 -0.0602  0.9326  0.2513
  757MPD2    H211188   1.322   3.324   8.889  1.4937  3.3459  0.0220
  757MPD2    H311189   1.574   3.349   8.861  2.1966  1.3581  1.5684
  757MPD2     N11190   1.655   3.211   9.286  0.0986  0.0644  0.0259
  757MPD2    H511191   1.607   3.166   9.363 -0.1560 -1.5562 -1.0819
  757MPD2    N111192   1.210   3.207   9.125  0.2669 -0.3924  0.2336
  757MPD2    H711193   1.196   3.156   9.212 -0.9840  0.6829  0.6583
  758MPD2     C11194   1.210   2.144  16.029 -0.4739  0.9248 -0.1332
  758MPD2    C111195   1.315   2.199  16.098 -0.5934  0.3485 -0.7569
  758MPD2    C211196   1.280   2.266  16.216  0.2036  1.0677  0.0030
  758MPD2    C311197   1.148   2.281  16.258  0.1784  0.1205 -0.1624
  758MPD2    C411198   1.054   2.229  16.183 -0.6956  0.2255 -0.4026
  758MPD2    C511199   1.086   2.163  16.063  0.0839 -0.3817 -0.2660
  758MPD2     H11200   1.358   2.324  16.264  0.3844 -0.9227  2.1406
  758MPD2    H111201   0.950   2.238  16.214 -0.8373  0.5985 -0.9683
  758MPD2    H211202   1.236   2.099  15.934 -1.2335 -1.3003  0.7037
  758MPD2    H311203   1.004   2.131  15.999  0.4839 -0.3023 -0.8187
  758MPD2     N11204   1.106   2.360  16.367 -0.0300  0.1850 -0.1808
  758MPD2    H511205   1.007   2.370  16.385  0.3767  3.1783  0.3290
  758MPD2    N111206   1.447   2.182  16.056  0.1661  0.1380  0.1637
  758MPD2    H711207   1.457   2.146  15.962  0.0612  1.5952 -0.4059
  759MPD2     C11208   0.513   0.547   9.467 -0.1196 -0.6505  0.1122
  759MPD2    C111209   0.546   0.502   9.590  0.2833  0.2875 -0.2229
  759MPD2    C211210   0.659   0.431   9.608 -0.4222  0.0442 -0.1635
  759MPD2    C311211   0.754   0.420   9.509  0.0807 -0.0240  0.2473
  759MPD2    C411212   0.729   0.483   9.387  0.1729  0.1693 -0.0038
  759MPD2    C511213   0.610   0.546   9.367  0.9837 -0.1340  0.4783
  759MPD2     H11214   0.677   0.386   9.706  3.0483  0.6781 -0.4943
  759MPD2    H111215   0.800   0.494   9.305 -1.2343  0.9002 -1.1165
  759MPD2    H211216   0.414   0.590   9.454  0.2459  0.4340  0.8705
  759MPD2    H311217   0.585   0.590   9.272 -0.0894  0.6496  1.1303
  759MPD2     N11218   0.872   0.349   9.534  0.0782 -0.1128  0.5846
  759MPD2    H511219   0.878   0.286   9.614  1.3464 -0.9158 -0.1523
  759MPD2    N111220   0.457   0.523   9.694 -0.4196 -0.5929  0.2689
  759MPD2    H711221   0.492   0.495   9.785  0.8052 -0.3959 -0.1453
  760MPD2     C11222   0.064   2.575  11.899  0.6059  0.0277  0.2317
  760MPD2    C111223   0.188   2.580  11.834 -0.5034  0.1292  0.5889
  760MPD2    C211224   0.226   2.470  11.748 -0.6083  0.5428 -0.8783
  760MPD2    C311225   0.152   2.355  11.741 -0.0471  0.0278  0.6911
  760MPD2    C411226   0.035   2.348  11.821 -0.2179  0.1595  0.1609
  760MPD2    C511227   4.710   2.456  11.890  0.1913 -0.3669  0.2631
  760MPD2     H11228   0.322   2.456  11.701 -0.2821 -1.5212  0.3936
  760MPD2    H111229   4.694   2.257  11.818  0.0018  0.0373 -0.5833
  760MPD2    H211230   0.015   2.655  11.953 -0.1797  0.0510 -0.5130
  760MPD2    H311231   4.615   2.460  11.942  0.9412  0.8599  1.5119
  760MPD2     N11232   0.198   2.239  11.673  0.1513  0.0883  0.2568
  760MPD2    H511233   0.150   2.153  11.698 -0.9636  0.5793 -0.2423
  760MPD2    N111234   0.278   2.690  11.836 -0.3465  0.3396 -0.3028
  760MPD2    H711235   0.376   2.664  11.825 -0.7856 -1.7730  0.8060
  761MPD2     C11236   1.611   2.246  10.723 -0.8391 -0.1742  0.1619
  761MPD2    C111237   1.706   2.202  10.630 -0.0854 -0.2727  1.5132
  761MPD2    C211238   1.843   2.248  10.648  0.7840  0.0692 -0.2347
  761MPD2    C311239   1.875   2.291  10.773 -0.4199 -1.3348  0.4037
  761MPD2    C411240   1.779   2.322  10.865  0.2931 -0.6526  1.1681
  761MPD2    C511241   1.647   2.306  10.843 -0.2813  0.0923 -0.4667
  761MPD2     H11242   1.917   2.206  10.581  1.5257 -0.2380  0.7798
  761MPD2    H111243   1.812   2.363  10.959 -1.0231 -0.7051  1.6419
  761MPD2    H211244   1.508   2.225  10.697 -0.7085 -0.6545  0.0436
  761MPD2    H311245   1.578   2.346  10.916 -0.6213  0.2048 -0.8472
  761MPD2     N11246   2.008   2.318  10.812  0.4055 -0.6171 -0.0508
  761MPD2    H511247   2.035   2.351  10.904 -0.3649  1.4905 -0.6035
  761MPD2    N111248   1.668   2.120  10.525 -0.4653 -0.7673 -0.2893
  761MPD2    H711249   1.575   2.077  10.525 -1.0007  0.4145 -1.4377
  762MPD2     C11250   2.090   1.904   9.910 -0.1071 -0.3613 -0.6028
  762MPD2    C111251   2.067   1.800   9.998  0.0659  0.3643  0.7162
  762MPD2    C211252   2.153   1.691  10.004 -0.0701 -0.1554  0.4403
  762MPD2    C311253   2.261   1.688   9.924  0.1072  0.3528 -0.4588
  762MPD2    C411254   2.277   1.786   9.837 -0.2376 -0.2041  1.1528
  762MPD2    C511255   2.196   1.897   9.826  0.5963  0.0936  0.0666
  762MPD2     H11256   2.137   1.613  10.077  1.5056 -0.1410  0.7962
  762MPD2    H111257   2.360   1.780   9.768 -1.5720 -0.8936 -0.3831
  762MPD2    H211258   2.024   1.991   9.909  2.1110  1.2957 -2.0395
  762MPD2    H311259   2.207   1.969   9.746  0.3460  1.0553  0.9075
  762MPD2     N11260   2.334   1.571   9.914 -0.5109  0.1112  0.4540
  762MPD2    H511261   2.323   1.515   9.998 -0.7381  0.8836  0.9385
  762MPD2    N111262   1.950   1.814  10.068  0.3504  0.7985  0.2003
  762MPD2    H711263   1.893   1.894  10.042 -0.6322 -0.7998 -2.5336
  763MPD2     C11264   2.848   2.242  16.344 -0.6903  0.1773 -0.2350
  763MPD2    C111265   2.946   2.320  16.292 -0.1427  0.4958 -0.0756
  763MPD2    C211266   3.009   2.413  16.373  0.1031  0.6969  0.0174
  763MPD2    C311267   2.982   2.429  16.508  0.3768  0.3162  0.0976
  763MPD2    C411268   2.883   2.344  16.558  0.1581 -0.3030 -0.2364
  763MPD2    C511269   2.821   2.255  16.477 -0.1322 -0.5275 -0.1293
  763MPD2     H11270   3.086   2.475  16.329 -0.1675  0.4995 -0.7344
  763MPD2    H111271   2.843   2.350  16.659  0.3000 -2.6658 -0.0410
  763MPD2    H211272   2.793   2.168  16.287 -0.3528 -1.1133  1.1079
  763MPD2    H311273   2.739   2.198  16.520 -1.3348  2.7471  1.9185
  763MPD2     N11274   3.036   2.533  16.580 -0.4586  0.1531 -0.6260
  763MPD2    H511275   3.091   2.602  16.530 -0.6513 -0.3057 -1.4721
  763MPD2    N111276   2.982   2.311  16.152 -0.3844 -0.5775  0.3756
  763MPD2    H711277   3.048   2.378  16.113 -1.3803 -0.4266 -1.0409
  764MPD2     C11278   0.892   4.205   0.127  0.8917  0.3741 -0.0852
  764MPD2    C111279   0.931   4.104   0.039  0.0271  0.1720  0.4610
  764MPD2    C211280   1.010   3.997   0.093  0.6504  0.1899  0.0920
  764MPD2    C311281   1.046   3.983   0.223 -0.4604  0.0843  0.1087
  764MPD2    C411282   0.993   4.077   0.305 -0.0997  0.5123  0.1025
  764MPD2    C511283   0.926   4.186   0.260  0.3873 -0.5480 -0.0425
  764MPD2     H11284   1.040   3.919   0.024  0.8351  0.5770 -0.2666
  764MPD2    H111285   1.002   4.071   0.413  0.1151  0.1085  0.0628
  764MPD2    H211286   0.834   4.292   0.097  2.9782  2.3945  1.8007
  764MPD2    H311287   0.895   4.256   0.337  1.0830  0.4547 -0.6918
  764MPD2     N11288   1.126   3.873   0.270 -0.1547  0.1939 -0.2792
  764MPD2    H511289   1.166   3.810   0.202 -1.2590 -0.3795 -0.4042
  764MPD2    N111290   0.893   4.108  17.576  0.3016 -0.7689 -0.0298
  764MPD2    H711291   0.919   4.026  17.522 -1.9775 -0.4080 -1.6935
  765MPD2     C11292   0.575   1.575  15.459  0.3348  0.0329  0.8372
  765MPD2    C111293   0.668   1.601  15.555 -0.1878  0.2205 -0.1568
  765MPD2    C211294   0.799   1.562  15.523 -0.3695  0.1066 -0.8237
  765MPD2    C311295   0.836   1.509  15.398 -0.1221  0.3924 -0.1833
  765MPD2    C411296   0.737   1.471  15.311  0.3747  0.0249  0.4326
  765MPD2    C511297   0.609   1.504  15.345  0.5038  0.0828  0.0503
  765MPD2     H11298   0.880   1.584  15.592  0.7747  0.1263 -2.1621
  765MPD2    H111299   0.760   1.412  15.223  0.4642 -1.1800  1.2653
  765MPD2    H211300   0.469   1.601  15.466 -0.0267 -1.6253  1.3671
  765MPD2    H311301   0.529   1.486  15.273  0.9604 -0.3220 -0.3603
  765MPD2     N11302   0.974   1.475  15.384 -0.3761 -0.1293 -0.9701
  765MPD2    H511303   1.032   1.480  15.467  0.4797 -0.9039 -1.5236
  765MPD2    N111304   0.631   1.674  15.671  0.0240  0.4862 -0.3216
  765MPD2    H711305   0.536   1.711  15.672  0.2763  1.0928  0.7845
  766MPD2     C11306   0.165   1.822  15.492 -1.5975  0.1752  0.2898
  766MPD2    C111307   0.287   1.873  15.522 -0.1302  0.1849  0.2121
  766MPD2    C211308   0.390   1.855  15.427 -0.4624  0.2711  0.1094
  766MPD2    C311309   0.366   1.804  15.295 -0.3160 -0.5400  0.6633
  766MPD2    C411310   0.237   1.768  15.264 -0.3643  0.3188 -0.1094
  766MPD2    C511311   0.141   1.761  15.367 -1.1613  0.3848 -0.0990
  766MPD2     H11312   0.492   1.887  15.444  0.2845 -0.8569 -2.2747
  766MPD2    H111313   0.218   1.732  15.164  2.9610 -2.2932  0.1965
  766MPD2    H211314   0.095   1.803  15.572 -3.9120  4.1962 -0.7573
  766MPD2    H311315   0.043   1.715  15.356 -1.3407  1.2093 -1.9639
  766MPD2     N11316   0.466   1.786  15.189  0.3733  0.3269  0.2975
  766MPD2    H511317   0.440   1.746  15.099  3.3574 -0.7466 -0.0744
  766MPD2    N111318   0.311   1.885  15.657 -0.1280  0.4486 -0.0267
  766MPD2    H711319   0.244   1.851  15.725 -0.8944  1.2011 -0.3917
  767MPD2     C11320   0.303   2.162  15.183 -0.3218  0.3020 -0.1646
  767MPD2    C111321   0.393   2.158  15.082  0.2727  0.5523  0.7550
  767MPD2    C211322   0.360   2.090  14.965  0.0215 -0.1730  1.1788
  767MPD2    C311323   0.241   2.019  14.954 -0.5379 -0.2710 -0.1812
  767MPD2    C411324   0.151   2.016  15.061  0.7322  0.0367  0.7726
  767MPD2    C511325   0.185   2.088  15.174 -0.1789  0.1255 -0.8811
  767MPD2     H11326   0.428   2.096  14.881 -0.6562 -0.3711  0.6227
  767MPD2    H111327   0.061   1.955  15.054  1.3112 -0.8812  1.3161
  767MPD2    H211328   0.314   2.223  15.272  1.5758 -2.9121  1.8316
  767MPD2    H311329   0.122   2.083  15.262  0.7496 -2.4114 -0.3766
  767MPD2     N11330   0.227   1.937  14.844  0.0873 -0.2424  0.8459
  767MPD2    H511331   0.314   1.931  14.793 -0.8651  1.7099 -0.9861
  767MPD2    N111332   0.500   2.252  15.082  0.5648  0.4106  0.1905
  767MPD2    H711333   0.560   2.252  15.000 -1.4163 -0.3107 -1.2418
  768MPD2     C11334   2.163   0.539  10.163 -0.1949 -0.2722 -0.1782
  768MPD2    C111335   2.036   0.531  10.213  0.1874 -0.2847 -1.4639
  768MPD2    C211336   2.012   0.509  10.346 -0.5599  0.5899 -0.6257
  768MPD2    C311337   2.124   0.492  10.430 -0.1473 -0.3472 -0.6754
  768MPD2    C411338   2.252   0.498  10.380  0.3778 -0.6996 -0.6022
  768MPD2    C511339   2.273   0.521  10.250  0.8545 -0.6021  0.3040
  768MPD2     H11340   1.909   0.506  10.380 -0.7903  1.7189 -1.2113
  768MPD2    H111341   2.344   0.509  10.436 -0.2506 -1.1691  0.5313
  768MPD2    H211342   2.186   0.578  10.064  0.2346  0.9594  0.4166
  768MPD2    H311343   2.373   0.544  10.215  1.3358 -0.8325  1.5171
  768MPD2     N11344   2.110   0.468  10.567  0.2903 -0.3756 -0.1658
  768MPD2    H511345   2.190   0.482  10.628  0.8069 -1.0261 -0.7026
  768MPD2    N111346   1.925   0.557  10.127 -0.3755  0.7644 -0.6090
  768MPD2    H711347   1.830   0.553  10.162 -0.8893 -0.1733 -2.1302
  769MPD2     C11348   2.260   3.354  14.933  0.3811  0.2506  0.4338
  769MPD2    C111349   2.150   3.330  15.014  0.2423 -1.0634 -0.9319
  769MPD2    C211350   2.151   3.388  15.143 -0.2974  0.1783  0.2654
  769MPD2    C311351   2.258   3.471  15.184 -0.4381 -0.2975 -0.5833
  769MPD2    C411352   2.373   3.481  15.102 -0.3544  0.5935 -0.1470
  769MPD2    C511353   2.363   3.423  14.977 -0.6503 -0.1765  0.3795
  769MPD2     H11354   2.064   3.382  15.207  1.4955 -1.9142  2.4775
  769MPD2    H111355   2.460   3.541  15.130  0.9219 -1.2849 -0.1248
  769MPD2    H211356   2.273   3.307  14.837  0.4611  0.4896  0.3288
  769MPD2    H311357   2.439   3.433  14.901  0.0254  0.8815  1.1896
  769MPD2     N11358   2.242   3.530  15.316  0.4969  0.3790 -0.2513
  769MPD2    H511359   2.163   3.497  15.370 -0.0468  1.5086 -0.3479
  769MPD2    N111360   2.037   3.270  14.955  0.3936  0.7346  0.1171
  769MPD2    H711361   2.049   3.243  14.858 -2.0274  0.8691 -0.2218
  770MPD2     C11362   1.899   2.395  14.572  0.6830 -0.1486 -0.1748
  770MPD2    C111363   1.795   2.397  14.664  0.6488 -0.5186  0.5204
  770MPD2    C211364   1.759   2.517  14.711  0.0100 -0.6038  0.4357
  770MPD2    C311365   1.824   2.637  14.671 -0.7134 -0.0071 -0.6483
  770MPD2    C411366   1.917   2.632  14.579  0.2859 -0.6801  0.0305
  770MPD2    C511367   1.953   2.511  14.528  0.3132  0.1569  0.0506
  770MPD2     H11368   1.679   2.530  14.784 -1.9734 -0.6661 -1.7439
  770MPD2    H111369   1.965   2.719  14.537 -0.6276  0.0521  0.4987
  770MPD2    H211370   1.927   2.306  14.517  0.4383 -0.2820 -0.0834
  770MPD2    H311371   2.025   2.506  14.448 -0.5844 -1.6885 -0.6563
  770MPD2     N11372   1.792   2.763  14.735  0.2693  1.3249  0.3595
  770MPD2    H511373   1.720   2.763  14.806 -0.0255  0.2270  0.0619
  770MPD2    N111374   1.742   2.275  14.714 -0.6137 -0.6368 -0.0314
  770MPD2    H711375   1.805   2.200  14.687  0.9087  1.0667 -1.2021
  771MPD2     C11376   3.156   1.025  14.115 -0.2468  0.4579 -0.4197
  771MPD2    C111377   3.050   1.099  14.152  0.4041  0.0404  0.5425
  771MPD2    C211378   2.920   1.068  14.101 -0.1279  0.3404 -0.0387
  771MPD2    C311379   2.900   0.951  14.034 -0.5333  0.2640 -0.7684
  771MPD2    C411380   3.008   0.872  13.999  0.4130 -0.3305  0.4014
  771MPD2    C511381   3.132   0.914  14.035 -0.3735  0.6942  0.0846
  771MPD2     H11382   2.832   1.123  14.133  0.3032  1.3281 -0.5436
  771MPD2    H111383   2.999   0.782  13.938  0.7765  1.3712 -2.1533
  771MPD2    H211384   3.257   1.037  14.154 -0.2399  2.0410 -0.9346
  771MPD2    H311385   3.219   0.851  14.026 -1.0292 -0.1540 -0.4086
  771MPD2     N11386   2.765   0.918  13.994 -0.9664 -0.5449 -0.4084
  771MPD2    H511387   2.690   0.978  14.026 -1.9988 -2.2738  0.4187
  771MPD2    N111388   3.062   1.218  14.231  0.2612  0.2700 -0.2532
  771MPD2    H711389   2.974   1.269  14.232 -1.3778 -2.5371 -0.8959
  772MPD2     C11390   2.834   1.777  13.978 -1.0243  0.0743 -0.1316
  772MPD2    C111391   2.810   1.723  14.100  0.4538 -0.6230  0.4235
  772MPD2    C211392   2.680   1.704  14.146 -0.1932 -0.4042 -0.0852
  772MPD2    C311393   2.574   1.725  14.058  0.7131 -0.1033  1.0420
  772MPD2    C411394   2.599   1.753  13.925 -0.4169  0.6065  0.0893
  772MPD2    C511395   2.732   1.784  13.885 -0.4081  0.2963  0.1775
  772MPD2     H11396   2.660   1.669  14.247 -2.1542  2.9983  0.7135
  772MPD2    H111397   2.513   1.754  13.859  0.5617  2.1902 -1.1727
  772MPD2    H211398   2.932   1.810  13.946 -1.2603  0.9330  0.0372
  772MPD2    H311399   2.752   1.817  13.784 -2.4635 -0.3023 -0.4405
  772MPD2     N11400   2.436   1.699  14.097 -0.4804 -0.0732 -0.2647
  772MPD2    H511401   2.376   1.685  14.016 -0.1122 -0.2935 -0.4985
  772MPD2    N111402   2.912   1.683  14.185 -0.1696 -1.2405 -0.2502
  772MPD2    H711403   2.890   1.620  14.261 -3.2517 -1.6773 -1.5216
  773MPD2     C11404   2.101   2.803   0.420  0.0721  0.6334 -0.6360
  773MPD2    C111405   2.055   2.709   0.331  0.0526 -0.2638 -0.2439
  773MPD2    C211406   2.123   2.601   0.295  0.2565  0.1704 -0.5599
  773MPD2    C311407   2.248   2.576   0.354  0.1813 -0.2527 -0.4267
  773MPD2    C411408   2.300   2.666   0.449 -0.1275  0.2535  0.6059
  773MPD2    C511409   2.228   2.782   0.477 -0.2349 -0.2963 -0.6270
  773MPD2     H11410   2.074   2.536   0.224 -1.0704 -0.2591  0.7512
  773MPD2    H111411   2.401   2.645   0.482 -0.0178 -0.2583 -0.0383
  773MPD2    H211412   2.049   2.897   0.435 -1.7127 -0.2976 -1.0177
  773MPD2    H311413   2.267   2.867   0.533 -3.7983  0.9097  0.0208
  773MPD2     N11414   2.315   2.462   0.308  0.3770  0.9397 -0.8466
  773MPD2    H511415   2.261   2.394   0.256  2.0195  0.3316 -1.7595
  773MPD2    N111416   1.931   2.727   0.257 -0.5344 -0.6827  0.2627
  773MPD2    H711417   1.917   2.668   0.176 -2.0910 -0.5856  0.4550
  774MPD2     C11418   0.633   2.024  13.748  0.3147  0.2896 -0.2449
  774MPD2    C111419   0.774   2.014  13.744 -0.5344 -0.1841 -0.2233
  774MPD2    C211420   0.841   2.085  13.646  0.1900  0.0895 -0.2597
  774MPD2    C311421   0.775   2.151  13.547 -0.8827  0.3910  0.5112
  774MPD2    C411422   0.638   2.139  13.535 -0.6959  0.0879  0.3685
  774MPD2    C511423   0.566   2.082  13.640  0.1494  0.2442 -0.0002
  774MPD2     H11424   0.949   2.091  13.644  0.2143 -0.6119 -0.7549
  774MPD2    H111425   0.581   2.188  13.457  2.9240  0.0783 -2.3198
  774MPD2    H211426   0.586   1.979  13.835 -2.2447  1.3490 -1.0843
  774MPD2    H311427   0.458   2.080  13.632  0.1844 -2.4091 -0.1022
  774MPD2     N11428   0.855   2.227  13.453  0.5776 -0.1048  0.4232
  774MPD2    H511429   0.949   2.235  13.490  0.5563 -1.4671  0.7705
  774MPD2    N111430   0.836   1.931  13.840  0.2270 -0.3288  0.0442
  774MPD2    H711431   0.771   1.871  13.890  2.1317 -1.8954  0.6496
  775MPD2     C11432   2.422   3.320  15.731  0.2390 -0.1376 -0.7626
  775MPD2    C111433   2.453   3.410  15.831  0.6733 -0.2641  0.2358
  775MPD2    C211434   2.533   3.519  15.798  0.5420 -0.0535 -0.4144
  775MPD2    C311435   2.593   3.522  15.672  0.6328  0.5927  0.2220
  775MPD2    C411436   2.569   3.423  15.582  0.4147 -0.3284 -0.3193
  775MPD2    C511437   2.485   3.323  15.608 -0.5074 -0.2667 -0.4820
  775MPD2     H11438   2.534   3.598  15.871 -1.5630  0.3445 -0.8282
  775MPD2    H111439   2.608   3.421  15.481  1.6268  0.8182  0.1397
  775MPD2    H211440   2.351   3.241  15.749 -0.4661  0.9174  1.0131
  775MPD2    H311441   2.461   3.249  15.532  0.6849 -0.1992 -0.9128
  775MPD2     N11442   2.673   3.625  15.614  0.5928 -0.2587  0.3117
  775MPD2    H511443   2.720   3.615  15.525  3.1110  1.7703  1.3993
  775MPD2    N111444   2.392   3.393  15.960 -0.3644 -0.0475  0.2111
  775MPD2    H711445   2.341   3.307  15.974  0.3881 -0.4502  0.4626
  776MPD2     C11446   1.809   2.798  12.044 -0.0928  0.4429 -0.2229
  776MPD2    C111447   1.714   2.757  11.962 -0.2719 -0.3218  0.4918
  776MPD2    C211448   1.591   2.820  11.953  1.1593 -0.4517  0.6189
  776MPD2    C311449   1.576   2.935  12.027 -0.4422 -0.0399  0.2311
  776MPD2    C411450   1.684   2.981  12.106 -0.1723  0.3775 -0.0489
  776MPD2    C511451   1.796   2.914  12.122 -0.6450 -0.1035 -0.0177
  776MPD2     H11452   1.514   2.779  11.887  1.8903 -2.1221  0.7931
  776MPD2    H111453   1.666   3.065  12.172  0.6370  0.3111  0.2623
  776MPD2    H211454   1.902   2.743  12.052 -0.6116 -0.3562  0.3630
  776MPD2    H311455   1.871   2.942  12.195  1.5710  0.4382 -2.5202
  776MPD2     N11456   1.461   3.012  12.021 -0.4540  0.4577  0.3692
  776MPD2    H511457   1.459   3.087  12.089 -1.3032  1.5945 -0.8903
  776MPD2    N111458   1.742   2.632  11.902 -0.6674 -0.5144 -0.5520
  776MPD2    H711459   1.831   2.589  11.924 -0.8697  0.1203  1.5461
  777MPD2     C11460   2.229   1.226   1.150 -0.0380 -0.5537  0.6098
  777MPD2    C111461   2.286   1.113   1.206 -0.1147 -0.1042 -0.2244
  777MPD2    C211462   2.297   0.998   1.129  0.6703  0.0852 -0.6438
  777MPD2    C311463   2.240   0.984   1.000  0.0886 -0.0711  0.1660
  777MPD2    C411464   2.188   1.099   0.946  0.5405 -0.4396  0.4269
  777MPD2    C511465   2.186   1.215   1.020 -0.3533 -0.1444 -0.1673
  777MPD2     H11466   2.346   0.910   1.171 -1.1339  0.5159  2.3146
  777MPD2    H111467   2.138   1.101   0.850  0.1564 -0.3072  0.6326
  777MPD2    H211468   2.206   1.321   1.196 -0.5475 -1.1239  1.5459
  777MPD2    H311469   2.145   1.303   0.973 -1.0998 -0.2604  0.2747
  777MPD2     N11470   2.229   0.853   0.939 -0.0978 -0.0348  0.1971
  777MPD2    H511471   2.283   0.774   0.975  1.9850  1.5383  0.4819
  777MPD2    N111472   2.339   1.122   1.344  0.3727  0.2790 -0.6259
  777MPD2    H711473   2.327   1.215   1.384  4.8750 -0.2122  1.8609
  778MPD2     C11474   3.195   1.343  15.529  0.2210  0.4020  0.2282
  778MPD2    C111475   3.132   1.306  15.408 -0.0610 -0.0888  0.3363
  778MPD2    C211476   3.178   1.360  15.289 -0.0015 -0.3212  0.0456
  778MPD2    C311477   3.291   1.441  15.274 -0.0770  0.2404  0.0714
  778MPD2    C411478   3.342   1.487  15.394 -0.3466 -0.2450  0.3454
  778MPD2    C511479   3.294   1.443  15.514  0.0821  0.3809  0.2915
  778MPD2     H11480   3.131   1.336  15.194 -0.5162 -1.4144  0.5848
  778MPD2    H111481   3.423   1.559  15.398  2.3650 -3.4269  2.7358
  778MPD2    H211482   3.169   1.312  15.629  2.5777  2.0158  1.3253
  778MPD2    H311483   3.329   1.487  15.607  1.1062 -0.8086  0.4776
  778MPD2     N11484   3.337   1.463  15.143  0.0290 -0.0298 -0.8656
  778MPD2    H511485   3.287   1.429  15.061 -0.7807  1.9528 -1.1844
  778MPD2    N111486   3.019   1.221  15.413 -0.2268  0.4506  0.8465
  778MPD2    H711487   2.976   1.198  15.324  0.1701  2.5864  0.0872
  779MPD2     C11488   2.547   0.098  14.639 -0.3504 -0.5883  0.0011
  779MPD2    C111489   2.677   0.112  14.594 -0.3009 -0.2333 -0.7014
  779MPD2    C211490   2.717   0.232  14.552  0.3958 -0.1064 -0.5981
  779MPD2    C311491   2.636   0.341  14.567 -0.3210  0.5748 -0.1659
  779MPD2    C411492   2.509   0.332  14.621  0.0227 -0.7493 -0.3306
  779MPD2    C511493   2.462   0.205  14.660  0.0866 -1.0733 -0.3041
  779MPD2     H11494   2.807   0.236  14.491  1.6980 -1.1520  1.2431
  779MPD2    H111495   2.443   0.418  14.621 -1.1983 -1.6742  2.1171
  779MPD2    H211496   2.512   4.716  14.663  1.0844 -1.3032 -0.9277
  779MPD2    H311497   2.364   0.181  14.700  0.3712  0.4529  1.3055
  779MPD2     N11498   2.688   0.464  14.517  0.3680  0.1288  0.4241
  779MPD2    H511499   2.774   0.456  14.464  0.2795  0.2631  0.2575
  779MPD2    N111500   2.766   4.717  14.574 -0.1356  0.1321 -0.1108
  779MPD2    H711501   2.855   0.024  14.532  1.6083 -1.5227  2.6113
  780MPD2     C11502   2.504   4.396   1.956 -0.8821  0.1096 -0.5119
  780MPD2    C111503   2.448   4.373   1.835 -0.7376  0.7649  0.6322
  780MPD2    C211504   2.519   4.420   1.719  0.5353 -0.0966  0.6839
  780MPD2    C311505   2.638   4.486   1.723  0.4345 -0.4335  0.0413
  780MPD2    C411506   2.692   4.512   1.848 -0.1359  0.3214 -0.3816
  780MPD2    C511507   2.629   4.462   1.958  0.1212  0.3604 -0.7598
  780MPD2     H11508   2.475   4.424   1.620 -0.8971 -0.0790  1.3354
  780MPD2    H111509   2.780   4.574   1.861 -0.7320  0.9539  0.6474
  780MPD2    H211510   2.459   4.372   2.051 -0.3486  0.5288 -0.1577
  780MPD2    H311511   2.665   4.475   2.060 -3.5624 -1.2586  0.7503
  780MPD2     N11512   2.686   4.533   1.603  0.1192 -0.2440  0.2228
  780MPD2    H511513   2.634   4.524   1.517  0.1134  0.0913  0.1914
  780MPD2    N111514   2.320   4.319   1.833 -0.4133 -0.0305  0.5105
  780MPD2    H711515   2.288   4.264   1.913 -0.3164  0.0415  0.5987
  781MPD2     C11516   4.011   1.775  11.817  0.4223  0.4888 -0.4411
  781MPD2    C111517   4.127   1.734  11.878 -0.5236  0.0600 -0.8558
  781MPD2    C211518   4.242   1.721  11.797  0.1505 -0.2495  0.3036
  781MPD2    C311519   4.242   1.750  11.659  0.5716  0.2708 -0.2906
  781MPD2    C411520   4.125   1.791  11.605 -0.2699 -0.2959  0.4426
  781MPD2    C511521   4.011   1.802  11.680  0.1403 -0.1346  0.1378
  781MPD2     H11522   4.327   1.679  11.849  0.8866  0.0859 -0.6325
  781MPD2    H111523   4.124   1.809  11.498 -0.1765 -1.2620  0.2795
  781MPD2    H211524   3.922   1.788  11.878  1.2412  0.7936  0.6938
  781MPD2    H311525   3.926   1.846  11.630 -0.7444 -2.4296 -0.3842
  781MPD2     N11526   4.359   1.744  11.584  0.1418  0.0622 -0.3618
  781MPD2    H511527   4.350   1.793  11.495 -0.2093 -0.4271 -0.5976
  781MPD2    N111528   4.113   1.702  12.016  0.0513 -0.1796 -0.3001
  781MPD2    H711529   4.018   1.702  12.051 -0.6520 -1.7806 -2.2576
  782MPD2     C11530   2.623   2.062  10.473 -0.2464 -0.0387 -0.3839
  782MPD2    C111531   2.734   2.135  10.453 -0.4964  0.2763 -0.0590
  782MPD2    C211532   2.733   2.268  10.484 -0.1169  0.1699 -0.1305
  782MPD2    C311533   2.613   2.333  10.524  0.9775 -0.6700  0.1737
  782MPD2    C411534   2.497   2.254  10.529  0.0976  0.1692 -0.7110
  782MPD2    C511535   2.503   2.123  10.499  0.5124 -0.2998  0.1453
  782MPD2     H11536   2.825   2.320  10.457 -0.1108 -0.8294 -2.0729
  782MPD2    H111537   2.402   2.295  10.561  0.4895 -0.5547  1.3893
  782MPD2    H211538   2.632   1.955  10.461 -0.6223  0.1285 -2.1067
  782MPD2    H311539   2.416   2.063  10.525 -2.0587  2.1694 -2.8142
  782MPD2     N11540   2.625   2.469  10.546 -0.2270 -0.0443  0.5899
  782MPD2    H511541   2.718   2.507  10.535 -0.2685 -0.2598 -0.5044
  782MPD2    N111542   2.852   2.060  10.419 -0.1564 -0.2661  0.2440
  782MPD2    H711543   2.848   1.965  10.454  2.9329 -0.0821  1.1205
  783MPD2     C11544   2.495   1.771  10.724  0.3956 -0.1810 -0.4965
  783MPD2    C111545   2.560   1.885  10.772  0.2032  0.2296 -0.1067
  783MPD2    C211546   2.697   1.903  10.740  0.9058  0.1957 -0.1952
  783MPD2    C311547   2.764   1.805  10.660  0.0030  0.3787 -0.6934
  783MPD2    C411548   2.688   1.701  10.604  0.3652  0.1178 -0.3606
  783MPD2    C511549   2.562   1.681  10.644 -0.7800 -0.3640  0.4067
  783MPD2     H11550   2.750   1.979  10.795  1.0858  0.0282 -0.1351
  783MPD2    H111551   2.721   1.632  10.528 -0.5573 -1.3064  0.5409
  783MPD2    H211552   2.387   1.771  10.735  0.3890 -1.2079 -0.5860
  783MPD2    H311553   2.517   1.595  10.595 -0.4988  0.8219 -1.8955
  783MPD2     N11554   2.903   1.825  10.629  0.6329 -0.0947 -0.3398
  783MPD2    H511555   2.943   1.905  10.677 -0.0104 -1.1310  1.9077
  783MPD2    N111556   2.477   1.980  10.833  0.1439 -0.1954 -0.0333
  783MPD2    H711557   2.379   1.956  10.825 -0.1145  0.3284  1.6105
  784MPD2     C11558   0.030   2.172   0.889  0.3101 -0.0861  1.0693
  784MPD2    C111559   0.062   2.291   0.941 -0.4874  0.1396 -0.5344
  784MPD2    C211560   0.024   2.405   0.873  0.0072  0.4677 -0.2919
  784MPD2    C311561   4.671   2.403   0.757  0.2915  0.3554  0.4848
  784MPD2    C411562   4.639   2.278   0.708  0.5589 -0.3280 -0.0882
  784MPD2    C511563   4.674   2.163   0.775  0.5375 -0.2451  1.1489
  784MPD2     H11564   0.070   2.498   0.906  1.5124  0.2461 -1.7959
  784MPD2    H111565   4.589   2.273   0.612  0.1873  1.6967 -0.0040
  784MPD2    H211566   0.057   2.076   0.932 -0.4330 -0.5274  0.5370
  784MPD2    H311567   4.635   2.067   0.741 -3.6303  2.7114 -2.3904
  784MPD2     N11568   4.643   2.523   0.688  0.2971 -0.2002  1.1561
  784MPD2    H511569   4.672   2.606   0.739  0.5988  1.8498 -2.3618
  784MPD2    N111570   0.159   2.301   1.046  0.5477  0.1858 -0.1371
  784MPD2    H711571   0.175   2.392   1.090 -2.3125 -0.0801  1.4743
  785MPD2     C11572   0.643   1.892   9.681 -0.4502  0.2153 -0.2114
  785MPD2    C111573   0.577   1.818   9.773 -0.8297 -0.6466  0.1384
  785MPD2    C211574   0.506   1.700   9.739 -0.5171  0.0767 -0.3354
  785MPD2    C311575   0.506   1.657   9.607 -0.2120 -0.0193 -0.1739
  785MPD2    C411576   0.576   1.727   9.515 -0.2920  0.5701 -0.4154
  785MPD2    C511577   0.636   1.840   9.549  0.6558  0.2288  0.4998
  785MPD2     H11578   0.440   1.650   9.809 -1.2317  1.4278 -0.0537
  785MPD2    H111579   0.597   1.689   9.416 -2.3227 -0.0042 -0.6178
  785MPD2    H211580   0.703   1.979   9.702  1.5938 -1.1338 -0.4581
  785MPD2    H311581   0.679   1.903   9.472  0.2980 -0.1228  0.0106
  785MPD2     N11582   0.425   1.547   9.574  0.0252 -0.2697  0.3566
  785MPD2    H511583   0.373   1.500   9.648 -0.5991 -0.3317 -0.1256
  785MPD2    N111584   0.593   1.866   9.910 -0.4613  0.0733 -0.6036
  785MPD2    H711585   0.629   1.961   9.907 -0.7341  0.2147  0.4492
  786MPD2     C11586   2.947   4.185  14.783  0.7363  0.3770 -0.2490
  786MPD2    C111587   3.073   4.128  14.781  0.5221 -0.0435  0.9881
  786MPD2    C211588   3.174   4.203  14.836 -0.1166 -0.2381  0.0752
  786MPD2    C311589   3.144   4.321  14.909  0.2785  0.7021 -0.3639
  786MPD2    C411590   3.021   4.364  14.929 -0.2611  0.4457 -0.3570
  786MPD2    C511591   2.922   4.298  14.856 -0.8284 -0.0259  0.3638
  786MPD2     H11592   3.273   4.161  14.824  0.6962  1.9589 -1.0348
  786MPD2    H111593   2.992   4.460  14.972  1.4368  0.1402  1.4790
  786MPD2    H211594   2.863   4.138  14.733  0.8199 -0.9078  0.8234
  786MPD2    H311595   2.824   4.346  14.855 -0.1637  1.2526 -1.7580
  786MPD2     N11596   3.242   4.407  14.968  0.6112 -0.8214  0.5914
  786MPD2    H511597   3.204   4.488  15.015  0.5803 -0.7017  0.3639
  786MPD2    N111598   3.112   4.014  14.717  0.4669  0.1697 -0.4556
  786MPD2    H711599   3.203   3.978  14.744 -0.0784 -0.6819  0.2778
  787MPD2     C11600   3.559   3.644  14.911 -0.1416  0.0281  0.5357
  787MPD2    C111601   3.528   3.585  14.796  0.1098 -0.4169 -0.2489
  787MPD2    C211602   3.595   3.469  14.760 -0.1281 -0.5416 -0.0730
  787MPD2    C311603   3.685   3.406  14.841 -0.3933 -0.3581 -0.2655
  787MPD2    C411604   3.691   3.450  14.974  0.3574  0.0821  0.2668
  787MPD2    C511605   3.636   3.571  15.003  0.4482  0.9655 -0.4503
  787MPD2     H11606   3.598   3.447  14.654 -0.3337  0.0341 -0.2001
  787MPD2    H111607   3.749   3.408  15.055  2.1902 -1.3754 -1.7791
  787MPD2    H211608   3.509   3.740  14.927 -0.7840 -0.2535  0.2230
  787MPD2    H311609   3.662   3.620  15.096  0.9452 -0.1894  0.0166
  787MPD2     N11610   3.760   3.300  14.794  0.0706 -0.2066 -1.0683
  787MPD2    H511611   3.752   3.285  14.694 -1.8633 -3.6782 -0.4320
  787MPD2    N111612   3.431   3.653  14.715  0.3119  0.4016  0.2016
  787MPD2    H711613   3.395   3.742  14.747 -1.6318 -0.0095 -0.8598
  788MPD2     C11614   0.830   1.887   1.079  1.1699  0.7416 -0.9679
  788MPD2    C111615   0.714   1.835   1.024  0.0286 -0.2590  0.3509
  788MPD2    C211616   0.629   1.920   0.958 -0.5783  0.6324 -0.1716
  788MPD2    C311617   0.662   2.058   0.969 -0.2967  0.8226 -0.1167
  788MPD2    C411618   0.769   2.111   1.039 -0.0952  0.0217 -0.8453
  788MPD2    C511619   0.854   2.019   1.081 -0.1783  0.0418  1.1499
  788MPD2     H11620   0.549   1.878   0.898  0.1338  0.7098 -1.1617
  788MPD2    H111621   0.792   2.216   1.051  3.3319 -0.8735  0.2963
  788MPD2    H211622   0.910   1.825   1.117 -1.2102 -0.7829  1.5366
  788MPD2    H311623   0.950   2.052   1.117  0.5439 -0.2872 -0.4704
  788MPD2     N11624   0.585   2.155   0.898 -0.2754  0.0263  0.4601
  788MPD2    H511625   0.614   2.252   0.899 -1.2256  0.3205  0.1785
  788MPD2    N111626   0.700   1.694   1.018 -0.2837  0.2961  0.2295
  788MPD2    H711627   0.620   1.652   0.973 -0.5292 -0.1009  1.0293
  789MPD2     C11628   1.215   2.111  16.824  0.4338  0.7175 -0.6789
  789MPD2    C111629   1.129   2.117  16.715  0.0839 -0.6692  0.1108
  789MPD2    C211630   0.998   2.129  16.743  0.4542 -1.3429  0.3697
  789MPD2    C311631   0.950   2.151  16.873 -0.4747  0.3547  0.5365
  789MPD2    C411632   1.042   2.152  16.974 -0.3035  0.4735  1.1684
  789MPD2    C511633   1.169   2.123  16.953 -0.1334  0.3352  0.3620
  789MPD2     H11634   0.937   2.111  16.654  2.3101 -1.7663 -0.8249
  789MPD2    H111635   1.020   2.161  17.080 -3.8091 -0.1942  0.4850
  789MPD2    H211636   1.322   2.113  16.811  0.5922 -2.2370  0.3246
  789MPD2    H311637   1.243   2.122  17.032  0.0874 -0.9894  0.1399
  789MPD2     N11638   0.811   2.167  16.902  0.5514  0.1930  0.5791
  789MPD2    H511639   0.785   2.195  16.996 -2.7238 -1.1472  0.0777
  789MPD2    N111640   1.170   2.090  16.583 -0.1279 -0.1950  0.0513
  789MPD2    H711641   1.108   2.093  16.503 -0.1336 -0.6517  0.0385
  790MPD2     C11642   1.856   2.559  13.509  0.3190 -0.3368 -1.4578
  790MPD2    C111643   1.938   2.670  13.489 -0.3443 -0.7498  0.1807
  790MPD2    C211644   1.931   2.739  13.368  0.1786  0.3953 -0.5924
  790MPD2    C311645   1.859   2.692  13.256 -0.5366 -0.5091  0.4450
  790MPD2    C411646   1.784   2.576  13.271 -0.2271  0.3214 -0.5877
  790MPD2    C511647   1.782   2.512  13.398 -0.2503 -0.4706  0.3069
  790MPD2     H11648   1.993   2.827  13.359 -2.1928  2.0489 -0.6680
  790MPD2    H111649   1.717   2.531  13.199 -1.7407 -0.6305  1.4257
  790MPD2    H211650   1.852   2.508  13.605  0.7052 -0.1247 -1.3303
  790MPD2    H311651   1.714   2.427  13.398  0.2257 -0.8566 -2.0035
  790MPD2     N11652   1.859   2.772  13.148  0.2963 -0.3144  0.1771
  790MPD2    H511653   1.931   2.843  13.143 -1.0136  0.9728 -0.6227
  790MPD2    N111654   2.021   2.726  13.590 -0.4996  0.2382  0.2881
  790MPD2    H711655   1.996   2.703  13.685  2.1590 -1.6575  0.5280
  791MPD2     C11656   1.357   3.357  12.709  0.1969 -0.8890  0.1541
  791MPD2    C111657   1.376   3.221  12.706 -0.6022 -0.7501  0.4953
  791MPD2    C211658   1.271   3.145  12.671  0.1934 -0.2106  0.6295
  791MPD2    C311659   1.143   3.200  12.639  0.0807  0.3155  0.1531
  791MPD2    C411660   1.125   3.339  12.643 -0.3316  0.6691 -0.4306
  791MPD2    C511661   1.232   3.415  12.685 -0.0850 -0.5164  0.1692
  791MPD2     H11662   1.273   3.037  12.671  0.8325 -0.1977  2.6924
  791MPD2    H111663   1.028   3.385  12.629 -1.3933 -0.8611  2.0402
  791MPD2    H211664   1.437   3.426  12.733 -0.3043 -0.1546 -0.2987
  791MPD2    H311665   1.225   3.523  12.686 -1.1535 -0.5772 -0.4067
  791MPD2     N11666   1.044   3.109  12.602 -0.2573  0.0290  0.5733
  791MPD2    H511667   1.062   3.010  12.620  0.9857  0.4313  1.5327
  791MPD2    N111668   1.497   3.165  12.745  0.0555  0.2053 -0.0754
  791MPD2    H711669   1.561   3.230  12.790 -0.6564  0.2207  0.8938
  792MPD2     C11670   2.271   3.224  11.842 -0.2801  0.3326  0.3485
  792MPD2    C111671   2.179   3.263  11.747  0.2730 -0.2138 -0.4964
  792MPD2    C211672   2.096   3.160  11.691 -0.1305  0.3799 -0.6377
  792MPD2    C311673   2.091   3.039  11.753  0.7381  0.4128 -0.5075
  792MPD2    C411674   2.180   3.010  11.856  1.3518  0.2349 -0.1936
  792MPD2    C511675   2.275   3.100  11.893  0.4593  1.1932 -0.0824
  792MPD2     H11676   2.039   3.184  11.602 -1.1534  2.7107  0.6276
  792MPD2    H111677   2.185   2.911  11.900 -1.1285 -0.5220 -1.5957
  792MPD2    H211678   2.343   3.285  11.894  1.1412 -1.5646  0.6258
  792MPD2    H311679   2.351   3.084  11.969 -0.1616 -1.1704  0.0424
  792MPD2     N11680   2.001   2.941  11.707  0.0906 -0.2745 -0.4323
  792MPD2    H511681   1.917   2.964  11.656 -0.4605 -2.2222 -0.4020
  792MPD2    N111682   2.192   3.389  11.687 -0.0952 -0.6184 -0.7128
  792MPD2    H711683   2.276   3.442  11.707 -0.4889 -0.1151 -0.4158
  793MPD2     C11684   1.252   2.775  11.092  0.0151  0.7351  0.0070
  793MPD2    C111685   1.360   2.847  11.046 -0.5561 -0.8246 -0.9941
  793MPD2    C211686   1.469   2.865  11.129  0.8401 -0.5100 -0.0804
  793MPD2    C311687   1.468   2.814  11.259  0.4891 -0.0278  0.0580
  793MPD2    C411688   1.351   2.757  11.306  0.7311 -0.1436  0.5160
  793MPD2    C511689   1.246   2.733  11.220 -0.5101  0.0040  0.0589
  793MPD2     H11690   1.557   2.908  11.082  0.1721  1.9517  0.8852
  793MPD2    H111691   1.339   2.703  11.399 -1.2469 -0.2274  0.2150
  793MPD2    H211692   1.171   2.753  11.024  0.9310 -0.8945 -0.5485
  793MPD2    H311693   1.159   2.674  11.247  0.0833 -0.6969  0.4336
  793MPD2     N11694   1.594   2.813  11.332  0.0905  1.3435 -0.0707
  793MPD2    H511695   1.675   2.851  11.284 -0.3230  1.7392 -0.4579
  793MPD2    N111696   1.360   2.901  10.918  0.3376  0.0831 -0.4981
  793MPD2    H711697   1.455   2.929  10.896 -0.2895  3.5035  1.2021
  794MPD2     C11698   1.806   2.981  17.196  0.1701 -0.0386 -0.1531
  794MPD2    C111699   1.705   3.028  17.280  0.5567 -0.2918 -0.7246
  794MPD2    C211700   1.591   3.088  17.212 -0.4199 -0.3353 -0.4060
  794MPD2    C311701   1.589   3.106  17.077  1.0308 -0.4475 -0.3379
  794MPD2    C411702   1.692   3.060  16.994  0.0967 -0.1080  0.0454
  794MPD2    C511703   1.800   3.003  17.058 -0.5523  0.2242 -0.2780
  794MPD2     H11704   1.506   3.110  17.275  0.7180 -3.5599  2.2352
  794MPD2    H111705   1.684   3.070  16.887  0.7917  0.1286  0.0136
  794MPD2    H211706   1.897   2.939  17.237  0.0292 -1.1179 -0.9277
  794MPD2    H311707   1.884   2.973  16.996 -1.7043 -3.5244  0.0019
  794MPD2     N11708   1.482   3.166  17.005  0.2728  0.3355 -0.6679
  794MPD2    H511709   1.482   3.162  16.903 -2.0495  0.8036 -0.6821
  794MPD2    N111710   1.679   2.994  17.416  0.0104 -0.1217  0.4314
  794MPD2    H711711   1.595   3.031  17.458  0.4848  2.4435 -0.9078
  795MPD2     C11712   4.069   0.642  13.387 -0.2243 -0.1984 -0.1356
  795MPD2    C111713   4.046   0.538  13.302 -0.1534  0.0816 -0.1000
  795MPD2    C211714   4.137   0.465  13.235  0.4577  0.6154 -0.2114
  795MPD2    C311715   4.267   0.505  13.236  0.6908 -0.5818  0.3888
  795MPD2    C411716   4.301   0.598  13.334 -0.0473 -0.2700  0.5146
  795MPD2    C511717   4.202   0.666  13.407  0.3567 -0.6704  0.3737
  795MPD2     H11718   4.108   0.387  13.166  0.0334 -0.3711  1.0696
  795MPD2    H111719   4.399   0.642  13.348  0.1661 -1.1514  1.7527
  795MPD2    H211720   3.996   0.689  13.453 -2.1103 -0.3816 -2.0641
  795MPD2    H311721   4.229   0.744  13.476  2.6003 -0.4442 -0.7395
  795MPD2     N11722   4.362   0.431  13.159 -0.1660  0.4545 -0.0265
  795MPD2    H511723   4.334   0.352  13.101 -0.0153  2.0862 -2.2957
  795MPD2    N111724   3.913   0.503  13.263  0.7118  0.2116  0.0636
  795MPD2    H711725   3.909   0.416  13.210 -0.9981  0.4826 -0.2374
  796MPD2     C11726   3.830   1.899  16.186  0.2528 -0.3940 -0.2521
  796MPD2    C111727   3.831   1.984  16.288 -0.2361  0.5381 -0.5038
  796MPD2    C211728   3.799   2.118  16.268  0.3293 -0.2633 -0.4848
  796MPD2    C311729   3.743   2.158  16.147  0.2037 -0.4343 -0.1840
  796MPD2    C411730   3.745   2.069  16.042 -0.1085 -0.9304  0.6229
  796MPD2    C511731   3.789   1.944  16.059  0.2278 -0.7484  0.1243
  796MPD2     H11732   3.799   2.187  16.352 -0.3611 -1.8569  0.8286
  796MPD2    H111733   3.699   2.098  15.948  2.1985  2.4957  0.5551
  796MPD2    H211734   3.852   1.794  16.204  0.0230 -0.6167 -1.2365
  796MPD2    H311735   3.788   1.875  15.976  0.2594 -2.0025  1.1615
  796MPD2     N11736   3.699   2.289  16.127 -0.2949  0.6910  0.2786
  796MPD2    H511737   3.691   2.345  16.212  0.6104 -0.9873  1.4764
  796MPD2    N111738   3.851   1.930  16.405 -0.0401 -0.4728 -0.3983
  796MPD2    H711739   3.864   1.830  16.403  1.2031 -0.3274  1.1219
  797MPD2     C11740   0.610   1.469  17.473  0.0390  0.2580 -0.0510
  797MPD2    C111741   0.480   1.428  17.504  0.2800 -0.5356 -0.1653
  797MPD2    C211742   0.378   1.515  17.458  0.1841 -0.1899 -0.4591
  797MPD2    C311743   0.395   1.637  17.397  0.3076  0.2954  0.0031
  797MPD2    C411744   0.529   1.678  17.388 -0.0964  0.3492 -0.2600
  797MPD2    C511745   0.628   1.593  17.419 -0.0079 -0.4358 -0.4640
  797MPD2     H11746   0.278   1.486  17.490 -0.1443 -0.0668 -1.3816
  797MPD2    H111747   0.558   1.776  17.351 -2.4628  1.3699  0.5751
  797MPD2    H211748   0.695   1.409  17.504 -0.3088 -0.7671 -1.0790
  797MPD2    H311749   0.728   1.630  17.398 -0.9585  3.3751  1.6084
  797MPD2     N11750   0.293   1.725  17.372 -0.0777 -0.4105 -0.0559
  797MPD2    H511751   0.312   1.824  17.384 -0.0417 -0.4959  0.6131
  797MPD2    N111752   0.444   1.314  17.576  0.1158  0.5846 -0.2292
  797MPD2    H711753   0.349   1.310  17.610  0.3394 -1.6027  0.1121
  798MPD2     C11754   4.528   1.436   0.218  0.1085 -0.7181  0.2714
  798MPD2    C111755   4.636   1.520   0.208  0.0287  0.3562  0.7613
  798MPD2    C211756   0.037   1.467   0.254  0.4462 -0.0421 -0.2323
  798MPD2    C311757   0.048   1.330   0.291 -0.7234  0.2938 -0.0074
  798MPD2    C411758   4.656   1.251   0.299  0.5091  0.3933  0.1576
  798MPD2    C511759   4.540   1.310   0.266  0.2576  0.3519  0.5606
  798MPD2     H11760   0.124   1.532   0.248  1.0701 -0.7366  1.2110
  798MPD2    H111761   4.662   1.151   0.340 -0.9679  1.6268  3.3049
  798MPD2    H211762   4.428   1.468   0.192  0.0318 -0.8748  0.3748
  798MPD2    H311763   4.448   1.256   0.286  0.0416 -0.0578 -1.5260
  798MPD2     N11764   0.175   1.272   0.295  0.0340 -0.0912  0.4003
  798MPD2    H511765   0.247   1.335   0.261  1.7536 -1.2658  1.8198
  798MPD2    N111766   4.634   1.646   0.147  0.1504 -0.0628 -0.7535
  798MPD2    H711767   4.543   1.675   0.113  1.2468  2.7653 -1.2899
  799MPD2     C11768   3.452   3.007  14.911 -0.7478 -0.3018  0.4721
  799MPD2    C111769   3.379   2.922  14.826  0.6969 -0.6957 -0.0912
  799MPD2    C211770   3.295   2.980  14.732  0.2779  0.3211 -0.8321
  799MPD2    C311771   3.283   3.115  14.722 -0.1017 -0.3382  0.0833
  799MPD2    C411772   3.362   3.196  14.801  0.0167  0.1703 -0.1748
  799MPD2    C511773   3.443   3.142  14.895  0.3357 -0.1657 -0.1380
  799MPD2     H11774   3.234   2.911  14.675 -1.1771  1.0136 -0.1026
  799MPD2    H111775   3.365   3.304  14.798  0.8965  0.1065 -1.4102
  799MPD2    H211776   3.510   2.962  14.990 -0.0440 -1.2023 -0.5685
  799MPD2    H311777   3.505   3.202  14.961  1.6387  0.8537 -2.2896
  799MPD2     N11778   3.189   3.176  14.636  0.1283  0.1178 -0.4293
  799MPD2    H511779   3.197   3.277  14.631 -0.5513  0.0854 -2.2077
  799MPD2    N111780   3.384   2.781  14.817  0.3766 -0.1558 -0.4039
  799MPD2    H711781   3.328   2.728  14.751 -0.0983 -0.4242  0.2208
  800MPD2     C11782   3.895   4.299  14.424 -0.1472 -0.6180  0.0457
  800MPD2    C111783   4.023   4.349  14.399  0.5008 -0.1716  0.0671
  800MPD2    C211784   4.084   4.327  14.279 -0.0674 -0.8661 -0.5599
  800MPD2    C311785   4.017   4.246  14.189 -0.6531 -0.8099 -0.0371
  800MPD2    C411786   3.890   4.201  14.209  0.0703  0.5494  0.6823
  800MPD2    C511787   3.833   4.227  14.331  0.7429 -0.2000 -0.0852
  800MPD2     H11788   4.180   4.375  14.265 -0.3327 -0.5607 -1.3507
  800MPD2    H111789   3.830   4.156  14.131  0.0454 -0.1799  1.1236
  800MPD2    H211790   3.851   4.333  14.517 -2.4607  0.9097 -1.6125
  800MPD2    H311791   3.730   4.203  14.357  1.3084 -1.4304  1.0328
  800MPD2     N11792   4.085   4.245  14.067 -0.9513  0.1963 -0.4118
  800MPD2    H511793   4.172   4.296  14.058  0.3521 -2.2086 -1.3705
  800MPD2    N111794   4.090   4.423  14.503  0.2301 -0.1037  0.1187
  800MPD2    H711795   4.037   4.467  14.578 -0.9974 -0.2355 -0.6774
  801MPD2     C11796   3.991   0.340  14.779 -0.1515 -0.1509 -1.1271
  801MPD2    C111797   3.977   0.269  14.661 -0.5697  0.2121  0.4074
  801MPD2    C211798   3.849   0.269  14.602 -0.1133  0.4664  0.1266
  801MPD2    C311799   3.745   0.340  14.660 -0.0746  0.1295 -0.5305
  801MPD2    C411800   3.772   0.429  14.767  0.2928 -0.1064  0.3266
  801MPD2    C511801   3.891   0.418  14.829  0.2570  0.0671  0.1024
  801MPD2     H11802   3.820   0.211  14.516  0.7377  1.0296 -0.5434
  801MPD2    H111803   3.685   0.487  14.797  1.4063  1.5587  0.2984
  801MPD2    H211804   4.086   0.353  14.829 -0.9987 -0.0260  0.4450
  801MPD2    H311805   3.924   0.480  14.911  0.1990  0.9031 -0.5023
  801MPD2     N11806   3.612   0.338  14.613 -0.1211 -0.7954 -0.3783
  801MPD2    H511807   3.556   0.408  14.661 -1.1132 -0.7058 -1.6835
  801MPD2    N111808   4.072   0.186  14.604  0.6322  0.1115 -0.2684
  801MPD2    H711809   4.038   0.116  14.538  0.4527  0.3292 -0.4043
  802MPD2     C11810   2.901   4.501   0.035  0.2025  0.8569 -0.5682
  802MPD2    C111811   2.999   4.521   0.126 -0.5809  0.1200 -0.8799
  802MPD2    C211812   3.104   4.437   0.134  0.4824 -0.3084  0.9673
  802MPD2    C311813   3.124   4.343   0.034 -0.5302  0.1801  0.2108
  802MPD2    C411814   3.026   4.314  17.614 -0.2070  0.4101  0.0389
  802MPD2    C511815   2.918   4.398  17.618 -0.2240 -0.7340 -0.1726
  802MPD2     H11816   3.187   4.465   0.197 -0.6260 -2.1627  3.2331
  802MPD2    H111817   3.035   4.243  17.533 -1.2924  1.4932 -1.0287
  802MPD2    H211818   2.814   4.564   0.024  0.0055  0.9145  1.2453
  802MPD2    H311819   2.839   4.378  17.546 -1.2284  2.0036  0.1815
  802MPD2     N11820   3.254   4.288   0.028  0.0077 -0.0823  0.3867
  802MPD2    H511821   3.314   4.314   0.105 -0.7478 -1.0176  1.3103
  802MPD2    N111822   3.012   4.642   0.207 -0.2468  0.0092  0.0359
  802MPD2    H711823   3.095   4.654   0.265  0.6287 -2.3684 -0.7471
  803MPD2     C11824   0.361   3.500  11.677 -0.1936 -0.3679 -0.2645
  803MPD2    C111825   0.307   3.510  11.797  0.8510 -0.1974  0.0539
  803MPD2    C211826   0.201   3.420  11.829  0.6430  0.0979 -0.1407
  803MPD2    C311827   0.163   3.326  11.743 -0.5639 -0.9882  0.4076
  803MPD2    C411828   0.237   3.305  11.633  0.6413 -0.2887  0.5516
  803MPD2    C511829   0.328   3.401  11.594 -0.4657 -0.3044  0.2229
  803MPD2     H11830   0.159   3.416  11.929 -0.5306  0.0337 -0.6393
  803MPD2    H111831   0.217   3.221  11.567  1.8216 -0.0954 -0.0609
  803MPD2    H211832   0.430   3.576  11.641 -2.4094  1.7135 -0.0958
  803MPD2    H311833   0.367   3.404  11.493 -0.4104  2.6150  0.3335
  803MPD2     N11834   0.057   3.239  11.776  0.1674  0.3046  0.6414
  803MPD2    H511835   0.040   3.150  11.729 -0.1399  0.2382  0.8795
  803MPD2    N111836   0.348   3.601  11.897  0.2679  0.1350 -0.4086
  803MPD2    H711837   0.312   3.583  11.990  0.0218 -0.0859 -0.5447
  804MPD2     C11838   3.927   0.302  17.361  0.3025  0.0920  0.2423
  804MPD2    C111839   4.026   0.224  17.419 -0.1809  0.9647  0.3707
  804MPD2    C211840   4.127   0.291  17.479  0.2416 -0.1940  0.4599
  804MPD2    C311841   4.140   0.431  17.471 -0.0434  0.1419  0.3826
  804MPD2    C411842   4.037   0.504  17.416 -0.4568 -0.1587 -0.0947
  804MPD2    C511843   3.933   0.441  17.361 -0.2426  0.2179 -0.2449
  804MPD2     H11844   4.184   0.231  17.548  2.1458  0.3336 -0.6394
  804MPD2    H111845   4.040   0.612  17.418  2.8489 -0.2360 -1.2154
  804MPD2    H211846   3.847   0.262  17.301 -0.6356 -0.2200  1.6967
  804MPD2    H311847   3.847   0.491  17.319 -1.1226  2.2817  3.9836
  804MPD2     N11848   4.260   0.509  17.506  0.1397 -0.4320  0.1256
  804MPD2    H511849   4.254   0.608  17.482 -0.6309 -0.8456 -1.4194
  804MPD2    N111850   4.027   0.080  17.416  0.0671 -0.2486  0.0119
  804MPD2    H711851   4.102   0.033  17.466  1.5441  0.4011 -1.5912
  805MPD2     C11852   3.182   3.632  15.566 -0.2874 -0.3010  0.4054
  805MPD2    C111853   3.268   3.540  15.505  0.3891 -0.3091 -0.0171
  805MPD2    C211854   3.398   3.527  15.549  0.6428 -0.0650  0.0199
  805MPD2    C311855   3.437   3.604  15.654  0.7315  0.5367  1.0971
  805MPD2    C411856   3.355   3.685  15.723  0.4412 -0.2275 -0.3339
  805MPD2    C511857   3.225   3.704  15.674  0.5396 -0.9957  0.3355
  805MPD2     H11858   3.455   3.445  15.509 -1.1390 -0.4810 -1.6828
  805MPD2    H111859   3.385   3.736  15.814 -1.6953  1.4384 -0.5516
  805MPD2    H211860   3.082   3.651  15.528 -1.7673 -1.6050  3.5593
  805MPD2    H311861   3.157   3.764  15.733 -0.9606 -1.5769 -0.7955
  805MPD2     N11862   3.573   3.598  15.706 -0.1976  1.2087  0.4578
  805MPD2    H511863   3.587   3.646  15.794  1.8187  0.9885  0.2786
  805MPD2    N111864   3.217   3.461  15.402 -0.0310  0.1855 -0.1884
  805MPD2    H711865   3.287   3.411  15.349 -1.5820  0.4816 -2.5148
  806MPD2     C11866   3.313   2.174   0.523 -0.0397  0.7864  0.9831
  806MPD2    C111867   3.413   2.155   0.615  0.9068  0.2100  0.5278
  806MPD2    C211868   3.551   2.167   0.571  0.1733  0.6330  0.4046
  806MPD2    C311869   3.580   2.197   0.443  0.8908 -0.3184  0.0344
  806MPD2    C411870   3.478   2.207   0.350  0.8525 -0.5180 -0.2910
  806MPD2    C511871   3.347   2.193   0.391  0.3574  0.7433 -0.2429
  806MPD2     H11872   3.632   2.150   0.642 -0.0064 -0.2078  0.4108
  806MPD2    H111873   3.497   2.229   0.246  0.2828 -3.0099 -0.8991
  806MPD2    H211874   3.209   2.171   0.556  0.0565 -0.5447  1.1718
  806MPD2    H311875   3.270   2.200   0.315  1.1258  0.0962 -1.0852
  806MPD2     N11876   3.718   2.221   0.415 -0.0991  0.6490  0.2090
  806MPD2    H511877   3.778   2.212   0.496  0.8668 -0.0241 -0.5778
  806MPD2    N111878   3.379   2.132   0.744  0.1268 -0.3334 -0.7086
  806MPD2    H711879   3.280   2.126   0.765 -0.0825  1.1744 -1.2624
  807MPD2     C11880   2.925   1.844   1.351  0.3782  0.1280 -0.4965
  807MPD2    C111881   3.041   1.904   1.391 -0.2132 -0.0520 -0.7164
  807MPD2    C211882   3.057   1.933   1.523 -0.5717 -0.0040  0.1587
  807MPD2    C311883   2.954   1.920   1.614  0.3143  0.0990  0.0948
  807MPD2    C411884   2.836   1.861   1.571  0.8649 -1.1517 -0.1473
  807MPD2    C511885   2.820   1.825   1.438  0.5498  0.1255  0.6821
  807MPD2     H11886   3.143   1.995   1.541 -0.1280 -0.4545 -0.4118
  807MPD2    H111887   2.747   1.859   1.634  0.7348  2.2845 -0.2438
  807MPD2    H211888   2.903   1.836   1.245 -2.5481 -0.4232  0.1391
  807MPD2    H311889   2.729   1.780   1.400 -0.2315  1.0415  1.5070
  807MPD2     N11890   2.965   1.984   1.741 -0.2355  0.1425 -0.4251
  807MPD2    H511891   3.055   2.025   1.762 -1.3141  1.5194  1.5467
  807MPD2    N111892   3.154   1.937   1.305  0.3254  1.0230  0.5089
  807MPD2    H711893   3.220   1.991   1.360 -1.6534  1.6403  2.2812
  808MPD2     C11894   4.220   3.826  10.196  0.1986 -0.4969 -0.3329
  808MPD2    C111895   4.346   3.764  10.207 -0.1736 -0.3844 -0.1701
  808MPD2    C211896   4.462   3.841  10.188 -0.6797 -0.0168 -0.0367
  808MPD2    C311897   4.450   3.970  10.132 -0.0544 -0.0982  0.1831
  808MPD2    C411898   4.324   4.026  10.122 -0.3186 -0.2619  0.2656
  808MPD2    C511899   4.210   3.960  10.158  0.3240  0.6967  0.7057
  808MPD2     H11900   4.554   3.789  10.210 -1.2722 -0.2062  2.0714
  808MPD2    H111901   4.316   4.129  10.088  2.2386 -0.3800 -0.6804
  808MPD2    H211902   4.135   3.772  10.235  1.0958 -1.0726  0.8558
  808MPD2    H311903   4.113   4.008  10.155 -0.6519 -1.4166 -1.4312
  808MPD2     N11904   4.564   4.047  10.096  0.0034  0.1860  0.0427
  808MPD2    H511905   4.540   4.141  10.065  1.6033  1.2900  2.1530
  808MPD2    N111906   4.355   3.637  10.271  0.2444  0.1360  0.1551
  808MPD2    H711907   4.444   3.617  10.315  0.5441  1.7345  0.2836
  809MPD2     C11908   0.613   3.900   9.432  0.1543 -0.3756 -0.3729
  809MPD2    C111909   0.669   3.960   9.541  0.2187 -0.2607 -0.3142
  809MPD2    C211910   0.578   3.999   9.641  0.4007 -0.1544  0.7522
  809MPD2    C311911   0.443   3.962   9.644  0.3125 -0.0301  0.4870
  809MPD2    C411912   0.395   3.896   9.549 -0.4002 -0.0964 -0.0555
  809MPD2    C511913   0.477   3.867   9.435 -0.2176  0.1392  1.1717
  809MPD2     H11914   0.619   4.059   9.720  0.1707 -0.0936  0.8248
  809MPD2    H111915   0.292   3.865   9.550 -0.4290 -0.0185 -0.8636
  809MPD2    H211916   0.668   3.885   9.340 -0.1422 -0.3102 -0.5601
  809MPD2    H311917   0.427   3.812   9.355  0.3703  2.1800 -0.6063
  809MPD2     N11918   0.357   3.998   9.751  0.1881  0.1314  0.1926
  809MPD2    H511919   0.263   3.962   9.744 -0.1664  1.3893 -1.7637
  809MPD2    N111920   0.800   4.003   9.555  0.7211  0.9236  0.1653
  809MPD2    H711921   0.819   4.061   9.636  1.6611  1.2227 -0.2671
  810MPD2     C11922   4.153   3.822  10.582  0.4875  0.1660 -0.9003
  810MPD2    C111923   4.026   3.790  10.542 -0.1298  0.1428 -0.0208
  810MPD2    C211924   3.943   3.899  10.494 -0.7583  0.7423  0.3266
  810MPD2    C311925   3.987   4.030  10.479  0.4088 -0.0346 -0.0471
  810MPD2    C411926   4.114   4.053  10.517  0.7879  0.5042  0.3887
  810MPD2    C511927   4.196   3.953  10.568 -0.4084  0.3198  0.1018
  810MPD2     H11928   3.846   3.873  10.453  0.1620  0.4941 -1.7439
  810MPD2    H111929   4.163   4.150  10.509 -0.7100  1.1556 -0.8207
  810MPD2    H211930   4.221   3.745  10.617  0.2601  0.0105 -0.7969
  810MPD2    H311931   4.296   3.984  10.598 -0.5606 -2.2060  3.3093
  810MPD2     N11932   3.925   4.138  10.408 -0.1798  0.2173 -0.0085
  810MPD2    H511933   3.987   4.218  10.397  0.1877  0.2009  1.9704
  810MPD2    N111934   3.985   3.653  10.543 -0.1067 -0.0329  0.3750
  810MPD2    H711935   3.891   3.642  10.506 -0.1469  2.5888 -0.2609
  811MPD2     C11936   3.483   3.305  10.074 -0.7438 -0.1244  0.2137
  811MPD2    C111937   3.553   3.399  10.140  0.3922 -0.9235 -0.0439
  811MPD2    C211938   3.578   3.514  10.070 -0.6612 -0.0492 -0.9756
  811MPD2    C311939   3.524   3.545   9.952 -0.2119  0.1520  0.2398
  811MPD2    C411940   3.442   3.451   9.892  0.1855 -0.2159  0.8684
  811MPD2    C511941   3.424   3.331   9.953 -0.1147 -0.1193 -0.4944
  811MPD2     H11942   3.642   3.584  10.122 -2.0672  2.0134 -2.0326
  811MPD2    H111943   3.399   3.477   9.796  1.7955 -0.1402  0.1605
  811MPD2    H211944   3.467   3.206  10.116  1.4994 -0.6848 -0.2387
  811MPD2    H311945   3.358   3.257   9.908 -0.7413 -0.9200  1.7360
  811MPD2     N11946   3.556   3.670   9.897  0.2445 -1.1245  0.2567
  811MPD2    H511947   3.609   3.725   9.963 -0.2473 -0.9671  0.5199
  811MPD2    N111948   3.611   3.364  10.267 -0.2034 -0.5237 -0.5856
  811MPD2    H711949   3.571   3.281  10.310  0.3548  0.9522  2.7751
  812MPD2     C11950   2.751   3.480  12.233  0.2328 -0.0142  0.1694
  812MPD2    C111951   2.627   3.426  12.258  0.5615  0.0445 -0.8789
  812MPD2    C211952   2.615   3.329  12.352 -0.4278 -0.4595  0.2368
  812MPD2    C311953   2.723   3.290  12.428 -0.1603 -0.3200 -0.3736
  812MPD2    C411954   2.847   3.339  12.394 -0.0714  0.6684 -0.0713
  812MPD2    C511955   2.857   3.437  12.301  1.1092  0.2337  0.0514
  812MPD2     H11956   2.520   3.284  12.379 -0.1487  0.1272  2.1813
  812MPD2    H111957   2.939   3.314  12.447  0.4010  1.0863 -0.7017
  812MPD2    H211958   2.770   3.551  12.153  1.0673  0.3441  0.6951
  812MPD2    H311959   2.955   3.483  12.285  0.4629  1.6788  0.2133
  812MPD2     N11960   2.710   3.200  12.534 -0.0156  0.0644 -0.1230
  812MPD2    H511961   2.617   3.160  12.539 -0.3332  0.8396  0.2138
  812MPD2    N111962   2.530   3.492  12.185  0.2017 -0.1770 -0.1656
  812MPD2    H711963   2.562   3.569  12.128 -3.4654 -0.6965 -2.9426
  813MPD2     C11964   1.583   0.251  12.882 -0.1298  0.0339 -0.1891
  813MPD2    C111965   1.570   0.337  12.983 -0.5156 -0.3251 -0.9670
  813MPD2    C211966   1.466   0.429  12.978  0.4488 -0.0106  0.1548
  813MPD2    C311967   1.373   0.441  12.868  0.3771  0.4532 -0.2618
  813MPD2    C411968   1.389   0.345  12.767  0.7903  0.0146 -0.2590
  813MPD2    C511969   1.494   0.259  12.776 -0.5010  0.2761  0.1927
  813MPD2     H11970   1.451   0.503  13.056 -0.1678  1.0721 -0.9864
  813MPD2    H111971   1.332   0.344  12.675 -1.4522 -1.3254  1.1208
  813MPD2    H211972   1.656   0.172  12.872  0.5731  0.4646  1.6657
  813MPD2    H311973   1.519   0.193  12.693 -3.5512  0.3258 -0.7434
  813MPD2     N11974   1.263   0.529  12.881  0.1059 -0.3822  0.1305
  813MPD2    H511975   1.256   0.580  12.969 -0.4702  0.3051 -0.3196
  813MPD2    N111976   1.662   0.334  13.091 -0.0387  0.1152  0.5325
  813MPD2    H711977   1.645   0.396  13.168 -0.9791 -1.1334  1.3358
  814MPD2     C11978   1.910   1.188  11.725 -0.0301  0.3434  0.1046
  814MPD2    C111979   1.952   1.324  11.720  0.1836  0.0556  0.0089
  814MPD2    C211980   2.009   1.376  11.835 -0.4677  0.8460  0.6029
  814MPD2    C311981   2.013   1.311  11.955 -0.0073  0.2218  0.2501
  814MPD2    C411982   1.964   1.177  11.952 -0.2857 -0.1416  0.4094
  814MPD2    C511983   1.930   1.116  11.839 -1.0941 -0.0618  0.9259
  814MPD2     H11984   2.034   1.482  11.832  1.7274  0.3255  0.9491
  814MPD2    H111985   1.981   1.114  12.038 -1.3269 -0.1737  0.5911
  814MPD2    H211986   1.884   1.133  11.636  1.5175  0.3828 -0.3589
  814MPD2    H311987   1.908   1.010  11.842 -1.1335 -0.0875 -0.2884
  814MPD2     N11988   2.057   1.366  12.080  0.2439  0.0188  0.9027
  814MPD2    H511989   2.083   1.301  12.153 -0.4627 -0.7631  0.4566
  814MPD2    N111990   1.954   1.406  11.605 -0.4140 -0.5269  1.0974
  814MPD2    H711991   1.988   1.501  11.618 -1.4280  0.4978 -3.4433
  815MPD2     C11992   2.526   0.236  11.958  0.1260  0.3636  0.6516
  815MPD2    C111993   2.544   0.166  11.834  0.2670 -0.2219 -0.4915
  815MPD2    C211994   2.434   0.087  11.801  0.0100  0.1542  0.0258
  815MPD2    C311995   2.311   0.082  11.875  0.0313  0.5197 -0.5388
  815MPD2    C411996   2.308   0.167  11.980 -0.2913 -0.2354 -0.2361
  815MPD2    C511997   2.414   0.241  12.026  0.2081  0.3745 -0.0336
  815MPD2     H11998   2.442   0.020  11.716  0.7174  0.2962 -0.0211
  815MPD2    H111999   2.213   0.179  12.031 -0.0191 -0.7697  0.3945
  815MPD2    H212000   2.605   0.288  12.012 -1.1806  0.3233  2.6276
  815MPD2    H312001   2.407   0.304  12.114 -0.7314  2.6096 -1.7041
  815MPD2     N12002   2.213   4.706  11.835  0.6085  0.4329 -0.4763
  815MPD2    H512003   2.223   4.662  11.744 -0.0584 -0.6559 -0.0227
  815MPD2    N112004   2.657   0.166  11.765 -0.5450 -0.0803 -0.1983
  815MPD2    H712005   2.739   0.188  11.821  0.6319 -0.7337 -1.6760
  816MPD2     C12006   2.698   4.541   0.619 -0.0841 -0.2649 -0.1164
  816MPD2    C112007   2.678   4.567   0.488 -0.2452  0.2769  0.0269
  816MPD2    C212008   2.726   4.475   0.393  0.3997 -0.0239 -0.7879
  816MPD2    C312009   2.811   4.375   0.434  0.0558  0.1927 -0.4681
  816MPD2    C412010   2.822   4.344   0.574 -0.0220  0.9036  0.0438
  816MPD2    C512011   2.763   4.429   0.661 -0.0008  0.0527  0.1380
  816MPD2     H12012   2.713   4.501   0.288 -1.0683  1.2455 -0.2917
  816MPD2    H112013   2.889   4.270   0.615  1.1698  1.4256 -0.9563
  816MPD2    H212014   2.645   4.603   0.691  1.0314 -0.3120  0.7338
  816MPD2    H312015   2.767   4.406   0.766 -1.1639 -3.8943 -0.6782
  816MPD2     N12016   2.870   4.294   0.328  0.7368 -0.2261 -0.3182
  816MPD2    H512017   2.850   4.314   0.230 -2.1711 -1.3181  0.0372
  816MPD2    N112018   2.590   4.675   0.463  0.3899 -0.7381  0.7409
  816MPD2    H712019   2.559   0.001   0.549  1.2889  2.7902 -0.7654
  817MPD2     C12020   3.310   0.442   9.554 -0.0114 -0.3825  0.2453
  817MPD2    C112021   3.173   0.439   9.556  0.2934 -0.2485 -0.1138
  817MPD2    C212022   3.106   0.553   9.520  0.6185 -0.3830 -0.1183
  817MPD2    C312023   3.171   0.673   9.512 -0.5662  0.0533  0.2501
  817MPD2    C412024   3.306   0.674   9.521  0.2040  0.0542  0.6236
  817MPD2    C512025   3.375   0.560   9.543  0.2098  0.0325  0.1713
  817MPD2     H12026   2.999   0.541   9.518  0.3504  1.9922  0.2681
  817MPD2    H112027   3.367   0.764   9.514 -0.8605  0.7138 -0.3633
  817MPD2    H212028   3.367   0.353   9.575 -1.3483 -1.8279 -2.2515
  817MPD2    H312029   3.482   0.571   9.558  0.0464  1.2178  0.4490
  817MPD2     N12030   3.098   0.788   9.484  0.1733 -0.2729 -0.7830
  817MPD2    H512031   3.004   0.768   9.451 -0.1428  0.8828 -0.5867
  817MPD2    N112032   3.093   0.323   9.575 -0.1719  0.1092 -0.0732
  817MPD2    H712033   2.996   0.333   9.549 -0.5955 -2.5138  0.5878
  818MPD2     C12034   2.186   1.221   9.755 -0.1874  0.1709  0.4735
  818MPD2    C112035   2.064   1.197   9.699 -0.2588 -0.0052 -0.4864
  818MPD2    C212036   2.038   1.066   9.661 -0.1545  0.4136  0.0516
  818MPD2    C312037   2.122   0.955   9.683  0.0646 -0.0743 -0.4160
  818MPD2    C412038   2.241   0.979   9.744  0.3261 -0.1793 -0.6638
  818MPD2    C512039   2.271   1.116   9.774 -0.3526  0.5033 -0.0232
  818MPD2     H12040   1.938   1.050   9.625  0.1812 -0.2960 -0.5701
  818MPD2    H112041   2.316   0.903   9.761 -0.3593 -0.8658 -0.7165
  818MPD2    H212042   2.218   1.319   9.787  2.1584 -1.0121  1.6918
  818MPD2    H312043   2.367   1.138   9.821  0.4060 -0.8488 -0.9572
  818MPD2     N12044   2.102   0.823   9.632  0.5065  0.1357  0.6043
  818MPD2    H512045   2.167   0.750   9.660  0.1018 -1.0617 -1.6168
  818MPD2    N112046   1.966   1.294   9.667 -0.4296  0.0785  0.5816
  818MPD2    H712047   1.895   1.257   9.605 -1.5221  0.8593  1.3771
  819MPD2     C12048   3.887   2.792  15.818 -0.0832 -0.4233  0.2022
  819MPD2    C112049   3.906   2.666  15.767  0.6342  0.4848 -0.2768
  819MPD2    C212050   3.989   2.576  15.826  0.1162 -0.2286 -0.2266
  819MPD2    C312051   4.082   2.614  15.919  0.1433  0.0763  0.9350
  819MPD2    C412052   4.076   2.747  15.957 -0.2456 -0.7436  0.2033
  819MPD2    C512053   3.985   2.832  15.907  0.5959  0.1302  0.4354
  819MPD2     H12054   3.979   2.470  15.808 -0.7032 -0.0129 -1.0782
  819MPD2    H112055   4.130   2.793  16.038 -1.9808  1.8874 -0.1090
  819MPD2    H212056   3.821   2.864  15.769 -1.6129 -2.1145 -0.2186
  819MPD2    H312057   3.989   2.934  15.943 -0.5687 -0.1399  1.3122
  819MPD2     N12058   4.168   2.524  15.985  0.0839  0.0180 -0.9795
  819MPD2    H512059   4.170   2.432  15.942 -0.4142 -0.5671  0.2381
  819MPD2    N112060   3.811   2.623  15.669  0.2639 -0.9250  0.5197
  819MPD2    H712061   3.722   2.670  15.652  2.6714  3.7239  0.9639
  820MPD2     C12062   3.068   2.715  15.024  0.1646 -0.0323 -0.3768
  820MPD2    C112063   3.154   2.796  15.091 -0.2745  0.2246 -0.1640
  820MPD2    C212064   3.251   2.731  15.164 -0.5051  0.3341 -0.6999
  820MPD2    C312065   3.244   2.602  15.196  0.0769  0.0225 -0.1445
  820MPD2    C412066   3.146   2.523  15.142 -0.7645 -0.1238 -0.1991
  820MPD2    C512067   3.065   2.583  15.049 -0.1365 -0.6805 -0.2591
  820MPD2     H12068   3.322   2.791  15.220 -0.2604  1.4267 -2.1815
  820MPD2    H112069   3.136   2.419  15.171  0.5927 -0.4508 -0.8919
  820MPD2    H212070   2.995   2.755  14.955  1.0696  2.2868  0.0186
  820MPD2    H312071   2.987   2.523  15.005  1.4085 -2.1303 -1.0327
  820MPD2     N12072   3.332   2.539  15.285 -0.4589 -0.7819  0.1085
  820MPD2    H512073   3.310   2.445  15.316  0.4474 -0.9802  0.1536
  820MPD2    N112074   3.135   2.941  15.080 -0.0751  0.3004 -0.6346
  820MPD2    H712075   3.058   2.966  15.018 -1.4690 -2.6332 -0.0972
  821MPD2     C12076   4.097   3.940  13.231 -0.7107 -0.2786  0.9172
  821MPD2    C112077   4.214   3.978  13.300 -0.6467  0.4934  0.6595
  821MPD2    C212078   4.332   3.937  13.241 -0.2706  0.2453  0.1210
  821MPD2    C312079   4.339   3.876  13.117 -0.4669 -0.2735  0.5378
  821MPD2    C412080   4.219   3.842  13.054 -0.1303  0.0809  0.2121
  821MPD2    C512081   4.106   3.879  13.113 -0.5853 -0.0520 -0.3971
  821MPD2     H12082   4.419   3.961  13.301 -0.9665 -1.3861  1.7663
  821MPD2    H112083   4.217   3.807  12.952 -2.9101  0.8174  0.0109
  821MPD2    H212084   4.002   3.982  13.264 -0.5951  0.7976 -0.1129
  821MPD2    H312085   4.019   3.861  13.051  0.6929 -1.5235 -1.7772
  821MPD2     N12086   4.459   3.842  13.052  0.6304 -0.2624  0.4455
  821MPD2    H512087   4.464   3.831  12.952 -0.9292 -1.2030  0.4700
  821MPD2    N112088   4.216   4.052  13.418 -0.7945  0.7960  0.4890
  821MPD2    H712089   4.303   4.054  13.470 -1.6863  0.5504  1.9969
  822MPD2     C12090   4.578   4.127  15.751  0.2783 -0.1046  0.0981
  822MPD2    C112091   4.621   4.121  15.881 -0.3551 -0.3204 -1.1213
  822MPD2    C212092   4.581   4.214  15.975  0.3629 -0.3418 -0.1836
  822MPD2    C312093   4.488   4.309  15.951  0.4534 -0.0792 -0.4362
  822MPD2    C412094   4.450   4.324  15.820 -0.1853 -0.6693  0.2022
  822MPD2    C512095   4.496   4.234  15.730  0.1454 -0.5756  0.0045
  822MPD2     H12096   4.608   4.192  16.077  0.6595 -2.2987 -0.6854
  822MPD2    H112097   4.372   4.392  15.789 -0.1892  0.2323  2.1948
  822MPD2    H212098   4.603   4.065  15.666 -0.0771 -1.5153  1.0166
  822MPD2    H312099   4.457   4.231  15.629  0.2212 -1.2151 -0.0076
  822MPD2     N12100   4.451   4.400  16.054 -0.1273 -0.3076  0.3438
  822MPD2    H512101   4.486   4.371  16.145  2.3904 -2.6100 -1.3822
  822MPD2    N112102   0.007   4.030  15.924 -0.9557 -0.3166 -0.2378
  822MPD2    H712103   0.028   4.037  16.023  1.3903 -1.6248 -0.6448
  823MPD2     C12104   4.267   4.674  16.853 -0.2440 -0.7251  0.1290
  823MPD2    C112105   4.287   4.570  16.756 -0.5324 -0.5814  0.1479
  823MPD2    C212106   4.329   4.444  16.795 -0.2838  0.9439 -0.5369
  823MPD2    C312107   4.334   4.417  16.928 -0.0833 -0.1635  0.1132
  823MPD2    C412108   4.310   4.514  17.020 -0.2273  0.3524 -0.8630
  823MPD2    C512109   4.274   4.643  16.987 -0.0579 -0.6754 -0.0331
  823MPD2     H12110   4.351   4.375  16.715  1.0072  2.0493 -1.1403
  823MPD2    H112111   4.325   4.491  17.125 -0.1883 -0.2184 -0.9906
  823MPD2    H212112   4.249   0.059  16.823  3.4749 -0.1786 -0.1848
  823MPD2    H312113   4.268   0.002  17.063  1.5710 -0.5527 -0.0269
  823MPD2     N12114   4.384   4.295  16.975  0.0273 -0.0488 -0.5593
  823MPD2    H512115   4.377   4.279  17.075 -0.6079 -0.4659 -0.6717
  823MPD2    N112116   4.277   4.608  16.618 -0.1063  0.0746 -0.5088
  823MPD2    H712117   4.271   4.709  16.605  0.8843  0.1783 -0.1686
  824MPD2     C12118   0.156   3.248  15.790 -0.2676  0.1388  0.0606
  824MPD2    C112119   0.271   3.330  15.804  0.7284  0.0092  1.1097
  824MPD2    C212120   0.391   3.268  15.770  0.1584 -0.5341  0.4190
  824MPD2    C312121   0.397   3.132  15.737  0.3743  0.4897 -0.2442
  824MPD2    C412122   0.285   3.058  15.718  0.1578 -0.5218 -0.8006
  824MPD2    C512123   0.168   3.122  15.738  0.0816 -0.3127 -0.2756
  824MPD2     H12124   0.490   3.312  15.777  0.1731 -0.9684  2.8552
  824MPD2    H112125   0.284   2.954  15.687 -0.8925  0.0890 -2.8242
  824MPD2    H212126   0.060   3.282  15.827 -0.4718 -2.6494  2.0711
  824MPD2    H312127   0.075   3.067  15.724 -0.7182  0.4665  2.0440
  824MPD2     N12128   0.526   3.083  15.701 -0.2741 -0.3677  0.5400
  824MPD2    H512129   0.609   3.141  15.698 -0.5370  0.0686  1.7113
  824MPD2    N112130   0.263   3.457  15.868 -0.0114 -0.1945  0.4572
  824MPD2    H712131   0.174   3.490  15.906  0.1456  0.6305  0.1230
  825MPD2     C12132   1.291   3.185  15.317 -0.9165 -0.3521 -0.3485
  825MPD2    C112133   1.156   3.217  15.334  0.0362 -0.5687  0.2876
  825MPD2    C212134   1.109   3.324  15.267  0.8443  0.6009  0.2263
  825MPD2    C312135   1.191   3.414  15.201  1.0257 -0.3495  0.4438
  825MPD2    C412136   1.328   3.390  15.202 -0.1985 -0.2195 -0.1015
  825MPD2    C512137   1.375   3.270  15.255 -0.3711  0.0165 -0.0234
  825MPD2     H12138   1.006   3.355  15.282  0.6164 -0.0769  0.0400
  825MPD2    H112139   1.405   3.451  15.156  0.0885 -1.8629 -1.8067
  825MPD2    H212140   1.332   3.095  15.363  2.0356  0.8624 -0.6363
  825MPD2    H312141   1.482   3.255  15.256 -0.7155 -2.4604  0.0879
  825MPD2     N12142   1.138   3.526  15.120 -0.1769 -0.4403  0.3042
  825MPD2    H512143   1.203   3.602  15.105 -1.4530  0.3701 -1.1320
  825MPD2    N112144   1.073   3.122  15.407  0.0565 -1.1695  0.1153
  825MPD2    H712145   1.131   3.048  15.447 -0.8173 -1.2809  1.1614
  826MPD2     C12146   0.237   3.098  13.751  0.2845 -0.0607 -0.1361
  826MPD2    C112147   0.287   3.226  13.755 -0.6261 -0.4510 -0.4976
  826MPD2    C212148   0.196   3.332  13.729 -0.3707  0.2041  0.0858
  826MPD2    C312149   0.068   3.309  13.694  0.2446  0.2809 -0.5819
  826MPD2    C412150   0.019   3.176  13.677  0.3956 -0.1194 -0.2756
  826MPD2    C512151   0.107   3.074  13.708  0.4276  0.1647  0.4561
  826MPD2     H12152   0.240   3.431  13.738 -0.7957  0.5874 -2.1461
  826MPD2    H112153   4.642   3.134  13.645  0.0404 -1.9532  3.1745
  826MPD2    H212154   0.298   3.012  13.776  3.1314  2.4584  1.5538
  826MPD2    H312155   0.056   2.979  13.696 -0.0473  0.7551 -2.2174
  826MPD2     N12156   4.693   3.405  13.668 -0.5991 -0.0242  0.2196
  826MPD2    H512157   4.603   3.378  13.630 -0.3743  0.9066 -0.9443
  826MPD2    N112158   0.419   3.235  13.800  0.1838  0.4693  0.3794
  826MPD2    H712159   0.478   3.153  13.817  0.3099  0.5126  0.1479
  827MPD2     C12160   1.733   4.062   9.914 -0.9817  0.1966 -0.1659
  827MPD2    C112161   1.725   3.963  10.010 -0.1307  0.1605  0.1153
  827MPD2    C212162   1.636   3.861   9.980 -0.5271  0.2943  0.7298
  827MPD2    C312163   1.571   3.856   9.859  0.6296 -0.0591  0.4457
  827MPD2    C412164   1.590   3.959   9.768  0.1774 -0.2679  0.0103
  827MPD2    C512165   1.675   4.059   9.796  0.6871  0.2802  0.3319
  827MPD2     H12166   1.613   3.782  10.050  0.4642  1.2877  2.1760
  827MPD2    H112167   1.534   3.959   9.674 -0.5171  1.0676  0.4201
  827MPD2    H212168   1.805   4.141   9.932 -0.2117 -0.4174 -0.5636
  827MPD2    H312169   1.681   4.138   9.722  0.1618  1.4773  1.5700
  827MPD2     N12170   1.466   3.755   9.841  0.6417  0.5952  0.6757
  827MPD2    H512171   1.450   3.693   9.920  2.9931  0.8288  1.3458
  827MPD2    N112172   1.790   3.971  10.135 -0.1261 -0.3414  0.0518
  827MPD2    H712173   1.847   4.053  10.152 -0.0096 -0.3449 -0.3375
  828MPD2     C12174   0.544   3.986  12.527 -0.5029 -0.2313  0.3889
  828MPD2    C112175   0.479   4.041  12.421  0.1054  0.0673 -0.0694
  828MPD2    C212176   0.544   4.058  12.302 -0.6074  0.1331  0.8296
  828MPD2    C312177   0.681   4.029  12.285 -0.3069  0.1596 -0.3609
  828MPD2    C412178   0.746   3.980  12.397 -0.2848 -0.2800 -0.0754
  828MPD2    C512179   0.673   3.964  12.510 -0.3386  0.0279  0.5131
  828MPD2     H12180   0.488   4.102  12.220  0.9887 -1.9824 -1.4054
  828MPD2    H112181   0.850   3.949  12.398 -0.4690 -0.8947 -0.0147
  828MPD2    H212182   0.507   3.973  12.628  0.3031  1.0507  0.8456
  828MPD2    H312183   0.726   3.920  12.593  1.6777 -0.9823 -1.3290
  828MPD2     N12184   0.749   4.035  12.165 -0.3902 -0.0756  0.7432
  828MPD2    H512185   0.848   4.013  12.170 -0.1794  1.3398  2.7855
  828MPD2    N112186   0.352   4.095  12.426  0.3328 -0.1451 -0.3537
  828MPD2    H712187   0.313   4.146  12.347 -0.7823  0.5825  0.6896
  829MPD2     C12188   0.414   4.472  11.809 -0.0124  0.4435  0.0603
  829MPD2    C112189   0.281   4.459  11.816  0.2319 -0.1649  0.1603
  829MPD2    C212190   0.220   4.435  11.939  0.1426  0.1571 -0.0011
  829MPD2    C312191   0.292   4.441  12.057 -0.1513 -0.3029 -0.4589
  829MPD2    C412192   0.425   4.451  12.043  0.0494  1.0494  0.4168
  829MPD2    C512193   0.489   4.460  11.923  0.2274 -0.3496 -0.1910
  829MPD2     H12194   0.112   4.423  11.946  0.1626 -0.3134 -0.4801
  829MPD2    H112195   0.479   4.457  12.136  1.4709 -1.0539 -0.2723
  829MPD2    H212196   0.464   4.479  11.713  0.9613  3.2895  0.7959
  829MPD2    H312197   0.597   4.467  11.917  0.2415  0.6995  1.3404
  829MPD2     N12198   0.247   4.424  12.190 -0.3688  0.7679 -0.1760
  829MPD2    H512199   0.328   4.437  12.250 -1.5399  1.3121  1.2757
  829MPD2    N112200   0.205   4.479  11.696 -0.2723  0.3740 -0.5325
  829MPD2    H712201   0.259   4.519  11.620  1.2034  0.8987  0.7963
  830MPD2     C12202   0.158   2.247  15.659 -0.1733  0.8324  0.6794
  830MPD2    C112203   0.064   2.341  15.698 -0.3136  0.0117 -0.9757
  830MPD2    C212204   0.051   2.462  15.627 -0.1075  0.4246 -0.4735
  830MPD2    C312205   0.119   2.485  15.504 -0.6880  0.4721  0.2938
  830MPD2    C412206   0.208   2.384  15.463 -1.0190  0.1812  0.0272
  830MPD2    C512207   0.220   2.266  15.535 -0.0452  0.0373  0.6675
  830MPD2     H12208   4.698   2.541  15.654  1.7195  1.4043  1.4726
  830MPD2    H112209   0.273   2.409  15.380  1.5953 -0.6274  1.8285
  830MPD2    H212210   0.171   2.151  15.707 -0.7272 -0.4155 -1.7099
  830MPD2    H312211   0.290   2.189  15.502  0.0473  1.2575 -1.9392
  830MPD2     N12212   0.085   2.597  15.431  0.0218 -0.4140 -0.6764
  830MPD2    H512213   0.037   2.665  15.489  2.3010 -1.4012  2.4048
  830MPD2    N112214   4.700   2.316  15.807 -0.1576 -0.0499  0.3051
  830MPD2    H712215   0.005   2.234  15.862 -1.8064  0.0764  1.1740
  831MPD2     C12216   0.019   4.566  16.351  0.6237 -0.7078 -0.0690
  831MPD2    C112217   0.032   4.449  16.281 -0.1394  0.8328 -0.1923
  831MPD2    C212218   4.679   4.339  16.333 -0.5805 -0.3314 -0.6154
  831MPD2    C312219   4.619   4.338  16.457  0.1294  0.3168  0.2177
  831MPD2    C412220   4.613   4.459  16.526  0.4975  0.7503  0.7679
  831MPD2    C512221   4.668   4.572  16.467  0.5058 -0.2997  0.5370
  831MPD2     H12222   4.680   4.244  16.280  0.0755  0.2140 -1.6073
  831MPD2    H112223   4.567   4.471  16.624  1.5712  1.6684  1.1461
  831MPD2    H212224   0.066   4.656  16.310 -0.1102  1.4975  3.9541
  831MPD2    H312225   4.664   4.665  16.522 -0.2637  0.3473 -0.6096
  831MPD2     N12226   4.538   4.229  16.489  0.2739  0.2556 -0.0529
  831MPD2    H512227   4.517   4.214  16.588 -0.6291 -1.3976 -0.5026
  831MPD2    N112228   0.118   4.451  16.170  0.2216 -0.7488 -0.1614
  831MPD2    H712229   0.146   4.541  16.133  0.2529 -0.9272 -0.5615
  832MPD2     C12230   3.362   1.070  17.618  0.2464 -0.0942 -0.5467
  832MPD2    C112231   3.415   0.982  17.524  0.0497 -0.2603  0.0251
  832MPD2    C212232   3.332   0.900  17.452  0.7969  0.2016 -0.0021
  832MPD2    C312233   3.199   0.921  17.466  1.1012  0.7599 -0.4418
  832MPD2    C412234   3.150   1.001  17.564  0.0443  0.4601 -0.5694
  832MPD2    C512235   3.224   1.080  17.637  0.0875 -0.4432 -0.2184
  832MPD2     H12236   3.362   0.809  17.401 -0.1850  0.6360 -1.3701
  832MPD2    H112237   3.044   0.989  17.581 -0.1465  1.6379 -0.9124
  832MPD2    H212238   3.422   1.132   0.010 -0.9679  3.1280 -2.5049
  832MPD2    H312239   3.179   1.152   0.029  2.5040  0.6197  0.2662
  832MPD2     N12240   3.098   0.861  17.389 -0.1046  1.1120  0.3079
  832MPD2    H512241   3.000   0.856  17.415  0.1379 -0.2145  0.9604
  832MPD2    N112242   3.555   0.967  17.532 -0.4038 -0.1124  0.3669
  832MPD2    H712243   3.614   1.038  17.573 -0.7509  0.0182  0.6456
  833MPD2     C12244   0.441   1.464  12.188  0.4191 -0.2690  0.1540
  833MPD2    C112245   0.447   1.577  12.109 -0.0282 -0.1271 -0.0639
  833MPD2    C212246   0.526   1.569  11.997 -0.3807 -0.2774  0.2609
  833MPD2    C312247   0.590   1.456  11.951 -0.3533 -0.8653  0.2410
  833MPD2    C412248   0.574   1.344  12.022 -0.6382 -0.6474  1.3354
  833MPD2    C512249   0.507   1.352  12.137 -0.3850  0.2615 -0.2204
  833MPD2     H12250   0.537   1.655  11.932  0.6186 -0.8295 -0.2981
  833MPD2    H112251   0.628   1.254  11.991  1.2299  2.2214 -3.7219
  833MPD2    H212252   0.380   1.463  12.278  2.2870  2.0449  1.4468
  833MPD2    H312253   0.497   1.265  12.201  2.3389 -0.4027 -0.7072
  833MPD2     N12254   0.659   1.450  11.828 -0.2257  0.4304  0.3779
  833MPD2    H512255   0.689   1.357  11.802 -1.2817  0.3252 -0.4345
  833MPD2    N112256   0.384   1.691  12.150  0.5904  0.4524  0.7484
  833MPD2    H712257   0.333   1.688  12.238 -0.8722  1.0328 -0.0801
  834MPD2     C12258   0.652   1.209  10.871  0.2896 -0.1613  0.1603
  834MPD2    C112259   0.756   1.292  10.863 -0.3605  0.2318  0.5128
  834MPD2    C212260   0.774   1.390  10.964 -0.4416  0.2457  0.1105
  834MPD2    C312261   0.680   1.398  11.073 -0.1600  0.7239  0.4350
  834MPD2    C412262   0.563   1.318  11.063  0.4138  0.2347 -0.2275
  834MPD2    C512263   0.549   1.225  10.966  0.2425  0.3291  0.0916
  834MPD2     H12264   0.870   1.441  10.966 -0.1213 -0.3303 -0.4692
  834MPD2    H112265   0.490   1.318  11.143 -0.2180 -0.9353 -0.8075
  834MPD2    H212266   0.644   1.141  10.787  1.2526  1.0384 -0.9137
  834MPD2    H312267   0.452   1.179  10.947  1.5711 -2.2851 -0.2655
  834MPD2     N12268   0.723   1.470  11.183 -0.3297 -0.1878  0.0801
  834MPD2    H512269   0.817   1.508  11.189 -0.6713  0.5873  0.5761
  834MPD2    N112270   0.859   1.277  10.759  0.2314 -0.1973  0.0057
  834MPD2    H712271   0.877   1.188  10.713  1.0405  0.1465 -0.3329
  835MPD2     C12272   0.553   4.555  10.844 -0.5881  0.4556  0.0973
  835MPD2    C112273   0.446   4.546  10.929  0.5548 -0.2518  0.2282
  835MPD2    C212274   0.469   4.586  11.056 -0.2329  1.1741 -1.0349
  835MPD2    C312275   0.598   4.616  11.107  0.5167 -0.2541  0.0991
  835MPD2    C412276   0.708   4.617  11.016  0.0325  0.1118  0.5337
  835MPD2    C512277   0.681   4.591  10.885  0.4603 -0.1164 -0.1930
  835MPD2     H12278   0.380   4.596  11.117  0.7680 -1.3721  0.8041
  835MPD2    H112279   0.809   4.638  11.048 -0.1960 -0.7658  1.8328
  835MPD2    H212280   0.534   4.538  10.738  2.1096  0.0119 -0.3029
  835MPD2    H312281   0.760   4.588  10.811  0.1697 -2.0569 -0.4269
  835MPD2     N12282   0.622   4.644  11.249  0.3225 -0.0382  0.2228
  835MPD2    H512283   0.717   4.671  11.273 -0.0166 -0.6848  2.2343
  835MPD2    N112284   0.318   4.506  10.884 -0.1062  0.5345  0.0246
  835MPD2    H712285   0.252   4.510  10.961 -0.1445  2.1275 -0.1033
  836MPD2     C12286   0.054   0.134  11.698 -0.0485  0.4858  0.2832
  836MPD2    C112287   0.165   0.117  11.778 -0.5522  1.1538 -0.9604
  836MPD2    C212288   0.133   0.093  11.916  0.4889  0.3331  0.2008
  836MPD2    C312289   0.001   0.090  11.962 -0.0420  0.2388 -0.0001
  836MPD2    C412290   4.620   0.106  11.868  0.1523 -0.6010  0.2706
  836MPD2    C512291   4.645   0.125  11.741  0.1720 -0.1268  0.2809
  836MPD2     H12292   0.212   0.081  11.989 -0.7411  1.6355  1.7415
  836MPD2    H112293   4.514   0.088  11.882  0.0624 -0.0772  0.2572
  836MPD2    H212294   0.073   0.146  11.592 -2.6974  0.2811 -0.2054
  836MPD2    H312295   4.569   0.154  11.669 -1.3941 -1.4132  1.4435
  836MPD2     N12296   4.668   0.062  12.092 -0.4056  0.4455  0.0727
  836MPD2    H512297   4.567   0.056  12.095 -0.3621  0.1657  1.0102
  836MPD2    N112298   0.294   0.113  11.716  0.3642 -0.4275  0.1611
  836MPD2    H712299   0.285   0.127  11.616  0.6843  1.1676  0.3540
  837MPD2     C12300   4.055   4.252  10.047  0.0987 -0.7841 -0.3090
  837MPD2    C112301   4.040   4.231   9.907  0.3124 -0.3160  0.3739
  837MPD2    C212302   4.086   4.331   9.827  1.2279  0.3527 -0.5381
  837MPD2    C312303   4.124   4.455   9.877  0.4994  0.2177  0.5038
  837MPD2    C412304   4.134   4.465  10.017 -0.4692  0.3240 -0.4131
  837MPD2    C512305   4.109   4.366  10.099 -0.3810 -1.0325 -0.0945
  837MPD2     H12306   4.067   4.313   9.722  1.6314  0.6203 -0.6538
  837MPD2    H112307   4.177   4.558  10.052 -0.5403 -0.1745  1.0241
  837MPD2    H212308   4.018   4.172  10.110 -0.9916  0.7347  0.9888
  837MPD2    H312309   4.120   4.378  10.206  0.6422  0.0557 -0.3295
  837MPD2     N12310   4.153   4.558   9.779  0.2658 -0.0158 -0.2358
  837MPD2    H512311   4.150   4.521   9.685 -2.4576 -1.3969  0.3876
  837MPD2    N112312   3.970   4.122   9.848 -0.0192 -0.2098 -0.3541
  837MPD2    H712313   3.964   4.118   9.747  0.8884  2.3022 -0.5110
  838MPD2     C12314   2.401   2.386  12.174  0.2227 -0.2326 -0.1925
  838MPD2    C112315   2.349   2.289  12.098 -0.7256 -0.6331  0.4094
  838MPD2    C212316   2.249   2.205  12.149 -1.0660  0.0571  0.0426
  838MPD2    C312317   2.184   2.237  12.271 -0.2157 -0.3860 -0.2717
  838MPD2    C412318   2.233   2.345  12.344 -0.0308  0.8513 -0.5081
  838MPD2    C512319   2.340   2.412  12.297 -0.3010  0.0254  0.3220
  838MPD2     H12320   2.225   2.114  12.096  0.1712 -0.1085 -0.2339
  838MPD2    H112321   2.206   2.376  12.444  0.0099  0.4781 -0.3818
  838MPD2    H212322   2.473   2.461  12.141 -0.4886  0.1859 -0.7971
  838MPD2    H312323   2.367   2.495  12.361  1.2023  0.4766 -0.8874
  838MPD2     N12324   2.098   2.143  12.325  0.0726 -0.0492 -0.1022
  838MPD2    H512325   2.082   2.062  12.267  1.6917  0.2432 -0.9584
  838MPD2    N112326   2.387   2.249  11.972 -0.2148  0.0426  0.0946
  838MPD2    H712327   2.317   2.192  11.925  2.7064 -4.0628  0.7290
  839MPD2     C12328   1.815   1.855  11.465 -0.1765 -0.0152 -0.5443
  839MPD2    C112329   1.873   1.951  11.385  0.1168  0.0579  0.0256
  839MPD2    C212330   2.000   1.998  11.415  0.1515  0.1414  0.0118
  839MPD2    C312331   2.066   1.962  11.532 -0.5209  0.0988 -0.5845
  839MPD2    C412332   2.004   1.873  11.621 -0.0102 -0.1980 -0.1012
  839MPD2    C512333   1.881   1.825  11.584  0.5088 -0.1156  0.0985
  839MPD2     H12334   2.034   2.087  11.363 -0.1207 -0.1211 -0.6048
  839MPD2    H112335   2.044   1.830  11.712 -0.3896  1.6656  0.9375
  839MPD2    H212336   1.720   1.808  11.445 -0.1433 -0.4551  0.3404
  839MPD2    H312337   1.834   1.747  11.643 -1.4856  0.5135 -0.6691
  839MPD2     N12338   2.191   2.016  11.575 -0.1786 -0.5874 -0.5513
  839MPD2    H512339   2.234   2.002  11.666  0.6975 -0.7338 -0.9939
  839MPD2    N112340   1.815   2.001  11.268  0.2182 -0.1007 -0.3583
  839MPD2    H712341   1.873   2.059  11.209  0.1131  0.2871 -0.0827
  840MPD2     C12342   2.395   4.015  10.157 -0.1910  0.2240 -0.0314
  840MPD2    C112343   2.359   4.066  10.285  0.6294  0.5848 -0.0510
  840MPD2    C212344   2.429   4.164  10.344 -0.3302  0.1799  0.2436
  840MPD2    C312345   2.537   4.222  10.287 -0.5028 -0.8050 -0.9751
  840MPD2    C412346   2.572   4.182  10.158 -0.2028 -0.2409  0.3006
  840MPD2    C512347   2.506   4.073  10.096 -0.5706  0.1320 -0.5771
  840MPD2     H12348   2.407   4.187  10.447  1.7190  0.9125  0.5203
  840MPD2    H112349   2.651   4.235  10.106 -1.8364  1.7275 -0.1759
  840MPD2    H212350   2.351   3.924  10.119 -0.7796  0.1335  0.8796
  840MPD2    H312351   2.535   4.041   9.996  0.3452 -0.1659 -0.2152
  840MPD2     N12352   2.622   4.329  10.340 -0.6611  0.0479  0.5634
  840MPD2    H512353   2.708   4.351  10.291  0.2510  0.6746  2.4382
  840MPD2    N112354   2.234   4.019  10.339  0.3837  0.4164 -0.1438
  840MPD2    H712355   2.188   3.945  10.287  1.2844  0.9351 -1.6953
  841MPD2     C12356   1.856   4.542  14.641 -0.0493  0.1730  0.1186
  841MPD2    C112357   1.956   4.442  14.673  0.0224 -0.8721  0.4838
  841MPD2    C212358   2.033   4.469  14.783  0.4910  0.1066  0.2342
  841MPD2    C312359   2.034   4.583  14.855 -0.4997  0.2075 -0.0370
  841MPD2    C412360   1.950   4.681  14.815 -0.5418 -0.2893  0.3278
  841MPD2    C512361   1.867   4.659  14.706 -0.6239  0.4876  0.4897
  841MPD2     H12362   2.108   4.398  14.817  1.2877  0.1432 -1.4329
  841MPD2    H112363   1.942   0.057  14.869  1.4113  1.1661 -1.9383
  841MPD2    H212364   1.787   4.539  14.558  0.4827 -0.1893 -0.3148
  841MPD2    H312365   1.801   0.021  14.674  1.0757  1.3425 -0.8608
  841MPD2     N12366   2.124   4.598  14.956 -0.1227 -0.0632  0.8351
  841MPD2    H512367   2.182   4.521  14.989 -2.3154 -1.7198  0.8794
  841MPD2    N112368   1.974   4.325  14.594  0.4838  0.1128 -0.5777
  841MPD2    H712369   2.036   4.255  14.633  1.9804  1.5072 -0.4433
  842MPD2     C12370   2.536   1.078  16.851 -0.0337 -0.0012 -0.5060
  842MPD2    C112371   2.412   1.028  16.884  0.2562  0.5110 -0.6825
  842MPD2    C212372   2.393   0.963  17.003  0.2810  0.1314  0.7019
  842MPD2    C312373   2.499   0.952  17.097  0.1048 -0.4769 -0.0925
  842MPD2    C412374   2.620   1.000  17.059  0.7506 -0.2702  0.1342
  842MPD2    C512375   2.634   1.064  16.939  0.0195  0.4742 -0.1736
  842MPD2     H12376   2.289   0.942  17.027  0.6773 -3.9364 -1.0913
  842MPD2    H112377   2.713   0.993  17.115 -0.4531 -1.8368  1.9202
  842MPD2    H212378   2.557   1.142  16.766 -1.8509  1.0053 -0.2026
  842MPD2    H312379   2.730   1.112  16.924  0.0781 -0.1947 -1.8592
  842MPD2     N12380   2.485   0.902  17.234  0.6510 -0.2150 -0.3863
  842MPD2    H512381   2.550   0.938  17.303 -1.0154  0.5484  0.7865
  842MPD2    N112382   2.311   1.050  16.782  0.1042  1.0203  0.0259
  842MPD2    H712383   2.338   1.100  16.698  2.7976 -0.1726  0.1668
  843MPD2     C12384   4.193   0.803   0.503 -1.0750 -0.3469  0.0272
  843MPD2    C112385   4.290   0.774   0.594 -0.2353 -0.1295  0.0711
  843MPD2    C212386   4.387   0.875   0.609  0.3795  0.6614 -0.2247
  843MPD2    C312387   4.387   0.997   0.546 -0.4963  0.7224  0.0967
  843MPD2    C412388   4.284   1.027   0.457  0.0461  0.2774 -0.3520
  843MPD2    C512389   4.186   0.924   0.437  0.0085 -0.4453 -0.0552
  843MPD2     H12390   4.467   0.859   0.680 -0.2118  0.6189  0.4402
  843MPD2    H112391   4.279   1.125   0.411 -1.5803 -0.4615 -1.7364
  843MPD2    H212392   4.110   0.735   0.487 -0.3606 -1.3335  0.5621
  843MPD2    H312393   4.104   0.943   0.369  0.3072 -0.2121 -0.3499
  843MPD2     N12394   4.482   1.098   0.562  0.4707  0.2277 -0.6818
  843MPD2    H512395   4.472   1.184   0.509  0.9087  0.8363  0.2251
  843MPD2    N112396   4.288   0.658   0.669 -0.4562  0.5157 -0.1949
  843MPD2    H712397   4.203   0.604   0.652 -0.5988  0.0415  2.0583
  844MPD2     C12398   2.651   0.185  17.241  0.2590 -0.3275  0.0502
  844MPD2    C112399   2.724   0.111  17.153  0.0922 -0.1063 -0.6510
  844MPD2    C212400   2.856   0.139  17.139 -0.3591 -0.0391  0.1406
  844MPD2    C312401   2.916   0.240  17.211  0.2050  0.2878 -0.3711
  844MPD2    C412402   2.849   0.306  17.309  0.2008 -0.2361 -0.1742
  844MPD2    C512403   2.718   0.269  17.332  0.2174  0.3472  0.3611
  844MPD2     H12404   2.916   0.088  17.064  1.0342  2.0234 -0.1387
  844MPD2    H112405   2.901   0.371  17.379 -0.2267  0.1231 -0.1959
  844MPD2    H212406   2.546   0.163  17.256 -0.2166  0.9799 -1.5439
  844MPD2    H312407   2.667   0.309  17.419 -0.6697 -0.9168  0.4302
  844MPD2     N12408   3.057   0.264  17.194 -0.1886  0.0662 -0.5334
  844MPD2    H512409   3.106   0.213  17.121 -2.5295  0.3539 -2.3287
  844MPD2    N112410   2.681   4.713  17.086 -0.4854  0.0033 -0.1006
  844MPD2    H712411   2.748   4.658  17.033  0.3131  0.6432  0.2330
  845MPD2     C12412   3.640   1.055  16.974  0.9033  0.1057  0.5459
  845MPD2    C112413   3.561   1.073  17.085  0.5361 -0.2182  0.4948
  845MPD2    C212414   3.509   0.969  17.145  0.1065 -0.2207 -0.2430
  845MPD2    C312415   3.551   0.834  17.111 -0.8285 -0.0676 -0.0064
  845MPD2    C412416   3.652   0.818  17.016  0.0707  0.0849  0.4961
  845MPD2    C512417   3.688   0.930  16.944  0.4851  0.1115 -0.0641
  845MPD2     H12418   3.443   0.974  17.230  1.8994  0.2225  1.1204
  845MPD2    H112419   3.690   0.720  16.988  0.5534  1.3413 -3.2819
  845MPD2    H212420   3.669   1.141  16.915  2.8162  0.4192  1.9185
  845MPD2    H312421   3.750   0.923  16.855  1.8309 -1.1048  0.9673
  845MPD2     N12422   3.485   0.731  17.166 -0.4995  0.1552 -0.5873
  845MPD2    H512423   3.392   0.752  17.199 -1.1634 -0.0775 -2.3033
  845MPD2    N112424   3.522   1.204  17.124 -0.9037 -0.1011 -1.1204
  845MPD2    H712425   3.567   1.284  17.080  0.9030  0.1151  1.1401
  846MPD2     C12426   0.022   1.659  13.600 -0.1157 -0.2721  0.5752
  846MPD2    C112427   4.661   1.769  13.624  0.2031 -0.2633 -0.3599
  846MPD2    C212428   4.596   1.782  13.748 -0.3456  0.0335  0.1725
  846MPD2    C312429   4.616   1.686  13.845  1.0126  0.5588  0.2674
  846MPD2    C412430   4.705   1.582  13.819 -0.2790  0.6485  0.5454
  846MPD2    C512431   0.045   1.568  13.701 -0.1892 -0.5800 -0.5136
  846MPD2     H12432   4.528   1.866  13.761 -1.0891 -0.6591  0.7386
  846MPD2    H112433   0.001   1.504  13.892  2.5944  2.0397  1.4593
  846MPD2    H212434   0.065   1.640  13.502  1.6427  1.6956  0.9653
  846MPD2    H312435   0.109   1.482  13.686 -1.8442 -1.8798 -0.1264
  846MPD2     N12436   4.558   1.696  13.969 -0.5307  0.1380  0.2753
  846MPD2    H512437   4.473   1.751  13.975  0.8965  2.3652  0.3747
  846MPD2    N112438   4.639   1.863  13.526 -0.7034  0.6466 -0.4195
  846MPD2    H712439   4.605   1.952  13.561 -1.5256 -0.0112  0.4468
  847MPD2     C12440   0.102   2.518  14.097 -0.1933 -0.6150  0.2997
  847MPD2    C112441   0.169   2.598  14.181  0.1063 -0.3219 -0.3944
  847MPD2    C212442   0.204   2.554  14.306  0.1896  0.4636  0.7095
  847MPD2    C312443   0.181   2.423  14.343 -0.8821 -0.2579  1.1915
  847MPD2    C412444   0.117   2.342  14.254  0.1631  0.7295 -0.6430
  847MPD2    C512445   0.079   2.392  14.132  0.4309 -0.3282  0.6005
  847MPD2     H12446   0.251   2.623  14.375 -0.5131  1.8088 -0.1694
  847MPD2    H112447   0.092   2.237  14.268 -1.0588  1.1498  0.3507
  847MPD2    H212448   0.069   2.553  13.999 -1.5435  1.5521  1.5173
  847MPD2    H312449   0.046   2.333  14.046  0.5137 -1.1742  1.1454
  847MPD2     N12450   0.225   2.379  14.471  0.0152  0.2434 -0.4331
  847MPD2    H512451   0.269   2.450  14.529 -2.1222  0.7327  0.6129
  847MPD2    N112452   0.189   2.737  14.164  0.1477  0.3077  0.5208
  847MPD2    H712453   0.216   2.798  14.240 -3.4067  0.5123  1.6129
  848MPD2     C12454   2.833   0.805  16.588 -0.2631 -0.3370 -0.5519
  848MPD2    C112455   2.905   0.878  16.683  0.7109 -0.0542 -0.9314
  848MPD2    C212456   2.987   0.981  16.640 -0.2109 -0.2137 -0.3394
  848MPD2    C312457   2.983   1.019  16.501  0.3426  0.5165  0.1686
  848MPD2    C412458   2.915   0.941  16.411 -0.2023 -0.5453 -0.3517
  848MPD2    C512459   2.830   0.841  16.455  0.1014 -0.2205  0.6106
  848MPD2     H12460   3.040   1.046  16.708  0.5188 -1.8730  0.7056
  848MPD2    H112461   2.904   0.964  16.306 -0.1800 -0.1824 -0.2736
  848MPD2    H212462   2.772   0.721  16.620 -1.8132  1.2869  0.7561
  848MPD2    H312463   2.771   0.789  16.381 -1.1967  0.7464  0.9689
  848MPD2     N12464   3.038   1.140  16.447  0.2352  0.0971  0.2168
  848MPD2    H512465   3.035   1.151  16.346 -0.4499  1.9608  0.4448
  848MPD2    N112466   2.893   0.858  16.829  0.0428  0.1781  0.1712
  848MPD2    H712467   2.931   0.930  16.890 -0.6739  0.3629  0.3998
  849MPD2     C12468   1.240   0.867  14.664 -0.2892 -0.3041  0.0429
  849MPD2    C112469   1.357   0.811  14.635 -0.4054 -0.2806  0.2970
  849MPD2    C212470   1.413   0.726  14.732 -0.3465 -0.4321  0.3691
  849MPD2    C312471   1.374   0.727  14.860 -0.4204  0.3677  0.6963
  849MPD2    C412472   1.267   0.801  14.896 -0.0594  0.0966 -0.4707
  849MPD2    C512473   1.199   0.853  14.792  0.5944 -0.1121 -0.3694
  849MPD2     H12474   1.493   0.659  14.702  1.2176  1.9301 -0.7786
  849MPD2    H112475   1.222   0.810  14.994  2.8700 -1.8368  1.0402
  849MPD2    H212476   1.177   0.924  14.597 -0.6883 -0.0392  0.6459
  849MPD2    H312477   1.102   0.899  14.808  0.4726 -0.3054 -0.5359
  849MPD2     N12478   1.446   0.646  14.954  0.4149  0.0137  0.0557
  849MPD2    H512479   1.526   0.596  14.917  1.6025  1.4655  0.6416
  849MPD2    N112480   1.432   0.813  14.508  0.4059  0.6559 -0.1055
  849MPD2    H712481   1.521   0.767  14.520 -0.4050 -1.0258 -0.4567
  850MPD2     C12482   4.422   3.610  14.590 -0.0123  0.7822 -0.2138
  850MPD2    C112483   4.412   3.694  14.698 -0.4542  0.4538  0.8936
  850MPD2    C212484   4.522   3.688  14.783 -0.0939  0.2027  0.0166
  850MPD2    C312485   4.631   3.609  14.761 -0.4751 -0.3269  0.1468
  850MPD2    C412486   4.636   3.530  14.647 -0.0755 -0.7545  0.3864
  850MPD2    C512487   4.532   3.535  14.559 -0.4861  0.3583 -0.2730
  850MPD2     H12488   4.535   3.763  14.861  0.2387  0.9075 -0.7239
  850MPD2    H112489   4.708   3.449  14.640  1.9208  1.0627 -0.3402
  850MPD2    H212490   4.330   3.607  14.531  0.8209 -0.0388 -1.4738
  850MPD2    H312491   4.535   3.470  14.472  0.2075  1.3060 -0.9673
  850MPD2     N12492   0.028   3.594  14.844  0.1477  0.0720 -0.0509
  850MPD2    H512493   0.097   3.533  14.803  1.7227  1.1230  1.0357
  850MPD2    N112494   4.296   3.775  14.712 -0.0971  0.4628  0.3212
  850MPD2    H712495   4.226   3.766  14.638 -0.9475  0.5641  1.1215
  851MPD2     C12496   4.647   3.578  15.465 -0.5806 -0.0213 -0.0737
  851MPD2    C112497   4.565   3.529  15.365 -0.3228  0.6677 -0.7481
  851MPD2    C212498   4.567   3.396  15.330  0.6142  0.5107 -0.7612
  851MPD2    C312499   4.674   3.322  15.375  0.0012  0.2339  0.3735
  851MPD2    C412500   0.047   3.371  15.460 -0.0305 -0.2723 -0.0623
  851MPD2    C512501   0.029   3.496  15.510 -0.6278 -0.4893 -1.0605
  851MPD2     H12502   4.489   3.343  15.277  0.8539 -1.6214  0.9866
  851MPD2    H112503   0.129   3.310  15.496  0.3810 -1.0468 -2.3287
  851MPD2    H212504   4.638   3.679  15.504  0.4505  0.6494 -1.5750
  851MPD2    H312505   0.104   3.528  15.581 -2.8898  1.5441  0.3913
  851MPD2     N12506   4.691   3.190  15.316 -0.4332 -0.4119  0.3958
  851MPD2    H512507   4.612   3.151  15.266  0.4612 -0.6789 -0.8251
  851MPD2    N112508   4.477   3.622  15.303 -0.0082  0.3036 -0.1070
  851MPD2    H712509   4.501   3.719  15.317 -1.3714  0.2891  2.2237
  852MPD2     C12510   4.461   1.700   9.320  0.5638  0.3234  1.5851
  852MPD2    C112511   4.587   1.729   9.350  0.1867 -0.1488 -0.3728
  852MPD2    C212512   4.633   1.863   9.366  0.2802  0.0158  0.3001
  852MPD2    C312513   4.545   1.963   9.356 -0.5585  0.5590 -0.3194
  852MPD2    C412514   4.411   1.937   9.334  0.2911  0.0556 -0.2312
  852MPD2    C512515   4.373   1.806   9.320  0.1520  0.0276  0.1889
  852MPD2     H12516   0.020   1.886   9.381  0.4869 -0.4972 -0.3758
  852MPD2    H112517   4.331   2.009   9.327 -1.0792 -1.5219 -0.8471
  852MPD2    H212518   4.446   1.594   9.305 -0.0319  0.6896 -0.4846
  852MPD2    H312519   4.274   1.779   9.286 -0.4364  0.9886  1.1308
  852MPD2     N12520   4.599   2.096   9.369  0.0536  0.0387  0.2914
  852MPD2    H512521   4.689   2.113   9.413  0.8547 -0.7905 -1.0338
  852MPD2    N112522   4.685   1.637   9.367  0.2671  0.0417  0.1369
  852MPD2    H712523   0.057   1.684   9.365  0.4899 -0.4741 -1.5603
  853MPD2     C12524   1.452   1.168  11.921 -0.4786 -0.8970 -0.2016
  853MPD2    C112525   1.368   1.236  11.841 -0.5570  0.3060  0.0200
  853MPD2    C212526   1.393   1.245  11.708  0.4738 -0.1812  0.0562
  853MPD2    C312527   1.503   1.177  11.657 -0.2947 -0.4216  0.4696
  853MPD2    C412528   1.586   1.104  11.743  0.2170  0.4130 -0.5666
  853MPD2    C512529   1.558   1.101  11.876 -0.1127 -0.1068 -0.2312
  853MPD2     H12530   1.328   1.300  11.641  1.9717 -0.2235 -1.4201
  853MPD2    H112531   1.676   1.063  11.700  0.7838 -0.0632  1.0844
  853MPD2    H212532   1.429   1.153  12.026  0.9653 -1.1173  0.0771
  853MPD2    H312533   1.618   1.044  11.947 -1.3661 -2.4871 -1.0864
  853MPD2     N12534   1.545   1.178  11.519 -0.5597  0.5672  0.2308
  853MPD2    H512535   1.619   1.112  11.499  1.1321  2.1885  1.0602
  853MPD2    N112536   1.261   1.294  11.904  0.5221  0.6953 -0.5158
  853MPD2    H712537   1.250   1.277  12.003  0.1880 -0.3045 -0.7210
  854MPD2     C12538   2.800   1.347  12.754  0.3560 -0.2360  0.0122
  854MPD2    C112539   2.904   1.328  12.668  0.3549  0.4715 -0.1960
  854MPD2    C212540   3.035   1.319  12.714 -0.1229  0.1768  0.5304
  854MPD2    C312541   3.055   1.295  12.854  0.6494 -0.0116 -0.4090
  854MPD2    C412542   2.949   1.323  12.938 -0.3546  0.0139 -0.5415
  854MPD2    C512543   2.826   1.360  12.892  0.2930  0.0436 -0.2700
  854MPD2     H12544   3.120   1.312  12.647 -1.1431  1.1445 -0.8635
  854MPD2    H112545   2.965   1.302  13.043  1.2500 -0.5529 -0.8966
  854MPD2    H212546   2.700   1.357  12.715  1.2754  2.0455 -1.7164
  854MPD2    H312547   2.744   1.371  12.962 -1.1665  0.2127 -2.0277
  854MPD2     N12548   3.181   1.250  12.913 -0.0187 -0.5702  0.0557
  854MPD2    H512549   3.183   1.218  13.009 -1.1304 -2.8229 -0.6523
  854MPD2    N112550   2.870   1.317  12.531  0.0185 -0.3982 -0.6551
  854MPD2    H712551   2.774   1.302  12.501  0.5989 -1.0271 -2.1452
  855MPD2     C12552   3.397   1.089  13.742 -0.1014 -0.2317  0.6044
  855MPD2    C112553   3.509   1.073  13.672  0.2461 -0.4895 -0.4034
  855MPD2    C212554   3.510   1.088  13.538  0.3227  0.0781 -0.1983
  855MPD2    C312555   3.399   1.128  13.469  0.3564 -0.2749 -0.0387
  855MPD2    C412556   3.283   1.168  13.543 -0.3951  0.2079  0.1208
  855MPD2    C512557   3.281   1.146  13.681 -0.2970 -0.5402  0.0714
  855MPD2     H12558   3.603   1.074  13.485  0.3134 -0.4939 -0.0674
  855MPD2    H112559   3.192   1.196  13.491  0.0321  1.0916 -0.1508
  855MPD2    H212560   3.380   1.054  13.843 -1.9269 -0.8881  0.0830
  855MPD2    H312561   3.188   1.158  13.736  0.2376  1.2798  0.5805
  855MPD2     N12562   3.400   1.115  13.324  0.0105  0.0331  0.4375
  855MPD2    H512563   3.312   1.143  13.282  0.3318  0.8074  0.2769
  855MPD2    N112564   3.631   1.026  13.729  0.2858  1.1342 -0.6261
  855MPD2    H712565   3.704   1.001  13.663  1.8463  0.5612  1.3192
  856MPD2     C12566   0.895   1.968  14.215  0.7418  0.0989 -0.0853
  856MPD2    C112567   0.986   2.067  14.175  0.0248 -0.3828  0.1089
  856MPD2    C212568   0.935   2.180  14.117  0.1923 -0.4038 -0.6311
  856MPD2    C312569   0.799   2.201  14.111 -1.0055 -0.2386  0.9393
  856MPD2    C412570   0.715   2.104  14.153  0.1959  0.5497  0.4366
  856MPD2    C512571   0.758   1.990  14.216 -0.5120  0.8564  0.7921
  856MPD2     H12572   1.002   2.254  14.074  2.9481 -0.7818  2.9286
  856MPD2    H112573   0.609   2.117  14.133 -0.0790 -2.1747  0.1698
  856MPD2    H212574   0.925   1.868  14.243  1.9233  0.2926 -0.6600
  856MPD2    H312575   0.687   1.909  14.228 -1.0901  1.0981 -0.9867
  856MPD2     N12576   0.741   2.313  14.052 -0.1115 -0.0710 -0.7481
  856MPD2    H512577   0.642   2.305  14.030 -0.2738 -1.5581  0.5381
  856MPD2    N112578   1.122   2.038  14.177  0.7115  0.6527  0.7097
  856MPD2    H712579   1.184   2.103  14.131  0.3711  0.5569  0.1197
  857MPD2     C12580   2.401   3.908  13.052 -0.0073 -0.5529 -0.2149
  857MPD2    C112581   2.436   3.971  12.923  1.1983 -0.2953  0.2278
  857MPD2    C212582   2.462   4.111  12.923  0.0355 -0.4776 -0.2416
  857MPD2    C312583   2.443   4.185  13.033  0.1674  0.3991 -0.7715
  857MPD2    C412584   2.400   4.121  13.149 -0.5546  0.0332 -0.3741
  857MPD2    C512585   2.376   3.987  13.157 -0.7217  0.1340 -0.0467
  857MPD2     H12586   2.502   4.160  12.834  0.7468 -1.0573 -0.2446
  857MPD2    H112587   2.380   4.173  13.242 -1.9625 -0.0941 -0.5970
  857MPD2    H212588   2.387   3.802  13.070 -2.9534 -0.4810 -2.1012
  857MPD2    H312589   2.345   3.938  13.249 -2.1960 -1.1658 -1.2290
  857MPD2     N12590   2.485   4.327  13.037 -0.8493  1.1636 -0.5251
  857MPD2    H512591   2.526   4.365  12.953  0.9354 -1.0679 -0.6894
  857MPD2    N112592   2.463   3.886  12.816 -0.2014  0.0093  0.2883
  857MPD2    H712593   2.455   3.786  12.836  1.7057  0.0153  1.0898
  858MPD2     C12594   2.898   2.925  17.266 -0.6910 -0.2142  0.5887
  858MPD2    C112595   3.022   2.940  17.218 -0.2921  0.1416  0.5238
  858MPD2    C212596   3.114   3.001  17.308 -0.4746 -1.1295 -0.3382
  858MPD2    C312597   3.082   3.057  17.438  1.0939  0.3251  0.2911
  858MPD2    C412598   2.948   3.042  17.471  0.6321  0.4926  0.0950
  858MPD2    C512599   2.860   2.971  17.389 -0.6200  0.6532  0.7492
  858MPD2     H12600   3.214   3.010  17.265 -0.4311  0.7516  0.1707
  858MPD2    H112601   2.920   3.095  17.561 -1.5220  1.0490 -0.9229
  858MPD2    H212602   2.831   2.865  17.205 -1.3778  1.6410 -0.4562
  858MPD2    H312603   2.755   2.980  17.412 -0.9235  1.3981 -0.9430
  858MPD2     N12604   3.174   3.133  17.518 -0.7070 -0.2899 -0.4304
  858MPD2    H512605   3.128   3.181  17.595  1.0732  0.6844  0.0252
  858MPD2    N112606   3.054   2.890  17.092  0.1972  0.2684  0.6370
  858MPD2    H712607   2.982   2.838  17.044  0.5109 -1.2373  1.8004
  859MPD2     C12608   1.673   0.992  15.968  0.3015  0.4289  0.4304
  859MPD2    C112609   1.733   0.907  15.877 -0.1153  0.0082  0.1734
  859MPD2    C212610   1.762   0.775  15.908 -0.0418  0.0552  0.0478
  859MPD2    C312611   1.729   0.724  16.030  0.1467  0.1791 -0.2092
  859MPD2    C412612   1.660   0.807  16.120 -0.3341  0.0550  0.7129
  859MPD2    C512613   1.641   0.939  16.092 -0.7034  0.2801 -0.3633
  859MPD2     H12614   1.825   0.717  15.841 -2.4889 -0.8807 -1.4423
  859MPD2    H112615   1.631   0.771  16.218  1.7750 -0.0826  1.2919
  859MPD2    H212616   1.652   1.096  15.946 -1.9926 -0.2878 -0.7429
  859MPD2    H312617   1.583   1.002  16.158 -1.7088  0.5506 -1.4921
  859MPD2     N12618   1.756   0.598  16.077 -0.5156 -0.0002 -0.5192
  859MPD2    H512619   1.749   0.590  16.178  0.2673  0.3199 -0.4454
  859MPD2    N112620   1.772   0.966  15.760 -0.2109 -0.2463  0.1384
  859MPD2    H712621   1.786   1.067  15.759 -1.9260 -0.0129  1.4832
  860MPD2     C12622   4.051   0.863  11.281  0.2199  0.0143  0.1564
  860MPD2    C112623   4.052   0.970  11.366  0.4545  0.6989  0.1602
  860MPD2    C212624   3.976   0.976  11.477  0.4335  0.4829 -0.2404
  860MPD2    C312625   3.895   0.879  11.513 -0.2061  0.3408  0.0818
  860MPD2    C412626   3.896   0.767  11.433  0.0448 -0.2008  0.4925
  860MPD2    C512627   3.972   0.760  11.321  0.7999  0.0463  0.0714
  860MPD2     H12628   3.986   1.061  11.543  2.2982 -0.9707  1.3632
  860MPD2    H112629   3.839   0.681  11.467 -1.7866  0.8407  0.0932
  860MPD2    H212630   4.116   0.855  11.195  0.6038  0.0577  0.4431
  860MPD2    H312631   3.976   0.665  11.268 -1.3052  0.2303 -0.4012
  860MPD2     N12632   3.831   0.890  11.638  0.0830 -0.1716  0.4793
  860MPD2    H512633   3.842   0.977  11.690  2.5973  0.2756 -0.8157
  860MPD2    N112634   4.140   1.074  11.349 -0.3212 -0.0194  0.0444
  860MPD2    H712635   4.152   1.133  11.431 -1.5922  1.0221 -0.5213
  861MPD2     C12636   2.632   3.529  11.493  0.0936  0.0578  0.5239
  861MPD2    C112637   2.722   3.634  11.484 -0.0081 -0.4012  1.3002
  861MPD2    C212638   2.712   3.718  11.367 -0.0251  0.4037  0.5545
  861MPD2    C312639   2.628   3.689  11.258  0.2581 -0.0374 -0.0464
  861MPD2    C412640   2.552   3.578  11.272 -0.1067 -0.0884  0.1441
  861MPD2    C512641   2.551   3.497  11.386  0.1586  0.2470 -0.5532
  861MPD2     H12642   2.789   3.793  11.353  2.0386 -1.9109 -0.4590
  861MPD2    H112643   2.477   3.549  11.200  1.6861 -1.9934 -0.9378
  861MPD2    H212644   2.620   3.464  11.579  1.7447 -0.0072  0.6970
  861MPD2    H312645   2.496   3.404  11.391  2.1183 -0.9027 -0.4093
  861MPD2     N12646   2.623   3.769  11.136 -0.3934 -0.7956 -0.2054
  861MPD2    H512647   2.569   3.731  11.058 -1.2086  2.0168 -1.0197
  861MPD2    N112648   2.809   3.667  11.589 -0.9339  0.0050 -0.1246
  861MPD2    H712649   2.862   3.752  11.573  0.0760 -0.3962  1.0893
  862MPD2     C12650   2.515   3.782  10.419  0.5981 -0.5029  0.1525
  862MPD2    C112651   2.509   3.755  10.557 -0.1829 -0.0368  0.0291
  862MPD2    C212652   2.475   3.630  10.595  0.4511  0.1519 -0.2264
  862MPD2    C312653   2.474   3.528  10.500  0.4436  0.3107  0.0910
  862MPD2    C412654   2.477   3.548  10.361 -0.8681 -0.3253  0.2887
  862MPD2    C512655   2.495   3.680  10.326 -0.1535 -0.1813  0.0400
  862MPD2     H12656   2.462   3.611  10.701  0.6025 -1.9673 -0.5766
  862MPD2    H112657   2.463   3.472  10.286  0.8506  1.2839 -1.6685
  862MPD2    H212658   2.544   3.879  10.382 -1.8148  0.2156  0.1633
  862MPD2    H312659   2.504   3.694  10.219 -2.1503 -1.8351 -0.3440
  862MPD2     N12660   2.469   3.390  10.537 -0.6228  0.7596 -0.5021
  862MPD2    H512661   2.428   3.320  10.476 -0.1650  2.4483 -2.7717
  862MPD2    N112662   2.529   3.849  10.661 -0.1746  0.0622  0.1081
  862MPD2    H712663   2.485   3.827  10.750 -0.8613  1.7628  0.1930
  863MPD2     C12664   1.167   2.426  17.276 -0.0642  0.0970 -0.1660
  863MPD2    C112665   1.258   2.429  17.168  0.1197 -0.1717  0.2900
  863MPD2    C212666   1.383   2.373  17.179  0.4980  0.0557 -0.0641
  863MPD2    C312667   1.410   2.299  17.299  0.0658 -0.2267  0.2708
  863MPD2    C412668   1.324   2.292  17.405  0.0990 -0.1839 -0.5674
  863MPD2    C512669   1.207   2.366  17.396 -0.2054 -0.1273 -0.1379
  863MPD2     H12670   1.455   2.369  17.098  0.4620 -1.8515 -0.0111
  863MPD2    H112671   1.350   2.245  17.499  3.5192  0.6310 -1.1244
  863MPD2    H212672   1.070   2.474  17.279 -0.7262 -1.2415 -0.3190
  863MPD2    H312673   1.144   2.355  17.484 -2.6137  0.6545 -1.7732
  863MPD2     N12674   1.521   2.208  17.322 -0.8017 -0.0360  0.0184
  863MPD2    H512675   1.525   2.144  17.400 -1.0514 -1.5400 -1.2032
  863MPD2    N112676   1.206   2.470  17.045  0.3467 -0.1732  0.0300
  863MPD2    H712677   1.107   2.490  17.053  0.7209  2.0398 -0.7853
  864MPD2     C12678   2.126   3.101  17.475  1.0319 -0.0861  0.0765
  864MPD2    C112679   2.207   3.025  17.396  0.9587  0.1261  0.7914
  864MPD2    C212680   2.338   3.066  17.367  0.6454  0.5236 -0.2582
  864MPD2    C312681   2.376   3.190  17.411  0.7535  0.1445  0.3156
  864MPD2    C412682   2.287   3.260  17.492 -0.6409 -0.6312 -0.4641
  864MPD2    C512683   2.164   3.217  17.525 -0.3307 -0.0341 -0.1316
  864MPD2     H12684   2.409   3.008  17.308  1.2776 -1.1327  2.1520
  864MPD2    H112685   2.310   3.361  17.524 -1.4961 -0.4596 -0.3901
  864MPD2    H212686   2.025   3.071  17.498  1.0505 -0.2462 -0.0449
  864MPD2    H312687   2.100   3.281  17.585  1.9329  1.3631  0.7549
  864MPD2     N12688   2.492   3.262  17.369  0.0138 -0.2317  0.3208
  864MPD2    H512689   2.494   3.353  17.412 -1.2607 -1.0443  2.1190
  864MPD2    N112690   2.147   2.902  17.354 -0.3368  0.0425 -0.1465
  864MPD2    H712691   2.055   2.875  17.387  0.8657 -1.9173  1.5971
  865MPD2     C12692   2.572   3.860  16.630 -0.2178  0.2057 -1.1486
  865MPD2    C112693   2.524   3.731  16.650  0.4418  0.5146 -0.3716
  865MPD2    C212694   2.551   3.676  16.776  0.3151  0.5335  0.8294
  865MPD2    C312695   2.617   3.747  16.874 -0.2302 -0.1775  0.4184
  865MPD2    C412696   2.648   3.878  16.852  0.1226 -0.2021 -0.4850
  865MPD2    C512697   2.623   3.932  16.733  0.0683 -0.2370  0.2389
  865MPD2     H12698   2.529   3.571  16.790  1.4210  0.0413 -1.0814
  865MPD2    H112699   2.696   3.939  16.928 -1.5195  1.9267 -1.1742
  865MPD2    H212700   2.565   3.911  16.534  2.4532 -0.6433 -1.8065
  865MPD2    H312701   2.660   4.031  16.710 -3.0850  1.1361  0.9805
  865MPD2     N12702   2.654   3.691  16.997  0.0359 -0.1652  0.5447
  865MPD2    H512703   2.725   3.742  17.048 -0.3705 -0.4875  1.4330
  865MPD2    N112704   2.467   3.665  16.537  0.0666  0.1536  0.4004
  865MPD2    H712705   2.461   3.710  16.446  0.4121  1.2455  0.9274
  866MPD2     C12706   3.804   4.506  11.216  0.1286  0.3200 -0.2103
  866MPD2    C112707   3.749   4.450  11.105 -0.6203 -0.1539  0.2566
  866MPD2    C212708   3.609   4.440  11.091 -0.7702  0.2026 -0.1371
  866MPD2    C312709   3.531   4.480  11.199  0.0628 -0.5081  0.3086
  866MPD2    C412710   3.598   4.526  11.314  0.4277  0.0558 -0.8233
  866MPD2    C512711   3.731   4.552  11.318  0.0959  0.2984  0.0691
  866MPD2     H12712   3.570   4.393  11.002 -0.7893  1.5066 -0.8120
  866MPD2    H112713   3.540   4.553  11.401  1.6525 -1.2842  0.3956
  866MPD2    H212714   3.910   4.509  11.238  0.6099  0.2804 -2.4878
  866MPD2    H312715   3.779   4.599  11.403 -0.2685  1.6604 -0.4934
  866MPD2     N12716   3.392   4.452  11.199  0.4603 -0.2634  0.3132
  866MPD2    H512717   3.337   4.456  11.284 -1.0161  0.3927 -0.6636
  866MPD2    N112718   3.834   4.373  11.024 -0.2239 -0.1026 -0.0475
  866MPD2    H712719   3.930   4.375  11.054 -0.4347  0.0660  0.6202
  867MPD2     C12720   1.108   3.843  16.628 -0.2757 -0.3695 -0.1872
  867MPD2    C112721   1.104   3.791  16.755 -0.8319 -0.6638 -0.1189
  867MPD2    C212722   1.061   3.872  16.859  0.3596 -0.4215  0.1652
  867MPD2    C312723   1.025   4.005  16.835  0.7915 -0.7139  0.4053
  867MPD2    C412724   1.035   4.053  16.703 -0.7785  0.3738 -0.9145
  867MPD2    C512725   1.074   3.970  16.601 -0.0046  0.3163 -0.7593
  867MPD2     H12726   1.050   3.834  16.960 -1.5690 -1.8251 -0.5617
  867MPD2    H112727   1.022   4.155  16.670 -0.9036  0.4229 -0.7112
  867MPD2    H212728   1.137   3.782  16.544 -0.6334 -0.4500 -0.2514
  867MPD2    H312729   1.075   4.007  16.500  1.6606  1.1660 -0.4338
  867MPD2     N12730   0.977   4.095  16.939  0.1628 -0.2807  0.1612
  867MPD2    H512731   0.944   4.188  16.916  2.9999  0.5307 -0.7535
  867MPD2    N112732   1.123   3.657  16.769  0.1610 -0.0132  0.4779
  867MPD2    H712733   1.155   3.614  16.683  0.0599 -0.4503  0.6576
  868MPD2     C12734   3.195   1.449  13.786  0.4403 -0.9465  0.1836
  868MPD2    C112735   3.183   1.488  13.657 -0.2077 -1.1470 -0.5311
  868MPD2    C212736   3.054   1.517  13.617 -0.7337 -0.0499  0.2258
  868MPD2    C312737   2.939   1.483  13.686  0.1846 -1.0007 -0.4072
  868MPD2    C412738   2.951   1.432  13.812  0.6273  0.2732  0.4433
  868MPD2    C512739   3.080   1.416  13.859  0.0176  0.1984 -0.2873
  868MPD2     H12740   3.047   1.560  13.518 -0.4148  0.8136  0.5811
  868MPD2    H112741   2.865   1.404  13.872 -1.5310  1.2371 -2.1734
  868MPD2    H212742   3.290   1.425  13.832 -0.2749 -1.5941  1.3044
  868MPD2    H312743   3.101   1.389  13.962 -1.2651  0.6888  0.0987
  868MPD2     N12744   2.815   1.510  13.622 -0.6751  0.0872  0.3394
  868MPD2    H512745   2.818   1.539  13.525  0.0805  0.8809  0.6012
  868MPD2    N112746   3.300   1.510  13.584 -0.0849  0.5697  0.0354
  868MPD2    H712747   3.388   1.490  13.633  0.2972  1.8174 -0.1450
  869MPD2     C12748   0.303   1.016   2.229 -0.8991 -0.1843 -0.6259
  869MPD2    C112749   0.267   0.885   2.240  0.0095  0.6014  0.8165
  869MPD2    C212750   0.146   0.848   2.182  0.0247  0.8680 -0.5277
  869MPD2    C312751   0.066   0.950   2.126 -0.7405 -0.1401  0.1632
  869MPD2    C412752   0.114   1.084   2.114  0.5301 -0.2435  0.5352
  869MPD2    C512753   0.237   1.110   2.158  0.6182  0.5924  0.6877
  869MPD2     H12754   0.102   0.750   2.198  1.8123  0.3941  1.4889
  869MPD2    H112755   0.062   1.166   2.066 -0.7375 -1.0243  0.5748
  869MPD2    H212756   0.394   1.037   2.285 -2.6631  2.0120  1.3876
  869MPD2    H312757   0.270   1.213   2.153 -0.7293  1.0267  0.7702
  869MPD2     N12758   4.649   0.928   2.082  0.1968  0.6461 -0.3306
  869MPD2    H512759   4.596   1.009   2.051 -1.4659 -1.8773 -4.0689
  869MPD2    N112760   0.350   0.795   2.314  0.2645  0.7187 -0.0881
  869MPD2    H712761   0.439   0.834   2.343  1.3386 -0.3626 -1.9040
  870MPD2     C12762   4.398   4.507   1.938 -0.4012 -0.0081 -0.3885
  870MPD2    C112763   4.353   4.401   1.866 -0.0910  0.7272  0.1073
  870MPD2    C212764   4.420   4.371   1.743  0.2883 -0.2000 -0.4163
  870MPD2    C312765   4.519   4.451   1.687 -0.3182  0.2731  0.3738
  870MPD2    C412766   4.564   4.558   1.768 -0.0916  0.1762 -0.3014
  870MPD2    C512767   4.500   4.584   1.886 -0.1528 -0.4702  0.7508
  870MPD2     H12768   4.383   4.298   1.672 -0.2800 -0.0594 -0.2684
  870MPD2    H112769   4.652   4.619   1.750 -0.4745  1.1141  1.0010
  870MPD2    H212770   4.363   4.542   2.035 -1.1986 -0.9297 -0.3441
  870MPD2    H312771   4.537   4.663   1.951  0.5401  0.3715 -0.6759
  870MPD2     N12772   4.554   4.429   1.550  0.5971 -0.8503 -0.0319
  870MPD2    H512773   4.513   4.343   1.516  0.9817 -0.4199 -1.5857
  870MPD2    N112774   4.242   4.327   1.923 -0.7708  0.4007  0.0868
  870MPD2    H712775   4.229   4.352   2.020 -3.5069 -2.0689  0.3269
  871MPD2     C12776   4.717   3.923  16.459 -0.0968 -0.4637  0.1920
  871MPD2    C112777   4.673   3.833  16.554 -0.1094 -0.9114  0.8976
  871MPD2    C212778   4.663   3.703  16.508 -0.5758 -0.1794  0.3229
  871MPD2    C312779   4.691   3.664  16.377  0.8328  0.2061 -0.0520
  871MPD2    C412780   0.013   3.761  16.284 -0.2206 -0.2397 -0.2220
  871MPD2    C512781   0.025   3.891  16.330  0.4171  0.2055  0.0141
  871MPD2     H12782   4.629   3.622  16.571  2.1495 -0.8503  0.9204
  871MPD2    H112783   0.030   3.737  16.179 -1.6091  1.6061 -0.8571
  871MPD2    H212784   4.715   4.028  16.483  0.3535 -0.2239 -0.8233
  871MPD2    H312785   0.050   3.966  16.256  0.9669 -1.0915 -1.1373
  871MPD2     N12786   4.674   3.525  16.350  0.7452 -0.5663  1.0538
  871MPD2    H512787   4.637   3.468  16.425 -0.9173  0.0998  0.7387
  871MPD2    N112788   4.629   3.876  16.688 -0.9868  0.0047  0.6355
  871MPD2    H712789   4.627   3.976  16.707  0.8573  0.3162 -0.9209
  872MPD2     C12790   0.661   1.270  13.791 -0.2625 -0.4098  0.4020
  872MPD2    C112791   0.667   1.363  13.892  0.1700  0.5883  0.5269
  872MPD2    C212792   0.554   1.382  13.971 -0.4883  1.1167  0.5500
  872MPD2    C312793   0.440   1.309  13.951 -0.2950  0.2098 -0.4990
  872MPD2    C412794   0.441   1.210  13.849  0.0748  0.0145  1.4763
  872MPD2    C512795   0.549   1.191  13.769  0.0383 -0.8126  0.1027
  872MPD2     H12796   0.569   1.454  14.051  1.4574  1.9769 -0.5969
  872MPD2    H112797   0.353   1.149  13.835  0.6131 -0.7040  1.1668
  872MPD2    H212798   0.736   1.247  13.716  0.9129  2.1232  0.8122
  872MPD2    H312799   0.548   1.121  13.686  0.3046  0.6130 -1.1186
  872MPD2     N12800   0.328   1.324  14.039 -0.7151  0.2165 -0.4369
  872MPD2    H512801   0.245   1.269  14.017  0.1953 -2.2876  2.2802
  872MPD2    N112802   0.772   1.455  13.918  0.3618  0.1973 -0.0571
  872MPD2    H712803   0.764   1.510  14.002 -1.5007  0.9404 -0.7291
  873MPD2     C12804   2.465   1.286   0.760  0.2672 -0.3912  0.5214
  873MPD2    C112805   2.515   1.240   0.881 -0.1096 -0.3134  0.5903
  873MPD2    C212806   2.534   1.100   0.892 -0.0974 -0.6226 -0.3231
  873MPD2    C312807   2.504   1.018   0.785  0.3845 -0.0274  0.1438
  873MPD2    C412808   2.453   1.070   0.666 -0.3970 -0.5390  0.6977
  873MPD2    C512809   2.437   1.204   0.655 -0.3975  0.5928  0.3543
  873MPD2     H12810   2.548   1.061   0.992 -0.0096 -2.7118 -1.1537
  873MPD2    H112811   2.435   1.006   0.580 -3.4400  1.4705 -0.1543
  873MPD2    H212812   2.445   1.391   0.748  0.3421 -0.4640 -0.2374
  873MPD2    H312813   2.400   1.256   0.567  1.0206 -1.5472 -1.5210
  873MPD2     N12814   2.531   0.877   0.782  0.0454  0.0453 -0.4883
  873MPD2    H512815   2.495   0.824   0.704 -1.0112 -0.9920  0.7275
  873MPD2    N112816   2.548   1.330   0.993 -0.1116 -0.1680 -0.8890
  873MPD2    H712817   2.542   1.430   0.980  1.7032 -0.1213 -1.3662
  874MPD2     C12818   2.349   1.607  16.266  0.1715 -0.5289  0.5468
  874MPD2    C112819   2.388   1.495  16.336 -0.4101 -0.5615 -0.3036
  874MPD2    C212820   2.519   1.460  16.339 -0.5319  0.3731 -0.1743
  874MPD2    C312821   2.612   1.537  16.278 -0.1273 -0.3271 -0.6494
  874MPD2    C412822   2.572   1.650  16.207 -0.6468  0.5227 -0.1702
  874MPD2    C512823   2.443   1.678  16.194 -0.2392 -0.0702 -0.6027
  874MPD2     H12824   2.552   1.371  16.391  1.7947  0.6428 -1.1906
  874MPD2    H112825   2.639   1.723  16.163  2.0554 -2.3789 -0.8925
  874MPD2    H212826   2.245   1.637  16.261  1.1931  2.6200 -1.8724
  874MPD2    H312827   2.412   1.765  16.137  0.0168 -0.4368 -1.3017
  874MPD2     N12828   2.754   1.507  16.299 -0.5794  0.3588 -0.1486
  874MPD2    H512829   2.778   1.431  16.361 -3.3098  0.4777  1.0379
  874MPD2    N112830   2.279   1.414  16.392 -0.2406  0.2954 -0.3727
  874MPD2    H712831   2.182   1.437  16.370 -0.4088 -0.4234 -0.3898
  875MPD2     C12832   3.457   4.717  14.750 -0.3894  0.3515  0.0439
  875MPD2    C112833   3.325   0.007  14.778 -0.4031 -0.6155 -0.1733
  875MPD2    C212834   3.291   0.083  14.890 -0.4136 -0.5871 -0.1187
  875MPD2    C312835   3.384   0.150  14.966 -0.2205 -0.0970 -0.0512
  875MPD2    C412836   3.510   0.149  14.926  0.5198  0.2505 -0.1338
  875MPD2    C512837   3.549   0.072  14.821 -0.4971 -0.0354 -1.1666
  875MPD2     H12838   3.184   0.088  14.909 -0.1978 -0.7826  1.1764
  875MPD2    H112839   3.580   0.186  14.999  0.2111 -0.5638  0.5845
  875MPD2    H212840   3.496   4.658  14.667 -0.1647 -0.9860  1.1075
  875MPD2    H312841   3.654   0.063  14.798 -0.9338 -0.6086 -2.9624
  875MPD2     N12842   3.344   0.200  15.094  0.0099  0.8664 -0.1104
  875MPD2    H512843   3.409   0.261  15.143 -0.7906  0.5864  1.3023
  875MPD2    N112844   3.222   4.648  14.714  0.0205 -0.9609  0.1964
  875MPD2    H712845   3.129   4.670  14.749  0.9434  2.4221  0.5862
  876MPD2     C12846   1.990   1.162  16.179  0.1668  0.5795 -0.1254
  876MPD2    C112847   2.123   1.154  16.148  0.5032  0.3224 -1.3689
  876MPD2    C212848   2.192   1.039  16.195 -0.1579  0.0899  0.7957
  876MPD2    C312849   2.131   0.946  16.270  0.4280  0.1470 -0.2704
  876MPD2    C412850   1.996   0.956  16.296 -0.3744 -0.0764 -0.3221
  876MPD2    C512851   1.928   1.063  16.252  0.4497  0.5857 -1.0718
  876MPD2     H12852   2.296   1.025  16.167 -0.1912 -0.3986  0.9143
  876MPD2    H112853   1.942   0.876  16.345 -0.3756  0.4328  0.5124
  876MPD2    H212854   1.929   1.240  16.137 -0.4184  0.9008  1.3219
  876MPD2    H312855   1.821   1.071  16.273  0.6102  0.3858 -0.1645
  876MPD2     N12856   2.215   0.839  16.312  0.2806  0.6815  0.9502
  876MPD2    H512857   2.304   0.834  16.263 -0.0825  0.2691  0.3282
  876MPD2    N112858   2.176   1.256  16.064 -0.0167 -0.1704 -0.1512
  876MPD2    H712859   2.114   1.326  16.024  0.4941  0.7578  0.6718
  877MPD2     C12860   1.993   1.464  15.419 -0.3915 -0.5846 -0.6203
  877MPD2    C112861   2.131   1.478  15.414  0.2365 -0.6610  1.4992
  877MPD2    C212862   2.186   1.462  15.283  0.1111 -0.0762 -0.4631
  877MPD2    C312863   2.106   1.444  15.169 -0.0940 -0.5084  0.2179
  877MPD2    C412864   1.975   1.437  15.178  0.9027 -0.3227  0.6858
  877MPD2    C512865   1.917   1.438  15.306 -0.0782  0.0327  0.4048
  877MPD2     H12866   2.293   1.457  15.270  0.0989 -0.6301 -0.3302
  877MPD2    H112867   1.906   1.405  15.101  1.0442  2.5034 -0.5975
  877MPD2    H212868   1.942   1.457  15.515  3.0134 -0.5955  1.2015
  877MPD2    H312869   1.810   1.422  15.318 -0.2010  0.0405 -0.6285
  877MPD2     N12870   2.157   1.433  15.043  0.4654 -0.1826 -0.2253
  877MPD2    H512871   2.090   1.418  14.968  1.1287 -1.4479 -0.5664
  877MPD2    N112872   2.212   1.505  15.523  0.1892 -0.0487  0.0284
  877MPD2    H712873   2.313   1.508  15.508  0.0861  1.1616 -0.3572
  878MPD2     C12874   1.477   0.263  13.663  0.2647 -0.0411 -0.4844
  878MPD2    C112875   1.594   0.323  13.672  0.5662 -0.0576 -0.1200
  878MPD2    C212876   1.620   0.400  13.784 -0.0010  0.9428 -0.5323
  878MPD2    C312877   1.533   0.412  13.886  0.3353  0.3392 -0.4865
  878MPD2    C412878   1.424   0.335  13.879  0.1115 -0.2635  0.2022
  878MPD2    C512879   1.392   0.267  13.765  0.6119 -0.7523  1.1123
  878MPD2     H12880   1.714   0.454  13.792 -0.6805  1.9891  0.4310
  878MPD2    H112881   1.341   0.362  13.943  1.7070  1.1021  1.7030
  878MPD2    H212882   1.451   0.218  13.567 -0.8426 -0.1197 -0.1413
  878MPD2    H312883   1.290   0.233  13.751  0.0250  0.9514  1.2253
  878MPD2     N12884   1.564   0.513  13.984 -0.6877 -0.7795 -0.1235
  878MPD2    H512885   1.654   0.560  13.978 -0.1275 -1.6374  1.4107
  878MPD2    N112886   1.686   0.320  13.561 -0.4283  0.6312  0.6060
  878MPD2    H712887   1.652   0.296  13.468  0.6279  0.1611  0.3367
  879MPD2     C12888   3.043   1.854  16.698 -0.3695 -0.0570 -0.4405
  879MPD2    C112889   3.002   1.775  16.798 -0.0101 -0.0125  0.3243
  879MPD2    C212890   2.899   1.691  16.782 -0.4395 -0.3917  0.1146
  879MPD2    C312891   2.839   1.684  16.656 -0.5709  0.1833 -0.3278
  879MPD2    C412892   2.888   1.763  16.553  0.0548  0.2003 -0.0899
  879MPD2    C512893   2.993   1.840  16.570  0.0115  1.4198  0.0544
  879MPD2     H12894   2.877   1.623  16.864 -3.5127  2.0660  1.3271
  879MPD2    H112895   2.836   1.757  16.458 -1.3027 -2.3214  0.7992
  879MPD2    H212896   3.119   1.927  16.724 -1.4029  0.4621  1.1293
  879MPD2    H312897   3.025   1.906  16.489 -0.2645  1.0967 -0.3137
  879MPD2     N12898   2.716   1.618  16.632  0.8162  0.4950  0.1011
  879MPD2    H512899   2.685   1.618  16.535 -0.6980  1.0124  0.5867
  879MPD2    N112900   3.061   1.798  16.926 -0.0408  1.1654  0.4543
  879MPD2    H712901   3.141   1.860  16.931 -0.0025  1.1922 -0.4628
  880MPD2     C12902   3.955   3.266   0.572  0.8953  0.1232  0.2222
  880MPD2    C112903   4.083   3.312   0.557  0.4869  0.2806 -0.1662
  880MPD2    C212904   4.187   3.226   0.532  0.0406  0.6131  0.3531
  880MPD2    C312905   4.158   3.096   0.514  0.3335  0.3915  0.7003
  880MPD2    C412906   4.022   3.045   0.522  0.2845 -0.0254 -0.0370
  880MPD2    C512907   3.924   3.131   0.564  0.1896  0.2227 -0.0247
  880MPD2     H12908   4.282   3.252   0.575  1.6379 -2.0909 -1.5364
  880MPD2    H112909   3.996   2.940   0.521  2.0735 -0.4479 -1.1227
  880MPD2    H212910   3.876   3.335   0.601 -0.4603 -1.0587 -0.6169
  880MPD2    H312911   3.824   3.094   0.583 -0.6979  3.0136  0.7402
  880MPD2     N12912   4.260   3.007   0.490  0.4142 -0.1423 -0.1493
  880MPD2    H512913   4.354   3.046   0.500 -0.2442  1.1855  0.9287
  880MPD2    N112914   4.111   3.454   0.573 -0.0251 -0.3165  0.0674
  880MPD2    H712915   4.208   3.480   0.589 -0.4390  1.0443  0.4282
  881MPD2     C12916   4.121   4.498   0.250 -0.5649 -0.0336 -0.6201
  881MPD2    C112917   4.089   4.388   0.177 -0.1422 -0.5557 -0.6631
  881MPD2    C212918   4.107   4.260   0.232  0.4242 -0.2235  0.6517
  881MPD2    C312919   4.130   4.250   0.369 -0.7578 -0.9209  0.3119
  881MPD2    C412920   4.139   4.371   0.442  0.5297  0.2364  0.0884
  881MPD2    C512921   4.148   4.491   0.380  0.5185  0.3493 -0.3647
  881MPD2     H12922   4.070   4.175   0.176  0.6838 -0.2661  0.5468
  881MPD2    H112923   4.150   4.372   0.550 -0.6698 -0.8479  0.2233
  881MPD2    H212924   4.086   4.591   0.207 -1.5860 -1.0873 -2.1073
  881MPD2    H312925   4.155   4.581   0.440  0.9815  0.7972 -1.0848
  881MPD2     N12926   4.132   4.125   0.442 -0.7272 -0.3290  0.0449
  881MPD2    H512927   4.159   4.127   0.539 -0.1910 -0.7932 -0.0974
  881MPD2    N112928   4.079   4.417   0.034 -0.5994 -0.8313 -0.2396
  881MPD2    H712929   4.097   4.514   0.011  1.3997 -0.6790  2.0086
  882MPD2     C12930   2.065   0.929  14.399  0.1955 -0.1633 -0.2581
  882MPD2    C112931   2.021   1.037  14.471  0.6639 -0.0643 -0.0305
  882MPD2    C212932   1.922   1.117  14.415 -0.0609 -0.8822 -0.1251
  882MPD2    C312933   1.875   1.097  14.288  0.5522  0.4902 -0.4124
  882MPD2    C412934   1.920   0.987  14.215 -0.0724  0.3517 -0.0961
  882MPD2    C512935   2.016   0.902  14.271  0.0775 -0.6050  0.2430
  882MPD2     H12936   1.892   1.208  14.467 -1.1541 -1.1337 -0.3323
  882MPD2    H112937   1.897   0.981  14.109 -3.1537 -2.5255  0.7448
  882MPD2    H212938   2.130   0.859  14.450 -0.2116 -0.3745 -0.0287
  882MPD2    H312939   2.054   0.817  14.216 -0.3860 -0.2158 -0.6774
  882MPD2     N12940   1.767   1.172  14.228 -0.0847 -0.2670  0.1053
  882MPD2    H512941   1.733   1.144  14.137  1.2163 -0.0321 -0.4397
  882MPD2    N112942   2.087   1.055  14.602  0.0337  0.5611  0.0090
  882MPD2    H712943   2.153   0.985  14.634 -2.5523 -1.2732  1.2971
  883MPD2     C12944   4.222   1.678  16.499 -0.4764  0.3053  0.3806
  883MPD2    C112945   4.259   1.667  16.364 -0.0007  0.7038  0.1279
  883MPD2    C212946   4.381   1.718  16.328  0.3545  0.0003  0.7482
  883MPD2    C312947   4.460   1.787  16.418  0.6067  0.1505 -0.7305
  883MPD2    C412948   4.418   1.794  16.547 -0.0416  0.5281  0.3669
  883MPD2    C512949   4.306   1.734  16.594  0.3000  0.1300  0.0415
  883MPD2     H12950   4.416   1.698  16.227 -1.4841  0.3376  0.0446
  883MPD2    H112951   4.475   1.857  16.616 -0.8960 -0.5140  2.0307
  883MPD2    H212952   4.124   1.639  16.525  0.0413 -0.4154  1.2742
  883MPD2    H312953   4.296   1.733  16.701 -0.8708  2.0267 -0.0427
  883MPD2     N12954   4.579   1.840  16.373 -0.2562  0.3632 -0.1829
  883MPD2    H512955   4.592   1.846  16.273  0.2487 -5.0930 -0.4535
  883MPD2    N112956   4.170   1.618  16.267  0.1144  0.5386 -0.0096
  883MPD2    H712957   4.214   1.594  16.178  1.3438 -0.9800  1.0126
  884MPD2     C12958   1.401   2.420  15.324 -0.1419 -0.4582 -0.7210
  884MPD2    C112959   1.317   2.335  15.247  0.6990 -0.6057 -0.1990
  884MPD2    C212960   1.184   2.358  15.238 -0.1402  0.2717  0.8870
  884MPD2    C312961   1.133   2.477  15.294  0.5676  0.1407  0.1585
  884MPD2    C412962   1.213   2.569  15.352 -0.2676 -0.1016 -0.0868
  884MPD2    C512963   1.341   2.531  15.380  0.0686 -0.2146  0.7112
  884MPD2     H12964   1.118   2.286  15.190 -0.2078 -0.0150  1.4110
  884MPD2    H112965   1.167   2.659  15.391 -0.1135  0.7434 -1.8645
  884MPD2    H212966   1.509   2.409  15.331 -0.2730 -1.2348  0.0542
  884MPD2    H312967   1.405   2.595  15.440  0.0969  0.8815 -0.4845
  884MPD2     N12968   0.994   2.495  15.283 -0.1086  0.1355  0.6884
  884MPD2    H512969   0.947   2.413  15.244 -0.6734  0.1730  1.2932
  884MPD2    N112970   1.374   2.224  15.178  0.1853 -0.5795  0.4542
  884MPD2    H712971   1.318   2.170  15.112  0.8295  0.4082 -0.9061
  885MPD2     C12972   4.152   1.851   0.352 -0.0730 -0.5341  0.7651
  885MPD2    C112973   4.233   1.946   0.419  0.0821  0.6311 -0.2988
  885MPD2    C212974   4.274   2.055   0.339 -0.3806  0.0399 -0.1951
  885MPD2    C312975   4.209   2.084   0.221 -0.2209  0.5791 -0.2021
  885MPD2    C412976   4.109   2.003   0.171 -0.3639  0.5615  0.4081
  885MPD2    C512977   4.085   1.888   0.236  0.0747 -0.1807 -0.2696
  885MPD2     H12978   4.358   2.114   0.373 -0.3747 -1.1685  1.9248
  885MPD2    H112979   4.063   2.012   0.073  1.6415  2.5258 -0.3625
  885MPD2    H212980   4.135   1.750   0.388  2.4029 -0.2517  2.6997
  885MPD2    H312981   4.020   1.814   0.191  1.9060 -2.3277  0.6286
  885MPD2     N12982   4.260   2.188   0.142  0.3230 -0.1089 -0.3821
  885MPD2    H512983   4.331   2.241   0.192  0.0957 -0.2975  0.1498
  885MPD2    N112984   4.276   1.912   0.555 -0.0003  0.2680 -0.1442
  885MPD2    H712985   4.251   1.820   0.591  1.7298 -0.5455 -1.0183
  886MPD2     C12986   0.801   0.594  15.684 -0.3850  0.0113  0.2988
  886MPD2    C112987   0.870   0.710  15.719 -0.3691 -0.2479  0.7435
  886MPD2    C212988   0.875   0.815  15.627 -0.2913  0.0915 -0.9705
  886MPD2    C312989   0.812   0.807  15.511  0.0038  0.3924  0.5925
  886MPD2    C412990   0.736   0.699  15.473  0.0013  0.1179  0.4833
  886MPD2    C512991   0.737   0.587  15.560 -0.2450 -0.8442  0.1520
  886MPD2     H12992   0.927   0.908  15.646 -0.1904 -0.0096 -0.7594
  886MPD2    H112993   0.697   0.687  15.372  0.6592 -0.0014  0.2463
  886MPD2    H212994   0.804   0.499  15.737 -0.1756 -0.5610 -0.7336
  886MPD2    H312995   0.690   0.497  15.520 -0.9613 -1.0773  1.5057
  886MPD2     N12996   0.823   0.928  15.428  0.4643  0.2925 -0.5772
  886MPD2    H512997   0.897   0.994  15.447  0.3223 -0.0232  1.1120
  886MPD2    N112998   0.935   0.731  15.847  0.0689  0.6807  0.8876
  886MPD2    H712999   0.965   0.827  15.861 -0.7435  0.7647  2.0248
  887MPD2     C13000   1.393   1.203  16.037 -0.0849 -0.7847 -0.7670
  887MPD2    C113001   1.299   1.131  15.965  0.3548  0.6237 -0.1057
  887MPD2    C213002   1.275   1.173  15.836 -0.4201 -0.4436 -0.8987
  887MPD2    C313003   1.345   1.271  15.772 -0.1224  0.6597 -0.1141
  887MPD2    C413004   1.428   1.344  15.852  0.5400  0.2114  0.2503
  887MPD2    C513005   1.444   1.313  15.983  0.1221  0.2502  0.7796
  887MPD2     H13006   1.199   1.122  15.779 -1.5134 -1.9601  1.8823
  887MPD2    H113007   1.498   1.416  15.811  0.0603  1.2109  1.1659
  887MPD2    H213008   1.429   1.176  16.135 -2.1062 -2.1078 -0.3905
  887MPD2    H313009   1.528   1.353  16.040 -0.6195  0.0307  2.0408
  887MPD2     N13010   1.326   1.298  15.635 -0.0472  0.5481  0.4710
  887MPD2    H513011   1.245   1.255  15.591 -0.2935  0.1243  1.3345
  887MPD2    N113012   1.252   1.007  16.000 -0.1634 -0.5055  0.3989
  887MPD2    H713013   1.195   0.958  15.932  0.0946  0.0697 -0.2344
  888MPD2     C13014   3.790   1.238  15.597  0.6690 -0.1478 -0.7148
  888MPD2    C113015   3.677   1.278  15.528  0.0106  0.7249  0.2808
  888MPD2    C213016   3.679   1.388  15.442 -0.1452 -0.7215 -0.3656
  888MPD2    C313017   3.797   1.455  15.429  0.6924  0.4482 -0.4206
  888MPD2    C413018   3.912   1.418  15.499 -0.9293 -0.1592  0.2542
  888MPD2    C513019   3.908   1.308  15.581  0.4827  0.1649  0.5001
  888MPD2     H13020   3.592   1.419  15.385 -0.8952  0.9194  1.6807
  888MPD2    H113021   4.012   1.455  15.482 -0.6971 -1.2342 -0.7119
  888MPD2    H213022   3.788   1.157  15.670  1.7713  0.4362 -0.0324
  888MPD2    H313023   3.999   1.278  15.632 -0.1246 -2.2980  0.1278
  888MPD2     N13024   3.786   1.570  15.350 -0.2242  0.5605 -0.2090
  888MPD2    H513025   3.698   1.594  15.306 -0.1085 -0.1855 -0.8487
  888MPD2    N113026   3.558   1.211  15.547 -0.5830 -0.0236 -0.1076
  888MPD2    H713027   3.476   1.241  15.495  1.0614 -0.9370 -3.1781
  889MPD2     C13028   2.277   0.113  13.547  0.4598  0.1156 -0.2447
  889MPD2    C113029   2.408   0.149  13.522 -0.1620 -0.3386 -0.0751
  889MPD2    C213030   2.447   0.278  13.562 -0.7388 -0.0727 -0.4587
  889MPD2    C313031   2.361   0.361  13.637  0.1080  0.0922  0.6553
  889MPD2    C413032   2.235   0.318  13.673 -0.1873 -0.0007  0.1002
  889MPD2    C513033   2.193   0.196  13.618  0.6315 -0.0972 -0.6000
  889MPD2     H13034   2.549   0.313  13.549 -1.4487  2.1446  0.0376
  889MPD2    H113035   2.170   0.381  13.732 -0.8673 -1.3434  0.8014
  889MPD2    H213036   2.242   0.026  13.492  0.4117  1.3015 -2.0529
  889MPD2    H313037   2.091   0.167  13.636  0.3233  0.5816 -1.2582
  889MPD2     N13038   2.418   0.481  13.691  0.5966 -0.6600 -0.0180
  889MPD2    H513039   2.514   0.509  13.677  0.5136 -0.4311 -0.1189
  889MPD2    N113040   2.476   0.073  13.428  0.1523  0.2042  0.1811
  889MPD2    H713041   2.427   4.705  13.402  2.9415 -1.5555  0.7628
  890MPD2     C13042   2.314   2.216  14.543  0.1753  0.7655  0.4306
  890MPD2    C113043   2.331   2.299  14.650  0.4171  0.5787 -0.3996
  890MPD2    C213044   2.339   2.248  14.778 -0.7833  0.3739  0.1877
  890MPD2    C313045   2.318   2.113  14.805  0.1387 -0.0810 -0.5802
  890MPD2    C413046   2.293   2.035  14.698 -0.7826  0.1391 -0.3526
  890MPD2    C513047   2.295   2.079  14.566 -0.3744  0.0644  0.2549
  890MPD2     H13048   2.362   2.317  14.858  3.8416 -0.5052 -0.3533
  890MPD2    H113049   2.269   1.929  14.704  0.2841 -0.0727  0.1825
  890MPD2    H213050   2.302   2.240  14.438 -0.8722  1.3563  0.6881
  890MPD2    H313051   2.286   1.998  14.495  1.7835  0.0281  0.0269
  890MPD2     N13052   2.327   2.061  14.935 -0.2243  0.1467 -0.0521
  890MPD2    H513053   2.355   2.122  15.012  0.8748  0.6481 -0.8569
  890MPD2    N113054   2.336   2.438  14.615 -0.4536  0.0282  0.1007
  890MPD2    H713055   2.333   2.467  14.518  1.5113 -0.7428 -0.2010
  891MPD2     C13056   0.540   0.560  16.828  0.0980  0.7482  0.4053
  891MPD2    C113057   0.451   0.528  16.931 -0.2283  0.0081 -0.2726
  891MPD2    C213058   0.480   0.419  17.005  0.4653 -0.1473 -0.6845
  891MPD2    C313059   0.599   0.349  16.990 -0.2124 -0.4413 -1.1956
  891MPD2    C413060   0.689   0.386  16.891  0.4107  0.4239  0.3153
  891MPD2    C513061   0.655   0.486  16.812 -0.3639  0.3268  0.1512
  891MPD2     H13062   0.407   0.382  17.076 -0.1193 -0.5327 -1.4870
  891MPD2    H113063   0.780   0.329  16.876 -1.4070 -1.5986 -2.8895
  891MPD2    H213064   0.528   0.652  16.772 -1.2134  0.3777  0.0771
  891MPD2    H313065   0.720   0.508  16.728  1.6559  2.8700  2.3819
  891MPD2     N13066   0.618   0.244  17.081 -0.3396  0.5140  0.1353
  891MPD2    H513067   0.543   0.219  17.145  4.4887  0.0283  5.6235
  891MPD2    N113068   0.335   0.611  16.946 -0.1435 -0.4627 -0.4627
  891MPD2    H713069   0.335   0.679  16.870  2.9621  2.5099  2.2103
  892MPD2     C13070   1.300   1.736  14.872 -0.1465 -0.2227 -0.3271
  892MPD2    C113071   1.201   1.723  14.781  0.1805  0.9091 -0.3443
  892MPD2    C213072   1.236   1.667  14.654 -0.3062  0.6484 -0.7826
  892MPD2    C313073   1.367   1.637  14.629 -0.6936 -0.3262 -0.6418
  892MPD2    C413074   1.469   1.661  14.717 -0.0404 -0.3165  0.0342
  892MPD2    C513075   1.431   1.712  14.840 -0.5287  0.2323 -0.3714
  892MPD2     H13076   1.156   1.653  14.582  0.1999  1.5214 -1.5248
  892MPD2    H113077   1.574   1.649  14.695 -0.3919  1.0143 -2.4380
  892MPD2    H213078   1.272   1.761  14.974  0.9194  2.5819 -0.7116
  892MPD2    H313079   1.505   1.712  14.919  1.0359 -1.1306 -1.8388
  892MPD2     N13080   1.403   1.588  14.503  0.2300  0.3067  0.1633
  892MPD2    H513081   1.502   1.579  14.482 -0.1601  3.4141 -3.0484
  892MPD2    N113082   1.066   1.746  14.818 -0.1399 -0.1991 -0.0909
  892MPD2    H713083   0.990   1.728  14.752  0.5034 -1.6776 -0.4279
  893MPD2     C13084   4.221   4.441   2.632  1.2559  0.0572  0.1709
  893MPD2    C113085   4.215   4.425   2.496 -0.3719 -0.5030 -0.7345
  893MPD2    C213086   4.101   4.393   2.433 -0.2429 -0.5063  0.1716
  893MPD2    C313087   3.983   4.378   2.515  0.2912  0.0017 -0.0314
  893MPD2    C413088   3.993   4.401   2.652 -0.3162  0.0958  0.3495
  893MPD2    C513089   4.110   4.438   2.708 -0.2589 -0.8549 -0.6119
  893MPD2     H13090   4.102   4.379   2.325 -0.0802 -1.5279  0.3007
  893MPD2    H113091   3.910   4.394   2.722 -2.1510  0.3763 -1.8125
  893MPD2    H213092   4.315   4.470   2.676  1.3311 -0.7237  0.5355
  893MPD2    H313093   4.115   4.463   2.813 -1.7127  0.1689 -0.7930
  893MPD2     N13094   3.860   4.330   2.461  1.2492 -0.1229 -0.3821
  893MPD2    H513095   3.782   4.304   2.520  3.6141 -0.3739  2.6453
  893MPD2    N113096   4.340   4.430   2.431 -0.1581  0.0188  0.2527
  893MPD2    H713097   4.422   4.460   2.482  0.4629 -2.0082  0.4608
  894MPD2     C13098   1.013   2.344   1.302  0.1345  0.1204 -0.5283
  894MPD2    C113099   1.122   2.372   1.373 -0.3582 -0.0033 -0.4826
  894MPD2    C213100   1.171   2.503   1.377 -0.3037  0.1491 -0.1502
  894MPD2    C313101   1.092   2.601   1.327 -0.8150  0.2051  0.2663
  894MPD2    C413102   0.978   2.576   1.249 -0.6516 -0.1499  0.2205
  894MPD2    C513103   0.938   2.446   1.243 -0.4673 -0.1252  0.1825
  894MPD2     H13104   1.268   2.520   1.421  0.9174 -2.5697 -1.7650
  894MPD2    H113105   0.915   2.650   1.201 -0.2292 -0.0283 -0.1457
  894MPD2    H213106   0.963   2.248   1.295 -0.6645  0.5140 -0.2897
  894MPD2    H313107   0.840   2.432   1.199 -1.2001  1.6409  1.2927
  894MPD2     N13108   1.137   2.735   1.344  0.0081  0.4565 -0.3155
  894MPD2    H513109   1.229   2.752   1.383 -0.1185  1.8569 -0.5945
  894MPD2    N113110   1.204   2.269   1.435 -0.8850  0.4825 -1.2991
  894MPD2    H713111   1.292   2.298   1.478 -1.0363 -2.3095  0.8433
  895MPD2     C13112   4.387   1.097  13.568  0.1653 -0.6825  0.5618
  895MPD2    C113113   4.421   1.120  13.435 -0.5102  0.1763  0.2050
  895MPD2    C213114   4.542   1.176  13.403 -0.3407 -0.2875 -0.2701
  895MPD2    C313115   4.637   1.201  13.501 -0.6677  0.6722 -0.4619
  895MPD2    C413116   4.608   1.176  13.632  0.7375 -0.8875  0.1236
  895MPD2    C513117   4.480   1.129  13.662 -0.3079  0.1859 -0.2565
  895MPD2     H13118   4.570   1.177  13.299  0.0387 -2.5766 -0.1791
  895MPD2    H113119   4.681   1.190  13.711  3.1144 -0.4600 -2.1392
  895MPD2    H213120   4.298   1.045  13.602 -0.7887  0.2295 -0.5530
  895MPD2    H313121   4.477   1.097  13.766 -1.7490 -0.8246 -0.6033
  895MPD2     N13122   0.040   1.259  13.453 -0.4623 -0.5022 -0.4373
  895MPD2    H513123   0.045   1.284  13.355  0.0938 -1.6215 -0.6960
  895MPD2    N113124   4.338   1.073  13.329  0.6474 -0.1051 -0.0517
  895MPD2    H713125   4.374   1.072  13.235 -2.4540  1.4206 -1.2600
  896MPD2     C13126   2.796   3.423   2.311 -0.1985  0.5190  0.0136
  896MPD2    C113127   2.825   3.340   2.207 -0.4859  0.0736 -0.3556
  896MPD2    C213128   2.730   3.281   2.134  0.2224 -0.3156 -0.2418
  896MPD2    C313129   2.600   3.327   2.152 -0.3769  0.0619  0.0440
  896MPD2    C413130   2.566   3.414   2.257 -0.3780 -0.7410  0.0989
  896MPD2    C513131   2.670   3.455   2.338  0.3679 -0.4475 -0.2764
  896MPD2     H13132   2.756   3.218   2.050 -1.9276 -1.5789  0.0389
  896MPD2    H113133   2.466   3.449   2.280  0.4286  2.2999 -0.9518
  896MPD2    H213134   2.880   3.461   2.367  0.9270  0.0473 -1.3498
  896MPD2    H313135   2.644   3.527   2.415  0.2449  1.9105 -2.5316
  896MPD2     N13136   2.497   3.277   2.063 -0.2991 -0.4917  0.1664
  896MPD2    H513137   2.530   3.204   2.001  0.9270  0.8200 -0.7321
  896MPD2    N113138   2.967   3.311   2.194 -0.2471 -0.3231  0.2026
  896MPD2    H713139   3.029   3.363   2.255  0.5142 -1.5724  0.4921
  897MPD2     C13140   4.438   4.435  10.305 -0.3654  0.3556  0.3929
  897MPD2    C113141   4.405   4.571  10.299 -0.8067 -0.1600 -0.3974
  897MPD2    C213142   4.316   4.618  10.391 -0.5194 -0.1386  0.0340
  897MPD2    C313143   4.245   4.531  10.468 -0.1083  0.3601  0.4687
  897MPD2    C413144   4.283   4.396  10.479  0.2921 -0.2687 -0.6928
  897MPD2    C513145   4.378   4.352  10.394 -0.7786 -0.2672 -0.0256
  897MPD2     H13146   4.275   0.001  10.381  0.3189  0.3406  1.3443
  897MPD2    H113147   4.242   4.332  10.556  2.9971  1.9610  2.6015
  897MPD2    H213148   4.509   4.389  10.237 -0.7435  0.4789 -0.0906
  897MPD2    H313149   4.396   4.245  10.394 -0.2996 -0.1935  0.8623
  897MPD2     N13150   4.132   4.583  10.531 -0.0771  0.0755  0.5020
  897MPD2    H513151   4.119   4.683  10.530  1.7536  0.3025  0.4383
  897MPD2    N113152   4.451   4.653  10.196 -0.2428 -0.1045  0.4736
  897MPD2    H713153   4.429   0.035  10.201 -1.4569 -0.3410 -0.1542
  898MPD2     C13154   1.102   0.864   0.279  0.2937  0.2716 -0.6347
  898MPD2    C113155   1.194   0.912   0.183 -0.1256  0.4199 -0.2842
  898MPD2    C213156   1.161   1.037   0.122  0.4195 -0.4973 -0.2679
  898MPD2    C313157   1.044   1.103   0.151 -0.3257 -0.5577  0.6443
  898MPD2    C413158   0.958   1.048   0.241 -0.5754  0.5814 -0.7536
  898MPD2    C513159   0.990   0.935   0.304  0.4746 -0.1588  0.2608
  898MPD2     H13160   1.230   1.082   0.052 -0.4391  1.9914  0.4931
  898MPD2    H113161   0.858   1.088   0.258 -1.6156 -3.1702  1.9730
  898MPD2    H213162   1.114   0.773   0.336  1.5603  1.5348  1.1144
  898MPD2    H313163   0.918   0.890   0.371 -0.1673 -0.5518 -0.6969
  898MPD2     N13164   1.016   1.226   0.087 -0.2514 -0.8002  0.3650
  898MPD2    H513165   1.063   1.243  17.673  1.2961 -1.7965  1.0118
  898MPD2    N113166   1.322   0.860   0.155  0.2729  0.4501  0.1974
  898MPD2    H713167   1.397   0.924   0.130 -1.2978  1.3421 -2.2047
  899MPD2     C13168   1.724   1.621   0.108  0.2642  0.2128 -0.4908
  899MPD2    C113169   1.706   1.752   0.062 -0.1972  0.3635  0.3070
  899MPD2    C213170   1.649   1.836   0.155 -0.1494 -0.7126  0.0328
  899MPD2    C313171   1.603   1.797   0.280  0.5000 -0.5494  0.1358
  899MPD2    C413172   1.623   1.672   0.314 -0.2209 -0.0819 -0.6110
  899MPD2    C513173   1.686   1.585   0.236 -0.2132 -0.3391  0.2040
  899MPD2     H13174   1.627   1.940   0.132  2.2990 -0.6404 -2.0510
  899MPD2    H113175   1.597   1.645   0.416 -0.4734  1.1024 -0.3622
  899MPD2    H213176   1.774   1.545   0.049 -0.4459 -0.4309 -0.2664
  899MPD2    H313177   1.719   1.488   0.270  0.7396  0.3258  1.1492
  899MPD2     N13178   1.528   1.878   0.367 -0.0847  0.1782 -0.2110
  899MPD2    H513179   1.504   1.832   0.454  1.3230  0.7869  0.5097
  899MPD2    N113180   1.753   1.782  17.607  0.0982  0.2065  0.7076
  899MPD2    H713181   1.808   1.713  17.556  0.3699 -1.3664  3.1314
  900MPD2     C13182   2.130   2.824  12.703 -0.1661 -0.5100  0.1090
  900MPD2    C113183   2.042   2.720  12.745  0.2758  0.3240  0.9595
  900MPD2    C213184   1.919   2.704  12.685  0.2899 -0.1628  0.1960
  900MPD2    C313185   1.876   2.793  12.588  0.4559 -0.0017  1.5020
  900MPD2    C413186   1.974   2.885  12.537 -0.4822 -0.5024  0.2254
  900MPD2    C513187   2.095   2.902  12.590 -0.3465 -0.1833  0.4347
  900MPD2     H13188   1.854   2.627  12.725 -0.6026  0.9340  0.8723
  900MPD2    H113189   1.951   2.949  12.452 -1.8281 -0.3014  0.7398
  900MPD2    H213190   2.227   2.853  12.742  0.3955 -2.3129  0.0752
  900MPD2    H313191   2.163   2.979  12.553  0.6790 -1.0651  0.4979
  900MPD2     N13192   1.744   2.788  12.545 -0.1119 -0.3386 -0.4038
  900MPD2    H513193   1.692   2.703  12.568 -1.3027  0.9007  1.4825
  900MPD2    N113194   2.094   2.647  12.853 -0.2633 -0.1562 -0.3817
  900MPD2    H713195   2.181   2.675  12.897 -0.3239  0.1788 -0.4727
  901MPD2     C13196   1.719   1.746  13.328  0.5651 -0.6605  0.0876
  901MPD2    C113197   1.850   1.720  13.308  0.2697  0.1098 -0.1100
  901MPD2    C213198   1.935   1.824  13.290 -0.6918 -0.5920 -0.2852
  901MPD2    C313199   1.892   1.956  13.278  1.0201  0.5894  0.0515
  901MPD2    C413200   1.761   1.976  13.296 -0.6485  0.4585 -0.4967
  901MPD2    C513201   1.674   1.877  13.323  0.0713  0.6296 -0.7082
  901MPD2     H13202   2.040   1.800  13.278 -0.6462  0.0687 -1.2746
  901MPD2    H113203   1.707   2.068  13.277 -1.5174 -0.0249 -0.3805
  901MPD2    H213204   1.645   1.666  13.330 -3.1428  2.7676  1.0791
  901MPD2    H313205   1.567   1.894  13.314 -0.5496 -1.8159  1.8383
  901MPD2     N13206   1.975   2.060  13.224  0.3259  0.0436  0.1497
  901MPD2    H513207   2.070   2.029  13.204  0.1923 -1.0180  1.1583
  901MPD2    N113208   1.890   1.587  13.292 -0.4886 -0.0751  0.5412
  901MPD2    H713209   1.812   1.524  13.283 -2.1397  2.1785 -0.8559
  902MPD2     C13210   4.441   1.155  12.584 -0.3042 -0.8575 -0.1197
  902MPD2    C113211   4.554   1.232  12.598  0.1444  0.2708  0.0959
  902MPD2    C213212   4.677   1.184  12.560  0.2140  0.3730 -0.7289
  902MPD2    C313213   4.691   1.053  12.507 -0.1446 -0.8550  0.0262
  902MPD2    C413214   4.577   0.972  12.508 -0.9341 -0.0925 -0.4921
  902MPD2    C513215   4.460   1.028  12.541 -0.4028 -0.0200  0.2774
  902MPD2     H13216   0.036   1.259  12.551 -0.3719  1.0715 -0.0176
  902MPD2    H113217   4.572   0.878  12.455  0.1066 -0.8636  0.7753
  902MPD2    H213218   4.338   1.185  12.598  0.7285  2.3974  0.3568
  902MPD2    H313219   4.371   0.969  12.521 -0.8356  0.1672  1.6311
  902MPD2     N13220   0.083   1.012  12.431 -0.7011  0.1566 -0.4420
  902MPD2    H513221   0.071   0.928  12.375  0.5299  0.1208 -0.6483
  902MPD2    N113222   4.533   1.372  12.606 -0.0482 -0.2998 -0.1823
  902MPD2    H713223   4.436   1.401  12.615  0.6257  1.0107  3.1486
  903MPD2     C13224   0.305   0.792  11.626  0.2368 -0.3191  0.1540
  903MPD2    C113225   0.271   0.896  11.710  0.3064  0.5990 -0.2836
  903MPD2    C213226   0.177   0.991  11.669  0.1687 -0.2275  0.0442
  903MPD2    C313227   0.114   0.977  11.547  0.8963  0.1519 -0.8764
  903MPD2    C413228   0.159   0.878  11.462 -0.2181 -0.1510  0.1828
  903MPD2    C513229   0.250   0.786  11.498  0.0415  0.4359 -0.0507
  903MPD2     H13230   0.146   1.071  11.736  1.1008 -0.2498  0.5097
  903MPD2    H113231   0.130   0.873  11.358 -0.5274 -2.3320  0.3842
  903MPD2    H213232   0.379   0.718  11.654 -2.6484 -3.8168 -1.5951
  903MPD2    H313233   0.291   0.716  11.426  1.4604  1.4781 -0.2599
  903MPD2     N13234   0.003   1.063  11.511 -0.0740  0.2113  0.0204
  903MPD2    H513235   4.699   1.136  11.579 -0.0412  0.1750  0.0703
  903MPD2    N113236   0.318   0.886  11.844  0.5436 -0.3123  0.0531
  903MPD2    H713237   0.400   0.828  11.860  0.2072 -0.8171 -0.0395
  904MPD2     C13238   0.057   0.174  13.666  0.0264 -0.2986 -0.1322
  904MPD2    C113239   0.108   0.301  13.634 -0.5107 -0.0847 -0.1315
  904MPD2    C213240   0.229   0.335  13.685 -0.3120 -0.2849 -0.0622
  904MPD2    C313241   0.303   0.249  13.765 -0.4097  0.2203  0.0848
  904MPD2    C413242   0.255   0.120  13.793  0.2711  0.7493 -0.8339
  904MPD2    C513243   0.131   0.094  13.748 -0.2842  0.0682  0.0030
  904MPD2     H13244   0.270   0.431  13.654 -1.4183 -0.5958 -2.5036
  904MPD2    H113245   0.299   0.053  13.866  1.7420 -0.3650 -2.7496
  904MPD2    H213246   4.677   0.142  13.631  0.3287  0.3584 -1.5617
  904MPD2    H313247   0.086   0.006  13.793  1.1059 -0.6361  0.0064
  904MPD2     N13248   0.423   0.306  13.816 -0.1876 -0.3809 -0.4685
  904MPD2    H513249   0.442   0.405  13.812 -1.3681 -0.1209  0.5750
  904MPD2    N113250   0.037   0.406  13.575  0.0299  0.3726 -0.6233
  904MPD2    H713251   0.083   0.495  13.558 -0.0125  0.4770 -0.1867
  905MPD2     C13252   0.082   0.753  13.013 -0.3627 -0.7183 -0.1250
  905MPD2    C113253   0.092   0.823  13.129 -0.8366 -1.1027  0.5942
  905MPD2    C213254   0.136   0.951  13.116 -0.5859 -0.5537  0.6867
  905MPD2    C313255   0.200   0.999  13.002 -0.4982 -0.4460 -0.1448
  905MPD2    C413256   0.193   0.925  12.880  0.1785  0.6341 -0.0906
  905MPD2    C513257   0.127   0.805  12.892  0.1221 -0.0237 -0.0452
  905MPD2     H13258   0.134   1.006  13.210  0.3967 -1.4309  1.2268
  905MPD2    H113259   0.223   0.958  12.781  3.8272 -0.6564  0.5926
  905MPD2    H213260   0.054   0.649  13.007  0.4391 -1.0096  1.3712
  905MPD2    H313261   0.118   0.740  12.806  0.9682  0.5613 -0.5749
  905MPD2     N13262   0.265   1.128  12.990 -0.4922 -0.7221 -0.1279
  905MPD2    H513263   0.269   1.158  12.894  1.7809  0.1159  0.2132
  905MPD2    N113264   0.037   0.768  13.244  0.0594  0.3408 -0.8442
  905MPD2    H713265   4.709   0.679  13.229 -0.3212  0.2693  0.7698
  906MPD2     C13266   2.710   0.188  10.955 -0.0620 -0.1540  0.7388
  906MPD2    C113267   2.630   0.093  10.894  0.0169 -0.0924 -0.0343
  906MPD2    C213268   2.530   0.035  10.968 -0.0225  0.0725 -0.4280
  906MPD2    C313269   2.500   0.080  11.095  0.8253 -0.1601 -0.5249
  906MPD2    C413270   2.583   0.178  11.155  0.0468  0.4264  0.4983
  906MPD2    C513271   2.689   0.222  11.086  0.3162  0.5363  0.4304
  906MPD2     H13272   2.472   4.665  10.940  0.7940 -0.3210 -0.8724
  906MPD2    H113273   2.561   0.206  11.257  0.9021 -0.5951  0.9618
  906MPD2    H213274   2.800   0.224  10.906 -1.0333  0.0358 -0.9119
  906MPD2    H313275   2.762   0.289  11.129  2.1499 -0.3290 -1.3567
  906MPD2     N13276   2.399   0.013  11.174  0.4980 -0.3943 -0.4333
  906MPD2    H513277   2.388   0.046  11.269  0.1584 -0.1739 -0.5523
  906MPD2    N113278   2.647   0.037  10.763  0.4276 -0.0563  1.1579
  906MPD2    H713279   2.583   4.680  10.738 -0.3797  0.9845  0.0960
  907MPD2     C13280   1.447   4.037  14.716  0.1300 -0.3559 -0.4468
  907MPD2    C113281   1.436   3.969  14.836  0.0058  0.3705 -0.0019
  907MPD2    C213282   1.541   3.969  14.929  0.5809  0.2762  0.3142
  907MPD2    C313283   1.655   4.040  14.905 -0.2853 -0.6257 -0.0551
  907MPD2    C413284   1.667   4.117  14.789  0.3666  0.0252 -0.6056
  907MPD2    C513285   1.564   4.104  14.694  0.0791 -0.3825  0.4367
  907MPD2     H13286   1.529   3.913  15.021 -2.6573 -1.3108 -1.0727
  907MPD2    H113287   1.751   4.176  14.755  0.4578  0.1008 -0.2508
  907MPD2    H213288   1.366   4.046  14.645 -2.0979  0.7269  2.2246
  907MPD2    H313289   1.568   4.160  14.601 -0.2497 -0.2557  0.4974
  907MPD2     N13290   1.754   4.048  15.011  0.3542 -0.2769 -0.0628
  907MPD2    H513291   1.739   3.983  15.088 -0.4867 -2.7006 -2.2451
  907MPD2    N113292   1.317   3.897  14.878 -0.8699 -0.1075 -0.0269
  907MPD2    H713293   1.321   3.864  14.974  1.1548 -0.1890 -0.1346
  908MPD2     C13294   4.210   0.069   9.220 -0.3669  0.0477  0.7981
  908MPD2    C113295   4.201   4.691   9.310  0.1491 -0.2407  0.0412
  908MPD2    C213296   4.291   4.695   9.414 -0.3774  0.3090 -0.0010
  908MPD2    C313297   4.385   0.084   9.422  0.1551  0.3414 -0.1689
  908MPD2    C413298   4.378   0.190   9.340  0.0693  0.4772  0.3360
  908MPD2    C513299   4.292   0.180   9.237  0.3975  0.5723 -0.3326
  908MPD2     H13300   4.288   4.628   9.500 -0.3057 -0.7257 -0.8004
  908MPD2    H113301   4.451   0.270   9.345  3.1868 -2.3314  0.1656
  908MPD2    H213302   4.137   0.086   9.141 -0.8122 -0.4625  1.0964
  908MPD2    H313303   4.290   0.253   9.158  2.3027  0.6065 -0.3461
  908MPD2     N13304   4.462   0.107   9.540 -0.4695 -0.7143  0.5451
  908MPD2    H513305   4.511   0.195   9.550 -1.7989  0.0260  0.4298
  908MPD2    N113306   4.116   4.588   9.289 -0.1982  0.5856  0.4635
  908MPD2    H713307   4.075   4.583   9.197 -2.5933 -0.5998  1.5945
  909MPD2     C13308   4.113   2.518  12.158  0.1742  0.3096 -0.4400
  909MPD2    C113309   4.100   2.639  12.094 -0.5515  0.5454  0.5884
  909MPD2    C213310   4.016   2.731  12.155 -0.6326  0.0753  0.7060
  909MPD2    C313311   3.941   2.701  12.271 -0.2693 -0.0189 -0.4399
  909MPD2    C413312   3.962   2.579  12.331  0.7346  0.4786 -0.1714
  909MPD2    C513313   4.051   2.494  12.275  0.1473 -0.2859  0.3413
  909MPD2     H13314   4.001   2.818  12.092  0.3146  0.3353  0.8423
  909MPD2    H113315   3.909   2.541  12.417 -0.5566  2.0297 -0.2866
  909MPD2    H213316   4.171   2.433  12.122 -1.2218 -0.1408 -1.6086
  909MPD2    H313317   4.069   2.404  12.334 -1.1597 -0.0972  1.0109
  909MPD2     N13318   3.847   2.799  12.322  0.0976 -0.4983  0.0126
  909MPD2    H513319   3.826   2.876  12.259  0.2269 -0.1844  0.3525
  909MPD2    N113320   4.170   2.677  11.978 -0.4579 -0.4283 -0.3578
  909MPD2    H713321   4.141   2.765  11.936  2.3028  1.5770  1.9279
  910MPD2     C13322   0.201   0.067  15.643  0.4957 -0.6932 -0.0453
  910MPD2    C113323   0.320   0.027  15.597 -0.7882  0.3117  0.9266
  910MPD2    C213324   0.342   0.041  15.458 -0.4513  0.3027 -0.5610
  910MPD2    C313325   0.247   0.085  15.369  0.0882 -0.4140  0.0117
  910MPD2    C413326   0.122   0.122  15.418 -0.0145  0.3866  0.4424
  910MPD2    C513327   0.106   0.112  15.554  0.2968  0.3305  0.2047
  910MPD2     H13328   0.441   0.011  15.427 -0.4152 -0.2031  0.0653
  910MPD2    H113329   0.034   0.143  15.358 -0.2104  3.1084  1.6944
  910MPD2    H213330   0.174   0.059  15.748 -1.2976 -0.0865 -0.4663
  910MPD2    H313331   0.009   0.131  15.600 -0.2501 -1.7175 -0.1103
  910MPD2     N13332   0.271   0.112  15.235  0.0089  0.3667  0.3398
  910MPD2    H513333   0.187   0.142  15.187 -0.5118 -3.1973 -0.9515
  910MPD2    N113334   0.418   4.682  15.678 -0.4378 -1.0297 -0.1356
  910MPD2    H713335   0.496   4.650  15.621 -0.0830  0.5308 -0.5530
  911MPD2     C13336   3.333   0.077  16.933 -0.1800 -0.3571  0.7141
  911MPD2    C113337   3.395   0.199  16.912 -0.1610 -0.3968  0.2954
  911MPD2    C213338   3.311   0.309  16.892  0.0797 -0.2661 -0.4816
  911MPD2    C313339   3.174   0.294  16.883  0.0631  0.2580  0.4414
  911MPD2    C413340   3.117   0.169  16.893 -0.5548  0.4862  0.2352
  911MPD2    C513341   3.196   0.064  16.926 -0.2482  0.4388  0.9336
  911MPD2     H13342   3.355   0.408  16.878  0.4039 -0.5203 -1.2190
  911MPD2    H113343   3.009   0.168  16.892 -0.5565  2.6176 -1.2314
  911MPD2    H213344   3.385   4.705  16.963  0.4117 -1.0033 -2.3028
  911MPD2    H313345   3.171   4.677  16.938 -0.6002  0.6061  1.7006
  911MPD2     N13346   3.086   0.402  16.853 -0.2081 -0.3481 -0.7271
  911MPD2    H513347   2.987   0.380  16.857  0.3499 -2.4784  1.3173
  911MPD2    N113348   3.536   0.201  16.934  0.1364  0.3714  0.2381
  911MPD2    H713349   3.577   0.113  16.966  0.0603 -0.1424 -1.1024
  912MPD2     C13350   3.058   4.687  16.436  0.6743  0.3339 -0.0075
  912MPD2    C113351   2.965   0.053  16.479  0.2945 -0.0025 -0.0343
  912MPD2    C213352   2.859   0.002  16.550  0.2479 -0.7755 -0.2251
  912MPD2    C313353   2.848   4.591  16.582 -0.0532  0.0102  0.3651
  912MPD2    C413354   2.949   4.502  16.546 -0.5008  1.3095 -0.0530
  912MPD2    C513355   3.049   4.554  16.466  0.7286 -0.3250 -0.0227
  912MPD2     H13356   2.767   0.054  16.575  1.5598  2.6150 -2.3366
  912MPD2    H113357   2.935   4.395  16.553  1.6926  1.0970  1.1012
  912MPD2    H213358   3.141   0.009  16.379  0.4734 -0.3722 -0.7945
  912MPD2    H313359   3.124   4.497  16.411  0.2421 -0.9119 -0.0749
  912MPD2     N13360   2.734   4.547  16.652 -0.3989  0.2550  0.1848
  912MPD2    H513361   2.659   4.614  16.663  0.0933  1.0463 -1.3284
  912MPD2    N113362   2.983   0.189  16.465 -0.4207  0.0830 -0.1437
  912MPD2    H713363   3.070   0.226  16.429  0.6178 -0.4702  1.7561
  913MPD2     C13364   4.218   1.636  10.418 -0.0925 -0.2039 -0.9701
  913MPD2    C113365   4.219   1.622  10.277 -0.1568 -0.2458 -0.2293
  913MPD2    C213366   4.194   1.737  10.198 -0.3827  0.1003 -0.5142
  913MPD2    C313367   4.157   1.858  10.261 -0.1949  1.0081 -0.0667
  913MPD2    C413368   4.151   1.864  10.394  0.1675 -0.2056 -0.3165
  913MPD2    C513369   4.184   1.756  10.472 -1.2429 -0.2380 -0.0631
  913MPD2     H13370   4.207   1.728  10.091 -2.1473  0.5725 -0.7663
  913MPD2    H113371   4.125   1.953  10.450 -1.3282 -1.4066  0.8680
  913MPD2    H213372   4.241   1.550  10.479 -0.1058  1.7396  1.7458
  913MPD2    H313373   4.182   1.760  10.580  0.0285 -1.9854  0.0266
  913MPD2     N13374   4.107   1.970  10.194 -0.2841 -0.4717 -0.1612
  913MPD2    H513375   4.114   2.052  10.253 -0.9431  1.8624 -3.3546
  913MPD2    N113376   4.254   1.490  10.228  0.7407  0.0603  0.3925
  913MPD2    H713377   4.281   1.419  10.294  1.8012 -1.8091 -2.0674
  914MPD2     C13378   1.765   1.384  12.502  0.3261 -0.2482  0.5241
  914MPD2    C113379   1.857   1.477  12.551 -0.1868  0.3254 -0.4743
  914MPD2    C213380   1.918   1.459  12.672 -0.0132 -0.3533 -0.5435
  914MPD2    C313381   1.890   1.346  12.752 -0.0774  0.4186 -0.4457
  914MPD2    C413382   1.795   1.254  12.708 -0.8730  0.3551 -0.3577
  914MPD2    C513383   1.731   1.276  12.587  0.7087  0.4630 -0.0496
  914MPD2     H13384   1.986   1.535  12.708  0.0280  0.1665 -1.7001
  914MPD2    H113385   1.760   1.172  12.770 -1.6540  0.8290 -0.1700
  914MPD2    H213386   1.719   1.411  12.408 -0.3283 -0.8063  0.6854
  914MPD2    H313387   1.644   1.219  12.558  0.1769  0.6035  1.2569
  914MPD2     N13388   1.946   1.338  12.877 -0.1071 -0.1328 -0.1022
  914MPD2    H513389   1.992   1.423  12.906 -0.2357  0.7083 -2.4127
  914MPD2    N113390   1.865   1.591  12.470 -0.0796  0.4902  0.9759
  914MPD2    H713391   1.805   1.597  12.388 -1.7184 -2.2741  1.9840
  915MPD2     C13392   4.187   2.053  16.256 -0.3575 -0.0255  0.5995
  915MPD2    C113393   4.142   2.139  16.160  0.5404  0.5997 -0.0187
  915MPD2    C213394   4.103   2.268  16.207  0.0747  0.5107 -0.3763
  915MPD2    C313395   4.109   2.301  16.345 -0.0522  0.4203  0.2085
  915MPD2    C413396   4.150   2.208  16.435 -0.2131 -0.6477 -0.3332
  915MPD2    C513397   4.185   2.078  16.389  0.5662  0.1645 -0.1618
  915MPD2     H13398   4.073   2.348  16.141  1.4999  1.9063  0.6551
  915MPD2    H113399   4.159   2.229  16.541  0.1404  1.6617 -0.8343
  915MPD2    H213400   4.225   1.954  16.231 -0.1625 -0.0648  1.0349
  915MPD2    H313401   4.206   1.991  16.449  0.7291  0.4430  0.1861
  915MPD2     N13402   4.066   2.438  16.385 -0.3794 -0.0536  0.2781
  915MPD2    H513403   4.037   2.505  16.314  4.5443  0.8523 -0.8680
  915MPD2    N113404   4.140   2.093  16.025 -0.1123  0.2298 -0.7186
  915MPD2    H713405   4.174   2.000  16.004  1.5311  0.1110  2.4392
  916MPD2     C13406   2.686   0.675  15.966  0.1234 -0.4967 -0.2620
  916MPD2    C113407   2.641   0.563  16.034 -0.1909 -0.5408  0.1160
  916MPD2    C213408   2.657   0.445  15.973  0.9482 -0.2061 -0.6134
  916MPD2    C313409   2.698   0.440  15.842  0.0007  0.5091  0.8056
  916MPD2    C413410   2.748   0.551  15.783  0.3154  0.1929  0.1435
  916MPD2    C513411   2.734   0.670  15.842 -0.3855 -0.0855  0.1201
  916MPD2     H13412   2.621   0.351  16.015  0.2581  0.2140 -0.2584
  916MPD2    H113413   2.797   0.549  15.686 -0.1255 -0.1130 -0.0745
  916MPD2    H213414   2.682   0.770  16.017 -2.1050 -0.1144 -1.1459
  916MPD2    H313415   2.763   0.765  15.800  2.1106 -0.4516  0.9876
  916MPD2     N13416   2.694   0.315  15.778 -0.4984 -0.4475  0.1855
  916MPD2    H513417   2.681   0.236  15.842  1.9995  0.6193  2.0380
  916MPD2    N113418   2.589   0.578  16.168 -0.9898 -0.7976 -0.4437
  916MPD2    H713419   2.564   0.670  16.202  1.0938 -0.5727  0.5373
  917MPD2     C13420   3.132   2.229  11.284 -0.2647  0.1655  0.2386
  917MPD2    C113421   3.084   2.278  11.407  0.0952  0.2813  0.8171
  917MPD2    C213422   3.117   2.409  11.441  0.2842 -0.2504  0.0651
  917MPD2    C313423   3.206   2.483  11.364  0.5122  0.1118  0.1540
  917MPD2    C413424   3.253   2.422  11.247  0.5090 -0.4040 -0.0087
  917MPD2    C513425   3.219   2.299  11.213 -0.1638  0.2383 -0.5385
  917MPD2     H13426   3.076   2.450  11.533 -1.3926  1.1050 -1.2945
  917MPD2    H113427   3.313   2.483  11.180  1.2945  0.9282  1.8952
  917MPD2    H213428   3.095   2.138  11.239  0.0088 -0.7407  1.8335
  917MPD2    H313429   3.258   2.257  11.121  1.2428  1.0005 -0.2951
  917MPD2     N13430   3.242   2.612  11.402 -0.0260 -0.0645 -0.0702
  917MPD2    H513431   3.291   2.663  11.329  0.2490  1.0895  0.9293
  917MPD2    N113432   3.003   2.198  11.492 -0.5413 -0.3443  0.4541
  917MPD2    H713433   2.979   2.106  11.457  2.4979 -0.6025 -0.9900
  918MPD2     C13434   2.967   2.053  12.504  0.0120 -0.4110 -0.0635
  918MPD2    C113435   3.066   2.088  12.418  0.0320  0.3151  0.0325
  918MPD2    C213436   3.047   2.077  12.282 -0.0269 -0.5872  0.0387
  918MPD2    C313437   2.922   2.050  12.225  0.3636  0.2104  0.0862
  918MPD2    C413438   2.818   2.028  12.311 -0.0415  0.2610  0.2043
  918MPD2    C513439   2.842   2.033  12.448  0.1497 -1.0705 -0.0752
  918MPD2     H13440   3.129   2.101  12.216 -0.3182  1.1707  0.3282
  918MPD2    H113441   2.715   2.005  12.286  0.8128 -3.0151 -0.2872
  918MPD2    H213442   2.966   2.042  12.612  1.5773 -2.1334 -0.2162
  918MPD2    H313443   2.763   2.016  12.520 -1.0622 -0.5791 -1.2884
  918MPD2     N13444   2.909   2.041  12.082 -0.0858 -0.2029 -0.4128
  918MPD2    H513445   2.986   2.088  12.036  0.6620  0.7317  1.7868
  918MPD2    N113446   3.194   2.133  12.461  0.2503 -0.3931 -0.5035
  918MPD2    H713447   3.269   2.137  12.392  0.9674  0.9596  0.3578
  919MPD2     C13448   3.733   1.193  11.419  0.0163 -0.0675 -0.0355
  919MPD2    C113449   3.707   1.125  11.306 -0.0803  0.2696 -0.1547
  919MPD2    C213450   3.766   1.156  11.188 -0.3776  1.2611 -0.5611
  919MPD2    C313451   3.845   1.266  11.180 -0.0331 -0.3244 -0.1661
  919MPD2    C413452   3.872   1.336  11.300  0.4783 -0.1291 -0.2342
  919MPD2    C513453   3.824   1.296  11.424 -0.6977 -0.1034  0.2843
  919MPD2     H13454   3.757   1.086  11.106  1.4562 -0.3313  0.6000
  919MPD2    H113455   3.939   1.420  11.285 -0.4824  0.9017  1.2342
  919MPD2    H213456   3.685   1.168  11.513  1.5195  1.0624  1.0472
  919MPD2    H313457   3.830   1.352  11.517  0.5736  2.1935 -1.1757
  919MPD2     N13458   3.906   1.307  11.054 -0.4412  0.5694  0.4401
  919MPD2    H513459   3.967   1.388  11.061  0.7061 -0.0423 -2.7092
  919MPD2    N113460   3.638   0.999  11.300  0.3114  0.5894  0.4204
  919MPD2    H713461   3.646   0.940  11.218 -0.4656  0.5195  0.3977
  920MPD2     C13462   3.764   2.099  10.518 -0.1248 -0.1073 -1.1022
  920MPD2    C113463   3.707   2.002  10.446 -0.0919  0.0102  0.0423
  920MPD2    C213464   3.748   1.870  10.483 -0.2558  0.3142 -0.4511
  920MPD2    C313465   3.855   1.850  10.566 -0.4424 -0.4417 -0.3986
  920MPD2    C413466   3.913   1.960  10.627 -0.2641 -0.2281  0.1869
  920MPD2    C513467   3.864   2.081  10.612 -0.3964 -0.5151 -0.1677
  920MPD2     H13468   3.698   1.787  10.433 -0.1823 -1.2613  2.1195
  920MPD2    H113469   3.976   1.936  10.712 -1.6228 -1.4006  0.8592
  920MPD2    H213470   3.723   2.199  10.520 -1.3404 -0.6392  0.0507
  920MPD2    H313471   3.900   2.163  10.673 -1.3872  1.5890 -2.4488
  920MPD2     N13472   3.872   1.705  10.604  0.3394  0.1128  0.4883
  920MPD2    H513473   3.811   1.639  10.557  1.2368  0.5285 -1.2384
  920MPD2    N113474   3.599   2.013  10.357 -0.3810 -0.1644  0.7086
  920MPD2    H713475   3.568   1.924  10.318  0.6154 -0.6871  1.1239
  921MPD2     C13476   4.214   0.899  17.227  0.2861 -0.1660  0.4944
  921MPD2    C113477   4.289   0.796  17.184 -0.3513 -0.0765  0.4022
  921MPD2    C213478   4.229   0.682  17.128 -0.2282 -0.9319  0.7576
  921MPD2    C313479   4.094   0.670  17.114 -0.2000 -0.2190  0.0354
  921MPD2    C413480   4.022   0.774  17.153  1.0746 -0.0189  0.2904
  921MPD2    C513481   4.079   0.888  17.201  0.2938 -0.6712  0.3622
  921MPD2     H13482   4.294   0.601  17.096 -0.8814 -1.3679  0.5420
  921MPD2    H113483   3.914   0.769  17.142  1.0188  1.8249 -0.0398
  921MPD2    H213484   4.253   0.996  17.253  0.1687  0.0667 -0.1918
  921MPD2    H313485   4.009   0.966  17.227  1.1079 -0.3410  1.5968
  921MPD2     N13486   4.024   0.567  17.050  0.4168 -0.5923  0.0672
  921MPD2    H513487   3.924   0.584  17.039  0.8310  1.8632  0.0877
  921MPD2    N113488   4.427   0.811  17.198  0.1729 -0.1439  0.1238
  921MPD2    H713489   4.464   0.904  17.212 -2.3780  0.7735  0.7108
  922MPD2     C13490   0.284   2.847  17.250  0.5049  0.2717  0.5923
  922MPD2    C113491   0.213   2.925  17.336 -0.5120 -0.5128  0.3209
  922MPD2    C213492   0.071   2.901  17.333  0.2794 -0.5930  0.3206
  922MPD2    C313493   0.007   2.813  17.251 -0.5917  0.5941 -0.1446
  922MPD2    C413494   0.088   2.754  17.153 -0.7654 -0.0379  0.1130
  922MPD2    C513495   0.223   2.775  17.152 -0.2343 -0.8221 -0.5209
  922MPD2     H13496   0.028   2.966  17.409 -0.2324  0.7220 -1.1054
  922MPD2    H113497   0.049   2.695  17.071  0.8331 -0.0551 -0.6370
  922MPD2    H213498   0.390   2.851  17.229  0.6544  1.8139  1.6228
  922MPD2    H313499   0.273   2.733  17.065 -1.1288  1.2965 -2.0548
  922MPD2     N13500   4.582   2.805  17.242 -0.1965 -0.3058 -0.0118
  922MPD2    H513501   4.540   2.737  17.179 -2.1096  1.6085 -0.7857
  922MPD2    N113502   0.271   3.013  17.435 -0.5163  0.5772 -0.5369
  922MPD2    H713503   0.200   3.064  17.486 -0.0527 -0.0760  0.7695
  923MPD2     C13504   2.711   4.682   9.880  0.0439 -0.5511 -0.3560
  923MPD2    C113505   2.650   0.065   9.810 -0.8096  0.8542  0.1705
  923MPD2    C213506   2.682   0.201   9.803 -0.3788 -0.1461 -0.1930
  923MPD2    C313507   2.803   0.232   9.864  0.2783  0.5138  0.4011
  923MPD2    C413508   2.867   0.134   9.933 -0.4704 -0.2059  0.7544
  923MPD2    C513509   2.822   0.004   9.943  0.4231 -0.4824  0.1428
  923MPD2     H13510   2.622   0.262   9.737 -0.5764  1.2546  1.2814
  923MPD2    H113511   2.947   0.163  10.000  1.2112  1.3511 -1.9208
  923MPD2    H213512   2.686   4.577   9.869  2.3590 -1.0102 -1.3448
  923MPD2    H313513   2.893   4.653   9.988 -0.1952 -0.9284  0.4327
  923MPD2     N13514   2.860   0.360   9.871 -0.0583 -0.5586 -0.3088
  923MPD2    H513515   2.939   0.363   9.935  1.0295 -1.0486 -1.6463
  923MPD2    N113516   2.536   0.013   9.737 -0.3711 -0.2516  0.0733
  923MPD2    H713517   2.521   4.630   9.744  0.1964 -0.5412 -2.9463
  924MPD2     C13518   1.799   3.512  15.645 -0.3214 -0.1632  0.2939
  924MPD2    C113519   1.814   3.639  15.690 -0.1775  0.3934 -0.1004
  924MPD2    C213520   1.864   3.739  15.606 -0.0222  0.3834  0.4648
  924MPD2    C313521   1.913   3.710  15.481  0.4975 -0.5334  0.2841
  924MPD2    C413522   1.892   3.583  15.438 -0.7292  0.4792  0.1614
  924MPD2    C513523   1.843   3.486  15.521 -0.3675 -0.8142  0.4133
  924MPD2     H13524   1.858   3.842  15.639 -0.7401  0.2945  0.6142
  924MPD2    H113525   1.893   3.566  15.331  0.6909  0.5098  0.1727
  924MPD2    H213526   1.740   3.436  15.696 -1.1136  0.1061 -0.2204
  924MPD2    H313527   1.833   3.387  15.478 -1.2629 -1.1385  1.3460
  924MPD2     N13528   1.974   3.812  15.398 -0.2871 -0.1984 -0.2565
  924MPD2    H513529   1.977   3.790  15.300 -0.8203  2.0982 -0.7928
  924MPD2    N113530   1.754   3.695  15.809  0.0880  0.1005  0.0483
  924MPD2    H713531   1.774   3.795  15.807  0.8760 -0.0244  1.7952
  925MPD2     C13532   0.309   1.045  14.828  0.4148 -0.0552 -0.6001
  925MPD2    C113533   0.180   1.093  14.810  0.4139 -0.7125  0.1406
  925MPD2    C213534   0.089   1.085  14.918 -0.6875  0.2933  0.2833
  925MPD2    C313535   0.134   1.035  15.040 -0.0822 -0.2464  0.1416
  925MPD2    C413536   0.258   0.980  15.048 -0.0343  0.1794 -0.3815
  925MPD2    C513537   0.345   0.987  14.947  0.0027 -0.3273  0.4662
  925MPD2     H13538   4.713   1.138  14.911 -1.1622 -0.9487 -2.5635
  925MPD2    H113539   0.300   0.970  15.148 -1.4188 -0.1711  0.1650
  925MPD2    H213540   0.387   1.054  14.753 -1.8044  1.2688 -2.7485
  925MPD2    H313541   0.451   0.970  14.965  0.1847 -0.9480 -1.1875
  925MPD2     N13542   0.052   1.029  15.155 -0.0035 -0.1195 -0.7202
  925MPD2    H513543   0.105   0.997  15.235  0.7137  2.1689 -0.2903
  925MPD2    N113544   0.145   1.148  14.687  0.0937 -0.1293 -0.0060
  925MPD2    H713545   0.046   1.147  14.665 -0.0685  0.2446  0.6791
  926MPD2     C13546   3.995   4.484  13.277  0.0113  0.2457  0.3184
  926MPD2    C113547   3.893   4.560  13.235 -0.1892  0.0239 -1.0085
  926MPD2    C213548   3.915   4.623  13.109 -0.6830 -1.3802 -0.2403
  926MPD2    C313549   4.029   4.605  13.023 -0.0404 -0.2819 -0.1686
  926MPD2    C413550   4.123   4.520  13.072 -0.2310  0.3432  0.2532
  926MPD2    C513551   4.092   4.449  13.183  0.0055  0.3189  0.7458
  926MPD2     H13552   3.830   4.681  13.073  0.2651 -0.2235 -0.6197
  926MPD2    H113553   4.219   4.498  13.027  0.2357  1.1211  0.8815
  926MPD2    H213554   4.006   4.431  13.371 -0.0364 -0.4062 -0.0419
  926MPD2    H313555   4.169   4.377  13.208  0.5376  1.2075  1.6846
  926MPD2     N13556   4.043   4.664  12.899  0.0467 -0.1847 -0.2078
  926MPD2    H513557   4.134   4.665  12.856 -0.3949  1.6305 -1.1115
  926MPD2    N113558   3.783   4.584  13.318 -0.1300 -0.2739  0.4764
  926MPD2    H713559   3.722   4.653  13.276  1.2715  1.9432  2.0387
  927MPD2     C13560   3.193   1.971   0.182 -0.0472 -0.4674  0.1256
  927MPD2    C113561   3.286   1.901   0.254  0.3280 -0.1370  0.2687
  927MPD2    C213562   3.414   1.884   0.203  0.3998 -0.1808 -0.1377
  927MPD2    C313563   3.450   1.947   0.087 -0.5148  0.1439 -0.0318
  927MPD2    C413564   3.356   2.032   0.023 -0.1117 -0.4931  0.1649
  927MPD2    C513565   3.231   2.043   0.076  0.1397 -0.2279 -0.4434
  927MPD2     H13566   3.478   1.811   0.251  1.9388  1.0084 -0.4073
  927MPD2    H113567   3.383   2.097  17.615  0.8667 -1.4730 -0.2943
  927MPD2    H213568   3.096   1.973   0.230 -0.2355  0.0955 -0.2869
  927MPD2    H313569   3.156   2.100   0.022  0.3430 -0.2377 -0.7378
  927MPD2     N13570   3.586   1.934   0.036  0.5717  0.2440 -0.6680
  927MPD2    H513571   3.640   1.872   0.094  0.5335  0.2874 -0.5859
  927MPD2    N113572   3.241   1.847   0.375 -0.0323  0.4214 -1.0245
  927MPD2    H713573   3.146   1.872   0.401  0.2455 -0.7898  1.1414
  928MPD2     C13574   1.810   0.154   1.332  0.3694  0.4943  0.3922
  928MPD2    C113575   1.902   0.257   1.349 -0.2236  0.0840  0.2554
  928MPD2    C213576   1.974   0.301   1.244 -0.1163 -0.0897 -0.5982
  928MPD2    C313577   1.955   0.245   1.120 -0.2193 -0.0285  0.1252
  928MPD2    C413578   1.865   0.145   1.101  0.2401 -0.2869  0.2516
  928MPD2    C513579   1.795   0.104   1.205 -0.4326  0.1213  0.5348
  928MPD2     H13580   2.031   0.393   1.249  0.4073 -0.4988  0.7693
  928MPD2    H113581   1.853   0.107   1.000  1.7401 -0.4421  0.1271
  928MPD2    H213582   1.754   0.114   1.415  1.8530 -1.6384  0.3470
  928MPD2    H313583   1.728   0.020   1.198 -2.1006  1.4414  0.6706
  928MPD2     N13584   2.010   0.308   1.003  0.0617 -0.3899  0.9893
  928MPD2    H513585   1.970   0.289   0.912  1.3604 -0.3309  0.4045
  928MPD2    N113586   1.905   0.323   1.474 -0.3757 -0.2500 -0.2212
  928MPD2    H713587   1.830   0.298   1.537 -1.2202 -0.9981 -1.5138
  929MPD2     C13588   2.290   0.191  10.129  0.4650 -0.0554 -0.4503
  929MPD2    C113589   2.154   0.176  10.107  0.1959 -0.2175 -0.5426
  929MPD2    C213590   2.108   0.232   9.985 -0.5909 -0.0461  1.0177
  929MPD2    C313591   2.191   0.302   9.892 -0.4909 -0.3039 -0.2502
  929MPD2    C413592   2.325   0.309   9.924  0.0096  0.9447 -0.1378
  929MPD2    C513593   2.371   0.260  10.039  0.0082 -0.2241  0.1608
  929MPD2     H13594   2.005   0.210   9.964  0.3327 -2.1886 -1.1866
  929MPD2    H113595   2.397   0.350   9.854 -1.0896  0.2327 -1.6841
  929MPD2    H213596   2.324   0.148  10.222  0.4926  0.1265 -0.3759
  929MPD2    H313597   2.479   0.268  10.046  0.0914  0.3706 -1.9411
  929MPD2     N13598   2.139   0.361   9.775 -0.2990  1.1491  0.3813
  929MPD2    H513599   2.202   0.413   9.715 -0.0226  0.1290 -0.2089
  929MPD2    N113600   2.082   0.089  10.191 -0.0073 -0.2258 -0.1069
  929MPD2    H713601   2.131   0.045  10.269 -0.6746  1.5096  1.2961
  930MPD2     C13602   3.400   2.539  14.425  0.2887  0.3914  0.3554
  930MPD2    C113603   3.317   2.590  14.328  0.7158 -0.4493  0.0629
  930MPD2    C213604   3.208   2.521  14.283  0.7321  0.0329 -0.7418
  930MPD2    C313605   3.179   2.395  14.331 -0.3187 -0.4056  0.3508
  930MPD2    C413606   3.271   2.333  14.416 -0.3765 -0.0199  0.7294
  930MPD2    C513607   3.376   2.410  14.464  0.9652  0.1080 -0.4880
  930MPD2     H13608   3.156   2.554  14.193  0.6844  1.5052 -0.1671
  930MPD2    H113609   3.248   2.230  14.439  1.4931 -0.3105  1.2982
  930MPD2    H213610   3.499   2.578  14.448  0.3128  2.1247 -2.6195
  930MPD2    H313611   3.446   2.363  14.532 -0.3462 -2.9165 -1.2166
  930MPD2     N13612   3.073   2.319  14.278 -0.4404  0.0483  0.3443
  930MPD2    H513613   3.065   2.222  14.309  0.2277 -0.2834 -0.5099
  930MPD2    N113614   3.338   2.728  14.293  0.5104  0.4300 -0.5986
  930MPD2    H713615   3.421   2.769  14.334  1.2130  1.3291 -2.9201
  931MPD2     C13616   3.718   1.768   0.964  0.2187  0.2441  0.6270
  931MPD2    C113617   3.594   1.725   1.000  1.1789 -0.1250 -0.3288
  931MPD2    C213618   3.575   1.675   1.135 -0.0897  0.7071 -0.2170
  931MPD2    C313619   3.681   1.669   1.222 -0.2231 -0.7205  0.7839
  931MPD2    C413620   3.808   1.701   1.181 -0.3749 -0.4171 -0.7128
  931MPD2    C513621   3.822   1.746   1.051 -0.9658 -0.0021 -0.6680
  931MPD2     H13622   3.477   1.651   1.172  0.3923  0.1951  0.7202
  931MPD2    H113623   3.894   1.678   1.244 -0.2849  2.9389  0.3575
  931MPD2    H213624   3.737   1.813   0.867 -0.3813 -0.6393  0.1037
  931MPD2    H313625   3.921   1.751   1.008 -0.7118  0.8119  0.0025
  931MPD2     N13626   3.666   1.631   1.362  0.2366 -0.5514 -0.2171
  931MPD2    H513627   3.750   1.627   1.418 -0.5554 -0.4204  0.9716
  931MPD2    N113628   3.492   1.715   0.899  0.3346 -0.0736  0.4434
  931MPD2    H713629   3.521   1.755   0.810  2.2855 -3.1141 -0.2597
  932MPD2     C13630   1.492   0.928  10.872  0.8394  0.5253 -0.1048
  932MPD2    C113631   1.379   0.988  10.913 -0.3071 -0.1116  0.6260
  932MPD2    C213632   1.332   0.979  11.045 -0.0690  0.4164 -0.4474
  932MPD2    C313633   1.399   0.898  11.131  0.2338  0.3985 -0.0639
  932MPD2    C413634   1.511   0.837  11.092  0.0471 -0.3296  0.2777
  932MPD2    C513635   1.560   0.855  10.964  0.0869  0.4619 -0.3718
  932MPD2     H13636   1.244   1.028  11.084  0.8027  1.6929 -0.0482
  932MPD2    H113637   1.572   0.778  11.159  1.6977  0.8505 -0.1757
  932MPD2    H213638   1.537   0.945  10.774 -2.0283 -0.4947 -1.6184
  932MPD2    H313639   1.652   0.813  10.926 -0.8227 -2.6122  0.8025
  932MPD2     N13640   1.370   0.895  11.270 -0.0631  0.4067  0.3840
  932MPD2    H513641   1.433   0.835  11.322  1.7191  1.7312 -0.2582
  932MPD2    N113642   1.292   1.056  10.817  0.4356 -0.0852  0.5543
  932MPD2    H713643   1.215   1.109  10.855  0.9521  1.4398 -0.4944
  933MPD2     C13644   1.556   0.691   2.144 -0.3600  0.1334  0.0101
  933MPD2    C113645   1.576   0.687   2.005  0.1370 -0.0224  0.4381
  933MPD2    C213646   1.483   0.761   1.925 -0.0645  0.7865  0.2270
  933MPD2    C313647   1.393   0.847   1.982 -0.5873  0.2378  0.3598
  933MPD2    C413648   1.370   0.844   2.118  0.4820 -0.0940  0.6658
  933MPD2    C513649   1.452   0.767   2.192  0.3777 -0.4246  0.3018
  933MPD2     H13650   1.514   0.776   1.822  1.2399  2.6113  0.8969
  933MPD2    H113651   1.306   0.916   2.167  1.1672  1.3589 -0.5658
  933MPD2    H213652   1.624   0.644   2.215 -0.0676 -1.2443 -1.1931
  933MPD2    H313653   1.427   0.753   2.297  0.2032 -1.2079  0.1555
  933MPD2     N13654   1.327   0.941   1.901  0.0226  0.3623  0.6284
  933MPD2    H513655   1.342   0.931   1.802  0.6573  1.5617  0.6095
  933MPD2    N113656   1.687   0.620   1.950 -0.5330 -0.2952 -0.3979
  933MPD2    H713657   1.746   0.574   2.019 -0.1206  2.0680  0.8184
  934MPD2     C13658   2.382   3.026   2.361  0.2803  0.4778  0.1531
  934MPD2    C113659   2.482   2.981   2.270  0.2692  0.5426  0.1735
  934MPD2    C213660   2.440   2.922   2.158  0.4373  0.3146 -0.3060
  934MPD2    C313661   2.302   2.912   2.123 -0.0918  0.5342 -0.0561
  934MPD2    C413662   2.211   2.958   2.209  0.6984  0.0819  0.1707
  934MPD2    C513663   2.255   3.009   2.325 -0.0907  0.4171 -0.1043
  934MPD2     H13664   2.511   2.899   2.080 -0.0092 -3.1085  0.2984
  934MPD2    H113665   2.105   2.944   2.193  0.8121 -0.5273 -0.0567
  934MPD2    H213666   2.400   3.071   2.458  1.3633 -0.0944  0.2071
  934MPD2    H313667   2.183   3.061   2.387 -2.3613 -1.7390 -0.9190
  934MPD2     N13668   2.249   2.859   2.001 -0.7117  0.4936 -0.3719
  934MPD2    H513669   2.148   2.852   1.994 -0.8300  2.2992 -0.2925
  934MPD2    N113670   2.622   2.978   2.299 -0.4809  0.2547  0.4807
  934MPD2    H713671   2.687   2.936   2.233  1.7179  2.6345  1.0885
  935MPD2     C13672   2.600   2.147   1.414  0.6205  0.3087 -0.3367
  935MPD2    C113673   2.479   2.180   1.362  0.6297 -0.7776 -0.0030
  935MPD2    C213674   2.400   2.277   1.407 -0.1966 -0.2088  0.1701
  935MPD2    C313675   2.441   2.345   1.521 -0.8959  0.2977  0.6547
  935MPD2    C413676   2.561   2.309   1.582  0.2095  0.2907  0.2280
  935MPD2    C513677   2.638   2.213   1.526  0.2896 -0.2642 -0.2052
  935MPD2     H13678   2.314   2.306   1.348 -0.2042  1.5830  1.0580
  935MPD2    H113679   2.587   2.352   1.678 -0.6927 -1.2663  1.1643
  935MPD2    H213680   2.662   2.065   1.381  1.7026  0.3602  1.5222
  935MPD2    H313681   2.729   2.174   1.570 -0.2051 -0.4525  0.6571
  935MPD2     N13682   2.370   2.460   1.573  0.2189  0.0161 -0.2771
  935MPD2    H513683   2.408   2.491   1.662  1.5027  2.3342 -1.6311
  935MPD2    N113684   2.429   2.103   1.249 -0.2592 -0.0156 -0.2258
  935MPD2    H713685   2.359   2.148   1.191  2.1161  1.6504 -1.8277
  936MPD2     C13686   1.538   3.404  13.006  0.1230 -0.3976 -0.4813
  936MPD2    C113687   1.468   3.526  13.019 -0.7455  0.2218  0.4257
  936MPD2    C213688   1.514   3.624  12.939  0.4945  0.1354 -0.8771
  936MPD2    C313689   1.624   3.625  12.859  0.0292 -0.1649 -0.0049
  936MPD2    C413690   1.700   3.508  12.847  0.0946  0.1862  0.0492
  936MPD2    C513691   1.658   3.407  12.935  0.8205 -0.2190 -0.0040
  936MPD2     H13692   1.451   3.712  12.935  0.0273 -0.2887 -2.9427
  936MPD2    H113693   1.793   3.506  12.791  0.0842 -1.0966  0.0883
  936MPD2    H213694   1.510   3.317  13.064 -0.9211 -0.3422 -0.8959
  936MPD2    H313695   1.721   3.319  12.950 -1.3129 -1.6030  0.7628
  936MPD2     N13696   1.646   3.746  12.779  0.2956  0.4301 -0.2402
  936MPD2    H513697   1.589   3.827  12.800 -1.7268 -0.6107 -1.7382
  936MPD2    N113698   1.352   3.553  13.088  0.3991 -0.2071 -0.4573
  936MPD2    H713699   1.312   3.646  13.085 -1.3472 -0.9728 -0.7420
  937MPD2     C13700   3.859   0.417  11.068  0.2788  0.6852  0.2126
  937MPD2    C113701   3.828   0.552  11.047  0.0294 -0.0390 -0.0734
  937MPD2    C213702   3.928   0.636  11.000  0.2247  0.4531 -0.4546
  937MPD2    C313703   4.042   0.594  10.950  0.1941 -0.2566  0.1418
  937MPD2    C413704   4.069   0.462  10.972  0.2031 -0.1745 -0.0788
  937MPD2    C513705   3.978   0.369  11.025 -0.6581 -0.1869  0.0370
  937MPD2     H13706   3.903   0.739  10.978  0.2256  0.4798 -0.3308
  937MPD2    H113707   4.169   0.428  10.948  0.6644  0.0074  1.5915
  937MPD2    H213708   3.794   0.355  11.129  0.2711  1.2719  0.8007
  937MPD2    H313709   4.016   0.272  11.057 -1.9094 -0.3167  1.0822
  937MPD2     N13710   4.131   0.687  10.899 -0.3770  0.4986 -0.0176
  937MPD2    H513711   4.109   0.785  10.916 -1.2497 -0.0531  2.1013
  937MPD2    N113712   3.713   0.611  11.103  0.6050  0.0491 -0.0296
  937MPD2    H713713   3.710   0.710  11.084  0.5167 -0.0166 -0.3588
  938MPD2     C13714   1.576   2.026   1.186  0.2314  0.2410 -0.1221
  938MPD2    C113715   1.634   2.113   1.270  0.5826 -0.0107 -0.3345
  938MPD2    C213716   1.666   2.064   1.394  0.4204 -0.0646 -1.0113
  938MPD2    C313717   1.653   1.929   1.438  0.2003  0.7006  0.4116
  938MPD2    C413718   1.603   1.844   1.348  0.3229  0.4434 -0.0768
  938MPD2    C513719   1.564   1.891   1.223  0.0379  0.3097  0.1441
  938MPD2     H13720   1.705   2.138   1.463  0.1354 -0.1338 -0.7749
  938MPD2    H113721   1.600   1.736   1.359  1.0569  0.2018 -2.2042
  938MPD2    H213722   1.541   2.065   1.091  0.9993 -1.3948 -1.0663
  938MPD2    H313723   1.526   1.823   1.148  1.1306  1.1867 -1.2248
  938MPD2     N13724   1.697   1.871   1.559  0.1743 -0.1106  0.0842
  938MPD2    H513725   1.694   1.770   1.566 -0.4528  0.1010  2.8387
  938MPD2    N113726   1.648   2.248   1.240 -0.0334  0.5565  0.1488
  938MPD2    H713727   1.605   2.278   1.153  2.9881  2.3399 -0.7207
  939MPD2     C13728   3.109   2.904   1.788  0.4395 -0.0050  0.2660
  939MPD2    C113729   3.021   2.968   1.701  0.0633  0.5599  0.2250
  939MPD2    C213730   3.015   2.935   1.567 -0.1632  0.3694  0.0199
  939MPD2    C313731   3.092   2.824   1.519 -0.5748  0.2684 -0.3420
  939MPD2    C413732   3.182   2.762   1.612  0.0203 -0.0866 -0.2712
  939MPD2    C513733   3.191   2.804   1.742  0.2206 -0.2849  0.1846
  939MPD2     H13734   2.952   2.983   1.493 -2.0047 -0.7273  0.8791
  939MPD2    H113735   3.242   2.676   1.585  2.0595  1.4215 -0.5561
  939MPD2    H213736   3.104   2.917   1.896 -1.8792  0.5948  0.0902
  939MPD2    H313737   3.247   2.747   1.816 -0.7539 -2.0439 -0.4399
  939MPD2     N13738   3.089   2.792   1.383  0.4203 -0.0226  0.7368
  939MPD2    H513739   3.022   2.848   1.331  0.8220  1.6739  2.0320
  939MPD2    N113740   2.946   3.075   1.752 -0.3104 -0.1593  0.0782
  939MPD2    H713741   2.955   3.096   1.851  0.6106  1.1578 -0.2745
  940MPD2     C13742   2.097   4.468  12.789  1.3564 -0.5354 -0.3789
  940MPD2    C113743   2.097   4.348  12.859 -0.5578  0.5326  0.1375
  940MPD2    C213744   2.134   4.233  12.793 -0.3903 -0.2692 -0.6276
  940MPD2    C313745   2.165   4.231  12.662 -0.1279 -0.3666 -0.5281
  940MPD2    C413746   2.158   4.349  12.586  0.4585 -0.3931 -0.9375
  940MPD2    C513747   2.117   4.460  12.654 -0.3570 -0.2001  0.3545
  940MPD2     H13748   2.150   4.143  12.852 -1.1161  0.6726  0.9931
  940MPD2    H113749   2.167   4.368  12.480  2.0181  1.0008 -0.5536
  940MPD2    H213750   2.087   4.563  12.839  1.1674 -1.7149  1.8203
  940MPD2    H313751   2.105   4.550  12.595 -1.4149  0.5886  1.8044
  940MPD2     N13752   2.176   4.112  12.588  0.7106  0.0619  0.0078
  940MPD2    H513753   2.195   4.122  12.489  0.2833 -2.2805 -0.3001
  940MPD2    N113754   2.065   4.340  13.001 -0.8461  0.5041  0.5420
  940MPD2    H713755   2.084   4.249  13.042 -1.6095  0.9327  1.8441
  941MPD2     C13756   1.005   2.788   9.262 -0.9625  0.0626 -0.8409
  941MPD2    C113757   0.950   2.811   9.388 -0.4426 -0.0451  0.2160
  941MPD2    C213758   0.836   2.741   9.426 -0.8413 -0.9085  0.3541
  941MPD2    C313759   0.773   2.653   9.335  0.1463 -0.1462  0.5669
  941MPD2    C413760   0.828   2.629   9.211  0.5722  0.2469 -0.2280
  941MPD2    C513761   0.941   2.694   9.184  0.3181  0.3344 -0.1078
  941MPD2     H13762   0.790   2.761   9.523 -0.0946  0.1872  0.4905
  941MPD2    H113763   0.793   2.553   9.142 -0.0074 -0.2131  0.5861
  941MPD2    H213764   1.098   2.832   9.230 -0.3552 -1.3505 -1.0255
  941MPD2    H313765   0.988   2.681   9.087 -1.5922 -0.4086 -0.9299
  941MPD2     N13766   0.664   2.567   9.359 -0.0407  0.0622 -0.0746
  941MPD2    H513767   0.651   2.488   9.296 -1.9616  0.5898 -0.3375
  941MPD2    N113768   1.007   2.896   9.486  0.0231 -0.3569 -0.2461
  941MPD2    H713769   0.956   2.909   9.573  0.9365  1.4015  0.0389
  942MPD2     C13770   0.704   4.457   9.666  0.0228  0.1254 -0.4106
  942MPD2    C113771   0.725   4.392   9.544 -1.0204  0.1024 -0.4915
  942MPD2    C213772   0.849   4.393   9.488  0.3269  0.1461 -1.0949
  942MPD2    C313773   0.954   4.456   9.554  0.1484  0.2305 -0.0251
  942MPD2    C413774   0.931   4.516   9.678 -0.5481  0.1221 -0.9235
  942MPD2    C513775   0.806   4.522   9.730 -0.1173  0.0783 -0.1606
  942MPD2     H13776   0.863   4.349   9.390  2.9692  2.2884 -1.6858
  942MPD2    H113777   1.012   4.560   9.735 -2.9695  2.0257  1.0384
  942MPD2    H213778   0.609   4.449   9.716  0.9489 -0.5483  1.2382
  942MPD2    H313779   0.791   4.578   9.821 -0.1715  0.4120 -0.3754
  942MPD2     N13780   1.083   4.461   9.503 -0.3129  0.2224 -0.1170
  942MPD2    H513781   1.156   4.493   9.567  2.3629  0.7709 -3.4185
  942MPD2    N113782   0.624   4.327   9.461  0.3060 -0.2680 -0.0957
  942MPD2    H713783   0.659   4.280   9.378  0.9131 -0.1749  0.1102
  943MPD2     C13784   4.367   3.605   9.845 -0.4686  0.3528  0.3456
  943MPD2    C113785   4.353   3.470   9.817  0.3028 -0.3853  0.5785
  943MPD2    C213786   4.274   3.432   9.702 -0.0245 -0.1531  0.3507
  943MPD2    C313787   4.230   3.528   9.611 -0.4609 -0.6844  0.2313
  943MPD2    C413788   4.249   3.662   9.641  1.2721  0.3941  0.0474
  943MPD2    C513789   4.311   3.697   9.755 -0.4840  0.2493 -0.7035
  943MPD2     H13790   4.261   3.326   9.682  1.8582 -0.0005 -1.7403
  943MPD2    H113791   4.217   3.738   9.571  0.0503 -0.2105 -0.0565
  943MPD2    H213792   4.421   3.640   9.933  1.0667  0.4898 -0.6467
  943MPD2    H313793   4.321   3.804   9.766 -1.7513  0.3155 -0.1751
  943MPD2     N13794   4.146   3.499   9.499 -0.2088  0.2686 -0.2528
  943MPD2    H513795   4.130   3.573   9.432  1.0950  0.3360 -0.4794
  943MPD2    N113796   4.398   3.369   9.902 -0.0019 -0.0809 -0.2213
  943MPD2    H713797   4.380   3.270   9.884  0.1705  0.5028 -3.5018
  944MPD2     C13798   3.900   1.768  11.156  0.0734  0.5834 -0.1006
  944MPD2    C113799   3.984   1.873  11.139  0.2117  0.1610  0.0802
  944MPD2    C213800   3.986   1.981  11.226 -0.6233  0.2660  0.1236
  944MPD2    C313801   3.902   1.978  11.332  0.1593  0.5820 -0.5716
  944MPD2    C413802   3.820   1.872  11.348  0.2949  0.6316  0.5255
  944MPD2    C513803   3.814   1.765  11.264  0.5029 -0.2927  0.8176
  944MPD2     H13804   4.046   2.068  11.203  0.0964  0.5631  3.1105
  944MPD2    H113805   3.747   1.862  11.427 -0.2303  1.4486  0.1477
  944MPD2    H213806   3.894   1.693  11.078 -1.7371  2.6774 -1.9719
  944MPD2    H313807   3.735   1.692  11.258  1.4845 -1.1151 -2.3029
  944MPD2     N13808   3.911   2.086  11.416  0.1067 -0.0477  0.2619
  944MPD2    H513809   3.985   2.152  11.396 -0.2252  0.2123 -0.1132
  944MPD2    N113810   4.059   1.868  11.022  0.5670 -0.0610 -0.4552
  944MPD2    H713811   4.046   1.790  10.958 -0.5177  0.3698 -0.7543
    1TCq1    O113812   1.474   3.424  13.435 -0.3838 -0.1866 -0.1122
    1TCq1    C113813   1.584   3.370  13.372 -0.0602  1.0606 -0.3014
    1TCq1    O213814   1.663   3.419  13.292  0.4092 -0.5103  0.0766
    1TCq1    C213815   1.629   3.254  13.456 -0.1325  1.2179 -0.3004
    1TCq1    C313816   1.620   3.284  13.591  0.5860 -0.4644  0.0399
    1TCq1    C413817   1.713   3.229  13.671 -1.0200  0.5435  0.0217
    1TCq1    C513818   1.815   3.153  13.627  0.3630 -0.1811  0.5988
    1TCq1    C613819   1.826   3.130  13.491  0.1720  0.2194  0.3653
    1TCq1    C713820   1.735   3.190  13.407 -0.8102 -0.4579  0.5552
    1TCq1    C813821   1.957   3.142  13.435  0.2743 -0.0627  0.2224
    1TCq1    O413822   1.979   3.097  13.321  0.0645 -0.3271 -0.0466
    1TCq1    C913823   1.682   3.245  13.814  0.8484 -0.6176 -0.7604
    1TCq1    O513824   1.583   3.309  13.847 -0.5006 -0.1628  0.5431
    1TCq1    O613825   1.767   3.201  13.895 -0.0428 -0.4270  0.5314
    1TCq1    H113826   1.417   3.351  13.465  0.0197  0.0886  1.3523
    1TCq1    H213827   1.541   3.344  13.634  1.2280 -0.2461  0.9020
    1TCq1    H313828   1.898   3.116  13.687  1.2509 -0.2063 -0.6289
    1TCq1    H413829   1.750   3.182  13.299  1.2571  0.0838  0.7905
    2MPD2     C13830   2.437   3.332  13.463 -0.5042 -0.3665 -0.2380
    2MPD2    C113831   2.368   3.377  13.571 -0.1474  0.2153  0.3860
    2MPD2    C213832   2.233   3.343  13.584 -0.4976 -0.2481  0.0426
    2MPD2    C313833   2.170   3.256  13.497 -0.7142 -0.8420  0.3941
    2MPD2    C413834   2.246   3.199  13.393  0.0178 -0.5955 -0.4024
    2MPD2    C513835   2.377   3.247  13.373 -0.7067 -0.4428  0.3812
    2MPD2     H13836   2.177   3.391  13.664  0.5537  0.1194  0.5669
    2MPD2    H113837   2.214   3.129  13.317 -1.3828 -1.0449  0.5941
    2MPD2    H213838   2.541   3.359  13.450 -0.5307  0.2245  0.7942
    2MPD2    H313839   2.424   3.207  13.284 -0.7950 -0.4385  0.3327
    2MPD2     N13840   2.038   3.220  13.518 -0.6081  0.2370 -0.1963
    2MPD2    H513841   1.986   3.256  13.598  0.1782  1.3779 -0.2056
    2MPD2    N113842   2.430   3.468  13.659 -0.3402  0.2350  0.3457
    2MPD2    H713843   2.523   3.500  13.633 -0.3379 -2.3684 -2.7564
    3TMC2    C113844   2.466   3.626  13.827 -0.2163 -0.5028  0.5566
    3TMC2    C213845   2.429   3.676  13.950  0.3076 -0.2688  0.3689
    3TMC2    C313846   2.426   3.808  13.978 -0.3751  0.2657 -0.5171
    3TMC2    C413847   2.497   3.725  13.730  0.3998  0.1391  0.4602
    3TMC2    C513848   2.500   3.860  13.754  0.0630  0.2818  0.6592
    3TMC2    C613849   2.458   3.895  13.880  0.1736  0.5827  0.1689
    3TMC2     C13850   2.378   3.517  13.776  0.5912  0.3050 -0.4877
    3TMC2     O13851   2.282   3.483  13.844 -0.1162 -0.5197  0.1774
    3TMC2     H13852   2.392   3.603  14.020 -1.3773  2.1237  1.9586
    3TMC2    H113853   2.507   3.701  13.625 -0.4087  1.6084  0.0441
    3TMC2    H213854   2.459   4.001  13.905 -0.9565  0.2356  1.6892
    3TMC2    C713855   2.532   3.948  13.655  0.3023 -0.7030  0.1169
    3TMC2    C813856   2.399   3.844  14.112 -0.4205  0.0876 -0.3028
    3TMC2    O113857   2.564   3.893  13.549  0.0682 -0.0498 -0.5074
    3TMC2    O213858   2.344   3.761  14.182  0.6582 -0.3979  0.1859
    3TMC2    O513859   2.436   3.970  14.139  1.0442 -0.3131  0.4348
    3TMC2    H513860   2.508   4.009  14.084  1.2171 -0.7176  0.3770
    4MPD2     C13861   1.837   0.140  14.078 -0.3338 -0.9692 -0.7436
    4MPD2    C113862   1.880   0.084  13.960 -0.8622  0.2078  0.6596
    4MPD2    C213863   2.003   0.111  13.915  0.6556  0.2464 -0.1478
    4MPD2    C313864   2.100   0.171  13.998 -0.7001 -0.4753  0.3429
    4MPD2    C413865   2.056   0.233  14.112  0.5640  0.1202 -0.2440
    4MPD2    C513866   1.925   0.221  14.147  0.5084  0.2204 -0.5122
    4MPD2     H13867   2.039   0.059  13.827  1.1218 -1.6257  1.1414
    4MPD2    H113868   2.125   0.282  14.180  0.2327  1.3641 -0.8195
    4MPD2    H213869   1.742   0.118  14.125 -0.4522  0.3809 -0.3674
    4MPD2    H313870   1.883   0.259  14.239  1.7335 -2.1343  1.0074
    4MPD2     N13871   2.233   0.155  13.952  0.2660  0.7011 -0.1213
    4MPD2    H513872   2.247   0.085  13.880 -0.1208  1.4515 -0.9144
    4MPD2    N113873   1.803   4.717  13.875  0.0927 -0.0149  0.1800
    4MPD2    H713874   1.842   4.689  13.786  1.7358 -0.5302  1.0802
    5TCq2    C113875   2.336   0.229  13.994 -0.0674  0.4808 -0.1160
    5TCq2    O213876   2.339   0.336  14.056 -0.1914  0.1828 -0.2777
    5TCq2    C213877   2.458   0.184  13.924  0.4427 -0.4002  0.3612
    5TCq2    C313878   2.557   0.274  13.882  0.0288 -0.0097  0.3683
    5TCq2    C413879   2.659   0.213  13.814  0.2991 -0.4619 -0.2285
    5TCq2    C513880   2.658   0.085  13.769  0.1380 -0.1773  0.1858
    5TCq2    C613881   2.567   0.002  13.825  0.0799 -0.2557 -0.8941
    5TCq2    C713882   2.466   0.046  13.898  0.9163 -0.1970  0.2670
    5TCq2    C813883   2.562   4.575  13.787  0.5287  0.2963 -0.2239
    5TCq2    O413884   2.479   4.505  13.846  0.1865 -0.3157 -0.3805
    5TCq2    C913885   2.760   0.294  13.757  0.0632  0.1213 -0.3063
    5TCq2    O513886   2.876   0.244  13.735  0.3419 -0.0795  0.1247
    5TCq2    O613887   2.738   0.417  13.751  0.0387  1.3562 -0.5019
    5TCq2    H213888   2.562   0.380  13.905 -0.4853  0.2996 -0.9373
    5TCq2    H313889   2.733   0.065  13.694 -0.8022  0.3590 -0.8939
    5TCq2    H413890   2.403   4.687  13.943 -1.9716  1.6005 -0.7104
    6MPD1     C13891   0.496   0.743  12.804  0.5676  0.5602 -0.1478
    6MPD1    C113892   0.565   0.672  12.710  0.0497 -0.1403  0.8234
    6MPD1    C213893   0.633   0.554  12.749 -0.4859 -0.3772 -1.2378
    6MPD1    C313894   0.654   0.532  12.884 -0.7507 -0.1327  0.0098
    6MPD1    C413895   0.590   0.609  12.978 -0.1424 -0.2368  0.3282
    6MPD1    C513896   0.503   0.710  12.936  0.1829  0.1414  0.6645
    6MPD1     H13897   0.666   0.485  12.672  0.2211  0.7016 -1.9170
    6MPD1    H113898   0.606   0.592  13.084 -1.3615  1.2636  0.7449
    6MPD1    H213899   0.427   0.820  12.772 -0.4606 -0.3870 -0.1880
    6MPD1    H313900   0.455   0.771  13.011 -0.6823  1.4581 -0.9754
    6MPD1     N13901   0.746   0.438  12.936  0.0205 -0.0982  0.5551
    6MPD1    H513902   0.750   0.430  13.037  2.9719 -1.6179  0.3202
    6MPD1    N113903   0.558   0.710  12.577  0.9079  0.2434  0.4225
    6MPD1    H613904   0.568   0.808  12.552  1.2992  0.1817  0.3370
    6MPD1    H713905   0.620   0.657  12.515 -0.8003 -0.1796 -0.9106
    7MPD2     C13906   0.834   0.020  13.565  0.0508  0.7092 -0.3084
    7MPD2    C113907   0.946   0.015  13.488  0.9339  0.3003  0.1191
    7MPD2    C213908   1.069   4.691  13.528 -0.7703  0.5546 -0.1697
    7MPD2    C313909   1.085   4.642  13.654 -0.1047 -0.0392  0.5320
    7MPD2    C413910   0.979   4.636  13.732  0.4651  0.0013  0.0758
    7MPD2    C513911   0.855   4.689  13.694  0.0629  0.5537  0.2764
    7MPD2     H13912   1.153   4.700  13.460  0.8680 -2.0078  1.5075
    7MPD2    H113913   0.992   4.592  13.830  2.1241  0.8216  0.2302
    7MPD2    H213914   0.737   0.054  13.531  0.3563  0.3543 -1.5245
    7MPD2    H313915   0.773   4.683  13.764  0.8744 -1.8422  1.0330
    7MPD2     N13916   1.210   4.591  13.708  0.4839 -0.2085 -0.1605
    7MPD2    H513917   1.229   4.600  13.807 -2.3732 -1.1429  0.4864
    7MPD2    N113918   0.954   0.050  13.353  0.6132  0.0414  0.3677
    7MPD2    H713919   1.048   0.044  13.314  1.0171  1.1659  1.1475
    8TMC3    C113920   1.436   4.557  13.654 -0.8255  0.5968 -1.2239
    8TMC3    C213921   1.490   4.599  13.772  0.1573 -0.4113 -0.3767
    8TMC3    C313922   1.606   4.662  13.762  0.3391  0.1474 -0.8718
    8TMC3    C413923   1.513   4.544  13.542 -0.2659 -0.2260 -0.5266
    8TMC3    C513924   1.629   4.614  13.535  0.6068 -0.0336 -0.0677
    8TMC3    C613925   1.674   4.675  13.648 -0.5849 -0.0034 -0.8386
    8TMC3     C13926   1.294   4.536  13.626  0.0604 -0.1677 -0.5460
    8TMC3     O13927   1.265   4.501  13.515 -0.8642  0.1931 -0.1027
    8TMC3     H13928   1.433   4.595  13.864 -0.7044 -0.0239 -0.8887
    8TMC3    H113929   1.469   4.497  13.455  0.9249 -0.8392 -0.7943
    8TMC3    H213930   1.741   0.042  13.631  0.3987 -0.6561 -0.2067
    8TMC3    C713931   1.637   4.691  13.412 -0.3318 -0.3060 -0.1349
    8TMC3    C813932   1.667   4.695  13.891 -0.3491 -0.5056  0.2436
    8TMC3    O113933   1.610   0.091  13.401 -0.3618 -0.4057  0.5664
    8TMC3    O213934   1.601   4.703  13.994  0.6327  0.1923  0.4152
    9TMC3    C113935   0.902   0.269  12.943  0.4002  0.1028  0.4442
    9TMC3    C213936   1.017   0.218  12.894 -0.3432  0.4740 -0.7241
    9TMC3    C313937   1.083   0.130  12.980 -0.1548 -0.0962 -0.5696
    9TMC3    C413938   0.846   0.224  13.059  0.2057 -0.0741 -0.3840
    9TMC3    C513939   0.921   0.144  13.145  0.9383 -0.1777 -0.2835
    9TMC3    C613940   1.041   0.092  13.103  0.1755  0.3097  0.7293
    9TMC3     C13941   0.824   0.362  12.860 -0.0122 -0.3620 -0.1501
    9TMC3     O13942   0.833   0.366  12.739 -0.1819 -0.3610  0.0269
    9TMC3     H13943   1.061   0.265  12.807  1.7543  0.1311  0.1573
    9TMC3    H113944   0.751   0.254  13.101  0.2919  0.0676 -0.2883
    9TMC3    H213945   1.104   0.032  13.167  0.8424  0.0002 -0.2198
    9TMC3    C713946   0.866   0.115  13.278  0.6497 -0.0935  0.4821
    9TMC3    C813947   1.216   0.097  12.932  0.2052  0.0595  0.4181
    9TMC3    O113948   0.754   0.160  13.305 -0.2031 -0.1657  0.4740
    9TMC3    O213949   1.231   0.059  12.816  0.2085  0.6150 -0.0914
   10MPD2     C13950   1.639   4.565  13.073 -0.1518 -0.2134 -0.2722
   10MPD2    C113951   1.589   4.636  13.184  0.2012 -0.0003  0.4093
   10MPD2    C213952   1.483   0.007  13.168  0.0724 -0.3561  0.1518
   10MPD2    C313953   1.424   0.013  13.044  0.1244 -0.2494  0.8315
   10MPD2    C413954   1.463   4.650  12.936 -0.3813 -0.7703 -0.4601
   10MPD2    C513955   1.578   4.583  12.948 -0.0243 -0.0806 -0.3379
   10MPD2     H13956   1.449   0.076  13.244 -0.4807 -1.2790  0.7439
   10MPD2    H113957   1.422   4.652  12.836 -0.7435  1.5739 -0.2679
   10MPD2    H213958   1.721   4.494  13.078 -1.1217 -1.3258 -0.2643
   10MPD2    H313959   1.615   4.539  12.857 -0.4248 -0.7320 -0.1881
   10MPD2     N13960   1.300   0.083  13.035  0.2491 -0.6716  0.2356
   10MPD2    H513961   1.271   0.139  13.115  1.1450  0.3866 -0.1852
   10MPD2    N113962   1.649   4.609  13.311  0.0024  0.6314  0.4878
   10MPD2    H713963   1.663   4.513  13.341  2.2506  1.1003  0.9951
   11MPD2     C13964   2.662   4.174  13.506 -0.1713  0.1299  0.0117
   11MPD2    C113965   2.614   4.181  13.634  0.7846  0.7216 -0.2531
   11MPD2    C213966   2.609   4.305  13.693  0.3864 -0.9460  0.1351
   11MPD2    C313967   2.657   4.417  13.630  0.2364  0.4621 -0.2166
   11MPD2    C413968   2.710   4.409  13.506  0.3309  0.3064 -0.8416
   11MPD2    C513969   2.714   4.285  13.444  0.1993 -0.1175  0.3697
   11MPD2     H13970   2.564   4.316  13.791  0.6079  1.0431  0.0204
   11MPD2    H113971   2.747   4.497  13.456 -0.8574  1.1083 -0.3084
   11MPD2    H213972   2.672   4.083  13.447 -2.4349 -1.2737  1.8050
   11MPD2    H313973   2.772   4.268  13.354  1.1517 -2.1658  1.3590
   11MPD2     N13974   2.646   4.545  13.686 -0.0865 -0.4522 -0.6912
   11MPD2    H513975   2.702   4.618  13.644  0.6296  0.2638  1.5133
   11MPD2    N113976   2.555   4.076  13.710  0.6354 -0.7385  0.3999
   11MPD2    H713977   2.538   4.097  13.808 -0.7754  0.9323 -0.2030
    1MPD1     C13978   0.825   1.763  16.964  0.1708 -0.0703  0.1842
    1MPD1    C113979   0.868   1.642  17.007 -0.2434 -0.0264  0.0866
    1MPD1    C213980   0.777   1.543  17.049  0.5237  0.0803 -0.2508
    1MPD1    C313981   0.646   1.570  17.073  0.0424  0.0778 -0.1875
    1MPD1    C413982   0.601   1.697  17.032 -0.3218 -0.4337 -0.3616
    1MPD1    C513983   0.691   1.793  16.975 -0.5452  0.2684 -0.4755
    1MPD1     H13984   0.820   1.445  17.067  2.5689  1.2055  1.0345
    1MPD1    H113985   0.496   1.718  17.047 -0.1501  0.6413 -0.6995
    1MPD1    H213986   0.891   1.836  16.919 -0.7396  1.2845  1.0248
    1MPD1    H313987   0.665   1.892  16.938 -0.2361  0.6279  0.2601
    1MPD1     N13988   0.546   1.476  17.113  0.6941  0.2388  0.2872
    1MPD1    H513989   0.452   1.512  17.128  0.8998  0.8257  0.1687
    1MPD1    N113990   1.000   1.612  16.976  0.4735 -0.4696 -0.2760
    1MPD1    H613991   1.038   1.538  17.035  1.3321  0.3161  0.1588
    1MPD1    H713992   1.055   1.697  16.976 -0.8597  0.4034  1.8209
    2MPD1     C13993   4.436   1.503  16.866  0.3468  0.2549  0.6043
    2MPD1    C113994   4.508   1.601  16.929 -0.1531 -0.3880 -0.3604
    2MPD1    C213995   4.611   1.560  17.009 -0.4836 -0.2607  0.1323
    2MPD1    C313996   4.649   1.432  17.025 -0.6890  0.6370 -0.2358
    2MPD1    C413997   4.573   1.334  16.961  0.5839  0.2985 -0.0969
    2MPD1    C513998   4.468   1.376  16.884  0.5442  0.2845 -0.4713
    2MPD1     H13999   4.663   1.641  17.059  1.0333 -0.0139 -1.7931
    2MPD1    H114000   4.606   1.231  16.972  2.2179  0.5478 -2.6657
    2MPD1    H214001   4.366   1.539  16.791  0.1578 -1.9737 -0.2891
    2MPD1    H314002   4.404   1.301  16.838  2.0024 -1.3698  0.1943
    2MPD1     N14003   0.046   1.403  17.104  0.6778  0.5135 -0.3499
    2MPD1    H514004   0.093   1.481  17.149  1.4004  0.5724 -1.2125
    2MPD1    N114005   4.473   1.732  16.920  0.2756  0.2778 -0.7695
    2MPD1    H614006   4.375   1.758  16.913  0.7421  2.0421 -0.8812
    2MPD1    H714007   4.533   1.791  16.978 -1.4081  0.6143  0.6144
    3TMC3    C114008   0.212   1.273  17.207  0.7116 -0.4625 -0.3996
    3TMC3    C214009   0.222   1.165  17.286  0.0283  0.2847  0.5264
    3TMC3    C314010   0.348   1.116  17.309  0.6033  0.0749 -0.2281
    3TMC3    C414011   0.321   1.326  17.138  0.3113  0.2070  0.3324
    3TMC3    C514012   0.443   1.276  17.169  0.8813 -0.9085 -0.1063
    3TMC3    C614013   0.458   1.173  17.256  0.1836  0.2074 -0.2901
    3TMC3     C14014   0.080   1.275  17.148 -0.8996  0.1692  0.4219
    3TMC3     O14015   0.008   1.181  17.171 -0.0239 -0.3217 -0.3970
    3TMC3     H14016   0.140   1.111  17.332  0.2688  1.4456  2.3350
    3TMC3    H114017   0.301   1.403  17.064  1.1790 -2.3856 -2.6153
    3TMC3    H214018   0.559   1.153  17.288  0.7084 -0.2213 -2.2428
    3TMC3    C714019   0.562   1.344  17.137 -0.2975 -0.4935  0.0748
    3TMC3    C814020   0.369   1.013  17.408  0.7755  0.1848  0.1706
    3TMC3    O114021   0.662   1.279  17.134  0.2381  0.3829 -0.1117
    3TMC3    O214022   0.472   0.955  17.376 -0.0269 -0.2430 -0.5264
    4MPD1     C14023   0.255   0.690   0.111 -0.7548 -0.0648  0.2720
    4MPD1    C114024   0.172   0.800   0.133 -0.2803  0.4540 -0.1389
    4MPD1    C214025   0.180   0.899   0.035  0.5560 -0.0243  0.1956
    4MPD1    C314026   0.275   0.896  17.608 -0.0092  0.2293 -0.3612
    4MPD1    C414027   0.361   0.786  17.592 -0.0024  0.2618 -0.7887
    4MPD1    C514028   0.346   0.688   0.009 -0.3063  0.7092 -1.3049
    4MPD1     H14029   0.116   0.986   0.038 -0.9157 -1.1223  0.2587
    4MPD1    H114030   0.432   0.773  17.511  0.4819 -2.9150  0.1403
    4MPD1    H214031   0.267   0.609   0.182  0.2082  0.4549  0.6967
    4MPD1    H314032   0.400   0.597  17.662 -2.0077 -0.6031 -0.0115
    4MPD1     N14033   0.276   1.002  17.508 -0.2596  0.4381  0.2948
    4MPD1    H514034   0.194   1.062  17.509 -0.6052 -0.0282 -0.4069
    4MPD1    N114035   0.083   0.801   0.239  0.2340 -0.6667 -1.0578
    4MPD1    H614036   0.108   0.727   0.305 -0.0892  0.6338  0.5061
    4MPD1    H714037   0.080   0.892   0.284 -1.5096  0.2439 -2.9957
    1TCq1    O114038   4.097   0.607  11.753  0.0130 -0.6445  0.1135
    1TCq1    C114039   4.114   0.742  11.749  0.4904  0.0923  0.2405
    1TCq1    O214040   4.098   0.810  11.853 -0.0197  0.2225  0.3935
    1TCq1    C214041   4.231   0.769  11.671 -0.0053  0.1896  0.1088
    1TCq1    C314042   4.332   0.838  11.724 -0.7004 -0.5674 -0.7078
    1TCq1    C414043   4.452   0.847  11.663 -0.2874 -0.3195 -0.7255
    1TCq1    C514044   4.478   0.773  11.544 -0.7564  0.5656 -0.2410
    1TCq1    C614045   4.372   0.701  11.485 -0.9364  0.2495  0.2736
    1TCq1    C714046   4.250   0.693  11.551 -0.1083 -0.3913  0.3449
    1TCq1    C814047   4.385   0.639  11.357  0.4082 -0.0809 -0.5188
    1TCq1    O414048   4.313   0.547  11.328 -0.2208 -0.9241  0.7922
    1TCq1    C914049   4.562   0.866  11.755 -0.3499 -0.4603 -0.1541
    1TCq1    O514050   4.550   0.961  11.835  0.2029 -0.0002 -0.1847
    1TCq1    O614051   4.640   0.771  11.776 -0.2598 -0.1894  0.6726
    1TCq1    H114052   4.156   0.559  11.691 -1.1244 -0.5150 -1.0734
    1TCq1    H214053   4.328   0.860  11.830 -3.0553 -0.8710 -0.7164
    1TCq1    H314054   4.584   0.773  11.522 -0.7733  0.5281 -0.3226
    1TCq1    H414055   4.159   0.664  11.499  0.4565  0.9816 -1.4008
    2MPD1     C14056   4.628   0.578  10.894 -0.0253  0.0884  0.4306
    2MPD1    C114057   4.701   0.655  10.978 -0.3802 -0.2729 -0.4398
    2MPD1    C214058   4.653   0.684  11.109 -0.4301 -1.0516  0.8917
    2MPD1    C314059   4.530   0.638  11.157 -0.2301  0.3487 -0.2846
    2MPD1    C414060   4.460   0.567  11.071 -0.0705  0.4876  0.0833
    2MPD1    C514061   4.511   0.530  10.949  0.2893 -0.1735  0.1991
    2MPD1     H14062   4.704   0.755  11.173 -0.1596 -0.1559 -0.3172
    2MPD1    H114063   4.357   0.538  11.088  0.2095  1.0071  2.6035
    2MPD1    H214064   4.663   0.546  10.797  0.7585  0.0368  0.7283
    2MPD1    H314065   4.452   0.469  10.882 -1.9207  3.1313 -0.8690
    2MPD1     N14066   4.495   0.683  11.285 -0.3831  0.0200 -0.2162
    2MPD1    H514067   4.554   0.751  11.332 -3.9052  2.6620  0.3592
    2MPD1    N114068   0.102   0.723  10.933 -0.6776  0.7232 -0.1384
    2MPD1    H614069   0.145   0.704  10.842 -1.4461  0.5408 -0.4678
    2MPD1    H714070   0.181   0.725  10.996 -0.0488 -0.4057 -0.8888
    1TCq1    O114071   0.304   0.335   2.971 -0.1679 -0.1959 -0.3080
    1TCq1    C114072   0.225   0.371   2.868  0.2098  0.8595 -0.3372
    1TCq1    O214073   0.226   0.475   2.800 -0.2500  0.4786 -0.0902
    1TCq1    C214074   0.133   0.261   2.834 -0.7278 -0.4744 -0.0322
    1TCq1    C314075   0.105   0.150   2.906 -0.2876 -0.5448  0.8606
    1TCq1    C414076   0.014   0.058   2.850  0.8140  0.0143 -0.1617
    1TCq1    C514077   4.683   0.071   2.727  0.4434 -0.3700  0.4375
    1TCq1    C614078   4.698   0.194   2.667 -0.0207  0.7092  0.2982
    1TCq1    C714079   0.061   0.289   2.721  0.2707  0.9722  1.1484
    1TCq1    C814080   4.648   0.213   2.529 -0.3265 -0.0636  0.5363
    1TCq1    O414081   0.001   0.273   2.446 -0.4093 -0.7770 -0.1562
    1TCq1    C914082   0.008   4.648   2.910  0.3246 -0.6453  0.6276
    1TCq1    O514083   0.069   4.634   3.017 -0.1219  0.4956 -0.7119
    1TCq1    O614084   4.660   4.560   2.850  0.3473  0.2440 -0.2997
    1TCq1    H114085   0.292   0.243   3.003  0.1638 -0.1526 -0.0675
    1TCq1    H214086   0.158   0.114   2.993  1.4907  0.4489  0.1846
    1TCq1    H314087   4.642   4.697   2.687 -2.0506 -0.1564  2.4862
    1TCq1    H414088   0.073   0.379   2.662 -0.6766 -1.0196 -2.1177
    2MPD1     C14089   4.284   0.125   2.191 -0.1849  0.2523  0.8584
    2MPD1    C114090   4.245   0.066   2.302  0.0074  0.7881  0.3307
    2MPD1    C214091   4.330   0.077   2.411  0.1110  0.0241  0.2623
    2MPD1    C314092   4.454   0.145   2.401  0.0797 -0.7062  0.2012
    2MPD1    C414093   4.490   0.207   2.283 -0.6795  0.5848  0.1921
    2MPD1    C514094   4.408   0.183   2.178  0.6055  0.0883 -0.1462
    2MPD1     H14095   4.288   0.044   2.506  2.4787 -1.6882  0.7370
    2MPD1    H114096   4.581   0.265   2.277 -1.6048  2.3343  3.0814
    2MPD1    H214097   4.228   0.130   2.099 -0.5080 -2.6862  0.8909
    2MPD1    H314098   4.432   0.224   2.081  3.6280 -0.1232  0.5157
    2MPD1     N14099   4.531   0.145   2.518  0.2109 -0.2773 -0.1549
    2MPD1    H514100   4.497   0.103   2.604 -0.4429  0.5299 -0.0207
    2MPD1    N114101   4.116   0.018   2.312 -0.0940 -0.2170 -0.4780
    2MPD1    H614102   4.110   4.658   2.378  1.3724  0.2074  0.1415
    2MPD1    H714103   4.099   4.690   2.223 -0.9350 -1.3291  0.2525
    1MPD1     C14104   3.132   0.316  11.837  0.9576  0.8929  0.3420
    1MPD1    C114105   3.021   0.353  11.767  1.0896  0.1446 -0.3087
    1MPD1    C214106   3.032   0.355  11.629 -0.7213 -0.1391 -0.5049
    1MPD1    C314107   3.152   0.332  11.562 -0.4407  0.2118  0.2751
    1MPD1    C414108   3.264   0.291  11.632 -0.2706 -0.3478 -0.7456
    1MPD1    C514109   3.250   0.285  11.771 -0.2034 -0.6334  0.1535
    1MPD1     H14110   2.950   0.362  11.560  1.0015 -2.6006 -2.7983
    1MPD1    H114111   3.356   0.253  11.590  1.0639  2.5849 -0.4791
    1MPD1    H214112   3.122   0.297  11.943  0.5160  1.4440  0.3917
    1MPD1    H314113   3.332   0.253  11.834 -1.8716 -0.2592  2.5380
    1MPD1     N14114   3.155   0.344  11.421  0.6465 -0.1798  0.2229
    1MPD1    H514115   3.069   0.368  11.373  0.6135 -0.3738  0.1823
    1MPD1    N114116   2.901   0.367  11.837 -0.6538 -0.1759 -0.4282
    1MPD1    H614117   2.839   0.438  11.797 -2.2615  0.5877  3.3947
    1MPD1    H714118   2.914   0.382  11.937 -1.2912  2.4324 -0.7353
    2MPD1     C14119   2.480   1.349  10.802 -0.5272  0.2745  0.3907
    2MPD1    C114120   2.407   1.246  10.860  0.4775  0.1348 -0.0916
    2MPD1    C214121   2.444   1.116  10.856 -0.2895 -0.7580  0.7763
    2MPD1    C314122   2.551   1.075  10.778 -0.1513  0.7556  0.4116
    2MPD1    C414123   2.635   1.171  10.729 -0.5877  0.0783  0.4622
    2MPD1    C514124   2.601   1.310  10.746  0.1771  0.0152  0.0860
    2MPD1     H14125   2.402   1.044  10.925 -3.0166 -0.6016 -0.7253
    2MPD1    H114126   2.733   1.139  10.696  0.5311  1.9840  1.9192
    2MPD1    H214127   2.465   1.454  10.825 -1.3269  0.1316  0.5068
    2MPD1    H314128   2.675   1.378  10.705  0.1518  1.5627  2.6008
    2MPD1     N14129   2.585   0.940  10.771  0.1467 -0.5975  0.1491
    2MPD1    H514130   2.653   0.911  10.702 -0.3094 -0.4778 -0.3519
    2MPD1    N114131   2.312   1.279  10.960  0.1315 -0.8323 -0.3122
    2MPD1    H614132   2.258   1.363  10.940  0.4036 -0.8474 -1.0780
    2MPD1    H714133   2.251   1.202  10.985 -2.0984  0.4513 -1.8098
    3MPD1     C14134   2.178   4.691  10.595  0.5106 -0.0826  0.0950
    3MPD1    C114135   2.262   0.017  10.494 -0.5376  0.1205  0.1949
    3MPD1    C214136   2.346   0.125  10.527  0.2126 -0.0778  0.9986
    3MPD1    C314137   2.337   0.192  10.652 -0.0138 -0.8810 -0.2282
    3MPD1    C414138   2.247   0.137  10.746  0.3447  0.4371 -0.6517
    3MPD1    C514139   2.171   0.030  10.719 -0.9207  0.0160 -0.0117
    3MPD1     H14140   2.418   0.165  10.457 -0.1349 -1.7998 -0.3500
    3MPD1    H114141   2.227   0.175  10.845 -0.9822  3.4174 -2.0777
    3MPD1    H214142   2.115   4.603  10.592  0.6481 -0.1752 -0.0544
    3MPD1    H314143   2.091   0.004  10.788 -0.1900 -2.1015  0.0235
    3MPD1     N14144   2.433   0.295  10.677  0.5967  0.3466 -0.4460
    3MPD1    H514145   2.488   0.329  10.599 -0.3111 -0.0704 -1.2659
    3MPD1    N114146   2.256   4.659  10.375  0.3000 -0.1257  0.2839
    3MPD1    H614147   2.344   4.661  10.324 -1.0299 -0.0522 -1.9962
    3MPD1    H714148   2.242   4.561  10.397  2.9047  0.2195  3.5096
    4MPD2     C14149   2.954   0.779  10.886 -0.3370 -0.3369 -0.5456
    4MPD2    C114150   3.058   0.692  10.855 -0.3904 -0.4225 -0.1149
    4MPD2    C214151   3.147   0.722  10.756  0.4974  0.4615 -0.2396
    4MPD2    C314152   3.138   0.852  10.703 -0.2326 -0.3887  0.5392
    4MPD2    C414153   3.032   0.936  10.729 -0.8575 -0.2610  0.1976
    4MPD2    C514154   2.943   0.899  10.821  0.1866  0.1498 -0.5219
    4MPD2     H14155   3.230   0.661  10.721  0.5110  0.1015  0.4277
    4MPD2    H114156   3.023   1.040  10.699 -0.3306 -0.2247  0.1621
    4MPD2    H214157   2.871   0.752  10.952  0.6239 -0.1436  0.7528
    4MPD2    H314158   2.869   0.971  10.855  0.5285 -0.3306  1.2816
    4MPD2     N14159   3.241   0.891  10.615  0.1224  0.7731  1.0102
    4MPD2    H514160   3.319   0.826  10.613  0.4736  1.2119  0.2771
    4MPD2    N114161   3.068   0.562  10.913 -0.6917  0.5170 -0.4126
    4MPD2    H714162   3.156   0.513  10.905 -0.6535  0.5356 -0.1269
    5TMC3    C114163   3.053   0.356  11.020  0.2815 -0.5990 -0.3403
    5TMC3    C214164   3.082   0.332  11.156 -0.4379  0.0992 -0.2579
    5TMC3    C314165   3.208   0.287  11.200  0.2667 -0.2153 -0.0045
    5TMC3    C414166   3.142   0.310  10.930 -0.5304  0.5535  0.6183
    5TMC3    C514167   3.264   0.258  10.975 -0.4344 -0.1354 -0.2723
    5TMC3    C614168   3.295   0.242  11.103 -0.1732  0.6322  0.8225
    5TMC3     C14169   2.989   0.487  10.998 -0.5281  0.2189  0.2520
    5TMC3     O14170   2.878   0.516  11.048  0.5661 -0.3119 -0.2212
    5TMC3     H14171   3.019   0.391  11.222  1.2462  1.6913 -0.0868
    5TMC3    H114172   3.117   0.319  10.825  2.2397  2.0745  0.0945
    5TMC3    H214173   3.394   0.209  11.133 -0.3725 -1.1771 -0.5509
    5TMC3    C714174   3.362   0.347  10.908  0.0288 -0.2368 -0.2835
    5TMC3    C814175   3.256   0.308  11.336  0.3139 -0.0449  0.5439
    5TMC3    O114176   3.322   0.460  10.888  0.4343  0.3739 -0.6635
    5TMC3    O214177   3.368   0.266  11.362 -0.6657 -0.2516  0.1428
    6TMC3    C114178   2.578   0.706  10.780  0.3518 -0.1673 -0.2986
    6TMC3    C214179   2.511   0.597  10.820  0.2849 -0.1593  0.2942
    6TMC3    C314180   2.538   0.473  10.765  0.0331 -0.1443  0.0647
    6TMC3    C414181   2.684   0.694  10.695 -0.7972  0.6534 -0.3694
    6TMC3    C514182   2.714   0.567  10.639 -0.5350  0.0958 -0.0360
    6TMC3    C614183   2.645   0.452  10.681 -0.1062  0.1853 -0.5505
    6TMC3     C14184   2.523   0.834  10.831 -0.0162  0.2731  0.0405
    6TMC3     O14185   2.442   0.825  10.922  0.5290 -0.2451  0.1592
    6TMC3     H14186   2.419   0.607  10.877 -0.1540 -1.8427 -0.1000
    6TMC3    H114187   2.736   0.785  10.667 -1.7266  0.7143 -1.8755
    6TMC3    H214188   2.660   0.354  10.635  1.9967 -0.9081  2.4461
    6TMC3    C714189   2.833   0.563  10.558 -0.3414 -0.4658 -0.6734
    6TMC3    C814190   2.440   0.372  10.791 -0.0572  1.0498  0.2012
    6TMC3    O114191   2.877   0.675  10.525  0.5821  0.5170  1.2710
    6TMC3    O214192   2.376   0.377  10.893 -0.7632  0.3039  0.5326
    7MPD2     C14193   3.752   0.419  10.571  0.7422 -0.3477 -0.8017
    7MPD2    C114194   3.653   0.506  10.615 -0.3410  0.7807 -0.2407
    7MPD2    C214195   3.563   0.462  10.711  0.2356  0.3506  0.0429
    7MPD2    C314196   3.558   0.328  10.752 -0.6340 -0.4748  0.5834
    7MPD2    C414197   3.657   0.248  10.699  0.0093  0.5762  0.6080
    7MPD2    C514198   3.752   0.290  10.617  0.3716  0.3509  0.3114
    7MPD2     H14199   3.482   0.531  10.732 -1.4622 -2.0425  1.2858
    7MPD2    H114200   3.651   0.141  10.709 -0.3429  0.4246 -1.2947
    7MPD2    H214201   3.820   0.455  10.494  0.4912  0.3740 -0.6858
    7MPD2    H314202   3.830   0.224  10.581 -0.3346 -1.0829  1.4071
    7MPD2     N14203   3.455   0.274  10.838 -0.6721  0.5723 -0.0118
    7MPD2    H514204   3.454   0.174  10.858 -0.4261  0.7190  0.7318
    7MPD2    N114205   3.630   0.631  10.537  0.5130 -0.1602 -0.4254
    7MPD2    H714206   3.691   0.650  10.458  2.2409 -0.1347  0.9244
    8TMC3    C114207   3.507   0.825  10.462  0.6770 -0.0283 -0.1513
    8TMC3    C214208   3.469   0.748  10.355 -0.2898 -1.0013  0.4907
    8TMC3    C314209   3.361   0.795  10.287  0.3824  0.6098  0.0386
    8TMC3    C414210   3.445   0.940  10.499 -0.4259  0.2382  0.1867
    8TMC3    C514211   3.339   0.978  10.431  0.2670  0.8795  0.4435
    8TMC3    C614212   3.292   0.911  10.320 -0.5700 -0.1053 -0.4368
    8TMC3     C14213   3.555   0.737  10.568  0.2413 -0.6922 -0.3518
    8TMC3     O14214   3.501   0.755  10.676 -0.4588 -0.5113 -0.0617
    8TMC3     H14215   3.526   0.663  10.319  2.3294  0.5875  0.9299
    8TMC3    H114216   3.470   0.979  10.597  0.7280  0.5988 -0.2627
    8TMC3    H214217   3.196   0.934  10.277 -2.4115 -0.1647  3.6766
    8TMC3    C714218   3.225   0.994  10.523  0.4028  1.0379 -0.8068
    8TMC3    C814219   3.255   0.692  10.273 -0.4805 -0.0105  0.3105
    8TMC3    O114220   3.125   1.059  10.492  0.0431  0.5943  0.1793
    8TMC3    O214221   3.139   0.718  10.256 -0.0909  0.1489 -0.4247
    9MPD2     C14222   3.282   0.351  10.419  0.5047  0.2932  0.3384
    9MPD2    C114223   3.230   0.480  10.403 -0.1593 -0.0285  0.3153
    9MPD2    C214224   3.105   0.499  10.442  0.8070 -0.4562 -0.2972
    9MPD2    C314225   3.037   0.409  10.524 -0.0783 -0.2498  0.2127
    9MPD2    C414226   3.100   0.287  10.555 -0.0548 -0.5937 -0.2640
    9MPD2    C514227   3.213   0.255  10.491  0.0248  0.5854  0.0415
    9MPD2     H14228   3.058   0.592  10.414  0.1805 -1.0733 -1.2646
    9MPD2    H114229   3.041   0.214  10.611  0.2321 -0.5510  0.0950
    9MPD2    H214230   3.381   0.324  10.386  1.3239  1.6573  1.6912
    9MPD2    H314231   3.251   0.156  10.511 -2.5758 -0.1537  1.3195
    9MPD2     N14232   2.899   0.440  10.564  0.1851  0.1911  0.1789
    9MPD2    H514233   2.859   0.363  10.617 -0.8631 -0.0039 -0.9006
    9MPD2    N114234   3.304   0.579  10.329  0.2192 -0.0402  0.0629
    9MPD2    H714235   3.402   0.553  10.320  0.0600  0.2279 -2.6668
    1MPD1     C14236   2.415   4.187  16.494  0.4010  0.7476 -0.3616
    1MPD1    C114237   2.312   4.179  16.578  0.1951  0.2536 -0.0528
    1MPD1    C214238   2.245   4.299  16.613  0.0353 -0.2705 -0.4316
    1MPD1    C314239   2.282   4.418  16.548 -0.3681 -0.6513  0.0030
    1MPD1    C414240   2.384   4.421  16.455  0.6399 -0.5945 -0.1291
    1MPD1    C514241   2.452   4.303  16.426  0.2270  0.5334 -0.3941
    1MPD1     H14242   2.159   4.300  16.679  0.3167 -1.9088 -0.0424
    1MPD1    H114243   2.425   4.515  16.421 -2.0741  0.7288  0.3241
    1MPD1    H214244   2.467   4.098  16.461  0.2594  0.1354  1.0320
    1MPD1    H314245   2.537   4.299  16.358  0.2257 -1.4013 -0.2749
    1MPD1     N14246   2.219   4.544  16.571 -0.2127 -0.1196 -0.1666
    1MPD1    H514247   2.245   4.607  16.496  0.1483  1.7171  1.4980
    1MPD1    N114248   2.264   4.055  16.624  0.5615  0.2838  0.3315
    1MPD1    H614249   2.334   3.983  16.636  0.5868  0.4442  1.1805
    1MPD1    H714250   2.212   4.071  16.711 -0.3378 -2.8383  0.3620
    2MPD1     C14251   2.244   0.426  16.015  0.6924  0.0333 -0.1649
    2MPD1    C114252   2.281   0.295  16.034  0.0770  0.8223  0.7882
    2MPD1    C214253   2.253   0.233  16.154 -0.2737  0.4314  0.3927
    2MPD1    C314254   2.183   0.298  16.251  0.2326  0.1234  0.1004
    2MPD1    C414255   2.141   0.435  16.232 -0.2509  0.5044  0.0757
    2MPD1    C514256   2.175   0.494  16.107  0.2155 -0.9001 -0.4675
    2MPD1     H14257   2.290   0.133  16.172  1.9364  0.5626 -3.5057
    2MPD1    H114258   2.113   0.497  16.316 -0.6451  1.1192 -0.5094
    2MPD1    H214259   2.280   0.481  15.928 -1.7311 -0.0338 -1.2087
    2MPD1    H314260   2.156   0.601  16.097  1.6915 -0.5219  0.7386
    2MPD1     N14261   2.149   0.232  16.372  0.3845 -0.2541  0.0634
    2MPD1    H514262   2.170   0.133  16.373  0.4836 -0.2304  0.5879
    2MPD1    N114263   2.368   0.235  15.942 -0.3181  0.7742  0.1013
    2MPD1    H614264   2.348   0.136  15.932  0.3800  0.5851  0.5909
    2MPD1    H714265   2.370   0.283  15.853 -0.6785  0.1778 -0.2303
    3TCq2    C114266   2.067   0.284  16.472  0.6864  0.7573  0.2342
    3TCq2    O214267   2.014   0.393  16.482  0.3211 -0.7339  0.0224
    3TCq2    C214268   2.036   0.187  16.575 -0.4532 -0.2179 -0.4452
    3TCq2    C314269   1.920   0.201  16.637  0.7417 -0.0663  0.9047
    3TCq2    C414270   1.882   0.102  16.730  0.2832  0.9037  0.0791
    3TCq2    C514271   1.970   4.716  16.750 -0.1982  0.3868  0.1840
    3TCq2    C614272   2.080   4.700  16.673 -0.0733  0.7701  0.0059
    3TCq2    C714273   2.122   0.079  16.586 -0.1054  0.1238 -0.4133
    3TCq2    C814274   2.136   4.567  16.675 -0.2164 -0.2419 -1.4226
    3TCq2    O414275   2.115   4.493  16.772 -0.6441  0.0152 -0.2834
    3TCq2    C914276   1.757   0.109  16.798  0.5718  0.1044  0.4609
    3TCq2    O514277   1.737   0.021  16.890  0.0888  0.1077  0.3946
    3TCq2    O614278   1.667   0.187  16.744 -0.3139 -0.1432 -0.2735
    3TCq2    H214279   1.856   0.288  16.624  0.5321  0.0535  2.7363
    3TCq2    H314280   1.952   4.645  16.830 -2.4744 -0.3751 -1.0055
    3TCq2    H414281   2.220   0.089  16.542 -0.4234  1.0062 -0.9354
    1TCq1    O114282   0.016   3.385  13.323 -0.6931  0.1776  0.1339
    1TCq1    C114283   0.122   3.446  13.362  0.4133  0.0335  0.0931
    1TCq1    O214284   0.146   3.566  13.369 -0.5475  0.5765  0.4557
    1TCq1    C214285   0.226   3.351  13.396 -0.6458 -0.2127  0.1798
    1TCq1    C314286   0.237   3.227  13.330  0.8568  0.7798  0.4175
    1TCq1    C414287   0.355   3.159  13.355 -0.1516  1.2439  0.4254
    1TCq1    C514288   0.455   3.197  13.438  0.3727 -0.1703  0.1437
    1TCq1    C614289   0.450   3.328  13.478 -0.2382 -0.2758  0.9528
    1TCq1    C714290   0.339   3.404  13.453  0.3152  0.2562 -0.0231
    1TCq1    C814291   0.567   3.405  13.512 -0.7682 -0.0161  0.6039
    1TCq1    O414292   0.570   3.516  13.562 -0.6761 -0.2045 -0.0774
    1TCq1    C914293   0.358   3.021  13.305  0.4051 -0.2737 -0.1040
    1TCq1    O514294   0.451   2.956  13.349 -0.0664  0.3862  0.3447
    1TCq1    O614295   0.293   2.995  13.200 -0.3525  0.4241  0.4249
    1TCq1    H114296   0.017   3.289  13.344 -3.0883  0.2772  0.7347
    1TCq1    H214297   0.156   3.194  13.266  1.0924 -0.3901  0.7399
    1TCq1    H314298   0.531   3.126  13.468 -0.5815 -1.1717  0.1761
    1TCq1    H414299   0.345   3.511  13.469 -0.4800  0.1691  0.8053
    2MPD2     C14300   0.868   3.467  13.548  0.1802  0.3457  0.1147
    2MPD2    C114301   0.811   3.353  13.491  0.7404  0.2326  0.3947
    2MPD2    C214302   0.898   3.262  13.449 -0.2653  0.2502  0.1606
    2MPD2    C314303   1.041   3.274  13.465  0.2332 -0.5268 -0.4730
    2MPD2    C414304   1.093   3.390  13.518 -0.2013  0.2567 -0.2292
    2MPD2    C514305   1.005   3.481  13.556  0.7042  0.5525  0.6855
    2MPD2     H14306   0.861   3.165  13.416  0.3756 -0.8109  2.5985
    2MPD2    H114307   1.199   3.410  13.532 -0.6137  0.2749  2.7534
    2MPD2    H214308   0.813   3.555  13.581 -2.5713 -1.6208  0.7184
    2MPD2    H314309   1.053   3.573  13.587  0.3628  1.2096 -0.7024
    2MPD2     N14310   1.118   3.176  13.409 -0.7636 -0.0034  0.6525
    2MPD2    H514311   1.072   3.112  13.345  1.5233  0.1241 -1.1001
    2MPD2    N114312   0.674   3.327  13.474  0.2344 -0.4994  0.0811
    2MPD2    H714313   0.662   3.238  13.428  1.3436 -1.8402  2.3853
    3TCq1    O114314   1.504   2.663  13.352 -0.7751 -0.1674  0.1060
    3TCq1    C114315   1.555   2.785  13.386 -0.2752  0.0695  0.4657
    3TCq1    O214316   1.593   2.817  13.496  0.7447 -0.0123  0.3078
    3TCq1    C214317   1.471   2.876  13.318 -0.2427 -0.6558 -0.2330
    3TCq1    C314318   1.408   2.844  13.203  0.1839  0.1030 -0.6761
    3TCq1    C414319   1.306   2.921  13.153  0.2011 -0.9747 -0.5009
    3TCq1    C514320   1.265   3.032  13.224 -0.1698 -0.2084  0.4541
    3TCq1    C614321   1.312   3.055  13.345 -0.2281 -0.5317  0.4084
    3TCq1    C714322   1.414   2.979  13.393  0.5578  0.6169  0.3319
    3TCq1    C814323   1.253   3.162  13.428 -0.0771 -0.3267 -0.5378
    3TCq1    O414324   1.320   3.218  13.515 -0.4299  0.9501 -0.5212
    3TCq1    C914325   1.249   2.889  13.024  0.2047  0.1383  0.0759
    3TCq1    O514326   1.161   2.966  12.972 -0.4790  0.5170  0.2265
    3TCq1    O614327   1.290   2.785  12.974 -0.2651 -0.2303 -0.1448
    3TCq1    H114328   1.454   2.662  13.268 -1.9010 -0.8082  0.7796
    3TCq1    H214329   1.440   2.762  13.140  0.8810 -0.1238 -0.0329
    3TCq1    H314330   1.181   3.086  13.182  0.6327  0.2354 -0.5572
    3TCq1    H414331   1.463   3.004  13.487  1.3661  0.1220  0.0404
    1MPD2     C14332   0.611   4.569  15.002  0.1851  1.0318 -0.5785
    1MPD2    C114333   0.652   4.453  15.066 -0.2975  0.1256 -0.0146
    1MPD2    C214334   0.789   4.425  15.057 -0.1188 -0.2699 -0.2620
    1MPD2    C314335   0.882   4.513  14.997  0.5329  0.3461 -0.4478
    1MPD2    C414336   0.828   4.629  14.941 -0.2984 -0.2200 -1.0059
    1MPD2    C514337   0.692   4.659  14.949 -0.1419  0.0771  0.2314
    1MPD2     H14338   0.837   4.338  15.102 -1.3967 -1.4778 -1.2283
    1MPD2    H114339   0.894   4.702  14.894 -0.6588  1.1750  0.6491
    1MPD2    H214340   0.510   4.603  15.026 -0.2655 -2.5855  2.5981
    1MPD2    H314341   0.659   0.033  14.903 -2.0735 -0.6375  0.2235
    1MPD2     N14342   1.016   4.468  14.991 -0.2567 -0.0737 -0.2256
    1MPD2    H514343   1.034   4.371  15.018 -0.3068 -0.1774 -0.5700
    1MPD2    N114344   0.555   4.373  15.125 -0.1997  0.3511 -0.1288
    1MPD2    H714345   0.462   4.413  15.128  0.2338  1.4799 -1.3933
    2TMC3    C114346   0.470   4.175  15.258 -0.7582  0.4538 -0.2857
    2TMC3    C214347   0.514   4.071  15.327 -0.0711 -0.6287  0.3365
    2TMC3    C314348   0.509   3.946  15.279 -0.1280 -0.7983 -0.4588
    2TMC3    C414349   0.374   4.151  15.169  0.2551 -0.6321 -0.3134
    2TMC3    C514350   0.354   4.024  15.129 -0.1008  0.2544 -0.0021
    2TMC3    C614351   0.422   3.912  15.180 -0.2635  0.2129 -0.0883
    2TMC3     C14352   0.579   4.257  15.205 -0.7319 -0.2304  0.3146
    2TMC3     O14353   0.690   4.217  15.248  0.4813 -0.0274  0.2566
    2TMC3     H14354   0.581   4.080  15.412  0.0863  2.7524 -0.1441
    2TMC3    H114355   0.350   4.223  15.092  2.2150  1.1716  0.7738
    2TMC3    H214356   0.404   3.808  15.155  1.1833  0.1353 -0.7930
    2TMC3    C714357   0.231   3.996  15.053  0.1136 -0.9575  0.9418
    2TMC3    C814358   0.631   3.864  15.288  0.2303 -0.1412  0.5961
    2TMC3    O114359   0.230   3.889  14.992 -0.6083  0.2127 -0.4662
    2TMC3    O214360   0.621   3.743  15.254 -0.2210 -0.3544  0.5903
    3TCq1    O114361   3.987   0.096  15.061 -0.4334 -0.0171  0.2526
    3TCq1    C114362   4.012   0.009  14.965  0.3335 -0.0616  0.2754
    3TCq1    O214363   3.937   4.686  14.876  0.1487 -0.2312 -0.4653
    3TCq1    C214364   4.150   4.685  14.973 -0.1561  0.1449  0.0973
    3TCq1    C314365   4.246   0.065  14.987  0.4440 -0.5809 -0.0307
    3TCq1    C414366   4.375   0.027  14.966 -0.0208 -0.1694 -0.2382
    3TCq1    C514367   4.409   4.625  14.921 -0.4505 -0.0513 -0.3667
    3TCq1    C614368   4.310   4.528  14.901 -0.6694 -0.7834 -0.8036
    3TCq1    C714369   4.179   4.555  14.933 -0.1065  0.3154 -0.0966
    3TCq1    C814370   4.346   4.385  14.886 -0.4282 -0.2702  0.2090
    3TCq1    O414371   4.271   4.301  14.832 -0.0736  0.0858  0.0260
    3TCq1    C914372   4.484   0.117  14.983  0.2304  0.0887  0.7979
    3TCq1    O514373   4.457   0.228  15.038  0.0872 -0.1580 -0.0472
    3TCq1    O614374   4.597   0.075  14.944 -0.1109 -0.4609  0.8132
    3TCq1    H114375   4.065   0.092  15.121 -1.0160  1.3541  1.0833
    3TCq1    H214376   4.227   0.165  15.025 -0.4421 -0.5612 -0.5081
    3TCq1    H314377   4.509   4.592  14.893  0.4420  0.9525  1.6837
    3TCq1    H414378   4.105   4.476  14.926 -0.1505  0.3157  0.3280
    4MPD2     C14379   4.524   4.149  14.803 -0.5972  0.8430 -0.3164
    4MPD2    C114380   4.555   4.245  14.899 -0.3516 -0.1132 -0.1083
    4MPD2    C214381   4.666   4.219  14.972 -0.3418 -0.2827  0.4474
    4MPD2    C314382   0.021   4.101  14.971  0.2071 -0.1059  0.7961
    4MPD2    C414383   4.699   4.000  14.887 -0.0626  0.3154  0.3494
    4MPD2    C514384   4.597   4.030  14.803  0.4521 -0.3284  0.0158
    4MPD2     H14385   4.697   4.295  15.043 -0.6926  0.2654  0.0121
    4MPD2    H114386   0.037   3.908  14.876  1.2654  1.5284 -2.9428
    4MPD2    H214387   4.436   4.149  14.739 -1.0137  0.1066  0.2601
    4MPD2    H314388   4.561   3.952  14.736 -3.1016  0.4015  1.0637
    4MPD2     N14389   0.142   4.102  15.041 -0.1659  0.1227 -0.0294
    4MPD2    H514390   0.142   4.172  15.115 -0.1479 -1.6383  1.6222
    4MPD2    N114391   4.476   4.355  14.934  0.7763 -0.2773 -0.1745
    4MPD2    H714392   4.524   4.420  14.996 -2.0798  0.7495  0.9982
    5TMC2    C114393   1.267   4.240  15.009 -0.1028 -0.0767 -0.3668
    5TMC2    C214394   1.358   4.278  15.103 -0.0375  0.5306 -0.8137
    5TMC2    C314395   1.401   4.408  15.092  0.4410 -0.2313 -0.3097
    5TMC2    C414396   1.212   4.329  14.917  0.6316  0.2627 -0.9259
    5TMC2    C514397   1.240   4.463  14.932  0.2574  0.6413  0.1062
    5TMC2    C614398   1.340   4.507  15.017  0.6151  0.8424 -0.6324
    5TMC2     C14399   1.162   4.158  15.071 -0.0918  0.0642 -0.0794
    5TMC2     O14400   1.051   4.168  15.019 -0.5655 -0.3518 -0.4559
    5TMC2     H14401   1.417   4.210  15.162  0.1577  1.0025 -0.4631
    5TMC2    H114402   1.132   4.308  14.847 -1.3528 -1.5256  1.8538
    5TMC2    H214403   1.379   4.608  15.017  1.3233  0.5679  1.1484
    5TMC2    C714404   1.115   4.540  14.937  0.5504 -0.2693 -0.1581
    5TMC2    C814405   1.484   4.449  15.201  0.2539 -0.6857  0.0613
    5TMC2    O114406   1.130   4.662  14.910  0.0801 -0.6604  0.0243
    5TMC2    O214407   1.474   4.412  15.321 -0.2143 -0.1267  0.1759
    5TMC2    O514408   1.590   4.514  15.146  0.6508  0.0984 -0.2516
    5TMC2    H514409   1.597   4.504  15.048  0.9657 -0.0278 -0.2149
    6MPD2     C14410   0.920   3.796  15.341 -0.2696  0.5696 -1.1312
    6MPD2    C114411   0.876   3.910  15.280  0.2675 -0.0285  0.1585
    6MPD2    C214412   0.965   3.993  15.219 -0.3044  0.8689  0.1660
    6MPD2    C314413   1.104   3.977  15.230 -0.4455  0.5205  0.9213
    6MPD2    C414414   1.152   3.869  15.304  0.1990  0.1483 -0.1956
    6MPD2    C514415   1.056   3.776  15.352 -0.5075 -0.2400  0.5399
    6MPD2     H14416   0.921   4.081  15.175 -1.9218  0.7192  1.5047
    6MPD2    H114417   1.258   3.851  15.311 -0.3059 -2.2337  1.2271
    6MPD2    H214418   0.848   3.737  15.397  1.2252  1.1178  1.3747
    6MPD2    H314419   1.097   3.694  15.411 -0.5630 -0.0706  0.8133
    6MPD2     N14420   1.196   4.067  15.168 -0.0781 -0.5221 -0.3842
    6MPD2    H514421   1.293   4.061  15.196 -0.1341  1.0045  0.1491
    6MPD2    N114422   0.738   3.948  15.284 -0.2510  0.5714  0.6426
    6MPD2    H714423   0.729   4.048  15.269 -3.3911  0.1966  0.1183
  945NH4     N114424   3.062   4.623   8.648 -0.1346 -0.1541 -0.2051
  945NH4     H214425   3.068   4.615   8.545 -0.2949  0.0628 -0.2307
  945NH4     H314426   2.965   4.613   8.686 -0.0236  0.4056  0.2267
  945NH4     H414427   3.101   4.714   8.681  0.3344 -0.2976 -0.3710
  945NH4     H514428   3.120   4.550   8.694 -0.9671  0.2579  1.5330
  946SOD     NA14429   3.635   2.489  10.455  0.1007 -0.1077 -0.0362
  947SOD     NA14430   4.666   4.329  14.205 -0.0663  0.3807  0.0724
  948SOD     NA14431   1.172   0.022  12.420 -0.7875 -0.2805  0.3065
  949SOD     NA14432   2.279   3.641  14.363  0.2096 -0.0769 -0.3515
  950SOD     NA14433   0.757   2.833  10.234 -0.0972 -0.0788 -0.1030
  951SOD     NA14434   2.265   3.719  14.687 -0.3332  0.3151  0.1121
  952SOD     NA14435   1.003   0.730   0.995  0.1226 -0.3898 -0.1608
  953SOD     NA14436   4.537   2.295   6.699  0.4800 -0.4774 -0.3330
  954SOD     NA14437   1.320   2.744  12.758 -0.3587  0.0161 -0.1218
  955SOD     NA14438   3.725   4.156  12.058  0.0448  0.1994 -0.1098
  956SOD     NA14439   3.972   3.456  11.650  0.3201  0.1076  0.3488
  957SOD     NA14440   0.097   4.001   3.793  0.0187  0.0130 -0.4809
  958SOD     NA14441   2.031   0.770  16.984 -0.0970 -0.3261  0.3991
  959SOD     NA14442   3.878   3.735   2.880  0.3285 -0.2283 -0.4551
  960SOD     NA14443   0.881   2.752  11.616 -0.4416 -0.1386 -0.3156
  961SOD     NA14444   1.177   1.854  17.369  0.2027 -0.4218  0.1576
  962SOD     NA14445   0.174   3.115  10.617 -0.0125  0.1560  0.1086
  963SOD     NA14446   1.219   3.978   2.001 -0.4811  0.0908  0.4047
  964SOD     NA14447   1.078   1.476   7.801 -0.3781 -0.3789  0.0851
  965SOD     NA14448   2.708   2.624   0.833 -0.2858  0.6066 -0.4958
  966SOD     NA14449   3.198   1.063  14.526 -0.1851 -0.3876 -0.2269
  967SOD     NA14450   3.095   2.662   8.951 -0.0852  0.0515 -0.2025
  968SOD     NA14451   3.607   0.310  11.364 -0.2231 -0.3294  0.5263
  969SOD     NA14452   3.886   4.422  12.159  0.1842  0.4472  0.1093
  970SOD     NA14453   2.811   2.651   3.663 -0.2899 -0.0743 -0.1706
  971SOD     NA14454   0.229   3.385  10.811 -0.3592 -0.3722  0.1722
  972SOD     NA14455   0.327   3.037  10.379  0.0038  0.1446  0.2494
  973SOD     NA14456   4.397   1.621   9.828 -0.1887 -0.1732  0.0299
  974SOD     NA14457   3.227   2.462  13.046 -0.0713 -0.0646 -0.0655
  975SOD     NA14458   1.473   1.189  17.575 -0.0857  0.1908 -0.3535
  976SOD     NA14459   3.313   1.997  16.337  0.2198  0.3034 -0.2439
  977SOD     NA14460   1.090   2.544  12.189 -0.0549 -0.4146  0.0107
  978SOD     NA14461   4.675   3.177  16.934 -0.1448  0.4219  0.3099
  979SOD     NA14462   1.600   1.087  10.453 -0.2086  0.1790  0.1231
  980SOD     NA14463   1.826   3.274  14.092 -0.0514 -0.0480  0.1845
  981SOD     NA14464   1.325   2.543  11.910 -0.0681  0.0549  0.2590
  982SOD     NA14465   4.704   1.547  10.798 -0.4219  0.1939 -0.1537
  983SOD     NA14466   1.408   4.476   9.812 -0.1712 -0.2982  0.0670
  984SOD     NA14467   1.732   2.286  16.635  0.6589 -0.2869 -0.0125
  985SOD     NA14468   4.394   1.142   1.364  0.3347 -0.0513 -0.2973
  986SOD     NA14469   1.104   0.436  14.427  0.2990 -0.2033 -0.0598
  987SOD     NA14470   1.521   0.211  16.605  0.1365  0.2227  0.4829
  988SOD     NA14471   1.950   4.115   0.840 -0.2100  0.1316  0.2199
  989SOD     NA14472   0.859   0.701   5.250  0.0270  0.3188 -0.3193
  990SOD     NA14473   2.181   1.501   0.719 -0.0087  0.2453 -0.1071
  991SOD     NA14474   3.180   0.471  13.852  0.0131  0.1271  0.0358
  992SOD     NA14475   3.641   2.761  15.212  0.2371 -0.1856 -0.1727
  993SOD     NA14476   3.599   1.763  12.950 -0.1508 -0.5214 -0.2331
  994SOD     NA14477   3.858   2.672  14.058  0.7940  0.4243 -0.6193
  995SOD     NA14478   1.087   0.087  15.475 -0.0026  0.2679 -0.1605
  996SOD     NA14479   2.669   2.689  12.437 -0.7260  0.2990  0.2327
  997SOD     NA14480   2.477   1.740   1.768 -0.6692 -0.6480 -0.2893
  998SOD     NA14481   3.735   2.225   3.318 -0.4573 -0.1046 -0.1010
  999SOD     NA14482   4.630   0.853  11.998  0.1181 -0.4218 -0.0822
 1000SOD     NA14483   1.923   0.240  11.421 -0.3530  0.0894  0.2132
 1001SOD     NA14484   4.670   0.403  14.729 -0.0894 -0.3201 -0.1290
 1002SOD     NA14485   1.326   0.013   2.621 -0.3856 -0.0573 -0.0265
 1003SOD     NA14486   3.879   4.193   7.044  0.0014 -0.2711 -0.0275
 1004SOD     NA14487   1.391   3.715  14.026 -0.1071 -0.3821  0.0326
 1005SOD     NA14488   3.364   2.039   6.203  0.0041  0.2904  0.0214
 1006SOD     NA14489   1.729   2.988  13.987  0.1315  0.3739 -0.2092
 1007SOD     NA14490   3.611   0.591   2.821  0.1482  0.4119  0.3930
 1008SOD     NA14491   2.663   2.781   1.098  0.8300 -0.2805 -0.3692
 1009SOD     NA14492   3.254   4.060   8.634 -0.4923  0.2610  0.0468
 1010SOD     NA14493   0.963   3.525  11.683  0.0846 -0.1496  0.1244
 1011SOL     OW14494   4.291   2.882   2.545  0.6474  0.2301  0.2688
 1011SOL    HW114495   4.291   2.817   2.474 -0.5612  0.3326  0.1731
 1011SOL    HW214496   4.200   2.910   2.547  0.3520 -0.8788  1.9811
 1012SOL     OW14497   2.551   3.951   6.506  0.3206  0.2235  0.0312
 1012SOL    HW114498   2.504   3.881   6.460 -0.6242  0.9824 -0.1589
 1012SOL    HW214499   2.635   3.907   6.513 -0.6077 -1.3175  1.3530
 1013SOL     OW14500   2.554   2.067   7.224  0.0019  0.3444 -0.3657
 1013SOL    HW114501   2.638   2.112   7.233 -0.6116  1.6572 -1.0453
 1013SOL    HW214502   2.559   1.990   7.281  2.2549  1.1457  0.5288
 1014SOL     OW14503   2.045   1.603  16.071 -0.5141 -0.4940 -0.0465
 1014SOL    HW114504   2.120   1.644  16.029  0.2605 -1.9276 -0.0568
 1014SOL    HW214505   1.979   1.631  16.007 -0.7724  0.7363  0.7421
 1015SOL     OW14506   2.129   3.853   6.691  0.7820  0.2193  0.1563
 1015SOL    HW114507   2.190   3.780   6.703  0.5770  0.3752  2.1031
 1015SOL    HW214508   2.076   3.843   6.612 -0.3273 -1.7146  1.1595
 1016SOL     OW14509   4.417   4.504   7.293 -0.0298 -0.3461  0.2919
 1016SOL    HW114510   4.328   4.506   7.328 -0.1283 -3.3619  0.2218
 1016SOL    HW214511   4.416   4.600   7.292  0.5568 -0.3625 -0.9220
 1017SOL     OW14512   0.089   2.427   5.023 -0.2138  0.9451  0.5082
 1017SOL    HW114513   0.140   2.442   5.102 -2.8785 -1.3491  2.6384
 1017SOL    HW214514   0.121   2.338   5.007 -1.3817  0.6464 -0.1899
 1018SOL     OW14515   0.222   2.077  11.029  0.7534  0.4608 -0.1417
 1018SOL    HW114516   0.195   2.048  11.117 -0.8017 -0.2803 -0.8492
 1018SOL    HW214517   0.228   1.993  10.984 -1.4617  0.2786 -0.1123
 1019SOL     OW14518   4.566   4.037   8.591 -0.0718 -0.1347 -0.1884
 1019SOL    HW114519   4.536   4.090   8.665  1.4017  1.1630 -0.5256
 1019SOL    HW214520   4.528   3.952   8.615  0.4407 -0.8627 -1.9584
 1020SOL     OW14521   1.435   1.634   8.336 -0.1958  0.3917  0.3815
 1020SOL    HW114522   1.347   1.594   8.339 -0.2956  0.5965  0.1689
 1020SOL    HW214523   1.482   1.606   8.414 -2.2947 -1.4207  1.0215
 1021SOL     OW14524   1.047   1.810  15.877 -0.2616  0.2673 -0.2902
 1021SOL    HW114525   1.028   1.848  15.791 -1.8448 -1.8193 -0.8660
 1021SOL    HW214526   0.986   1.737  15.865  1.7995 -1.6584  0.8604
 1022SOL     OW14527   3.825   3.714   5.279 -0.0322 -0.0772 -0.3026
 1022SOL    HW114528   3.788   3.628   5.300 -1.8191  0.7198 -0.1738
 1022SOL    HW214529   3.909   3.704   5.325 -1.0349  0.4845  1.6719
 1023SOL     OW14530   0.276   3.668   7.974 -0.0455  0.3772  0.4089
 1023SOL    HW114531   0.351   3.726   7.971 -2.1079  2.9846 -0.2845
 1023SOL    HW214532   0.272   3.624   8.060 -0.5021 -0.8263 -0.2203
 1024SOL     OW14533   0.849   4.538   9.104 -0.2043  1.1615  0.7714
 1024SOL    HW114534   0.797   4.605   9.148 -1.3593  1.0730 -0.4542
 1024SOL    HW214535   0.895   4.499   9.178 -0.4890 -2.4589 -0.9644
 1025SOL     OW14536   0.769   3.326   8.834 -0.6065 -0.0768  0.0693
 1025SOL    HW114537   0.854   3.370   8.833 -0.9360  0.5278 -1.0222
 1025SOL    HW214538   0.710   3.397   8.809  1.4095  1.8632  0.8329
 1026SOL     OW14539   4.192   1.635   0.647  0.3578  0.2341 -0.0810
 1026SOL    HW114540   4.100   1.653   0.625  0.3008  0.1175  0.0647
 1026SOL    HW214541   4.193   1.593   0.733 -0.7521 -1.2898 -0.8190
 1027SOL     OW14542   3.826   3.684   8.471 -0.5677 -0.1078 -0.1273
 1027SOL    HW114543   3.881   3.674   8.548 -1.5691 -2.0390  0.3243
 1027SOL    HW214544   3.738   3.679   8.509 -0.4228  0.5600  0.2886
 1028SOL     OW14545   4.429   1.870  10.043 -0.3485  0.3718  0.5060
 1028SOL    HW114546   4.518   1.891  10.013 -0.6641 -0.3453 -0.9220
 1028SOL    HW214547   4.452   1.839  10.130  0.3079  0.5890  0.4100
 1029SOL     OW14548   2.114   2.057   6.155  0.1353 -0.2056  0.2681
 1029SOL    HW114549   2.080   2.135   6.199 -1.7242 -0.4036 -0.7886
 1029SOL    HW214550   2.028   2.025   6.126 -0.6039 -0.6246  2.8868
 1030SOL     OW14551   4.103   0.533   9.169  0.0501 -0.1517 -0.4508
 1030SOL    HW114552   4.051   0.453   9.163 -0.3762  0.1070 -0.2015
 1030SOL    HW214553   4.058   0.579   9.239 -0.7740  0.2637 -1.2483
 1031SOL     OW14554   2.020   2.905   5.325 -0.0948  0.4973 -0.1179
 1031SOL    HW114555   2.042   2.896   5.232 -2.5105  0.5912 -0.7229
 1031SOL    HW214556   2.078   2.848   5.374 -1.2920  0.6234  1.4497
 1032SOL     OW14557   3.563   3.962   3.197  0.3364  0.2173 -0.0889
 1032SOL    HW114558   3.473   3.992   3.184 -0.1488 -0.6869  1.2302
 1032SOL    HW214559   3.546   3.876   3.236 -0.1846  0.2690 -0.1993
 1033SOL     OW14560   4.305   4.071  17.476 -0.2142  0.1676 -0.1115
 1033SOL    HW114561   4.258   4.027  17.547  1.1723 -2.2979 -0.7594
 1033SOL    HW214562   4.305   4.008  17.405  2.4895  1.8132 -1.5696
 1034SOL     OW14563   3.509   1.617   6.944 -0.0432 -0.0735  0.7409
 1034SOL    HW114564   3.537   1.628   7.035  0.5250  2.2302  0.3020
 1034SOL    HW214565   3.485   1.525   6.952  0.5761 -0.3849 -0.9860
 1035SOL     OW14566   0.040   0.234   9.242  0.0287 -0.0764  0.0161
 1035SOL    HW114567   4.700   0.233   9.318 -1.7599  1.0894 -1.3258
 1035SOL    HW214568   4.707   0.299   9.193  0.3964  0.2725  0.1008
 1036SOL     OW14569   1.708   4.334  13.355 -0.4504  0.2679  0.4929
 1036SOL    HW114570   1.731   4.251  13.313 -0.4759  0.1402  0.7297
 1036SOL    HW214571   1.678   4.303  13.440  0.8359 -0.6615  0.6169
 1037SOL     OW14572   3.797   1.972   0.661 -0.0046 -0.2561  0.3439
 1037SOL    HW114573   3.711   1.988   0.700  0.8831  1.8218  1.4144
 1037SOL    HW214574   3.769   1.923   0.584 -4.0296  0.3897  1.4301
 1038SOL     OW14575   0.413   1.723   5.061  0.0109 -0.7923  0.6850
 1038SOL    HW114576   0.383   1.796   5.007  0.8404 -1.6192 -0.8859
 1038SOL    HW214577   0.502   1.751   5.084  0.3104 -2.0813  1.1340
 1039SOL     OW14578   2.456   2.280  15.127 -0.8844  0.0916 -0.4966
 1039SOL    HW114579   2.495   2.296  15.213 -0.1463  0.9232 -0.9856
 1039SOL    HW214580   2.389   2.348  15.117 -0.3456  0.6318 -0.4225
 1040SOL     OW14581   3.205   2.823   9.335 -0.5571  0.0178 -0.2041
 1040SOL    HW114582   3.228   2.732   9.349 -0.9212  0.1233  1.1021
 1040SOL    HW214583   3.209   2.855   9.425  2.2980 -1.1463  0.0779
 1041SOL     OW14584   1.633   0.557  16.505  0.6482  0.3847  0.6624
 1041SOL    HW114585   1.623   0.463  16.489 -0.2048  0.7714 -1.0397
 1041SOL    HW214586   1.706   0.581  16.448  2.2509 -1.5496  1.8871
 1042SOL     OW14587   3.719   3.491   3.597 -0.1876  0.3296  0.2865
 1042SOL    HW114588   3.718   3.463   3.505  0.8488  2.8142 -0.4531
 1042SOL    HW214589   3.710   3.585   3.585 -0.8675  0.2552  0.2086
 1043SOL     OW14590   0.523   3.872   4.733 -0.0417 -0.0877 -0.1764
 1043SOL    HW114591   0.524   3.894   4.640  1.8387 -1.0480 -0.3731
 1043SOL    HW214592   0.429   3.859   4.747  0.0017 -1.4384 -1.1233
 1044SOL     OW14593   0.480   1.107  11.431  0.3419  0.4877 -0.5200
 1044SOL    HW114594   0.506   1.195  11.405 -0.8329  0.8510 -0.4476
 1044SOL    HW214595   0.401   1.131  11.480  1.3548 -2.2778  2.4864
 1045SOL     OW14596   2.949   2.743  14.449  0.2126 -0.2947 -0.1086
 1045SOL    HW114597   3.006   2.818  14.432  0.1428  0.0443  1.1512
 1045SOL    HW214598   2.878   2.750  14.385  0.9694 -3.6160 -1.2927
 1046SOL     OW14599   3.315   2.768   3.456 -0.5428  0.1767  0.5271
 1046SOL    HW114600   3.295   2.760   3.362  2.1659  0.7124 -0.0824
 1046SOL    HW214601   3.396   2.718   3.462 -0.5545  0.1602  0.5456
 1047SOL     OW14602   3.890   1.770   2.404  0.3837 -0.2516 -0.1649
 1047SOL    HW114603   3.839   1.811   2.335 -2.3490 -2.5383  0.4722
 1047SOL    HW214604   3.977   1.763   2.366  1.0743  2.0322  1.0344
 1048SOL     OW14605   0.714   4.038  16.066 -0.5112  0.2694 -0.2552
 1048SOL    HW114606   0.724   3.944  16.050 -1.4267 -0.0893  1.2844
 1048SOL    HW214607   0.645   4.069  16.008  1.9563  3.5610 -1.4698
 1049SOL     OW14608   4.479   3.319   7.109  0.3435  0.5576 -0.5468
 1049SOL    HW114609   4.467   3.397   7.055 -2.8185  0.0320 -0.5964
 1049SOL    HW214610   4.567   3.287   7.091 -0.1662 -0.3840 -1.3203
 1050SOL     OW14611   2.141   3.698  17.196 -0.9947  0.2737  0.1172
 1050SOL    HW114612   2.186   3.714  17.113  0.7594  2.3906  1.4595
 1050SOL    HW214613   2.132   3.603  17.190 -0.0415  0.2382 -0.7577
 1051SOL     OW14614   4.114   4.311   5.340 -0.1904 -0.7714 -0.0402
 1051SOL    HW114615   4.030   4.348   5.313  0.0420  0.4830  0.9034
 1051SOL    HW214616   4.140   4.386   5.394 -0.2909 -0.0874 -0.9414
 1052SOL     OW14617   3.929   0.636   3.150 -0.2974 -0.0866 -0.3368
 1052SOL    HW114618   3.979   0.670   3.224 -0.0120 -1.4507  0.0993
 1052SOL    HW214619   3.893   0.717   3.113  2.2542  0.6437 -1.1608
 1053SOL     OW14620   1.992   0.765  14.801  0.3925 -0.3592  0.0729
 1053SOL    HW114621   1.910   0.720  14.781  0.4899 -0.1456 -0.7846
 1053SOL    HW214622   2.051   0.750  14.727  1.4533 -0.7411  0.9857
 1054SOL     OW14623   1.960   0.550  14.142 -0.0814 -0.6901  0.0145
 1054SOL    HW114624   2.050   0.571  14.118  0.0500 -1.5590 -0.2291
 1054SOL    HW214625   1.931   0.506  14.062 -1.8738  0.8995 -0.2033
 1055SOL     OW14626   0.860   0.447   3.531  0.6229  0.1348 -0.4338
 1055SOL    HW114627   0.871   0.456   3.436 -0.1045 -0.3948 -0.5653
 1055SOL    HW214628   0.783   0.503   3.538 -1.0883 -2.0880 -1.2711
 1056SOL     OW14629   3.192   0.140   8.773  0.0609 -0.1691 -0.2906
 1056SOL    HW114630   3.190   0.138   8.869 -0.6086  1.8228 -0.2642
 1056SOL    HW214631   3.196   0.232   8.750 -0.4095  0.3192  1.6323
 1057SOL     OW14632   3.756   0.416   2.475 -0.1005  0.0014  0.1001
 1057SOL    HW114633   3.674   0.369   2.491 -1.2493  1.3984 -1.7716
 1057SOL    HW214634   3.815   0.357   2.427 -0.5874  1.0420 -1.7629
 1058SOL     OW14635   2.171   4.505   4.782 -0.0982  0.2372  0.0328
 1058SOL    HW114636   2.138   4.489   4.693 -0.2725  0.0019  0.1398
 1058SOL    HW214637   2.161   4.419   4.823  1.2053  0.0146 -0.1159
 1059SOL     OW14638   1.172   3.099   4.953 -0.2422  0.1809  0.1243
 1059SOL    HW114639   1.146   3.179   4.908 -1.5133 -0.5660 -0.4676
 1059SOL    HW214640   1.267   3.108   4.952 -0.4029  1.9514  0.5687
 1060SOL     OW14641   4.411   1.533  16.019  0.4046 -0.1871 -0.7409
 1060SOL    HW114642   4.433   1.442  16.041  0.7364  0.2498  0.7089
 1060SOL    HW214643   4.449   1.545  15.932  1.8946 -0.5409 -0.1420
 1061SOL     OW14644   3.005   1.749   2.810  0.2120  0.4261  0.2967
 1061SOL    HW114645   2.961   1.716   2.731  2.2985  0.9033 -1.0707
 1061SOL    HW214646   3.084   1.781   2.766  0.7413 -0.3372  0.6763
 1062SOL     OW14647   2.203   1.687  13.079  0.5279  0.2716  0.2565
 1062SOL    HW114648   2.220   1.776  13.110 -2.3449  0.0596  2.4798
 1062SOL    HW214649   2.277   1.646  13.124 -0.4994 -0.6811  1.0787
 1063SOL     OW14650   2.880   2.690  14.743  0.5337  0.1961 -0.2825
 1063SOL    HW114651   2.889   2.785  14.736 -0.2452  0.2387 -0.6611
 1063SOL    HW214652   2.888   2.675  14.649  0.5332  2.1439 -0.5945
 1064SOL     OW14653   0.779   4.062   5.160  0.0294  0.1028 -0.3965
 1064SOL    HW114654   0.752   3.974   5.184 -0.5079  0.0157 -1.3327
 1064SOL    HW214655   0.750   4.062   5.069  0.9162 -1.2740 -0.6660
 1065SOL     OW14656   3.356   1.078  15.078  0.5418  0.1524 -0.6959
 1065SOL    HW114657   3.261   1.083  15.063  0.2217  0.1307  1.3139
 1065SOL    HW214658   3.359   1.013  15.148  0.9132 -0.8582 -1.6459
 1066SOL     OW14659   1.812   3.324   4.425  0.1844  1.0142 -0.6546
 1066SOL    HW114660   1.763   3.313   4.344  3.0709  0.2852 -2.3114
 1066SOL    HW214661   1.753   3.393   4.456 -0.4696 -1.3108  3.2515
 1067SOL     OW14662   2.611   2.158   3.732  0.0665 -0.5749 -0.0782
 1067SOL    HW114663   2.568   2.228   3.780  0.8300  0.8253 -1.4518
 1067SOL    HW214664   2.531   2.140   3.682  0.5871  0.5249 -1.3223
 1068SOL     OW14665   4.205   2.529  13.973  0.0220  0.3514 -0.4088
 1068SOL    HW114666   4.286   2.492  13.940 -0.4722 -0.2768 -0.9039
 1068SOL    HW214667   4.217   2.510  14.066  0.3343 -0.6014 -0.6513
 1069SOL     OW14668   0.534   3.935   6.290  0.0217 -0.7670 -0.3360
 1069SOL    HW114669   0.504   3.990   6.218 -0.5141 -0.0159  0.4539
 1069SOL    HW214670   0.623   3.907   6.268  0.7191  0.7164  0.5488
 1070SOL     OW14671   2.993   2.153   7.195  0.1930  0.8454  0.2635
 1070SOL    HW114672   2.992   2.146   7.100  5.7333  1.7373  0.1239
 1070SOL    HW214673   2.913   2.107   7.218 -0.7792  2.1176 -0.5552
 1071SOL     OW14674   1.826   1.469   6.188  0.1700  0.0563 -0.0182
 1071SOL    HW114675   1.768   1.545   6.187 -1.0832 -0.9248 -1.3785
 1071SOL    HW214676   1.762   1.398   6.177  0.4522 -0.5677  2.3577
 1072SOL     OW14677   1.701   3.792  14.413 -0.1114  0.3639  0.4522
 1072SOL    HW114678   1.672   3.879  14.387 -0.0233  0.4661  0.6972
 1072SOL    HW214679   1.702   3.818  14.505 -2.9095  2.2205 -0.0404
 1073SOL     OW14680   1.631   2.171   6.046  0.1707  0.1076  0.1681
 1073SOL    HW114681   1.635   2.226   6.124  0.5681 -1.2361  1.1084
 1073SOL    HW214682   1.673   2.225   5.980  1.7759 -1.7788 -0.3675
 1074SOL     OW14683   0.193   2.804  16.801  0.5528 -0.2598  0.4499
 1074SOL    HW114684   0.213   2.742  16.731 -2.1698 -1.3307  0.5890
 1074SOL    HW214685   0.276   2.851  16.810 -0.4843  1.1577  2.5715
 1075SOL     OW14686   1.756   1.311  12.174  0.1006  0.0646 -0.2220
 1075SOL    HW114687   1.674   1.264  12.193 -0.7062  1.1541 -0.9744
 1075SOL    HW214688   1.790   1.253  12.105 -0.4700  1.3825 -1.6157
 1076SOL     OW14689   3.829   0.511  15.553  0.4063  0.4873 -0.1386
 1076SOL    HW114690   3.881   0.488  15.630  1.3645  1.1214 -0.5905
 1076SOL    HW214691   3.777   0.587  15.579 -0.6287 -0.5637  0.9054
 1077SOL     OW14692   0.950   2.669  10.541  0.2290 -0.1046  0.0725
 1077SOL    HW114693   0.996   2.676  10.624  1.9943 -1.0812 -0.8150
 1077SOL    HW214694   0.949   2.758  10.504  1.7341  0.4468  1.3666
 1078SOL     OW14695   3.380   1.207   9.716  0.9392  0.0506 -0.9615
 1078SOL    HW114696   3.309   1.185   9.775 -0.1847  0.3635 -2.2026
 1078SOL    HW214697   3.451   1.244   9.769 -1.1144  0.9403  1.1714
 1079SOL     OW14698   2.162   3.746  16.389 -0.4468  0.2835 -0.3964
 1079SOL    HW114699   2.244   3.783  16.356 -0.4173 -0.4463 -1.1111
 1079SOL    HW214700   2.128   3.704  16.310  1.0017  0.7035 -1.2462
 1080SOL     OW14701   1.244   0.734  13.356 -0.1297 -0.0895 -0.2201
 1080SOL    HW114702   1.246   0.713  13.263  0.3166  0.1500 -0.2629
 1080SOL    HW214703   1.292   0.816  13.348  0.3039 -0.2211  0.9184
 1081SOL     OW14704   1.996   3.074   2.648  0.0462  0.1548 -0.1366
 1081SOL    HW114705   1.947   3.152   2.624 -0.7470  0.3253  1.9721
 1081SOL    HW214706   1.990   3.015   2.573 -0.5361 -0.8295  0.6663
 1082SOL     OW14707   2.449   0.075  12.873  0.0637  0.0079  0.0979
 1082SOL    HW114708   2.533   0.112  12.898 -0.2570  0.2098  0.8593
 1082SOL    HW214709   2.450   0.111  12.784  0.8897  0.6076  0.3522
 1083SOL     OW14710   2.366   4.216   4.535 -0.2316  0.4022 -0.3247
 1083SOL    HW114711   2.301   4.173   4.590 -1.0229  2.0507  0.0175
 1083SOL    HW214712   2.442   4.169   4.571 -1.4364 -1.0752  0.2885
 1084SOL     OW14713   0.210   3.887   0.530 -0.1778 -0.3529 -0.0373
 1084SOL    HW114714   0.207   3.888   0.626  1.5878 -0.4268  0.0239
 1084SOL    HW214715   0.258   3.968   0.513  1.5229 -1.3470 -0.0021
 1085SOL     OW14716   2.425   3.146   8.936  0.2061 -0.5014  0.5746
 1085SOL    HW114717   2.414   3.070   8.879  1.2131  0.5015 -0.9727
 1085SOL    HW214718   2.465   3.098   9.008 -2.5264 -1.0579  1.7144
 1086SOL     OW14719   3.629   1.990   1.957  0.3986  0.2707 -0.2826
 1086SOL    HW114720   3.693   1.920   1.943 -0.0766 -0.1585 -0.3060
 1086SOL    HW214721   3.561   1.955   1.900 -1.4874 -0.7211  2.5879
 1087SOL     OW14722   2.946   3.484   1.234 -0.1075  0.3384  0.0094
 1087SOL    HW114723   2.874   3.525   1.185  0.9663 -0.7244 -2.4834
 1087SOL    HW214724   3.017   3.546   1.218 -0.7290  0.7653 -1.1149
 1088SOL     OW14725   3.335   2.243   8.089  0.2490 -0.2653 -0.6285
 1088SOL    HW114726   3.413   2.197   8.122  0.2543  1.1397  1.3427
 1088SOL    HW214727   3.293   2.274   8.170  4.4392 -0.2843  1.5466
 1089SOL     OW14728   2.132   1.291   5.256 -0.4456  0.3022 -0.0818
 1089SOL    HW114729   2.050   1.321   5.215 -0.4271 -0.3801 -0.6122
 1089SOL    HW214730   2.194   1.326   5.192 -2.9349  1.8194 -1.6796
 1090SOL     OW14731   0.206   1.450  12.466 -0.4052  0.1460 -0.0687
 1090SOL    HW114732   0.131   1.465  12.408 -0.6832  0.0199  0.2593
 1090SOL    HW214733   0.240   1.368  12.429  0.4491  0.5355 -0.1497
 1091SOL     OW14734   0.730   2.688   4.482  0.2089  0.3985 -0.6344
 1091SOL    HW114735   0.731   2.770   4.433 -0.7770  0.8638  0.1544
 1091SOL    HW214736   0.806   2.650   4.436  1.1798  1.1427  0.3406
 1092SOL     OW14737   0.811   2.171   9.298 -0.1548  0.2450 -0.3727
 1092SOL    HW114738   0.766   2.108   9.241  2.4726 -1.1469 -0.9315
 1092SOL    HW214739   0.868   2.217   9.236 -0.1792 -0.1791 -0.7127
 1093SOL     OW14740   1.572   3.673   5.687 -0.1287 -0.1963 -0.1514
 1093SOL    HW114741   1.588   3.659   5.594  0.6810 -1.9476  0.2648
 1093SOL    HW214742   1.484   3.638   5.703 -1.7006  3.8081 -0.0226
 1094SOL     OW14743   1.712   0.516   7.504  0.0851 -0.2788  0.2208
 1094SOL    HW114744   1.801   0.499   7.537  0.0376  1.3523  1.1750
 1094SOL    HW214745   1.671   0.431   7.519  0.1876 -0.8716 -2.7387
 1095SOL     OW14746   3.158   0.069  12.117 -0.1901 -0.1446  0.0780
 1095SOL    HW114747   3.154   0.131  12.190 -1.3363 -0.3894  0.2352
 1095SOL    HW214748   3.077   0.098  12.075 -0.8013 -1.1351  0.5527
 1096SOL     OW14749   1.376   1.109   2.324  0.0740  0.9448 -0.1023
 1096SOL    HW114750   1.400   1.050   2.396 -1.4045  1.4430  0.8140
 1096SOL    HW214751   1.447   1.101   2.261 -0.2638 -1.3751 -0.1761
 1097SOL     OW14752   1.065   4.093   7.739 -0.4457  0.1106 -0.3154
 1097SOL    HW114753   1.063   4.073   7.645  2.5022 -0.1507 -0.3446
 1097SOL    HW214754   1.159   4.095   7.757 -0.3719  0.3899 -0.7284
 1098SOL     OW14755   4.490   1.498  11.096 -0.0126 -0.5178 -0.4482
 1098SOL    HW114756   4.425   1.499  11.025 -2.0968  3.1644  1.4966
 1098SOL    HW214757   4.561   1.549  11.057  1.2318 -0.8857  1.3600
 1099SOL     OW14758   2.866   0.627   4.661  0.1145  0.2661  0.0231
 1099SOL    HW114759   2.930   0.672   4.604  0.8026 -0.6706  0.0468
 1099SOL    HW214760   2.834   0.702   4.711  0.7576 -0.4329  1.4836
 1100SOL     OW14761   4.417   2.139   3.529  0.1353  0.1565  0.2025
 1100SOL    HW114762   4.326   2.123   3.503 -0.1893  1.9495  0.2601
 1100SOL    HW214763   4.406   2.202   3.600 -0.9331  1.1507 -0.8500
 1101SOL     OW14764   3.578   0.295   4.748  0.0149  0.1846  0.3090
 1101SOL    HW114765   3.488   0.302   4.779 -0.7681 -0.3396 -1.8391
 1101SOL    HW214766   3.593   0.389   4.742  3.2474 -0.3616 -0.4638
 1102SOL     OW14767   1.943   3.186   3.897  0.7856  0.3921  0.0453
 1102SOL    HW114768   1.985   3.146   3.973 -0.9566 -2.0334 -0.2755
 1102SOL    HW214769   1.908   3.265   3.938  2.0996  0.1501  1.6574
 1103SOL     OW14770   1.101   3.601   9.089  0.4127  0.4043 -0.5624
 1103SOL    HW114771   1.128   3.559   9.171 -2.7783  1.1490  0.8526
 1103SOL    HW214772   1.056   3.674   9.131  1.7636  0.3224  1.0622
 1104SOL     OW14773   1.235   1.462   5.295 -0.5052 -0.1757  0.8839
 1104SOL    HW114774   1.270   1.375   5.275 -0.4881 -0.1291  0.7075
 1104SOL    HW214775   1.212   1.499   5.209 -0.4665 -1.8500  0.1523
 1105SOL     OW14776   2.740   4.481  14.206 -0.2061 -0.4093 -0.1812
 1105SOL    HW114777   2.676   4.412  14.226  0.4255 -0.8687  0.2525
 1105SOL    HW214778   2.785   4.434  14.136  0.1848  0.3230 -0.4128
 1106SOL     OW14779   3.420   2.127  17.349  0.3397  0.7725 -0.0038
 1106SOL    HW114780   3.463   2.138  17.264 -1.0604 -0.7007 -0.9104
 1106SOL    HW214781   3.490   2.116  17.413  1.1869 -2.4033 -1.4557
 1107SOL     OW14782   1.725   0.994   7.708 -0.1294 -0.3366 -0.6332
 1107SOL    HW114783   1.672   1.032   7.777 -3.2445 -0.8694 -2.7202
 1107SOL    HW214784   1.683   0.908   7.696  1.7169 -1.2708 -0.3720
 1108SOL     OW14785   3.016   1.964   5.676 -0.4857 -0.0585  0.3361
 1108SOL    HW114786   2.930   1.957   5.635 -0.8586 -4.5540  1.8396
 1108SOL    HW214787   3.068   1.942   5.598 -0.9884  0.2505 -0.0829
 1109SOL     OW14788   3.294   2.867   7.317  0.0625  0.1679  0.0759
 1109SOL    HW114789   3.285   2.777   7.348  2.8385  0.3709  1.4128
 1109SOL    HW214790   3.389   2.872   7.317  0.1680 -1.9939 -0.7875
 1110SOL     OW14791   1.236   4.058  12.972 -0.0066 -0.4873 -0.2145
 1110SOL    HW114792   1.172   4.116  12.930  1.4367 -0.2235 -2.0269
 1110SOL    HW214793   1.291   4.110  13.031 -0.5319 -0.3536  0.1523
 1111SOL     OW14794   0.115   2.933  16.505  0.6308 -0.1023 -0.5916
 1111SOL    HW114795   0.058   2.866  16.467  0.4679  0.2650 -0.9979
 1111SOL    HW214796   0.186   2.870  16.525  0.2196 -0.7102 -1.0433
 1112SOL     OW14797   0.245   1.766   8.008  0.3042  0.0874 -0.0001
 1112SOL    HW114798   0.164   1.802   8.043 -0.3505  0.0288 -1.4389
 1112SOL    HW214799   0.201   1.688   7.973  0.0421 -0.0054  0.5371
 1113SOL     OW14800   3.190   2.386   4.506 -0.1316  0.1082 -0.0358
 1113SOL    HW114801   3.280   2.360   4.525  0.2915  0.1320 -2.0900
 1113SOL    HW214802   3.147   2.312   4.550 -0.2046 -0.2390 -0.6955
 1114SOL     OW14803   3.556   1.120   6.413 -0.1392  0.0736 -0.8415
 1114SOL    HW114804   3.474   1.114   6.362 -0.4193  0.3177 -0.4184
 1114SOL    HW214805   3.611   1.048   6.381  2.4142  0.5109  2.6720
 1115SOL     OW14806   0.935   2.570   6.387  0.0393  0.3713  0.1162
 1115SOL    HW114807   0.861   2.600   6.440 -1.8097 -1.3993 -1.4229
 1115SOL    HW214808   0.953   2.644   6.329  0.8044 -0.7597 -1.0982
 1116SOL     OW14809   1.054   2.892   0.803 -0.0463 -0.2889  0.2228
 1116SOL    HW114810   1.107   2.875   0.725 -0.6593  0.8168 -0.4296
 1116SOL    HW214811   1.110   2.854   0.871  2.6322  0.2736 -1.6861
 1117SOL     OW14812   3.173   4.000   2.146 -0.1687 -0.4374 -0.1248
 1117SOL    HW114813   3.222   3.955   2.214 -1.0883  0.0970  0.8968
 1117SOL    HW214814   3.125   3.920   2.123 -1.3522  0.2167  0.0452
 1118SOL     OW14815   0.826   1.199   4.776  0.0024 -0.2022  0.4280
 1118SOL    HW114816   0.858   1.240   4.696 -2.3131 -0.0841 -0.4185
 1118SOL    HW214817   0.734   1.188   4.752  0.5026  1.2817 -2.1984
 1119SOL     OW14818   1.353   1.711  12.800 -0.1441  0.1198  0.3854
 1119SOL    HW114819   1.441   1.713  12.836 -0.2553  2.6232  0.5525
 1119SOL    HW214820   1.317   1.794  12.831  0.5775  0.2761  0.7908
 1120SOL     OW14821   4.662   1.784   8.451  0.2520 -0.2721 -0.2933
 1120SOL    HW114822   4.697   1.863   8.493 -1.5035 -0.2826  1.1915
 1120SOL    HW214823   0.027   1.752   8.416 -0.2043 -0.0697 -1.5745
 1121SOL     OW14824   3.459   1.807   3.341  0.2536  0.3055  0.3892
 1121SOL    HW114825   3.456   1.766   3.255  0.9941 -0.0833  0.5505
 1121SOL    HW214826   3.372   1.846   3.345  1.0332  2.1133 -0.3425
 1122SOL     OW14827   4.698   3.553   0.597 -0.2944  0.3154  0.0714
 1122SOL    HW114828   4.707   3.648   0.598  0.3185  0.2640 -0.3402
 1122SOL    HW214829   4.609   3.540   0.630 -0.4512  0.6230 -0.2237
 1123SOL     OW14830   4.239   2.689   5.797 -0.0790 -0.4208  0.4417
 1123SOL    HW114831   4.214   2.607   5.838  0.5744 -0.5109  0.6638
 1123SOL    HW214832   4.335   2.680   5.799  0.0683  1.0671  0.1021
 1124SOL     OW14833   3.770   4.250   4.386 -0.5080  0.1011  0.5670
 1124SOL    HW114834   3.725   4.166   4.380 -2.1016  0.9403  0.6092
 1124SOL    HW214835   3.793   4.269   4.477  2.0424 -2.3324  0.4184
 1125SOL     OW14836   3.121   2.444   2.917 -0.1677 -0.0320 -0.0652
 1125SOL    HW114837   3.210   2.478   2.903 -0.0923  0.1059  0.7870
 1125SOL    HW214838   3.128   2.371   2.978 -1.1961 -0.2814 -0.2555
 1126SOL     OW14839   3.632   0.305   7.736  0.0103 -0.3573 -0.3550
 1126SOL    HW114840   3.564   0.238   7.729 -1.4962  1.2949 -1.7893
 1126SOL    HW214841   3.570   0.377   7.752 -0.8969 -1.2978  0.3448
 1127SOL     OW14842   4.499   2.965  14.313 -0.3592  0.4317 -0.3481
 1127SOL    HW114843   4.545   2.882  14.300 -0.2981  0.2860  0.8226
 1127SOL    HW214844   4.409   2.934  14.322 -0.5410  1.5909  1.6203
 1128SOL     OW14845   2.313   4.009   5.228  0.5281  0.7630 -0.3012
 1128SOL    HW114846   2.352   4.096   5.236  0.6356  0.7708 -1.0001
 1128SOL    HW214847   2.237   4.027   5.172 -0.2823 -0.1364  0.5007
 1129SOL     OW14848   3.036   2.557   9.146  0.1284 -0.2175 -0.4874
 1129SOL    HW114849   2.975   2.500   9.194  0.6203 -0.6832 -0.4244
 1129SOL    HW214850   3.099   2.488   9.128  0.2247 -0.5783  1.2411
 1130SOL     OW14851   0.651   0.962   5.495  0.4914  0.2994 -0.2297
 1130SOL    HW114852   0.705   1.027   5.541 -0.8048  0.1457  1.5370
 1130SOL    HW214853   0.590   0.938   5.565 -0.5139 -1.9100 -1.8791
 1131SOL     OW14854   3.446   2.435   9.119 -0.4721 -0.5351  0.0656
 1131SOL    HW114855   3.356   2.450   9.147  0.0041  2.6457 -0.0091
 1131SOL    HW214856   3.437   2.358   9.063  0.5363 -2.0780  2.0173
 1132SOL     OW14857   0.807   3.162   1.839 -0.0924 -0.2422  0.0649
 1132SOL    HW114858   0.885   3.183   1.889  0.9945  0.9975 -2.1869
 1132SOL    HW214859   0.811   3.219   1.763 -0.4079  1.8623  1.6214
 1133SOL     OW14860   3.805   3.520   7.119  0.1929 -0.6298 -0.3553
 1133SOL    HW114861   3.894   3.542   7.146  0.0937 -1.4454  0.6161
 1133SOL    HW214862   3.812   3.445   7.060 -2.6393  0.9053 -2.6583
 1134SOL     OW14863   2.705   2.380   5.539 -0.0596  0.1529 -0.2417
 1134SOL    HW114864   2.763   2.314   5.501  1.6616  1.0063  0.9306
 1134SOL    HW214865   2.745   2.464   5.519  0.7862  0.2209  1.7537
 1135SOL     OW14866   2.545   2.599   3.095 -0.3879 -0.3342  0.3190
 1135SOL    HW114867   2.565   2.679   3.045 -1.7499 -0.4015 -0.3217
 1135SOL    HW214868   2.577   2.529   3.039  0.4709  0.0336  0.3417
 1136SOL     OW14869   0.207   4.113   7.347  0.2457 -0.2980 -0.0700
 1136SOL    HW114870   0.153   4.140   7.421  3.1946 -2.9065  2.9952
 1136SOL    HW214871   0.260   4.042   7.382  3.0285  3.1872  2.7261
 1137SOL     OW14872   2.353   0.458   3.408  0.4552  0.0030  0.2397
 1137SOL    HW114873   2.330   0.366   3.414 -1.2810  0.5687  2.0959
 1137SOL    HW214874   2.306   0.474   3.326 -0.9460 -3.3803  0.4138
 1138SOL     OW14875   1.026   2.670   2.414 -0.0187  0.1834 -0.4041
 1138SOL    HW114876   1.047   2.656   2.322 -1.2160 -0.9066 -0.5157
 1138SOL    HW214877   0.960   2.740   2.414 -0.3400 -0.1031  1.2479
 1139SOL     OW14878   1.482   0.654   8.859  0.2477  0.7235  0.4266
 1139SOL    HW114879   1.487   0.682   8.950 -0.2964  0.6009  0.4975
 1139SOL    HW214880   1.543   0.714   8.818  2.3955  0.4448  3.2383
 1140SOL     OW14881   1.406   4.518   2.589  0.1054 -0.4557  0.3303
 1140SOL    HW114882   1.340   4.455   2.559  0.6296 -0.6834 -0.3278
 1140SOL    HW214883   1.478   4.456   2.586 -2.1602 -3.1074  0.2271
 1141SOL     OW14884   0.649   1.887   5.676  0.2000  0.2092  0.3568
 1141SOL    HW114885   0.653   1.909   5.769  0.4184 -1.9633  0.8636
 1141SOL    HW214886   0.726   1.928   5.636  1.6861  0.2892  3.2881
 1142SOL     OW14887   4.068   0.862   4.464 -0.3586 -0.1736 -0.1297
 1142SOL    HW114888   4.022   0.786   4.500  0.6807 -1.2887 -1.1151
 1142SOL    HW214889   4.108   0.911   4.536  1.0650 -0.3604 -0.7874
 1143SOL     OW14890   0.917   2.217   8.550 -0.0158  0.2926  0.2210
 1143SOL    HW114891   0.939   2.262   8.631 -2.0950 -0.6380  1.3025
 1143SOL    HW214892   0.823   2.209   8.532 -0.4563  1.4400  2.1070
 1144SOL     OW14893   0.770   3.574   8.062 -0.1949  0.2292 -0.0435
 1144SOL    HW114894   0.777   3.639   8.132  1.8514 -0.9023  0.8089
 1144SOL    HW214895   0.830   3.616   7.999  1.3684  1.3583  2.2082
 1145SOL     OW14896   1.765   4.631   8.041  0.3413  0.2285 -0.7897
 1145SOL    HW114897   1.828   4.559   8.048  0.7398  0.6011 -0.5015
 1145SOL    HW214898   1.765   4.658   7.949 -0.0338 -0.3915 -0.9724
 1146SOL     OW14899   0.949   4.414   6.940  0.1840  0.3127  0.2331
 1146SOL    HW114900   0.889   4.392   7.011 -0.3766  0.7145 -0.1209
 1146SOL    HW214901   0.906   4.493   6.908  1.0898  0.3015 -1.0640
 1147SOL     OW14902   0.911   2.897   8.272 -0.1333 -0.6644  0.1152
 1147SOL    HW114903   0.865   2.977   8.300  0.4595  0.7752 -2.9490
 1147SOL    HW214904   0.878   2.840   8.341 -0.5771 -2.4570 -1.5917
 1148SOL     OW14905   4.604   0.269   8.827  0.2483  0.3572  0.5408
 1148SOL    HW114906   4.651   0.351   8.841  2.0971 -0.5628 -0.3766
 1148SOL    HW214907   4.681   0.224   8.793  1.2013  0.5619  2.4618
 1149SOL     OW14908   0.715   4.638   2.195  0.2399  0.6437  0.0575
 1149SOL    HW114909   0.637   4.612   2.244  0.4056  0.3775  0.1832
 1149SOL    HW214910   0.790   4.600   2.241 -1.2912 -2.4816 -0.0570
 1150SOL     OW14911   3.780   4.147   1.061  0.0339  0.0579 -0.6498
 1150SOL    HW114912   3.846   4.089   1.023  0.0156  0.1381 -0.8009
 1150SOL    HW214913   3.709   4.096   1.022 -0.6955  0.5638  0.0089
 1151SOL     OW14914   2.597   2.109  15.860  0.4649  0.0273  0.1568
 1151SOL    HW114915   2.612   2.038  15.922 -1.5090 -0.2110  0.3578
 1151SOL    HW214916   2.596   2.054  15.782  3.9299  0.4366 -0.1484
 1152SOL     OW14917   0.978   0.288  16.441 -0.2245 -0.2308  0.1832
 1152SOL    HW114918   0.905   0.332  16.484  0.6593  2.6129 -1.2484
 1152SOL    HW214919   0.930   0.251  16.366  1.8245 -1.4226 -0.5356
 1153SOL     OW14920   2.473   1.660   0.538  0.5955 -0.3459  0.0894
 1153SOL    HW114921   2.406   1.631   0.600 -0.4831  0.1969 -0.8203
 1153SOL    HW214922   2.542   1.594   0.546  0.5576 -0.3176  0.6456
 1154SOL     OW14923   0.995   2.483   8.396 -0.0354 -0.2094 -0.5445
 1154SOL    HW114924   0.977   2.393   8.425 -1.0574  0.2169  0.1233
 1154SOL    HW214925   0.930   2.486   8.325 -0.5393 -0.4567 -0.0871
 1155SOL     OW14926   2.068   3.591   5.706  0.0402  0.0813  0.5374
 1155SOL    HW114927   2.116   3.578   5.788  1.6306 -0.4621 -0.4861
 1155SOL    HW214928   1.994   3.536   5.732 -0.4869  0.1548 -0.8403
 1156SOL     OW14929   0.065   1.040   4.816  0.3306 -0.5130 -0.6994
 1156SOL    HW114930   0.108   1.124   4.836  1.6047 -0.7758 -2.3390
 1156SOL    HW214931   0.049   0.989   4.895  0.2586 -0.3646 -0.6186
 1157SOL     OW14932   1.203   4.602  16.974 -0.0885 -0.8554 -0.0768
 1157SOL    HW114933   1.278   4.651  17.007  1.1818 -1.1288 -2.4997
 1157SOL    HW214934   1.159   4.669  16.922  1.1504  0.2408  0.2782
 1158SOL     OW14935   1.725   4.303   5.404  0.1489  0.1158 -0.5082
 1158SOL    HW114936   1.801   4.259   5.442 -0.3402 -0.1727  0.1290
 1158SOL    HW214937   1.773   4.338   5.329  0.0838  1.8912  0.2569
 1159SOL     OW14938   1.541   4.592   9.987 -0.8009 -0.0657  0.5366
 1159SOL    HW114939   1.555   4.667  10.045  0.7361  1.1581 -1.4026
 1159SOL    HW214940   1.527   4.521  10.049  0.4018 -0.1876  0.6634
 1160SOL     OW14941   1.789   2.741   8.535  0.4096 -0.0318  0.5014
 1160SOL    HW114942   1.831   2.687   8.468  1.3333  1.4728 -0.1125
 1160SOL    HW214943   1.763   2.678   8.602  0.9021 -0.0929  0.6327
 1161SOL     OW14944   0.456   1.064   5.945 -0.0474  0.3169 -0.8436
 1161SOL    HW114945   0.365   1.089   5.930 -1.4119 -4.3754 -0.4990
 1161SOL    HW214946   0.486   1.147   5.982  1.9048 -0.8989  0.2841
 1162SOL     OW14947   3.629   4.546   2.746  0.3064  0.0287  0.3342
 1162SOL    HW114948   3.587   4.568   2.830  1.2473  0.3353  0.7248
 1162SOL    HW214949   3.641   4.451   2.748 -2.7951 -0.3532  1.3410
 1163SOL     OW14950   1.425   0.907   6.395 -0.2495 -0.4691  0.1968
 1163SOL    HW114951   1.334   0.879   6.406  0.3628 -2.5543 -0.0517
 1163SOL    HW214952   1.440   0.875   6.306  0.0407  0.9864 -0.2766
 1164SOL     OW14953   3.411   1.963   1.774 -0.1618  0.4087  0.1805
 1164SOL    HW114954   3.352   2.038   1.766 -1.1182 -0.3236  0.3551
 1164SOL    HW214955   3.353   1.891   1.799 -0.9081  0.7875 -0.4474
 1165SOL     OW14956   3.095   2.497   6.226 -0.5113 -0.2791  0.0160
 1165SOL    HW114957   3.170   2.555   6.240 -0.3590 -0.8098  1.3433
 1165SOL    HW214958   3.028   2.540   6.279 -1.6346 -1.3298 -0.5488
 1166SOL     OW14959   4.537   2.164   1.415 -0.3006 -0.3501 -0.0790
 1166SOL    HW114960   4.469   2.218   1.456 -0.6562 -1.7920  1.2712
 1166SOL    HW214961   4.497   2.144   1.331 -1.1171 -0.5105  0.3445
 1167SOL     OW14962   1.286   1.914  17.189  0.0835  0.2487 -0.0994
 1167SOL    HW114963   1.237   1.907  17.107  1.4675  0.9667 -0.9983
 1167SOL    HW214964   1.377   1.902  17.161 -0.0455  0.9951 -0.8431
 1168SOL     OW14965   0.960   3.871   2.531 -0.1701 -0.0336  0.7044
 1168SOL    HW114966   1.038   3.821   2.509  1.1482  2.3495 -0.0729
 1168SOL    HW214967   0.977   3.949   2.477 -3.8682 -0.5690 -1.2853
 1169SOL     OW14968   1.869   3.986   6.222  0.4241  0.0012  0.1568
 1169SOL    HW114969   1.784   4.020   6.194 -1.6812 -3.4104  2.3676
 1169SOL    HW214970   1.874   4.028   6.308  1.4618  0.4089 -0.1085
 1170SOL     OW14971   1.514   3.303   6.914 -0.3470  0.0036 -0.2161
 1170SOL    HW114972   1.443   3.321   6.976 -0.0978  1.3752 -0.3349
 1170SOL    HW214973   1.594   3.332   6.958 -0.8444  1.8125 -0.5027
 1171SOL     OW14974   2.073   4.505   2.174  0.2168 -0.3638  0.3725
 1171SOL    HW114975   2.050   4.463   2.257 -1.9658 -1.5890 -0.8558
 1171SOL    HW214976   2.045   4.432   2.120 -0.8673 -2.6450  4.0009
 1172SOL     OW14977   1.180   2.726  11.952  0.1499 -0.5321  0.2091
 1172SOL    HW114978   1.236   2.794  11.913  0.7646 -1.6351 -0.8404
 1172SOL    HW214979   1.100   2.778  11.955  1.7540  2.0259 -0.8950
 1173SOL     OW14980   0.010   2.667   2.240  0.1784  0.2187  0.2987
 1173SOL    HW114981   4.641   2.657   2.279 -0.0556 -0.1651 -0.3093
 1173SOL    HW214982   0.052   2.706   2.316  0.7520 -0.0258  0.1063
 1174SOL     OW14983   4.702   2.739   7.262 -0.3117 -0.1495  0.1321
 1174SOL    HW114984   4.617   2.769   7.229 -1.1994  1.2489  3.7303
 1174SOL    HW214985   4.669   2.729   7.351 -2.9728  1.6909 -0.6505
 1175SOL     OW14986   2.702   0.549  13.542  0.5877  0.4005  0.0594
 1175SOL    HW114987   2.714   0.493  13.619  0.7753  1.7862  1.0356
 1175SOL    HW214988   2.748   0.630  13.562  1.0251  0.1778 -0.0426
 1176SOL     OW14989   1.769   2.908   6.050 -0.4789  0.3336  0.4997
 1176SOL    HW114990   1.774   2.825   6.096 -1.6239 -0.7945 -1.3843
 1176SOL    HW214991   1.777   2.866   5.964 -3.4838 -1.7782  1.2633
 1177SOL     OW14992   4.049   3.199   9.878 -0.1472  0.5473  0.1509
 1177SOL    HW114993   3.962   3.184   9.915  0.0446  0.9620  0.7721
 1177SOL    HW214994   4.035   3.293   9.862 -2.5043  0.3433  0.9303
 1178SOL     OW14995   2.941   3.694  12.852  0.4606  0.1352  0.2208
 1178SOL    HW114996   3.013   3.644  12.890  1.8898  1.0387 -1.2984
 1178SOL    HW214997   2.936   3.659  12.763 -0.7917  2.5620 -0.6696
 1179SOL     OW14998   4.516   0.318   7.560 -0.5927  0.3409 -1.0522
 1179SOL    HW114999   4.535   0.299   7.651  1.0319 -3.0204 -2.0882
 1179SOL    HW215000   4.487   0.409   7.557 -1.9464 -0.0676 -0.3099
 1180SOL     OW15001   1.979   3.636   2.041 -0.6021  0.0225  0.1750
 1180SOL    HW115002   2.071   3.628   2.067 -0.2509  0.9195 -0.7692
 1180SOL    HW215003   1.957   3.543   2.044  2.0346 -0.6569 -1.3788
 1181SOL     OW15004   2.254   2.774  10.331  0.2832  0.6389  0.5215
 1181SOL    HW115005   2.162   2.751  10.345 -0.2208  1.8651 -0.8029
 1181SOL    HW215006   2.287   2.684  10.343  0.2705  0.5573 -0.0432
 1182SOL     OW15007   3.633   0.543   5.882  0.1138 -0.1056  0.4595
 1182SOL    HW115008   3.666   0.554   5.971 -1.5487 -0.3018  1.0844
 1182SOL    HW215009   3.631   0.448   5.874 -0.7700 -0.2078  1.9101
 1183SOL     OW15010   0.855   2.937   4.506 -0.0238  0.5111  0.5910
 1183SOL    HW115011   0.853   3.019   4.458  0.3880  1.0116  1.4141
 1183SOL    HW215012   0.949   2.932   4.527  0.1229 -1.4415 -0.5667
 1184SOL     OW15013   3.300   0.986   8.228 -0.0945 -0.4273 -0.0929
 1184SOL    HW115014   3.359   1.006   8.156  0.8183 -1.0710  0.4685
 1184SOL    HW215015   3.366   0.949   8.288 -1.1111 -1.8563  0.1626
 1185SOL     OW15016   4.247   3.287  15.319  0.1370 -0.1746  0.3263
 1185SOL    HW115017   4.175   3.270  15.259 -0.4070 -1.4607  1.3165
 1185SOL    HW215018   4.267   3.374  15.286 -0.7936  0.4128  1.3337
 1186SOL     OW15019   3.496   0.521   2.270 -0.2994  0.2899  0.2364
 1186SOL    HW115020   3.448   0.473   2.202  0.7763 -0.3179 -0.0979
 1186SOL    HW215021   3.556   0.456   2.306  0.4129 -0.1881 -1.8096
 1187SOL     OW15022   2.885   1.293  16.794 -0.3979 -0.9420 -0.5960
 1187SOL    HW115023   2.924   1.220  16.842  0.8049  0.1760  0.1321
 1187SOL    HW215024   2.851   1.341  16.870 -1.0209 -1.7294 -0.3820
 1188SOL     OW15025   3.196   2.711   5.167 -0.3299 -0.2913  0.0259
 1188SOL    HW115026   3.183   2.758   5.085  3.1646 -0.9181 -0.8744
 1188SOL    HW215027   3.260   2.641   5.158  1.3843  1.2201  0.4955
 1189SOL     OW15028   3.394   3.158   8.665 -0.1232  0.7104 -0.0452
 1189SOL    HW115029   3.412   3.232   8.608  0.9296 -0.4940 -1.2681
 1189SOL    HW215030   3.479   3.114   8.667 -0.9445 -0.9162 -0.3309
 1190SOL     OW15031   0.486   3.851   5.414 -0.5505 -0.1642 -0.3322
 1190SOL    HW115032   0.544   3.818   5.483 -2.7702 -2.8134  0.2831
 1190SOL    HW215033   0.542   3.842   5.337  0.1288  2.0427 -0.0881
 1191SOL     OW15034   0.822   0.155   4.224  0.0747 -0.2884 -0.2096
 1191SOL    HW115035   0.908   0.119   4.246 -0.4478 -1.1239  0.5017
 1191SOL    HW215036   0.846   0.247   4.231  1.1984 -0.7860  2.7394
 1192SOL     OW15037   1.559   3.975   7.350  0.3063  0.2776  0.3703
 1192SOL    HW115038   1.601   3.919   7.285 -3.1131 -0.8445 -0.8575
 1192SOL    HW215039   1.634   4.032   7.364  1.1293 -0.7286  0.0089
 1193SOL     OW15040   0.363   3.086   3.353  0.2851  0.4158  0.0828
 1193SOL    HW115041   0.372   3.156   3.418  4.5887  0.7154 -0.8881
 1193SOL    HW215042   0.407   3.124   3.277 -0.9660 -1.2037 -1.4550
 1194SOL     OW15043   2.059   2.001   4.841 -0.6334 -0.7721 -0.1800
 1194SOL    HW115044   2.007   2.017   4.762 -0.0654 -1.5172 -0.7063
 1194SOL    HW215045   2.144   1.981   4.802 -1.7134 -1.4920 -2.1527
 1195SOL     OW15046   3.384   1.651   7.235 -0.3290  0.1201 -0.2718
 1195SOL    HW115047   3.292   1.677   7.223  0.7438  3.3653 -1.4466
 1195SOL    HW215048   3.376   1.626   7.327  0.8131  1.4660  0.1925
 1196SOL     OW15049   1.919   1.202   4.916  0.1562 -0.1348 -0.0590
 1196SOL    HW115050   1.876   1.117   4.929 -0.9590  0.6348  1.3080
 1196SOL    HW215051   1.937   1.237   5.003 -3.2141 -0.5997  0.8306
 1197SOL     OW15052   2.236   4.628   3.530  0.7777  0.2582 -0.2384
 1197SOL    HW115053   2.208   4.539   3.552 -1.5121  0.6992 -1.3301
 1197SOL    HW215054   2.328   4.624   3.552  0.7050 -0.0292  0.0031
 1198SOL     OW15055   3.381   1.197   7.389  0.3225  0.0833 -0.5032
 1198SOL    HW115056   3.451   1.245   7.431  0.8826 -2.5426  1.5778
 1198SOL    HW215057   3.312   1.258   7.414 -0.1830 -0.6322 -0.1316
 1199SOL     OW15058   3.899   0.808   1.602 -0.5505  0.0716 -0.1613
 1199SOL    HW115059   3.882   0.892   1.645  1.4218 -0.0153  0.8355
 1199SOL    HW215060   3.932   0.841   1.518 -2.1572 -2.9316 -1.9526
 1200SOL     OW15061   1.191   1.731  11.648 -0.1846 -0.3215  0.1581
 1200SOL    HW115062   1.179   1.818  11.687 -1.1909  0.0096 -0.8970
 1200SOL    HW215063   1.282   1.729  11.617 -0.8036 -1.0415 -1.5932
 1201SOL     OW15064   3.779   2.998  10.461  0.3867 -0.3286 -0.0339
 1201SOL    HW115065   3.839   2.985  10.534  0.0531 -1.6555  0.0035
 1201SOL    HW215066   3.836   3.012  10.385  0.0233 -0.6758 -0.3734
 1202SOL     OW15067   1.897   1.257   2.544  0.6138 -0.1081 -0.0715
 1202SOL    HW115068   1.911   1.288   2.633  2.1833 -1.8257  0.2676
 1202SOL    HW215069   1.934   1.172   2.565  1.1508  0.0193 -0.5269
 1203SOL     OW15070   0.455   1.646   0.571  0.2455  0.2519 -0.1392
 1203SOL    HW115071   0.408   1.563   0.578 -0.6835  0.6308 -1.7612
 1203SOL    HW215072   0.407   1.674   0.493 -0.1685 -1.5281 -0.5267
 1204SOL     OW15073   1.566   0.097  10.156  0.5029  0.1600  0.5366
 1204SOL    HW115074   1.524   0.183  10.157 -0.6332 -0.4018  2.6277
 1204SOL    HW215075   1.658   0.122  10.147 -0.2574  2.4803 -0.5741
 1205SOL     OW15076   3.246   2.157   3.324 -0.5528  0.5678 -0.2008
 1205SOL    HW115077   3.208   2.072   3.301  1.3963 -0.4995  0.4876
 1205SOL    HW215078   3.226   2.209   3.246  0.2512 -0.0337 -0.8077
 1206SOL     OW15079   1.214   1.515   9.135 -0.5098  0.2034  0.1405
 1206SOL    HW115080   1.216   1.557   9.221 -0.5752 -0.5634  0.5240
 1206SOL    HW215081   1.205   1.422   9.159  1.7994  0.9840  4.1376
 1207SOL     OW15082   2.093   1.138  12.252  0.3048 -1.1343 -0.4019
 1207SOL    HW115083   2.020   1.101  12.301 -0.8160 -1.8149 -2.5842
 1207SOL    HW215084   2.146   1.176  12.323  0.6407 -3.1237  0.4298
 1208SOL     OW15085   1.599   2.802  15.411  0.2906 -0.2629  0.1193
 1208SOL    HW115086   1.593   2.824  15.504  2.6850 -2.1349  0.7045
 1208SOL    HW215087   1.678   2.748  15.416  1.1168  0.8254 -1.2586
 1209SOL     OW15088   1.479   1.823   3.002 -0.1437  0.1532  0.0684
 1209SOL    HW115089   1.397   1.859   2.968 -1.4615  0.4454  3.4548
 1209SOL    HW215090   1.519   1.788   2.923 -3.3878 -0.0364 -1.5204
 1210SOL     OW15091   4.498   2.457   7.323  0.3755 -0.0743  0.0571
 1210SOL    HW115092   4.492   2.461   7.227 -2.5535 -2.0816  0.1580
 1210SOL    HW215093   4.591   2.437   7.337  0.2412  0.8383  2.1702
 1211SOL     OW15094   3.400   1.863   4.474 -0.4304 -0.0447  0.3483
 1211SOL    HW115095   3.336   1.807   4.517  1.3254  0.2650  3.3522
 1211SOL    HW215096   3.352   1.943   4.453 -0.4417 -0.8602 -2.8589
 1212SOL     OW15097   1.231   3.542  16.533  0.1939  0.0737 -0.3042
 1212SOL    HW115098   1.205   3.538  16.441 -0.8602  1.9353 -0.1035
 1212SOL    HW215099   1.326   3.546  16.537  0.1490  0.0430  0.7179
 1213SOL     OW15100   4.545   0.526   5.919 -0.0244  0.3778  0.6221
 1213SOL    HW115101   4.541   0.480   6.003  1.1548 -2.0555 -0.6534
 1213SOL    HW215102   4.470   0.585   5.925  0.7840  1.5063 -0.3772
 1214SOL     OW15103   2.179   2.794   4.491 -0.6834  0.1520  0.2425
 1214SOL    HW115104   2.220   2.881   4.492  0.4023 -0.3565 -0.3642
 1214SOL    HW215105   2.086   2.815   4.502 -0.7628  0.3630 -0.8456
 1215SOL     OW15106   2.765   1.919   2.681 -0.5063  0.3163  0.0080
 1215SOL    HW115107   2.791   1.835   2.643  1.6806  0.8274  0.3932
 1215SOL    HW215108   2.787   1.983   2.613  0.2810  0.1849  0.1458
 1216SOL     OW15109   2.639   0.543  11.132  0.1960  0.5004 -0.1728
 1216SOL    HW115110   2.731   0.567  11.119 -0.6995  3.1010 -1.7138
 1216SOL    HW215111   2.641   0.455  11.094 -0.5755 -0.6623  2.5125
 1217SOL     OW15112   3.023   0.377  10.162 -0.0899 -0.5128  0.1664
 1217SOL    HW115113   2.983   0.460  10.189  0.3648 -0.1768 -0.2079
 1217SOL    HW215114   3.115   0.385  10.187 -0.5854  2.5034  1.0258
 1218SOL     OW15115   0.832   3.304   6.225  0.2582 -0.1439 -0.1651
 1218SOL    HW115116   0.912   3.354   6.241  1.4788 -2.5882  1.3374
 1218SOL    HW215117   0.812   3.260   6.307 -0.6978  1.2106  0.3356
 1219SOL     OW15118   4.585   3.425   0.922 -0.3019 -0.6341  0.1034
 1219SOL    HW115119   4.492   3.411   0.939 -0.7969  1.2722 -1.0236
 1219SOL    HW215120   4.625   3.354   0.972 -0.2022  0.4953  1.6012
 1220SOL     OW15121   3.260   3.024   5.279  0.1638  0.0326 -0.8261
 1220SOL    HW115122   3.171   3.004   5.306 -0.3669 -0.6986 -3.1784
 1220SOL    HW215123   3.249   3.116   5.258 -0.4571  0.3253  0.7387
 1221SOL     OW15124   2.849   3.771   2.705  0.2556 -0.4098 -0.1575
 1221SOL    HW115125   2.770   3.816   2.734  0.0340 -0.7657 -0.2147
 1221SOL    HW215126   2.863   3.706   2.774 -1.9250 -0.6098  0.0654
 1222SOL     OW15127   3.333   1.077   6.256 -0.4409  0.1002  0.7044
 1222SOL    HW115128   3.284   1.006   6.213 -1.4690  0.9925  0.4001
 1222SOL    HW215129   3.261   1.136   6.278  0.9286  2.5481 -1.4859
 1223SOL     OW15130   3.047   1.368   5.566  0.3881 -0.3057 -0.3700
 1223SOL    HW115131   2.968   1.334   5.609  1.0310 -0.7399  0.4522
 1223SOL    HW215132   3.034   1.332   5.478  0.8387  0.5030 -0.7717
 1224SOL     OW15133   1.612   3.261   0.156 -0.1550  0.2192 -0.3147
 1224SOL    HW115134   1.642   3.332   0.213 -2.1082  1.2081 -0.5161
 1224SOL    HW215135   1.540   3.227   0.209 -0.7530  1.0807 -0.5757
 1225SOL     OW15136   2.344   2.142   9.915  0.1277  0.0918  0.9886
 1225SOL    HW115137   2.411   2.178   9.973  1.2373  0.5109 -0.5434
 1225SOL    HW215138   2.294   2.090   9.977 -2.0997 -0.5088 -1.3282
 1226SOL     OW15139   0.990   2.220   2.896 -0.1264  0.5069  0.4011
 1226SOL    HW115140   0.933   2.239   2.821  1.5988  3.0406 -0.2620
 1226SOL    HW215141   1.004   2.303   2.942  0.9233 -0.3437  1.5917
 1227SOL     OW15142   0.403   3.332   6.726  0.8968 -0.3014 -0.6212
 1227SOL    HW115143   0.439   3.398   6.666  1.1147  0.8180  0.7537
 1227SOL    HW215144   0.430   3.251   6.682 -1.5218 -1.9131  0.8948
 1228SOL     OW15145   4.556   2.253   2.472 -0.6746 -0.3258 -0.0967
 1228SOL    HW115146   4.644   2.216   2.474 -0.3960  0.3406 -0.1929
 1228SOL    HW215147   4.518   2.208   2.548 -1.3253  0.5117  0.0732
 1229SOL     OW15148   1.952   3.857   1.393 -0.0042  0.7070  0.5611
 1229SOL    HW115149   1.900   3.834   1.316  0.6328  0.3008  0.2579
 1229SOL    HW215150   2.041   3.829   1.371  0.2534  1.2547  0.8849
 1230SOL     OW15151   0.937   4.604   5.959  0.2233 -0.4985  0.0446
 1230SOL    HW115152   0.907   4.599   5.868 -0.9935 -2.5206  0.5707
 1230SOL    HW215153   0.968   4.514   5.946 -0.5845 -0.7472 -0.1459
 1231SOL     OW15154   3.253   1.066  17.019 -0.1106  0.1231 -0.1551
 1231SOL    HW115155   3.292   0.979  17.016 -1.4531 -0.5040  0.3920
 1231SOL    HW215156   3.268   1.078  17.113  0.6903  0.7758 -0.3708
 1232SOL     OW15157   4.131   3.627   2.082  0.4682  0.4186 -0.2529
 1232SOL    HW115158   4.205   3.688   2.072 -1.0111  2.7233  2.8965
 1232SOL    HW215159   4.122   3.629   2.177  1.3820 -0.1061 -0.1441
 1233SOL     OW15160   4.252   4.210   3.701  0.2043  0.3067 -0.0261
 1233SOL    HW115161   4.208   4.227   3.784 -0.0109 -0.6839  0.0600
 1233SOL    HW215162   4.181   4.186   3.641 -0.9202  2.8397  0.2983
 1234SOL     OW15163   0.099   3.967  17.146  0.0933  0.1014  0.0219
 1234SOL    HW115164   0.110   3.995  17.055  1.1923  0.3008  0.2098
 1234SOL    HW215165   0.158   3.891  17.148 -0.1909 -0.0903  1.1970
 1235SOL     OW15166   1.723   1.008  13.073  0.1883  0.0741  0.1146
 1235SOL    HW115167   1.636   1.040  13.047  0.5516  1.7321  0.9457
 1235SOL    HW215168   1.770   1.043  12.998  0.4526 -0.1489  0.1751
 1236SOL     OW15169   1.960   2.523   3.076 -0.0932  0.5138 -0.5159
 1236SOL    HW115170   2.056   2.520   3.065  0.2502 -2.7028  3.4090
 1236SOL    HW215171   1.937   2.453   3.015 -0.6244 -0.8102  1.2145
 1237SOL     OW15172   2.332   0.306  11.511  0.2937 -0.6007  0.0655
 1237SOL    HW115173   2.367   0.262  11.588 -0.6605 -1.3502  0.0732
 1237SOL    HW215174   2.326   0.394  11.548 -2.6631  0.0646 -1.9606
 1238SOL     OW15175   3.244   0.900   1.033 -0.7406  0.1228  0.2124
 1238SOL    HW115176   3.322   0.942   0.997 -0.1343 -1.5010 -0.4137
 1238SOL    HW215177   3.187   0.975   1.045 -1.0506  0.4570 -3.3089
 1239SOL     OW15178   1.763   2.555   6.422 -0.1567  1.1547  0.0084
 1239SOL    HW115179   1.846   2.562   6.373  0.7650  1.9396  1.6762
 1239SOL    HW215180   1.802   2.588   6.504  1.8847 -1.6912  0.1731
 1240SOL     OW15181   0.694   0.661   6.848  0.0626 -0.1013  0.0284
 1240SOL    HW115182   0.755   0.732   6.828 -1.5250  1.3337  0.3077
 1240SOL    HW215183   0.757   0.598   6.883  0.2761 -0.0294 -0.2259
 1241SOL     OW15184   2.245   3.925   4.016  0.2628 -0.5734 -0.3164
 1241SOL    HW115185   2.312   3.872   3.973  0.7894 -0.6321  0.5953
 1241SOL    HW215186   2.292   3.961   4.090 -0.6900 -0.0705  0.0422
 1242SOL     OW15187   1.527   1.170  17.100 -0.1918 -0.3752  0.2959
 1242SOL    HW115188   1.456   1.108  17.083 -0.7817  0.3734  0.0105
 1242SOL    HW215189   1.577   1.167  17.018 -0.7331 -1.5966  0.0098
 1243SOL     OW15190   0.987   4.248   4.979 -0.5238 -0.0660  0.2634
 1243SOL    HW115191   0.903   4.214   4.950 -2.3528  3.1444  1.8535
 1243SOL    HW215192   0.962   4.336   5.009  0.3240 -0.6968  2.8286
 1244SOL     OW15193   1.658   3.082  15.310  0.2841 -0.2140  0.7714
 1244SOL    HW115194   1.582   3.108  15.361 -0.0952  1.8364 -0.8369
 1244SOL    HW215195   1.619   3.002  15.275  2.9595 -0.0512 -2.6413
 1245SOL     OW15196   3.746   1.552   7.858 -0.3524 -0.0944 -0.3520
 1245SOL    HW115197   3.744   1.576   7.951  0.0752  1.7774 -0.8253
 1245SOL    HW215198   3.742   1.457   7.859  0.6443 -0.1442 -1.7912
 1246SOL     OW15199   0.379   1.553   1.426  0.4047  0.2566 -0.6661
 1246SOL    HW115200   0.412   1.615   1.491  1.5050 -0.5397 -0.4694
 1246SOL    HW215201   0.295   1.596   1.408 -1.0160 -1.5071  1.7540
 1247SOL     OW15202   3.219   0.280   9.954  0.1891 -0.1798 -0.3481
 1247SOL    HW115203   3.251   0.258   9.866  1.1720  0.7256 -0.2278
 1247SOL    HW215204   3.258   0.367   9.965  0.7070 -0.5583  0.7779
 1248SOL     OW15205   4.261   2.511   5.157  0.0589 -0.3102 -0.3943
 1248SOL    HW115206   4.182   2.459   5.171 -0.3442  0.0170 -1.4613
 1248SOL    HW215207   4.225   2.599   5.163 -0.8725 -0.7577  0.4364
 1249SOL     OW15208   2.034   4.330  12.273  0.1961  0.1266  0.2290
 1249SOL    HW115209   2.083   4.412  12.263  0.0661  0.2398  0.4972
 1249SOL    HW215210   1.957   4.371  12.313 -0.3349 -0.0613 -0.6104
 1250SOL     OW15211   1.374   3.566   4.903  0.0372  0.2611  0.6970
 1250SOL    HW115212   1.439   3.506   4.866  0.7046 -0.3028  2.7819
 1250SOL    HW215213   1.413   3.590   4.987 -2.3917  0.6454  1.7062
 1251SOL     OW15214   2.766   4.376   9.192 -0.0039  0.2897 -0.0900
 1251SOL    HW115215   2.745   4.416   9.276  0.1188 -0.7718  0.4388
 1251SOL    HW215216   2.815   4.299   9.221 -0.4068 -0.0956 -0.4125
 1252SOL     OW15217   1.490   2.800   7.438 -0.2145 -0.4051  0.1672
 1252SOL    HW115218   1.420   2.810   7.373 -0.0273 -2.3508 -0.3448
 1252SOL    HW215219   1.473   2.883   7.482 -1.3655 -0.1938 -0.6679
 1253SOL     OW15220   4.659   1.554   4.319  0.5033 -0.5285  0.3021
 1253SOL    HW115221   4.585   1.573   4.260  0.9570  2.2865  0.6139
 1253SOL    HW215222   0.016   1.533   4.263 -1.5431 -2.9151 -1.5142
 1254SOL     OW15223   0.831   0.533   1.065 -0.0489 -0.2370 -0.0057
 1254SOL    HW115224   0.739   0.543   1.039 -0.3090 -1.3822  0.4687
 1254SOL    HW215225   0.816   0.515   1.158 -1.5171  1.7331  0.1411
 1255SOL     OW15226   4.031   0.824   9.958 -0.4789 -0.3298 -0.9332
 1255SOL    HW115227   3.973   0.838  10.033  1.3539  2.9179 -0.1245
 1255SOL    HW215228   4.011   0.731   9.948  0.5675 -0.7072  0.4380
 1256SOL     OW15229   3.669   2.635   4.287  0.5009 -0.1264 -0.3187
 1256SOL    HW115230   3.664   2.687   4.207 -0.8525 -0.8615 -0.7075
 1256SOL    HW215231   3.655   2.700   4.356 -0.0904  0.2547 -0.8009
 1257SOL     OW15232   2.390   4.581   3.839  0.0510 -0.7190  0.0928
 1257SOL    HW115233   2.442   4.587   3.759 -1.5421  1.4110 -0.7834
 1257SOL    HW215234   2.312   4.536   3.808 -0.8034  1.5705 -1.0446
 1258SOL     OW15235   2.562   1.917  12.938  0.2026 -0.3711  0.5299
 1258SOL    HW115236   2.554   1.960  13.023  0.4819  0.1541  0.2877
 1258SOL    HW215237   2.472   1.906  12.907  0.2346 -0.3435  0.4258
 1259SOL     OW15238   4.145   3.028   7.178 -0.3479 -0.1672 -0.3952
 1259SOL    HW115239   4.156   2.941   7.218 -0.5207 -0.0639 -0.1205
 1259SOL    HW215240   4.206   3.077   7.233 -1.5912 -1.6846  2.3441
 1260SOL     OW15241   2.016   3.119  12.159 -0.5193  0.4719  0.0337
 1260SOL    HW115242   2.041   3.064  12.085  0.6730  1.1235 -0.0677
 1260SOL    HW215243   1.941   3.168  12.126 -0.1149  1.0391 -0.0406
 1261SOL     OW15244   0.456   2.702   7.568 -0.3678 -0.1479  0.0027
 1261SOL    HW115245   0.487   2.676   7.654  2.2598 -1.3482 -1.3238
 1261SOL    HW215246   0.517   2.770   7.539 -0.4969 -0.6062 -1.3686
 1262SOL     OW15247   3.725   3.890  11.280  0.2142 -0.0925 -0.2431
 1262SOL    HW115248   3.813   3.853  11.280 -1.8252 -4.9040  0.3833
 1262SOL    HW215249   3.750   3.978  11.252  1.0572 -0.1552  0.3234
 1263SOL     OW15250   0.324   1.521   3.437  0.0671 -0.2036 -0.3756
 1263SOL    HW115251   0.379   1.568   3.374 -3.2303  0.8820 -2.4566
 1263SOL    HW215252   0.261   1.481   3.377  0.5441 -0.8690 -0.4347
 1264SOL     OW15253   4.409   2.886  12.343  0.4919  0.7349 -0.1266
 1264SOL    HW115254   4.407   2.834  12.423 -0.3048  2.8642  1.2370
 1264SOL    HW215255   4.438   2.821  12.280  0.1518  2.6436 -2.2650
 1265SOL     OW15256   1.623   3.434   0.415 -0.7447  0.3554  0.4880
 1265SOL    HW115257   1.710   3.424   0.454 -0.3523  1.2778 -0.1595
 1265SOL    HW215258   1.585   3.470   0.494  0.9569  0.4856  1.2505
 1266SOL     OW15259   0.741   3.775  10.286  0.2359  0.6718  0.0949
 1266SOL    HW115260   0.806   3.736  10.344 -0.2741 -0.7849 -0.3166
 1266SOL    HW215261   0.708   3.692  10.252 -1.1854  0.3915  2.1289
 1267SOL     OW15262   2.056   1.279   0.673 -0.5137 -0.0283 -0.0968
 1267SOL    HW115263   1.982   1.221   0.652 -0.2851 -0.8888  1.4761
 1267SOL    HW215264   2.130   1.228   0.639 -2.0992 -1.9853 -0.6449
 1268SOL     OW15265   2.033   2.089   8.050  0.2474 -0.8343 -0.2370
 1268SOL    HW115266   2.035   2.142   7.970 -1.0125 -0.8004 -0.2447
 1268SOL    HW215267   1.956   2.034   8.035 -1.5342  1.3240  0.9329
 1269SOL     OW15268   4.347   1.459   1.849  0.1807  0.1886  0.1222
 1269SOL    HW115269   4.354   1.365   1.835  0.9791  0.0806  1.2104
 1269SOL    HW215270   4.284   1.492   1.785  1.0358  1.1110 -0.2533
 1270SOL     OW15271   0.790   3.841  16.368 -0.0561  0.3402  0.3154
 1270SOL    HW115272   0.876   3.881  16.375  0.3475 -0.5277  0.3761
 1270SOL    HW215273   0.784   3.830  16.273  1.7495 -2.9956  0.5687
 1271SOL     OW15274   0.838   0.977   7.789 -0.1328 -0.3429  0.0420
 1271SOL    HW115275   0.789   0.894   7.794  1.4919 -1.2834  0.1626
 1271SOL    HW215276   0.924   0.954   7.824  1.0504  0.2629 -2.5589
 1272SOL     OW15277   0.311   3.144   1.352  0.0575  0.1096 -0.0319
 1272SOL    HW115278   0.323   3.050   1.335  0.4256  0.3444 -1.0798
 1272SOL    HW215279   0.223   3.134   1.388  0.4208 -0.8130  0.6127
 1273SOL     OW15280   3.962   2.282  13.762  0.5663  0.4487  0.5201
 1273SOL    HW115281   3.876   2.265  13.722  0.5550  0.9128  0.3470
 1273SOL    HW215282   4.019   2.318  13.694 -2.7767  2.2784 -1.3273
 1274SOL     OW15283   0.747   4.180   9.242  0.6323 -0.3131  0.3367
 1274SOL    HW115284   0.832   4.174   9.198  1.6063  1.2684  2.0255
 1274SOL    HW215285   0.752   4.101   9.296  1.9377 -1.8067 -1.9442
 1275SOL     OW15286   3.173   1.948   6.976  0.3936  0.4264 -0.0901
 1275SOL    HW115287   3.171   1.954   6.880 -0.6238  4.7256  0.1905
 1275SOL    HW215288   3.205   1.858   6.986 -0.2392  0.4330  1.8723
 1276SOL     OW15289   1.424   2.077  15.762 -0.3150 -0.0152 -0.5291
 1276SOL    HW115290   1.391   2.077  15.672 -0.6563 -0.1351 -0.4039
 1276SOL    HW215291   1.428   1.985  15.789 -3.3017  0.1137  0.3331
 1277SOL     OW15292   1.891   3.813   7.611  0.1563 -0.1811 -0.6009
 1277SOL    HW115293   1.836   3.863   7.672  2.4215  0.2749  1.0659
 1277SOL    HW215294   1.913   3.745   7.674 -0.4526  0.2572  0.0922
 1278SOL     OW15295   3.125   3.507   3.302 -0.2328 -0.0156  0.3473
 1278SOL    HW115296   3.051   3.455   3.269 -0.6788  1.2794 -0.6539
 1278SOL    HW215297   3.176   3.510   3.221  3.2830  0.8224  2.5936
 1279SOL     OW15298   2.065   0.785  13.956 -0.4365 -0.2195  0.0530
 1279SOL    HW115299   2.053   0.755  13.866  3.5142  2.1613 -1.2341
 1279SOL    HW215300   2.099   0.707  14.000  1.9377  0.6803 -0.2156
 1280SOL     OW15301   0.555   2.824   8.378  0.5894 -0.5015 -0.2193
 1280SOL    HW115302   0.488   2.782   8.431 -0.4113 -1.6420 -2.4079
 1280SOL    HW215303   0.505   2.875   8.315  1.2761  0.1125 -0.2642
 1281SOL     OW15304   0.095   3.917   6.987  0.1066 -0.0637  0.2721
 1281SOL    HW115305   0.025   3.965   7.031  0.8716  3.4542 -2.3465
 1281SOL    HW215306   0.041   3.917   6.908  1.3391  0.9902 -0.5757
 1282SOL     OW15307   2.758   3.174  12.123  0.0555  0.5654 -0.1173
 1282SOL    HW115308   2.737   3.253  12.074 -0.3850 -0.9758 -2.4180
 1282SOL    HW215309   2.802   3.209  12.200  2.9919 -1.0611 -1.0685
 1283SOL     OW15310   0.168   0.514   1.113  0.0160  0.1781  0.1225
 1283SOL    HW115311   0.108   0.449   1.078  1.0476 -0.2180 -0.9188
 1283SOL    HW215312   0.140   0.508   1.204 -0.6265 -1.7278 -0.1951
 1284SOL     OW15313   3.560   4.660   2.507 -0.4465  0.4763  0.4345
 1284SOL    HW115314   3.590   4.609   2.582 -1.3365 -0.1719  0.3479
 1284SOL    HW215315   3.465   4.654   2.512 -0.5301  1.7736  0.3471
 1285SOL     OW15316   4.463   2.243   2.227  0.4381  0.3760 -0.1601
 1285SOL    HW115317   4.406   2.166   2.223  0.7928  0.1535 -0.8092
 1285SOL    HW215318   4.505   2.239   2.313 -0.9185  2.1440  0.5912
 1286SOL     OW15319   0.375   2.994   8.256  0.1453 -0.3572  0.8494
 1286SOL    HW115320   0.349   3.056   8.188 -1.2809 -0.3103  1.4365
 1286SOL    HW215321   0.380   3.053   8.331  0.4753  0.5061  0.1525
 1287SOL     OW15322   4.011   4.035   4.974 -0.1735 -0.4827  0.1444
 1287SOL    HW115323   4.000   3.940   4.962 -2.7562 -0.1814  0.0946
 1287SOL    HW215324   4.094   4.048   5.019 -1.2204 -0.1557  1.9654
 1288SOL     OW15325   0.111   0.009   3.434  0.2249  0.0359  0.0836
 1288SOL    HW115326   0.134   4.641   3.397 -0.4186 -0.1590  0.1310
 1288SOL    HW215327   0.040   0.037   3.376  0.0885 -0.0355  0.2171
 1289SOL     OW15328   0.273   3.382   5.986  0.0451 -0.4916 -0.2690
 1289SOL    HW115329   0.246   3.448   5.921 -0.7427 -1.5280 -0.9926
 1289SOL    HW215330   0.281   3.301   5.936 -2.7809 -0.6290 -0.5139
 1290SOL     OW15331   1.132   1.515  15.916  0.2355  0.2424  0.2977
 1290SOL    HW115332   1.104   1.451  15.982  1.4351  1.4063  1.9314
 1290SOL    HW215333   1.120   1.603  15.951 -1.2232  0.8970 -1.8426
 1291SOL     OW15334   2.155   0.678   4.199 -0.6068 -0.1590  0.3872
 1291SOL    HW115335   2.170   0.641   4.112 -0.3400  2.8861 -0.8773
 1291SOL    HW215336   2.067   0.643   4.211 -1.3149  0.2963 -3.5551
 1292SOL     OW15337   0.944   4.631  11.294 -0.1907  0.6765  0.7774
 1292SOL    HW115338   1.016   4.693  11.287 -0.1100  0.7294  2.1622
 1292SOL    HW215339   0.941   4.594  11.206  3.2778 -0.7593  1.2792
 1293SOL     OW15340   3.480   3.547  11.091  0.0376 -0.8724 -0.4561
 1293SOL    HW115341   3.534   3.492  11.147 -1.9015 -1.2094  1.0702
 1293SOL    HW215342   3.526   3.631  11.084 -0.2172 -0.5309  2.0152
 1294SOL     OW15343   2.216   4.187   0.373 -0.0933 -0.2162  0.2761
 1294SOL    HW115344   2.150   4.242   0.416 -0.9902 -1.1868  0.1208
 1294SOL    HW215345   2.256   4.254   0.317  0.3857 -0.9041 -0.1951
 1295SOL     OW15346   0.569   1.871   7.405  0.2807  0.1246 -0.0532
 1295SOL    HW115347   0.625   1.890   7.481  1.6145 -1.8629 -0.5146
 1295SOL    HW215348   0.588   1.777   7.399 -1.7046 -0.2334 -0.4500
 1296SOL     OW15349   1.496   2.917  15.757  0.2320  0.3095  0.0020
 1296SOL    HW115350   1.580   2.875  15.777 -1.2972 -2.4120  0.7301
 1296SOL    HW215351   1.444   2.909  15.837  1.2611 -1.9401  0.4558
 1297SOL     OW15352   1.096   4.390  16.706 -0.2635  0.4050  0.0249
 1297SOL    HW115353   1.144   4.473  16.698 -0.1082  0.3258  0.1326
 1297SOL    HW215354   1.017   4.404  16.654  1.5500  0.0995 -2.8313
 1298SOL     OW15355   4.681   4.279   9.104 -0.1690 -0.3955 -0.2077
 1298SOL    HW115356   4.592   4.246   9.114 -0.3379  0.5650  1.4631
 1298SOL    HW215357   4.669   4.373   9.090 -0.0446 -0.1539  1.2990
 1299SOL     OW15358   2.136   3.126  10.181 -0.4276  0.2669  0.0189
 1299SOL    HW115359   2.149   3.151  10.090  2.3785  2.1498  0.9297
 1299SOL    HW215360   2.045   3.098  10.184 -0.5044  0.3451 -1.4475
 1300SOL     OW15361   4.032   0.132   5.698  0.5160  0.3413  0.5099
 1300SOL    HW115362   4.007   0.185   5.774  0.1891 -0.5717  1.0365
 1300SOL    HW215363   4.061   0.201   5.638 -1.4510  0.3949 -0.3535
 1301SOL     OW15364   3.063   2.657  12.402  0.0183 -0.0684  0.4863
 1301SOL    HW115365   3.083   2.666  12.309  0.6198  0.0037  0.6221
 1301SOL    HW215366   2.968   2.660  12.395  0.1047 -1.4032 -1.3182
 1302SOL     OW15367   2.815   1.566   8.505  0.0161  0.4008 -0.5668
 1302SOL    HW115368   2.793   1.492   8.448  1.1914  1.9347 -3.0105
 1302SOL    HW215369   2.905   1.587   8.478  0.6653 -1.8446 -0.1241
 1303SOL     OW15370   0.807   0.206   8.441 -0.0149 -0.0588 -0.1286
 1303SOL    HW115371   0.801   0.197   8.536  1.7269  1.4373  0.1170
 1303SOL    HW215372   0.850   0.122   8.428 -1.7502 -0.7197 -1.7716
 1304SOL     OW15373   0.483   0.476  11.747  0.0304  0.3236 -0.7899
 1304SOL    HW115374   0.395   0.473  11.785  0.2165  1.1425 -0.2893
 1304SOL    HW215375   0.465   0.430  11.665 -0.5648 -0.3786 -0.2698
 1305SOL     OW15376   0.938   0.378   8.972  0.0762 -0.5825 -0.4903
 1305SOL    HW115377   0.895   0.307   9.020  0.7293  0.5438  1.7916
 1305SOL    HW215378   0.872   0.446   8.986  1.0395 -0.1741  2.1941
 1306SOL     OW15379   4.051   2.005   7.819 -0.2050 -0.1446  0.0838
 1306SOL    HW115380   4.007   2.016   7.735  0.3313  0.9363 -0.0557
 1306SOL    HW215381   4.062   1.911   7.826 -0.8037 -0.1973  0.3819
 1307SOL     OW15382   1.925   3.336   8.181 -0.6143  0.3343  0.0385
 1307SOL    HW115383   1.958   3.369   8.265 -0.7197 -1.6469  0.8405
 1307SOL    HW215384   1.941   3.244   8.199  1.2555  0.7578  0.6085
 1308SOL     OW15385   2.989   0.702   9.167  0.0637 -0.6548 -0.2654
 1308SOL    HW115386   2.981   0.670   9.078 -2.1149 -0.0111 -0.3012
 1308SOL    HW215387   3.045   0.777   9.146  1.2334 -1.1549  1.0718
 1309SOL     OW15388   2.301   2.740   3.421  0.2297 -0.0921 -0.2874
 1309SOL    HW115389   2.359   2.665   3.412 -0.0203 -0.3801  0.5127
 1309SOL    HW215390   2.219   2.693   3.434  0.0283  0.9685  2.4759
 1310SOL     OW15391   1.712   3.971  16.595  0.0212 -0.0423 -0.2209
 1310SOL    HW115392   1.782   4.035  16.608 -1.8510  1.9904  0.0312
 1310SOL    HW215393   1.694   3.997  16.505  3.1324 -0.2857 -0.9062
 1311SOL     OW15394   2.115   3.578  14.788 -0.7065 -0.4808 -0.2460
 1311SOL    HW115395   2.119   3.484  14.770  0.8263 -0.4302 -0.1593
 1311SOL    HW215396   2.166   3.573  14.869 -1.4385  0.5788  0.2776
 1312SOL     OW15397   1.701   0.932  14.641 -0.1058 -0.1746 -0.0542
 1312SOL    HW115398   1.721   0.909  14.732 -0.7486  1.3590  0.4848
 1312SOL    HW215399   1.677   0.846  14.609 -1.6590 -0.6371  2.3160
 1313SOL     OW15400   1.271   4.252   3.032 -0.0633  0.4690 -0.0179
 1313SOL    HW115401   1.306   4.300   2.957  1.2776  1.3696  1.1844
 1313SOL    HW215402   1.258   4.314   3.104 -0.4558  1.1373 -0.6594
 1314SOL     OW15403   0.638   2.621   8.172  0.5802 -0.1416 -0.4770
 1314SOL    HW115404   0.651   2.670   8.254  0.5644 -1.2564  0.1906
 1314SOL    HW215405   0.729   2.599   8.155  1.4104 -0.2818  4.0756
 1315SOL     OW15406   4.317   2.129   4.814 -0.1524  0.2846  0.0780
 1315SOL    HW115407   4.278   2.164   4.734 -2.3838  1.4029  1.6495
 1315SOL    HW215408   4.243   2.143   4.874 -0.2201 -1.5545  0.4469
 1316SOL     OW15409   1.696   2.219   2.421 -0.0884  0.0077  0.8527
 1316SOL    HW115410   1.647   2.287   2.374  0.7077 -0.7494 -1.0816
 1316SOL    HW215411   1.736   2.182   2.343 -1.1152 -0.4851  0.5580
 1317SOL     OW15412   1.599   4.120   2.168  0.4497 -0.4258 -0.2128
 1317SOL    HW115413   1.604   4.087   2.258 -0.7085  1.1885  0.4426
 1317SOL    HW215414   1.521   4.174   2.167  0.6312 -0.1598  0.3259
 1318SOL     OW15415   2.166   3.853   2.781  0.5319  0.3036 -0.0598
 1318SOL    HW115416   2.180   3.817   2.869 -1.9281  1.8485  0.9938
 1318SOL    HW215417   2.248   3.850   2.733  0.0165 -0.9046 -0.8423
 1319SOL     OW15418   1.063   1.410   2.467 -0.4099 -0.0020 -0.3758
 1319SOL    HW115419   0.974   1.430   2.496  0.2933 -0.0063  1.7524
 1319SOL    HW215420   1.042   1.354   2.392 -0.5661 -0.2296 -0.1638
 1320SOL     OW15421   4.525   3.568   2.315  0.1780  0.4363 -0.1368
 1320SOL    HW115422   4.587   3.586   2.386 -0.2902  3.0233 -0.4071
 1320SOL    HW215423   4.546   3.618   2.237  1.6530 -0.9198 -0.6046
 1321SOL     OW15424   3.447   2.669  16.298  0.0660  0.3935  0.2134
 1321SOL    HW115425   3.486   2.647  16.383 -0.8980 -1.0729  0.2841
 1321SOL    HW215426   3.400   2.750  16.319  0.9934  1.0469 -0.2486
 1322SOL     OW15427   4.227   2.265   1.819  0.0370  0.8476  0.0504
 1322SOL    HW115428   4.246   2.344   1.769  1.8938 -0.2404 -0.9656
 1322SOL    HW215429   4.210   2.296   1.908 -1.3211 -2.0358  0.7849
 1323SOL     OW15430   4.297   0.121   8.180  0.1968 -0.0926  0.3628
 1323SOL    HW115431   4.218   0.157   8.222 -0.3042 -0.4495 -0.2843
 1323SOL    HW215432   4.303   0.045   8.238 -1.3548 -0.6391 -0.2075
 1324SOL     OW15433   1.379   3.726  15.094  0.4780 -0.5322 -0.2984
 1324SOL    HW115434   1.449   3.686  15.042 -0.0068 -0.0934 -1.2919
 1324SOL    HW215435   1.414   3.719  15.183 -2.1999 -0.7511  0.7454
 1325SOL     OW15436   4.085   4.299  16.133  0.5324  0.0494  0.2587
 1325SOL    HW115437   4.045   4.386  16.124 -2.1573 -1.3225 -1.0243
 1325SOL    HW215438   4.075   4.248  16.053 -3.3133  2.6758 -0.9079
 1326SOL     OW15439   4.701   1.223   9.120  0.2741  0.2970  0.3558
 1326SOL    HW115440   0.025   1.209   9.205  0.2537  0.2053  0.3508
 1326SOL    HW215441   4.613   1.234   9.157  0.1548 -1.9173  0.6987
 1327SOL     OW15442   3.046   3.321   7.404 -0.0191 -0.3930  0.1424
 1327SOL    HW115443   3.129   3.363   7.383 -0.6436 -0.0570 -1.6731
 1327SOL    HW215444   3.053   3.327   7.499  1.6315  1.7349 -0.1054
 1328SOL     OW15445   0.883   1.098  11.056  0.4889  0.4426  0.6792
 1328SOL    HW115446   0.827   1.150  10.998  1.4727  0.0971 -0.5820
 1328SOL    HW215447   0.834   1.100  11.138 -0.9842  2.3171 -0.2636
 1329SOL     OW15448   1.739   2.702  14.338 -0.1075 -0.5155  0.0601
 1329SOL    HW115449   1.829   2.734  14.336  0.7096 -2.8422 -0.5260
 1329SOL    HW215450   1.749   2.608  14.322  0.3413 -0.5366  0.4684
 1330SOL     OW15451   2.375   4.419  17.391  0.2426  0.1441  0.3856
 1330SOL    HW115452   2.358   4.357  17.463  0.5556  1.0397  1.2386
 1330SOL    HW215453   2.287   4.416  17.352  0.8365 -0.3153 -0.8935
 1331SOL     OW15454   4.296   4.307   3.446  0.4608  0.2864  0.4564
 1331SOL    HW115455   4.308   4.335   3.537  2.0171 -0.6984  0.5506
 1331SOL    HW215456   4.205   4.275   3.439  1.0663 -1.3184 -0.1199
 1332SOL     OW15457   2.707   3.091   4.391  0.1349 -0.1641  0.3127
 1332SOL    HW115458   2.744   3.172   4.425 -0.3831 -0.1544  0.8563
 1332SOL    HW215459   2.714   3.041   4.473  1.4119 -0.9237 -0.2626
 1333SOL     OW15460   2.579   1.344  13.289 -0.6224 -0.8382  0.1804
 1333SOL    HW115461   2.536   1.301  13.363  0.1251 -0.8217  0.6234
 1333SOL    HW215462   2.624   1.268  13.251  2.0514  0.1021  1.4790
 1334SOL     OW15463   0.693   2.914  15.228  0.2229 -0.5704  0.1889
 1334SOL    HW115464   0.632   2.868  15.286  0.4445  1.3722  1.9193
 1334SOL    HW215465   0.673   3.002  15.260  0.1610 -0.4495 -0.1823
 1335SOL     OW15466   1.703   2.461   3.186 -0.3569  0.7437 -0.1457
 1335SOL    HW115467   1.647   2.411   3.127 -1.0466  1.3030  0.0312
 1335SOL    HW215468   1.761   2.503   3.122  2.0131 -1.1441  0.7777
 1336SOL     OW15469   0.328   3.525  14.406  0.3536  0.3640 -0.6850
 1336SOL    HW115470   0.372   3.509  14.323 -0.4306 -1.2113 -0.7951
 1336SOL    HW215471   0.311   3.619  14.399 -0.6297  0.4759  3.1828
 1337SOL     OW15472   1.957   0.627   6.731 -0.1443  0.0885  0.1461
 1337SOL    HW115473   1.968   0.673   6.648 -1.8711 -0.8505 -0.6204
 1337SOL    HW215474   1.948   0.536   6.701 -0.6847  0.6435 -1.3791
 1338SOL     OW15475   0.962   0.372  11.272  0.4736 -0.6341 -0.1428
 1338SOL    HW115476   0.909   0.385  11.351  0.4073 -1.0505 -0.1219
 1338SOL    HW215477   0.893   0.338  11.215 -0.5507 -2.0601  1.9969
 1339SOL     OW15478   0.063   4.529   3.253  0.0247  0.5349  0.1434
 1339SOL    HW115479   0.074   4.571   3.168 -1.1492  0.9898  0.2221
 1339SOL    HW215480   0.085   4.438   3.233 -2.1530  0.0778 -0.1411
 1340SOL     OW15481   0.617   0.704   4.782 -0.0334  0.1064 -0.0899
 1340SOL    HW115482   0.528   0.716   4.814 -0.1867 -0.1434 -0.4266
 1340SOL    HW215483   0.614   0.741   4.694 -0.7161 -1.9740 -0.9253
 1341SOL     OW15484   3.288   1.073  11.118  0.0361  0.3572 -0.0132
 1341SOL    HW115485   3.272   1.134  11.046  1.8972  1.5253  0.5659
 1341SOL    HW215486   3.337   1.128  11.178  3.7637 -2.6704 -0.2605
 1342SOL     OW15487   2.442   3.351   8.744  0.6272 -0.6130 -0.3486
 1342SOL    HW115488   2.453   3.324   8.652  0.5455 -0.0993 -0.5069
 1342SOL    HW215489   2.397   3.276   8.784 -0.4825 -0.4683 -1.3170
 1343SOL     OW15490   0.405   3.301  16.172 -0.2706 -0.2336  0.5046
 1343SOL    HW115491   0.463   3.275  16.100  1.4420  1.0014  1.4430
 1343SOL    HW215492   0.428   3.237  16.239 -1.9117 -1.2414  0.1050
 1344SOL     OW15493   0.751   0.097  17.644 -0.2301  0.7663  0.1121
 1344SOL    HW115494   0.724   0.186  17.666 -1.2768  0.2477  0.9077
 1344SOL    HW215495   0.702   0.044   0.033 -0.7563  1.5785  0.3971
 1345SOL     OW15496   3.499   4.463   4.892  1.1657 -0.1913  0.0072
 1345SOL    HW115497   3.408   4.493   4.896  0.8681 -1.0765 -0.2101
 1345SOL    HW215498   3.556   4.538   4.872 -0.9304  1.8035  1.4368
 1346SOL     OW15499   0.524   1.908   8.711  0.4712 -1.0814  0.2414
 1346SOL    HW115500   0.510   1.871   8.798 -0.5334  0.5135  0.7559
 1346SOL    HW215501   0.616   1.883   8.702  1.1717  1.4689  0.3879
 1347SOL     OW15502   1.661   4.490   6.594  0.7395  0.8124 -0.1247
 1347SOL    HW115503   1.640   4.435   6.669 -0.0572  1.2834  0.0049
 1347SOL    HW215504   1.756   4.490   6.599  0.6340 -0.9676  1.5583
 1348SOL     OW15505   1.416   2.325  12.023  0.4502 -0.9301  0.2442
 1348SOL    HW115506   1.368   2.245  12.048 -0.4393 -1.4228 -3.1099
 1348SOL    HW215507   1.386   2.376  12.098 -0.3602 -0.5343 -0.3447
 1349SOL     OW15508   4.669   2.026  15.646 -0.7235  0.2506  0.1128
 1349SOL    HW115509   4.628   1.965  15.584 -0.1661 -0.7571  0.7325
 1349SOL    HW215510   0.001   2.092  15.598  1.4714 -1.3405  0.1914
 1350SOL     OW15511   3.640   4.117   7.724 -0.5952  0.3341  0.1705
 1350SOL    HW115512   3.689   4.146   7.801  2.0787 -2.4263 -0.4596
 1350SOL    HW215513   3.566   4.177   7.718 -2.5767 -2.1739 -0.3300
 1351SOL     OW15514   3.956   4.030   0.761  0.1941 -0.1244  0.4178
 1351SOL    HW115515   4.031   4.081   0.791  0.1428 -1.8500  3.4881
 1351SOL    HW215516   3.908   4.097   0.713 -0.5589 -0.7079  0.3583
 1352SOL     OW15517   4.430   1.547   6.856 -0.3321 -0.1866 -0.4809
 1352SOL    HW115518   4.511   1.496   6.855  1.8247  3.2187 -0.9288
 1352SOL    HW215519   4.446   1.608   6.928 -0.2745  0.1435 -0.7758
 1353SOL     OW15520   1.839   2.874   2.307  0.3136 -0.1661  0.1127
 1353SOL    HW115521   1.873   2.821   2.236 -0.4304  0.6230 -0.8303
 1353SOL    HW215522   1.896   2.845   2.378 -2.3578  0.1457  2.3757
 1354SOL     OW15523   0.131   0.478  10.371 -0.5352  0.0096 -0.1951
 1354SOL    HW115524   0.071   0.479  10.445 -2.3886  0.0631 -1.6888
 1354SOL    HW215525   0.118   0.568  10.342 -0.6851 -0.5184 -1.8005
 1355SOL     OW15526   1.224   3.609  16.242  0.4954 -0.2154  0.1865
 1355SOL    HW115527   1.189   3.547  16.178 -0.9428 -0.8619  1.6019
 1355SOL    HW215528   1.171   3.685  16.218  0.2382 -0.0090  1.3994
 1356SOL     OW15529   1.581   2.422   4.538  0.2010 -0.0512 -0.4311
 1356SOL    HW115530   1.507   2.364   4.560 -0.4309  0.8758 -0.1201
 1356SOL    HW215531   1.560   2.424   4.445  0.6025 -0.5733 -0.5362
 1357SOL     OW15532   0.078   0.394   1.356  0.5073 -0.2131 -0.5065
 1357SOL    HW115533   0.087   0.414   1.449 -1.1526 -1.1864 -0.1489
 1357SOL    HW215534   0.006   0.331   1.357  0.9903 -0.7256  1.2487
 1358SOL     OW15535   2.165   1.104   1.929  0.1000 -0.1854  0.1548
 1358SOL    HW115536   2.246   1.109   1.981  0.8513  1.3964 -1.1774
 1358SOL    HW215537   2.141   1.013   1.946  0.1342 -0.2340 -0.0586
 1359SOL     OW15538   4.478   3.401  12.201  0.2652 -0.3751 -0.0535
 1359SOL    HW115539   4.466   3.466  12.270  1.2935 -0.5424  0.2736
 1359SOL    HW215540   4.409   3.345  12.237 -0.7127 -0.1506 -1.5803
 1360SOL     OW15541   3.726   4.503  12.816 -0.1100  0.5069 -0.4225
 1360SOL    HW115542   3.752   4.595  12.825  0.5801  0.3552 -0.8482
 1360SOL    HW215543   3.699   4.484  12.905 -2.3016  1.3481 -0.9296
 1361SOL     OW15544   0.264   3.612   0.643 -0.3743 -0.0629 -0.0327
 1361SOL    HW115545   0.222   3.541   0.595 -2.3627  0.0982  1.4557
 1361SOL    HW215546   0.316   3.656   0.576  2.0091 -0.2881  1.6616
 1362SOL     OW15547   4.061   3.578   8.010  0.2986 -0.6052 -0.1507
 1362SOL    HW115548   4.053   3.671   7.989  0.2188  0.0060  2.5168
 1362SOL    HW215549   4.104   3.602   8.093  0.6463  0.9065 -0.7672
 1363SOL     OW15550   3.655   2.591  13.985 -0.3831  0.5553 -0.2296
 1363SOL    HW115551   3.583   2.589  13.921 -1.4851  2.5943  0.9220
 1363SOL    HW215552   3.687   2.502  13.973  2.3010  1.3830  0.7418
 1364SOL     OW15553   0.228   3.782   4.003 -0.3841 -0.0655  0.3984
 1364SOL    HW115554   0.314   3.745   4.021 -0.0904  1.4021  2.0797
 1364SOL    HW215555   0.257   3.873   4.014 -0.4558  0.1257 -0.9098
 1365SOL     OW15556   3.313   3.586  17.570 -0.4038  0.0823 -0.1948
 1365SOL    HW115557   3.404   3.579  17.600 -0.1345 -0.6154 -1.1747
 1365SOL    HW215558   3.280   3.650  17.633  1.9244 -0.8967  1.9956
 1366SOL     OW15559   1.004   0.345   1.551  0.6846  0.4821 -0.1218
 1366SOL    HW115560   0.963   0.261   1.529  0.6790  0.5100 -0.2206
 1366SOL    HW215561   0.953   0.363   1.630 -1.2086 -2.2065 -0.7216
 1367SOL     OW15562   2.288   2.904  10.079 -0.6367 -0.0483  0.1188
 1367SOL    HW115563   2.283   2.851  10.158 -0.4481 -0.1149  0.0883
 1367SOL    HW215564   2.260   2.986  10.119  0.5993  1.3341 -1.8553
 1368SOL     OW15565   4.316   1.890   2.904 -0.3143  0.5252  0.1250
 1368SOL    HW115566   4.368   1.921   2.978 -1.6565  1.1872  0.7891
 1368SOL    HW215567   4.383   1.887   2.836 -0.1156 -0.7494  0.3708
 1369SOL     OW15568   2.225   1.172   3.454  0.5041 -0.2461  0.1391
 1369SOL    HW115569   2.312   1.142   3.479  2.1354  2.9082 -1.8565
 1369SOL    HW215570   2.232   1.187   3.360 -1.2126 -2.1638 -0.3073
 1370SOL     OW15571   4.513   1.986   3.755  0.8771 -0.0837  0.0026
 1370SOL    HW115572   4.494   2.025   3.670  4.0632 -0.3200 -0.8224
 1370SOL    HW215573   4.440   1.924   3.762  1.6137 -0.9805 -0.3189
 1371SOL     OW15574   3.660   1.551   5.329 -0.3699  0.1371 -0.3016
 1371SOL    HW115575   3.598   1.479   5.339 -1.1180  0.8079 -0.0961
 1371SOL    HW215576   3.649   1.570   5.422  1.3559  1.8779 -0.4475
 1372SOL     OW15577   0.526   0.894  11.267 -0.6303 -0.1101 -0.4919
 1372SOL    HW115578   0.491   0.955  11.332  1.2014 -1.1800  1.5159
 1372SOL    HW215579   0.606   0.944  11.252  0.5293 -1.4452  1.2852
 1373SOL     OW15580   4.613   4.099   0.750  0.2042 -0.3098  0.0468
 1373SOL    HW115581   4.526   4.075   0.782 -0.6233  1.4342 -0.9011
 1373SOL    HW215582   4.597   4.186   0.712 -0.1199 -0.6122 -0.4948
 1374SOL     OW15583   4.383   3.950   6.641  0.2838  0.7534  0.2243
 1374SOL    HW115584   4.300   3.909   6.617  2.2434 -0.5478 -4.1704
 1374SOL    HW215585   4.439   3.875   6.660 -2.7490 -1.4520  0.4584
 1375SOL     OW15586   2.777   0.278   3.182 -0.6349 -0.2702 -0.0232
 1375SOL    HW115587   2.854   0.267   3.238 -1.3105  0.3928  1.0367
 1375SOL    HW215588   2.802   0.364   3.148  0.5196 -1.0488 -1.1740
 1376SOL     OW15589   3.256   0.180   5.371  0.0761 -0.6754 -0.5609
 1376SOL    HW115590   3.323   0.125   5.330  1.5331  0.9021 -0.2574
 1376SOL    HW215591   3.306   0.250   5.412 -2.1069  0.0856  0.8042
 1377SOL     OW15592   0.788   1.632   6.311 -0.8163 -0.3617 -0.4025
 1377SOL    HW115593   0.821   1.575   6.380 -1.3536  1.8773  1.7169
 1377SOL    HW215594   0.744   1.689   6.374  1.5137  0.3824  0.5644
 1378SOL     OW15595   0.583   1.731  13.893 -0.2892 -0.3020 -0.2503
 1378SOL    HW115596   0.524   1.747  13.819 -1.3806 -0.4033  0.6227
 1378SOL    HW215597   0.524   1.700  13.961  0.7044 -2.6635 -0.4697
 1379SOL     OW15598   2.248   2.810  12.239 -0.2058 -0.6163  0.5185
 1379SOL    HW115599   2.153   2.804  12.247 -0.3087  0.0830 -0.2219
 1379SOL    HW215600   2.252   2.775  12.150  0.2789 -0.8598  0.6353
 1380SOL     OW15601   2.576   1.053   5.096 -0.0945  0.1052 -0.4624
 1380SOL    HW115602   2.580   1.149   5.102  1.3666  0.0394 -0.2840
 1380SOL    HW215603   2.521   1.050   5.018  0.8840  1.0836 -1.2073
 1381SOL     OW15604   2.434   1.737   7.660 -0.2606  0.4835  0.0494
 1381SOL    HW115605   2.427   1.722   7.755  2.3873 -0.5613  0.0720
 1381SOL    HW215606   2.426   1.654   7.613 -2.1318  1.1351 -0.7585
 1382SOL     OW15607   2.139   3.503   7.547  0.7521  0.4697  0.3836
 1382SOL    HW115608   2.079   3.510   7.621 -0.4411 -0.8995 -0.4574
 1382SOL    HW215609   2.104   3.578   7.499  2.0128 -0.2292 -1.6024
 1383SOL     OW15610   4.705   3.030   9.277 -0.5554  0.8141  0.0976
 1383SOL    HW115611   4.699   3.094   9.348 -1.7121  0.6912  0.1173
 1383SOL    HW215612   0.081   3.010   9.274 -0.6237  0.3874  1.1282
 1384SOL     OW15613   0.473   1.602   5.663 -0.1162 -0.2935  0.7697
 1384SOL    HW115614   0.548   1.591   5.721 -0.6800  1.4944  1.8269
 1384SOL    HW215615   0.501   1.676   5.609 -1.0446 -1.5636 -1.4726
 1385SOL     OW15616   0.486   2.991   7.922  0.2835 -0.2055 -0.0644
 1385SOL    HW115617   0.454   3.061   7.979  3.1540  2.0618 -1.2836
 1385SOL    HW215618   0.535   3.043   7.858  0.6490  2.4931  2.4292
 1386SOL     OW15619   1.770   3.282  10.065 -0.1435 -0.3033  0.2297
 1386SOL    HW115620   1.824   3.292   9.987 -0.9133  0.9029 -0.1393
 1386SOL    HW215621   1.804   3.195  10.086 -0.3381 -0.5216 -0.3763
 1387SOL     OW15622   0.018   2.532   7.887  0.3631  0.3028  0.5484
 1387SOL    HW115623   4.668   2.474   7.921 -0.4919  1.4405  0.7790
 1387SOL    HW215624   4.698   2.616   7.913  1.0812 -0.2462  3.4129
 1388SOL     OW15625   3.838   0.356  11.415  0.2775 -0.5072 -0.4469
 1388SOL    HW115626   3.924   0.397  11.413 -0.4296  1.0756  2.3485
 1388SOL    HW215627   3.833   0.331  11.507 -1.5806 -0.8380 -0.6308
 1389SOL     OW15628   2.314   4.356   0.184 -0.1390 -0.5606  0.0327
 1389SOL    HW115629   2.405   4.362   0.154 -0.2508  0.5114 -0.0837
 1389SOL    HW215630   2.278   4.443   0.169 -0.5029 -0.8619 -0.7917
 1390SOL     OW15631   2.087   2.831   3.788  0.0183  0.5988  0.1210
 1390SOL    HW115632   2.099   2.739   3.764  1.4843  0.5364  1.0978
 1390SOL    HW215633   2.091   2.865   3.699 -1.2997 -1.7731 -0.8592
 1391SOL     OW15634   4.360   1.207   8.597 -0.0859 -0.0210 -0.1087
 1391SOL    HW115635   4.439   1.157   8.574  1.5833  2.8096 -0.5483
 1391SOL    HW215636   4.298   1.156   8.546  0.3903 -0.1902 -0.5218
 1392SOL     OW15637   1.202   4.051   8.611  0.1444  0.2575 -0.2578
 1392SOL    HW115638   1.289   4.031   8.575  0.8461 -0.5282  1.8685
 1392SOL    HW215639   1.213   4.131   8.663 -1.4460  0.2814  0.0355
 1393SOL     OW15640   0.453   0.832   9.199 -0.2011 -0.4628 -0.1281
 1393SOL    HW115641   0.423   0.741   9.197 -0.0402 -0.5268  0.5408
 1393SOL    HW215642   0.457   0.842   9.104  0.3956  1.8617  0.1401
 1394SOL     OW15643   3.405   0.378  12.799 -0.5315 -0.7081  0.7042
 1394SOL    HW115644   3.351   0.319  12.747 -0.0472 -0.3635 -0.1867
 1394SOL    HW215645   3.488   0.331  12.811 -1.0235 -1.2354  2.0728
 1395SOL     OW15646   4.235   2.772   2.288  0.3786  0.2526  0.3306
 1395SOL    HW115647   4.183   2.852   2.288 -2.8578 -1.8628  0.4715
 1395SOL    HW215648   4.168   2.712   2.255 -0.2208  1.5074 -0.7019
 1396SOL     OW15649   4.269   2.532   9.042  0.2842 -0.6303  0.8864
 1396SOL    HW115650   4.180   2.500   9.050 -0.4886  1.3068  0.1110
 1396SOL    HW215651   4.264   2.613   9.093  0.4048 -0.3566  0.4719
 1397SOL     OW15652   1.422   3.320   8.652 -0.0371 -0.0587  0.2049
 1397SOL    HW115653   1.441   3.414   8.655  1.2801 -0.2670 -1.2889
 1397SOL    HW215654   1.328   3.319   8.636 -0.0460 -1.4734  0.3415
 1398SOL     OW15655   1.226   2.812   8.145  0.3978  0.0129 -0.4899
 1398SOL    HW115656   1.177   2.886   8.182  1.2706  0.7564 -0.8117
 1398SOL    HW215657   1.210   2.740   8.206  2.0183 -0.7642 -1.0043
 1399SOL     OW15658   4.124   1.485  11.063 -0.0515  0.0742 -0.0833
 1399SOL    HW115659   4.178   1.514  11.136 -0.1761  1.7843 -0.6822
 1399SOL    HW215660   4.190   1.492  10.994  2.5451  0.5857  2.4720
 1400SOL     OW15661   3.109   3.516   2.367  0.0060 -0.2862 -0.1482
 1400SOL    HW115662   3.110   3.493   2.460  0.5349  0.5777  0.0561
 1400SOL    HW215663   3.204   3.515   2.353 -0.0795 -1.2408 -0.6856
 1401SOL     OW15664   1.504   3.560  10.058  1.0529 -0.0959  0.3167
 1401SOL    HW115665   1.489   3.466  10.069  0.2430 -0.1730 -1.5303
 1401SOL    HW215666   1.502   3.594  10.147 -1.0799 -1.0354  0.6365
 1402SOL     OW15667   0.101   0.666   6.975 -0.4769  0.1648  0.1815
 1402SOL    HW115668   0.108   0.572   6.957  2.5827  0.5229 -0.4055
 1402SOL    HW215669   0.159   0.683   7.050  0.7673  1.6053 -1.1181
 1403SOL     OW15670   2.489   0.672  10.013 -0.0183 -0.7633  0.4955
 1403SOL    HW115671   2.455   0.649   9.927 -0.5567 -1.7062  0.9607
 1403SOL    HW215672   2.429   0.734  10.054 -1.0837 -1.0758 -0.6042
 1404SOL     OW15673   0.708   3.705  11.242  0.2809  0.0033  0.0300
 1404SOL    HW115674   0.796   3.737  11.223  0.8568  0.4562  3.4778
 1404SOL    HW215675   0.670   3.786  11.276  1.6818  0.9050 -0.5365
 1405SOL     OW15676   0.214   1.632  13.247  0.2753  0.3540 -0.0046
 1405SOL    HW115677   0.135   1.685  13.261  1.3664  1.7807  0.8177
 1405SOL    HW215678   0.261   1.650  13.328 -0.9087 -0.1933  0.8116
 1406SOL     OW15679   1.952   3.777   5.530  0.0544 -1.3219 -0.1376
 1406SOL    HW115680   2.036   3.790   5.484  0.5732 -1.0566  0.8856
 1406SOL    HW215681   1.982   3.718   5.599  2.4072  0.0282  0.0043
 1407SOL     OW15682   1.221   2.719   0.587 -0.0914 -0.1146  0.0360
 1407SOL    HW115683   1.267   2.652   0.637  0.1939 -1.1085 -1.5299
 1407SOL    HW215684   1.132   2.684   0.586 -1.0076  2.1951  0.1900
 1408SOL     OW15685   4.342   0.031   3.982 -0.0488  0.0934  0.8268
 1408SOL    HW115686   4.381   0.114   3.952 -3.4018  1.4186  0.1884
 1408SOL    HW215687   4.419   4.714   4.029 -1.0390 -0.3512  2.1247
 1409SOL     OW15688   4.630   3.544   5.863 -0.6059  0.3782  0.3662
 1409SOL    HW115689   4.660   3.469   5.914  0.0765  0.1961 -0.3055
 1409SOL    HW215690   4.695   3.605   5.898 -1.0582  2.6199 -2.7369
 1410SOL     OW15691   4.414   2.695   8.869 -0.2282  0.1297 -0.8278
 1410SOL    HW115692   4.357   2.624   8.900 -1.4718  2.4263  2.1312
 1410SOL    HW215693   4.499   2.660   8.897 -1.6499 -1.8539  1.1022
 1411SOL     OW15694   0.778   1.363   9.934  0.6310  0.0375 -0.3443
 1411SOL    HW115695   0.688   1.372   9.965  0.0443 -0.8526 -1.7880
 1411SOL    HW215696   0.787   1.438   9.875 -0.0293 -0.4026 -1.0040
 1412SOL     OW15697   0.039   0.361   8.370  0.0796  0.7886 -0.0922
 1412SOL    HW115698   0.009   0.412   8.446  0.3845 -0.3143  0.7586
 1412SOL    HW215699   4.668   0.341   8.342  0.1719 -1.6223  1.3977
 1413SOL     OW15700   4.467   1.129   2.828 -0.0986  0.8661 -0.0397
 1413SOL    HW115701   4.406   1.187   2.873 -2.3578 -0.9691 -0.7079
 1413SOL    HW215702   4.451   1.149   2.735 -1.0587  0.3788  0.0235
 1414SOL     OW15703   0.802   1.691   6.019 -0.1585  0.2310 -0.5539
 1414SOL    HW115704   0.775   1.703   6.110 -1.7727 -1.2207 -0.8435
 1414SOL    HW215705   0.897   1.690   6.033 -0.2109 -0.6359 -0.2795
 1415SOL     OW15706   4.164   2.708   4.367  0.3770  0.0128  0.2772
 1415SOL    HW115707   4.124   2.621   4.375  0.9746 -0.2147  0.7774
 1415SOL    HW215708   4.127   2.759   4.439  0.6216  0.0570  0.3713
 1416SOL     OW15709   3.812   4.606  14.108  0.1161 -0.5562 -0.1082
 1416SOL    HW115710   3.739   4.556  14.070 -0.4952  1.0388 -1.0480
 1416SOL    HW215711   3.787   4.615  14.200 -1.5244  1.3688 -0.7367
 1417SOL     OW15712   0.527   4.206  10.701  0.4176  0.0735  0.1615
 1417SOL    HW115713   0.458   4.272  10.694 -1.3261 -1.8368 -0.5915
 1417SOL    HW215714   0.486   4.130  10.741 -0.4141 -0.1007 -1.0105
 1418SOL     OW15715   4.675   1.565   2.630 -0.2720  0.6705  0.5689
 1418SOL    HW115716   4.700   1.478   2.659 -2.2892 -0.6992 -1.7755
 1418SOL    HW215717   4.686   1.625   2.703 -2.5302 -0.9943  2.2549
 1419SOL     OW15718   2.801   0.470  11.364  0.1482  0.3118 -0.6547
 1419SOL    HW115719   2.732   0.488  11.300  0.1963 -0.9029 -1.0564
 1419SOL    HW215720   2.772   0.531  11.431  1.2091 -0.2570  0.3094
 1420SOL     OW15721   1.233   4.170  16.107  0.2314 -0.7609  0.3392
 1420SOL    HW115722   1.275   4.190  16.191 -0.1117  0.7576  0.1580
 1420SOL    HW215723   1.143   4.180  16.136 -0.5892  1.4942 -2.9811
 1421SOL     OW15724   3.346   1.377   9.242 -0.1527  0.3140  0.3228
 1421SOL    HW115725   3.267   1.431   9.254 -0.4925 -0.1490  0.1815
 1421SOL    HW215726   3.378   1.424   9.165  0.0697 -0.4945 -0.0807
 1422SOL     OW15727   2.216   1.667   5.837 -0.1243  0.4298 -0.4469
 1422SOL    HW115728   2.181   1.756   5.844  2.2836  1.3097  0.0799
 1422SOL    HW215729   2.145   1.625   5.886 -0.2062  1.1512  0.0464
 1423SOL     OW15730   3.725   3.450   6.348 -0.3196 -0.3445  0.2595
 1423SOL    HW115731   3.783   3.463   6.273  0.6064  1.3786  1.3042
 1423SOL    HW215732   3.762   3.364   6.368  0.4827 -0.4378 -1.5967
 1424SOL     OW15733   0.827   0.827   3.546 -0.4152  0.0681  0.1790
 1424SOL    HW115734   0.913   0.789   3.566 -1.1883 -0.3728  2.7417
 1424SOL    HW215735   0.779   0.832   3.629 -1.1662  1.5684 -0.3491
 1425SOL     OW15736   0.300   0.549   9.192  0.4577  0.4187 -0.1607
 1425SOL    HW115737   0.343   0.495   9.126 -0.4979  1.5774 -1.7202
 1425SOL    HW215738   0.270   0.486   9.258  0.2394 -0.4514 -1.0986
 1426SOL     OW15739   3.327   1.721  13.959  0.1639  0.4807 -0.1664
 1426SOL    HW115740   3.320   1.775  13.881 -1.9049  0.9067  0.3317
 1426SOL    HW215741   3.249   1.750  14.005  0.7055  1.2149  0.2866
 1427SOL     OW15742   1.368   1.356   7.305 -0.3848  0.1069 -0.4998
 1427SOL    HW115743   1.452   1.338   7.263 -0.7277 -0.9232 -0.7432
 1427SOL    HW215744   1.357   1.272   7.350 -0.6686  0.0195 -0.7379
 1428SOL     OW15745   3.663   0.296   9.893  0.1034  0.0737 -0.4795
 1428SOL    HW115746   3.618   0.312   9.976 -1.6389  0.4551 -1.5096
 1428SOL    HW215747   3.619   0.221   9.853  2.8076 -2.2862  0.9429
 1429SOL     OW15748   3.124   2.725   8.724 -0.3447  0.0163 -0.0877
 1429SOL    HW115749   3.157   2.809   8.693  0.5845 -0.3260 -0.0079
 1429SOL    HW215750   3.183   2.658   8.690  0.1934  0.2556  0.3902
 1430SOL     OW15751   3.054   3.113   0.155  0.0903  0.2508 -0.0356
 1430SOL    HW115752   3.093   3.137   0.239  0.0759  1.0032 -0.2429
 1430SOL    HW215753   3.022   3.023   0.164 -0.8683  0.4647 -1.2068
 1431SOL     OW15754   0.777   3.760   8.266  0.0813  0.3678 -0.3563
 1431SOL    HW115755   0.757   3.852   8.250  1.8106  0.8168  0.0249
 1431SOL    HW215756   0.868   3.772   8.294  0.8541  0.8085 -3.0387
 1432SOL     OW15757   3.933   2.372   6.769 -0.0264 -0.3691  0.3391
 1432SOL    HW115758   3.846   2.359   6.731 -1.0801 -2.2460  3.4058
 1432SOL    HW215759   3.968   2.283   6.769  0.7377 -0.0680 -0.6921
 1433SOL     OW15760   3.898   2.193   2.131  0.1081  0.1300 -0.0824
 1433SOL    HW115761   3.852   2.277   2.135  0.5869  0.4178 -0.8555
 1433SOL    HW215762   3.967   2.222   2.073 -1.6095  2.4155 -0.9818
 1434SOL     OW15763   0.687   4.313  10.041  0.1961  0.0510 -0.0690
 1434SOL    HW115764   0.633   4.359  10.106  1.0853 -0.0056  0.7032
 1434SOL    HW215765   0.637   4.231  10.048  0.2356  0.5150  5.6710
 1435SOL     OW15766   2.226   1.373   6.004 -0.0509 -0.7794 -0.4118
 1435SOL    HW115767   2.134   1.398   6.009 -0.2801 -2.0138  1.2873
 1435SOL    HW215768   2.213   1.280   5.984 -2.4045 -0.3319 -0.9324
 1436SOL     OW15769   1.114   1.875  13.543 -0.0039 -0.0375  0.6375
 1436SOL    HW115770   1.023   1.871  13.513  0.8603 -1.3986 -1.8379
 1436SOL    HW215771   1.096   1.927  13.621 -0.8978  0.5036  0.0633
 1437SOL     OW15772   0.783   0.635   2.082 -0.4466 -0.4881  0.4837
 1437SOL    HW115773   0.853   0.688   2.044  0.5780 -1.7756  0.5495
 1437SOL    HW215774   0.807   0.638   2.175 -0.2339  1.0646  0.3829
 1438SOL     OW15775   3.399   0.494   8.747  0.2090  0.5603  0.5672
 1438SOL    HW115776   3.472   0.446   8.787 -0.1942 -0.2168  0.3728
 1438SOL    HW215777   3.397   0.553   8.822 -3.7279  1.0865  0.0485
 1439SOL     OW15778   3.434   0.958   4.888 -0.1405  0.1176 -0.0109
 1439SOL    HW115779   3.439   1.048   4.920 -3.9023  1.5432 -3.5538
 1439SOL    HW215780   3.519   0.947   4.846 -0.6005  2.7354 -1.5930
 1440SOL     OW15781   0.430   3.360   4.610 -0.2786  0.5789  1.1185
 1440SOL    HW115782   0.386   3.444   4.619 -1.6658 -0.1604  1.3138
 1440SOL    HW215783   0.360   3.294   4.611  0.5966 -0.4251 -1.6218
 1441SOL     OW15784   2.662   0.366   6.994 -0.0761 -0.2495 -0.1068
 1441SOL    HW115785   2.733   0.424   7.022 -0.9570  0.6733  0.2078
 1441SOL    HW215786   2.670   0.303   7.065  1.2101  0.6731  0.5688
 1442SOL     OW15787   1.085   4.596   3.011  0.4615  0.7751 -0.0960
 1442SOL    HW115788   1.082   4.524   3.075  1.5407  0.6905 -0.1413
 1442SOL    HW215789   0.992   4.605   2.989  0.4052 -0.5885 -0.4238
 1443SOL     OW15790   0.476   3.768   8.938  0.6139 -0.0953  0.1831
 1443SOL    HW115791   0.418   3.843   8.948  0.3026 -0.4621  1.1288
 1443SOL    HW215792   0.403   3.714   8.906 -0.0301  1.7385 -1.4075
 1444SOL     OW15793   2.621   0.107  10.277  0.2231  0.3585  0.4204
 1444SOL    HW115794   2.565   0.042  10.236 -1.6009  1.0994  1.7086
 1444SOL    HW215795   2.709   0.089  10.246 -0.7773 -2.7584 -0.5935
 1445SOL     OW15796   1.450   2.200  10.268 -0.2495  0.0957 -0.4737
 1445SOL    HW115797   1.442   2.265  10.338  1.9409 -1.2282  1.0029
 1445SOL    HW215798   1.355   2.198  10.257 -0.2974 -1.2505  0.2589
 1446SOL     OW15799   2.948   3.159   6.927 -0.2411 -0.1651  0.2406
 1446SOL    HW115800   2.971   3.067   6.922  1.7601  0.3685 -0.4464
 1446SOL    HW215801   2.927   3.178   7.019  0.6676  1.8543  0.0326
 1447SOL     OW15802   1.108   0.315   4.766  0.2182  0.9993 -0.1584
 1447SOL    HW115803   1.100   0.239   4.824 -0.0255  0.8070 -0.4480
 1447SOL    HW215804   1.031   0.365   4.794  0.1483 -0.7513  2.8095
 1448SOL     OW15805   1.070   4.105   5.924  0.2032  0.4583 -0.0569
 1448SOL    HW115806   1.165   4.110   5.916  0.0542  1.9732 -0.7735
 1448SOL    HW215807   1.050   4.032   5.865  1.2642 -1.7739  2.3630
 1449SOL     OW15808   4.408   2.501   5.553  0.0238 -0.5245  0.7384
 1449SOL    HW115809   4.350   2.566   5.512  0.0809 -1.4472 -0.7817
 1449SOL    HW215810   4.488   2.512   5.502  0.0605  0.0108  0.9131
 1450SOL     OW15811   1.939   2.607  13.843 -0.1248 -0.4162  0.2385
 1450SOL    HW115812   1.844   2.601  13.829 -0.3324  0.8558  1.1500
 1450SOL    HW215813   1.936   2.629  13.936  0.2654 -0.4586  0.2601
 1451SOL     OW15814   4.566   2.760  13.158  0.2229  0.2321 -0.4677
 1451SOL    HW115815   4.644   2.807  13.128 -0.0580  0.9178 -0.1104
 1451SOL    HW215816   4.516   2.838  13.180  0.2718 -0.3116  1.5636
 1452SOL     OW15817   2.845   4.412   4.169  0.2075 -0.3735 -0.0103
 1452SOL    HW115818   2.874   4.334   4.122 -0.2483  0.4825 -1.7338
 1452SOL    HW215819   2.765   4.434   4.121 -0.1546  0.4335  0.9802
 1453SOL     OW15820   3.622   4.464   7.731  0.0326 -0.1830  0.2981
 1453SOL    HW115821   3.599   4.433   7.643  1.5029 -1.9381  0.5309
 1453SOL    HW215822   3.548   4.424   7.777  0.7940  1.2932  2.8190
 1454SOL     OW15823   3.827   0.871   7.368 -0.6321 -0.6273 -0.4774
 1454SOL    HW115824   3.868   0.849   7.285 -0.0904 -3.4188  0.5625
 1454SOL    HW215825   3.801   0.787   7.404 -0.0067 -0.5938  0.0518
 1455SOL     OW15826   3.627   2.270   2.046 -0.1312  0.5521 -0.3058
 1455SOL    HW115827   3.573   2.264   1.967 -0.5395  0.0562  0.0150
 1455SOL    HW215828   3.638   2.176   2.062 -0.5431  0.2526 -1.7626
 1456SOL     OW15829   0.747   3.945  13.460  0.4057 -0.2327  0.2741
 1456SOL    HW115830   0.767   3.858  13.425 -0.7751 -0.3062 -0.2085
 1456SOL    HW215831   0.823   3.998  13.434 -2.1902  2.3375 -2.1052
 1457SOL     OW15832   3.265   2.867  10.392  0.5646  0.0428  0.2799
 1457SOL    HW115833   3.268   2.863  10.487 -0.0105  0.1298  0.2999
 1457SOL    HW215834   3.277   2.779  10.357  0.5607  0.8573 -1.7702
 1458SOL     OW15835   2.899   2.934   7.998 -0.1099  0.2061  0.4565
 1458SOL    HW115836   2.853   2.861   7.956 -0.4476  0.5038  0.3108
 1458SOL    HW215837   2.861   2.915   8.084  2.5268 -1.7277  1.2139
 1459SOL     OW15838   3.721   1.424   6.881 -0.1501 -0.2573 -0.8038
 1459SOL    HW115839   3.726   1.456   6.971 -0.7196 -2.1730 -0.0839
 1459SOL    HW215840   3.653   1.357   6.887 -2.9172  2.6122 -0.4716
 1460SOL     OW15841   0.188   4.404   9.694 -0.2861  0.5894 -0.2735
 1460SOL    HW115842   0.197   4.486   9.742 -1.5668  1.6814 -1.8836
 1460SOL    HW215843   0.282   4.389   9.684 -0.6026 -0.7859 -1.3269
 1461SOL     OW15844   3.266   3.865  16.657 -0.1243  0.6484 -0.1288
 1461SOL    HW115845   3.311   3.948  16.673  0.5502  0.5208 -1.3121
 1461SOL    HW215846   3.282   3.821  16.740 -1.4820  0.3885 -0.0075
 1462SOL     OW15847   2.162   2.844  14.869 -0.3410 -0.1424  0.0728
 1462SOL    HW115848   2.090   2.844  14.807  1.5727  2.7198 -2.1547
 1462SOL    HW215849   2.122   2.809  14.949 -2.8162 -2.3610 -2.1723
 1463SOL     OW15850   1.197   2.987   2.634  0.0529 -0.1893 -0.0956
 1463SOL    HW115851   1.190   2.895   2.660  1.4907  0.0744  1.2318
 1463SOL    HW215852   1.272   3.012   2.688 -0.4059  2.0561 -0.5025
 1464SOL     OW15853   0.732   4.604  16.859  0.1889  0.1144  0.2805
 1464SOL    HW115854   0.696   4.524  16.898 -1.4069  0.6151 -0.1430
 1464SOL    HW215855   0.816   4.611  16.905 -0.9569  0.3153  2.3657
 1465SOL     OW15856   3.401   0.859  10.914 -0.3195  0.3279  0.6191
 1465SOL    HW115857   3.455   0.822  10.844 -0.5406 -0.8853  1.1069
 1465SOL    HW215858   3.317   0.876  10.870 -0.5859 -1.1289  0.5940
 1466SOL     OW15859   1.533   2.269  15.547  0.0772  0.4192 -0.0037
 1466SOL    HW115860   1.608   2.234  15.596  1.6432  1.6768 -1.4826
 1466SOL    HW215861   1.553   2.239  15.459 -0.8018  0.5637 -0.2511
 1467SOL     OW15862   0.654   3.423   0.587  0.0735 -0.5182 -0.3533
 1467SOL    HW115863   0.732   3.412   0.642 -0.8221 -1.8015  0.6749
 1467SOL    HW215864   0.701   3.444   0.506  2.3265 -0.4033  0.9730
 1468SOL     OW15865   0.949   4.688   7.499 -0.1407  0.6770 -0.4084
 1468SOL    HW115866   0.870   4.694   7.554 -0.6492 -0.3542 -1.0181
 1468SOL    HW215867   0.943   4.598   7.467  6.0270 -1.0622  3.4297
 1469SOL     OW15868   0.994   0.835  10.999 -0.0915 -0.0647 -0.3250
 1469SOL    HW115869   0.957   0.766  11.054  0.9221 -0.2007  0.1791
 1469SOL    HW215870   0.995   0.917  11.048 -0.3829  1.0438 -2.1657
 1470SOL     OW15871   1.663   3.321   6.360 -0.2129 -0.3825 -0.3359
 1470SOL    HW115872   1.679   3.255   6.292 -2.1158 -0.5303 -0.6298
 1470SOL    HW215873   1.588   3.276   6.398 -0.3992  0.0920 -0.1444
 1471SOL     OW15874   3.252   3.084   9.236  0.0387 -0.1046  0.0918
 1471SOL    HW115875   3.228   3.010   9.291  0.2949  0.6072  1.1648
 1471SOL    HW215876   3.293   3.042   9.161  1.7132  1.0398  0.3775
 1472SOL     OW15877   2.032   2.697   9.867  0.0434 -0.3668  0.5743
 1472SOL    HW115878   2.122   2.690   9.899 -0.6479  0.2323  2.6650
 1472SOL    HW215879   1.983   2.648   9.932 -2.9957 -0.0772 -1.5078
 1473SOL     OW15880   1.223   2.442  11.494  0.2761  0.2184  0.0763
 1473SOL    HW115881   1.177   2.364  11.524  0.1893 -0.4595 -1.8407
 1473SOL    HW215882   1.226   2.433  11.399  0.5123  2.5303 -0.1396
 1474SOL     OW15883   0.357   0.656   1.978 -0.7942  0.8133 -0.9522
 1474SOL    HW115884   0.315   0.685   2.059  1.5594 -4.0037  1.9633
 1474SOL    HW215885   0.424   0.595   2.009  0.5364  2.8968  0.2684
 1475SOL     OW15886   0.346   0.081   3.552  0.2456 -0.4160  0.4369
 1475SOL    HW115887   0.415   0.015   3.540  0.1324 -1.0806  3.3514
 1475SOL    HW215888   0.269   0.039   3.514  1.8345 -0.4254 -2.7152
 1476SOL     OW15889   1.363   3.758   2.800  0.3490  0.1648  0.4037
 1476SOL    HW115890   1.302   3.827   2.824  0.1138  0.5428 -1.3279
 1476SOL    HW215891   1.450   3.798   2.807  0.3174  0.0009  1.8151
 1477SOL     OW15892   2.875   1.472   0.919  1.2444 -0.7768 -0.5820
 1477SOL    HW115893   2.952   1.466   0.976  0.2147 -2.4962  0.6331
 1477SOL    HW215894   2.825   1.533   0.973  1.1745 -2.4634  1.2537
 1478SOL     OW15895   1.817   0.630  10.895  0.1633 -0.0169 -0.4256
 1478SOL    HW115896   1.890   0.679  10.932  4.1471 -3.3729 -3.9059
 1478SOL    HW215897   1.776   0.581  10.966  0.3234 -0.4402 -0.6243
 1479SOL     OW15898   1.192   2.347  12.592 -0.4574 -0.2358  0.8986
 1479SOL    HW115899   1.261   2.302  12.543 -0.4293  2.3792 -1.4518
 1479SOL    HW215900   1.117   2.290  12.576 -0.8672 -0.0347  2.0697
 1480SOL     OW15901   0.991   2.764   5.396 -0.1432 -0.2019  0.0902
 1480SOL    HW115902   0.942   2.766   5.478 -0.3594 -1.8209 -0.0143
 1480SOL    HW215903   1.075   2.801   5.425 -1.7584  2.4323  1.4700
 1481SOL     OW15904   0.368   3.649   6.490 -0.3117 -0.4254 -0.0632
 1481SOL    HW115905   0.412   3.595   6.425  1.3677  1.8581 -0.8113
 1481SOL    HW215906   0.426   3.617   6.560 -1.5113 -0.5880  0.8441
 1482SOL     OW15907   3.946   0.839   6.054 -0.1309 -0.1860  0.0988
 1482SOL    HW115908   3.997   0.916   6.075 -0.9197  0.1556  0.7440
 1482SOL    HW215909   3.915   0.866   5.967  3.2355  2.4197 -0.2478
 1483SOL     OW15910   2.654   2.727   7.558  0.2811 -0.1407  0.6346
 1483SOL    HW115911   2.709   2.656   7.527  0.9731 -0.1638  1.9037
 1483SOL    HW215912   2.663   2.789   7.486  0.5915 -1.2769 -0.2902
 1484SOL     OW15913   1.675   2.930   7.610  0.0610 -0.5058  0.1562
 1484SOL    HW115914   1.702   2.854   7.663  0.3177  0.2943  1.1638
 1484SOL    HW215915   1.595   2.964   7.649  1.1448 -1.2726  3.0482
 1485SOL     OW15916   3.780   0.263   0.508 -0.7530  0.2164 -0.5387
 1485SOL    HW115917   3.828   0.294   0.585  0.9066 -2.4897 -0.4936
 1485SOL    HW215918   3.786   0.167   0.507 -0.0631  0.2394  1.0223
 1486SOL     OW15919   4.354   3.330   2.571  0.0864  0.7693  0.1829
 1486SOL    HW115920   4.336   3.289   2.486  2.4704 -1.7655  0.8754
 1486SOL    HW215921   4.396   3.257   2.617  0.3289  1.6661  1.3937
 1487SOL     OW15922   1.591   0.878   5.171  0.2822 -0.4265  0.0269
 1487SOL    HW115923   1.518   0.864   5.231 -0.2969 -1.5608 -0.9605
 1487SOL    HW215924   1.618   0.787   5.160  0.6825 -0.0473 -2.2233
 1488SOL     OW15925   1.358   2.134   5.452 -0.1149  0.2347  0.5045
 1488SOL    HW115926   1.321   2.071   5.515 -0.8091  0.7003  0.5582
 1488SOL    HW215927   1.395   2.192   5.519  1.7808  1.2996 -1.4785
 1489SOL     OW15928   3.010   2.894  12.598  0.0311 -0.3299  0.5592
 1489SOL    HW115929   3.061   2.969  12.631  0.8531 -1.3706  1.6789
 1489SOL    HW215930   3.072   2.858  12.535 -0.8259 -0.8545  0.0217
 1490SOL     OW15931   3.435   1.861   2.832  0.3484 -0.0396 -0.3415
 1490SOL    HW115932   3.531   1.862   2.831  0.3577  0.9222  1.0933
 1490SOL    HW215933   3.418   1.915   2.909  1.0817 -0.0901 -0.1405
 1491SOL     OW15934   4.039   2.186  10.396 -0.3126  0.3254  0.2778
 1491SOL    HW115935   4.094   2.239  10.454  0.2796 -0.7859  0.7221
 1491SOL    HW215936   3.966   2.175  10.457 -0.4959 -0.2788 -0.0491
 1492SOL     OW15937   2.935   2.472   4.081  0.0438  0.4406  0.4136
 1492SOL    HW115938   2.855   2.425   4.056  1.9403 -1.6099 -1.8655
 1492SOL    HW215939   3.011   2.418   4.060 -1.6695 -2.3064  1.2097
 1493SOL     OW15940   3.630   0.284   5.944  0.0803 -0.1859 -0.3253
 1493SOL    HW115941   3.681   0.218   5.991  2.9232  2.3253  0.1635
 1493SOL    HW215942   3.541   0.264   5.972 -0.5479  2.2733 -0.5623
 1494SOL     OW15943   2.280   3.600   6.708  0.6666 -0.1544  0.0747
 1494SOL    HW115944   2.372   3.622   6.722  1.0220 -0.5706 -1.5047
 1494SOL    HW215945   2.283   3.513   6.667  1.0930 -0.8115  1.5072
 1495SOL     OW15946   4.627   1.103   6.519 -0.4400 -0.3863 -0.1468
 1495SOL    HW115947   4.699   1.080   6.578  2.1397  1.7184 -2.4181
 1495SOL    HW215948   4.637   1.051   6.439 -1.1950  0.0928 -0.5513
 1496SOL     OW15949   1.796   4.115   7.268  0.2238  0.4388 -0.6888
 1496SOL    HW115950   1.802   4.164   7.185  0.3311 -1.0370 -1.5518
 1496SOL    HW215951   1.738   4.178   7.311 -1.5062 -1.2410 -0.5487
 1497SOL     OW15952   2.568   0.046   1.050 -0.2043 -0.1115  0.0673
 1497SOL    HW115953   2.482   0.007   1.065  0.6370 -1.8675  0.3021
 1497SOL    HW215954   2.595   0.071   1.138  0.9469 -0.0977 -0.2839
 1498SOL     OW15955   0.794   1.192   9.063  0.1229 -0.0684 -0.6894
 1498SOL    HW115956   0.755   1.201   9.150 -0.4776 -1.9589 -0.7722
 1498SOL    HW215957   0.795   1.280   9.025 -2.5567  0.0370 -0.5019
 1499SOL     OW15958   3.107   3.755   2.661  0.5737 -0.0738  0.9654
 1499SOL    HW115959   3.012   3.763   2.672  0.6638  1.7063  0.4546
 1499SOL    HW215960   3.115   3.659   2.658  1.9336  0.0908 -0.5030
 1500SOL     OW15961   4.311   1.676   2.689 -0.0843  0.4449 -0.1043
 1500SOL    HW115962   4.384   1.647   2.744 -0.8810  1.1600  1.3418
 1500SOL    HW215963   4.240   1.624   2.726 -1.3501  2.5174  0.4371
 1501SOL     OW15964   0.214   1.213   8.047 -0.1691 -0.6625  0.2141
 1501SOL    HW115965   0.144   1.148   8.053  0.7689 -1.5055  2.2880
 1501SOL    HW215966   0.226   1.245   7.958  1.0294 -0.5067  0.4251
 1502SOL     OW15967   0.656   1.606   8.432 -0.4023  0.0832 -0.2326
 1502SOL    HW115968   0.575   1.623   8.385 -0.3042 -0.0022 -0.4291
 1502SOL    HW215969   0.686   1.527   8.387  1.0865  1.0458 -0.9206
 1503SOL     OW15970   4.270   1.636   7.958 -0.4541 -0.2710  0.2451
 1503SOL    HW115971   4.193   1.628   7.902  0.6576  0.5198 -1.4065
 1503SOL    HW215972   4.295   1.727   7.943  2.0609 -0.8291  0.9119
 1504SOL     OW15973   1.430   3.191  17.501  0.0794 -0.0408 -0.3953
 1504SOL    HW115974   1.350   3.210  17.550  0.4002 -2.0867  0.8992
 1504SOL    HW215975   1.490   3.264  17.515 -1.7690  1.5392 -0.6965
 1505SOL     OW15976   1.673   3.632   5.407  0.1733  0.0811 -0.1597
 1505SOL    HW115977   1.686   3.584   5.326  0.6812  1.3658 -0.8363
 1505SOL    HW215978   1.685   3.723   5.380  1.5934  0.0608  0.3826
 1506SOL     OW15979   0.873   2.995   5.911  0.1131 -0.9438  0.1356
 1506SOL    HW115980   0.796   2.945   5.885 -1.0799  1.8478 -1.7600
 1506SOL    HW215981   0.827   3.079   5.914 -0.2451 -1.0641 -2.2510
 1507SOL     OW15982   0.292   3.396   8.323 -0.7587 -0.5784  0.2863
 1507SOL    HW115983   0.302   3.438   8.408  3.1386 -1.0134  0.0732
 1507SOL    HW215984   0.365   3.432   8.271 -1.2104 -0.4634 -0.2647
 1508SOL     OW15985   1.666   1.373   5.312  0.7150 -0.2071 -0.0862
 1508SOL    HW115986   1.648   1.294   5.363  1.8646  0.7082  1.7052
 1508SOL    HW215987   1.656   1.436   5.383  0.4141  0.6054 -0.8443
 1509SOL     OW15988   3.206   1.181   1.211  0.1250 -0.2053  0.0823
 1509SOL    HW115989   3.156   1.159   1.133 -0.1220  0.6932 -0.0151
 1509SOL    HW215990   3.256   1.258   1.181  3.5000 -2.2392  0.5250
 1510SOL     OW15991   2.018   4.385   0.472 -0.1496 -0.3297  0.0066
 1510SOL    HW115992   1.998   4.477   0.454 -2.1834 -1.1197 -1.7147
 1510SOL    HW215993   1.929   4.351   0.469 -0.2802  0.2979 -2.8005
 1511SOL     OW15994   2.991   2.258   2.749 -0.0656 -0.1960 -0.0421
 1511SOL    HW115995   3.032   2.329   2.797  0.0062 -0.0331 -0.3462
 1511SOL    HW215996   3.027   2.243   2.661  0.7269 -2.3114  0.6374
 1512SOL     OW15997   3.054   3.659   7.091  0.2485  0.1476  0.7587
 1512SOL    HW115998   3.100   3.581   7.059  0.5932  0.3243  0.8324
 1512SOL    HW215999   3.096   3.684   7.173 -1.4947  3.2086  0.6943
 1513SOL     OW16000   1.445   4.306  11.159  0.2518  0.3454 -0.4270
 1513SOL    HW116001   1.383   4.244  11.198  0.5140  0.3972  0.0770
 1513SOL    HW216002   1.432   4.296  11.065 -0.3801 -0.8313 -0.2236
 1514SOL     OW16003   3.892   2.773  11.140  0.1814 -0.5974  0.0648
 1514SOL    HW116004   3.935   2.789  11.224 -0.9565 -0.9661  0.7231
 1514SOL    HW216005   3.894   2.859  11.099 -1.1986 -0.8057 -0.4583
 1515SOL     OW16006   3.063   1.539   1.115 -0.1674 -0.2047  0.6784
 1515SOL    HW116007   3.150   1.567   1.087 -0.7102  0.6940 -0.1369
 1515SOL    HW216008   3.023   1.612   1.162 -0.7401 -0.1142  0.0653
 1516SOL     OW16009   3.315   2.350  13.997  0.1767 -0.1997 -0.3122
 1516SOL    HW116010   3.350   2.358  14.085 -1.1134  0.9988  0.1056
 1516SOL    HW216011   3.295   2.442  13.979  0.8372  0.0870  0.4742
 1517SOL     OW16012   4.605   1.635   4.711  0.2918 -0.4752 -0.1349
 1517SOL    HW116013   4.665   1.624   4.637 -1.8694  1.1988 -2.1074
 1517SOL    HW216014   4.552   1.704   4.671 -0.2826 -0.0749  1.3141
 1518SOL     OW16015   0.234   1.299   5.252 -0.3066 -0.2801 -0.6465
 1518SOL    HW116016   0.218   1.290   5.346 -1.1350 -1.7675 -0.9300
 1518SOL    HW216017   0.311   1.244   5.245 -2.0390 -2.8064  0.4264
 1519SOL     OW16018   2.495   4.590   3.585  0.0372  0.4199  0.1010
 1519SOL    HW116019   2.590   4.586   3.600  0.1520  1.9128 -0.1781
 1519SOL    HW216020   2.497   4.537   3.505 -1.2736 -0.9193  0.9516
 1520SOL     OW16021   0.823   2.462   5.449 -0.1793  0.4036  0.1292
 1520SOL    HW116022   0.779   2.499   5.525 -0.8362 -1.8329  0.8275
 1520SOL    HW216023   0.773   2.502   5.378  2.0441 -0.5773 -1.9829
 1521SOL     OW16024   1.662   3.310  17.568  0.2643 -0.2160 -0.7823
 1521SOL    HW116025   1.735   3.248  17.574  0.9476  0.7290  0.6300
 1521SOL    HW216026   1.665   3.343  17.657  0.0355 -0.2451 -0.7662
 1522SOL     OW16027   3.939   0.710   1.215 -0.3297 -0.4864  0.1491
 1522SOL    HW116028   3.985   0.627   1.230 -0.8686 -0.8918 -0.4488
 1522SOL    HW216029   3.966   0.773   1.281 -1.4180  0.3500 -0.1961
 1523SOL     OW16030   3.064   0.830   5.152 -0.1870 -0.7725  0.0920
 1523SOL    HW116031   3.133   0.890   5.123  1.2850 -1.6812  1.7479
 1523SOL    HW216032   3.042   0.780   5.073 -2.0759  0.9532 -0.4705
 1524SOL     OW16033   2.674   0.375   7.481 -0.1404 -0.1282 -0.3437
 1524SOL    HW116034   2.730   0.375   7.559 -1.9948 -0.8041  1.0012
 1524SOL    HW216035   2.653   0.468   7.474 -1.6946 -0.2150  3.2344
 1525SOL     OW16036   0.079   0.027   9.055 -0.2875 -0.3771  0.2822
 1525SOL    HW116037   0.010   4.701   9.104  1.5363 -1.5472  1.7864
 1525SOL    HW216038   0.102   0.094   9.119  0.1282  1.3055 -1.6111
 1526SOL     OW16039   3.499   2.439  17.436 -0.3243 -0.1696  0.0354
 1526SOL    HW116040   3.521   2.531  17.455  1.0687  0.0627 -2.7646
 1526SOL    HW216041   3.543   2.387  17.503 -0.5427 -0.4951 -0.0751
 1527SOL     OW16042   2.955   3.067   2.868 -0.1840 -0.4187 -0.3469
 1527SOL    HW116043   2.958   3.123   2.790 -0.5721 -0.4336 -0.3755
 1527SOL    HW216044   2.958   2.979   2.829 -0.7060 -1.0528  1.0578
 1528SOL     OW16045   3.155   4.561   0.587 -0.3161 -0.4703 -0.1061
 1528SOL    HW116046   3.170   4.632   0.650 -0.3924 -0.1036 -0.4999
 1528SOL    HW216047   3.144   4.601   0.501  1.3746 -0.5645 -0.3647
 1529SOL     OW16048   0.487   3.120   6.537  0.4611 -0.2317 -0.1952
 1529SOL    HW116049   0.441   3.173   6.472 -0.2863  0.2221  0.7083
 1529SOL    HW216050   0.430   3.043   6.529 -0.3008  0.2600  0.4109
 1530SOL     OW16051   3.612   3.020   5.090 -0.6688 -0.0677  0.4686
 1530SOL    HW116052   3.599   3.114   5.084  1.3898  0.1779 -0.1117
 1530SOL    HW216053   3.567   3.008   5.174 -1.0917 -1.1473  0.0915
 1531SOL     OW16054   3.099   2.015  16.250  0.6537  0.0900 -0.4492
 1531SOL    HW116055   3.074   1.972  16.168 -1.7888 -2.3830  1.5946
 1531SOL    HW216056   3.060   2.101  16.237  0.5341  0.3889  1.8319
 1532SOL     OW16057   0.380   0.488   5.909 -0.3133  0.5579  0.1812
 1532SOL    HW116058   0.386   0.409   5.964  1.2371 -0.1325 -0.9625
 1532SOL    HW216059   0.305   0.468   5.853  0.6688  2.1177 -1.6762
 1533SOL     OW16060   0.531   2.260  15.556 -0.2868  0.1468 -0.4667
 1533SOL    HW116061   0.529   2.262  15.461  0.8993 -1.8731 -0.5477
 1533SOL    HW216062   0.527   2.165  15.569 -1.1755  0.3314  0.5813
 1534SOL     OW16063   3.274   2.154   1.425 -0.2061 -0.0882 -0.0830
 1534SOL    HW116064   3.332   2.225   1.451 -1.0695  0.6555 -0.1908
 1534SOL    HW216065   3.232   2.186   1.345 -0.0491  1.0354  0.2761
 1535SOL     OW16066   1.062   4.542   4.079 -0.0848 -0.1003 -0.0150
 1535SOL    HW116067   1.009   4.607   4.034 -1.2460 -0.4485  0.8530
 1535SOL    HW216068   1.064   4.562   4.173  1.1181  2.9295 -0.6892
 1536SOL     OW16069   1.605   4.570   5.878 -0.4803  0.1715 -0.0045
 1536SOL    HW116070   1.592   4.502   5.944 -1.5649 -0.6733 -1.0877
 1536SOL    HW216071   1.584   4.646   5.932  2.2232  0.7024  0.2943
 1537SOL     OW16072   0.517   3.436   8.015  0.1232 -0.5648  0.2054
 1537SOL    HW116073   0.580   3.502   7.987  1.5714 -1.4129  1.4180
 1537SOL    HW216074   0.482   3.480   8.092 -0.6818 -0.3298 -0.2973
 1538SOL     OW16075   0.840   1.242  11.706  0.2772  0.7120 -0.5097
 1538SOL    HW116076   0.883   1.161  11.733 -1.4605 -0.2951 -0.7540
 1538SOL    HW216077   0.911   1.299  11.677  2.0066 -1.3371 -0.2290
 1539SOL     OW16078   4.173   1.213   6.334  0.1039  0.2800  0.2533
 1539SOL    HW116079   4.165   1.146   6.403  0.6483  0.2463  0.2914
 1539SOL    HW216080   4.139   1.288   6.383 -0.1230  0.4454 -0.1623
 1540SOL     OW16081   0.756   2.913   4.993  0.0747 -0.0408 -0.0788
 1540SOL    HW116082   0.814   2.973   5.040 -0.5229  0.6042 -0.1671
 1540SOL    HW216083   0.739   2.960   4.911  1.1917 -0.6871 -0.6818
 1541SOL     OW16084   3.705   2.280  13.615  0.1436  0.2394  0.2961
 1541SOL    HW116085   3.647   2.214  13.578  2.0730 -1.4224  0.2103
 1541SOL    HW216086   3.733   2.330  13.538 -0.1108 -0.8186 -0.4824
 1542SOL     OW16087   4.621   0.447   9.158  0.3340 -0.0239 -0.5045
 1542SOL    HW116088   4.620   0.522   9.217  1.2715 -1.2847  1.1363
 1542SOL    HW216089   4.544   0.471   9.107 -0.1977  0.2685  0.4389
 1543SOL     OW16090   1.950   0.017   6.810 -0.3529 -0.0831 -0.1031
 1543SOL    HW116091   2.011   0.056   6.872  0.0032 -1.0106  0.1289
 1543SOL    HW216092   1.866   0.053   6.838  0.1243  1.3618 -0.5005
 1544SOL     OW16093   4.071   3.235   6.074 -0.6890 -0.0654 -0.1129
 1544SOL    HW116094   4.018   3.170   6.120  0.0386  0.8796  2.0641
 1544SOL    HW216095   4.144   3.184   6.038  1.7417  2.6566  0.9837
 1545SOL     OW16096   0.958   4.557   2.338 -0.2633  0.3373 -0.2149
 1545SOL    HW116097   1.006   4.538   2.419 -0.1792  0.1082 -0.3163
 1545SOL    HW216098   0.989   4.646   2.320 -1.9620  0.5464 -2.1471
 1546SOL     OW16099   3.598   1.262  10.443  0.6012 -0.3024  0.0345
 1546SOL    HW116100   3.634   1.219  10.520  0.5154  0.1239  0.3133
 1546SOL    HW216101   3.526   1.204  10.417 -1.3780  1.0382  2.5359
 1547SOL     OW16102   2.006   0.383   4.796 -0.4269  0.2569  0.1730
 1547SOL    HW116103   1.965   0.351   4.716 -1.3031  2.8969 -0.4231
 1547SOL    HW216104   1.941   0.350   4.859 -0.5914  0.2219 -0.0156
 1548SOL     OW16105   3.393   2.340   4.294  0.2241  0.1278 -0.3240
 1548SOL    HW116106   3.469   2.341   4.237 -0.5196  0.7012 -1.3114
 1548SOL    HW216107   3.351   2.424   4.273 -0.1418  0.4637  1.7359
 1549SOL     OW16108   2.347   1.889   4.475 -0.2954 -0.2100  0.4676
 1549SOL    HW116109   2.288   1.821   4.442 -0.1306  0.4984 -1.2817
 1549SOL    HW216110   2.330   1.958   4.411  1.2629  1.5683  1.9952
 1550SOL     OW16111   4.351   1.313   8.103  0.4172 -0.2873 -0.3993
 1550SOL    HW116112   4.431   1.320   8.049  1.9146 -0.6561  1.7744
 1550SOL    HW216113   4.379   1.269   8.183 -0.1546  0.2391  0.0864
 1551SOL     OW16114   2.004   3.670  14.125  0.1914  0.2745  0.0688
 1551SOL    HW116115   2.039   3.593  14.081  0.3349  0.8943 -0.8868
 1551SOL    HW216116   1.966   3.637  14.207 -3.3862  0.1122 -1.6253
 1552SOL     OW16117   0.982   3.855  10.156 -0.2861  0.3443 -0.2263
 1552SOL    HW116118   1.040   3.789  10.194  0.2656  0.0960 -1.4837
 1552SOL    HW216119   0.897   3.830  10.191 -0.4030  0.4965 -0.4065
 1553SOL     OW16120   2.230   3.576   8.957  0.1405 -0.6240  0.5481
 1553SOL    HW116121   2.164   3.569   9.026  0.7974 -0.0587  1.2349
 1553SOL    HW216122   2.203   3.497   8.910 -1.5258  0.4801 -0.3731
 1554SOL     OW16123   0.058   0.698  12.385 -0.1884 -0.0453 -0.3744
 1554SOL    HW116124   0.128   0.633  12.383 -1.6745 -1.6866  1.0522
 1554SOL    HW216125   0.091   0.744  12.462  0.9005 -2.1464  0.3932
 1555SOL     OW16126   0.870   4.106   8.918 -0.1249 -0.0488  0.2966
 1555SOL    HW116127   0.953   4.118   8.965 -0.4980  0.2543  0.8846
 1555SOL    HW216128   0.838   4.192   8.889  1.5675  1.1940  2.1156
 1556SOL     OW16129   2.849   0.530   9.336  0.1832  0.2213 -0.4251
 1556SOL    HW116130   2.811   0.471   9.271 -1.3453 -0.4643  1.0700
 1556SOL    HW216131   2.910   0.584   9.286  0.2456  0.1213 -0.4568
 1557SOL     OW16132   2.598   3.431   3.660  0.2867  0.3671  0.1637
 1557SOL    HW116133   2.521   3.415   3.714 -1.3988  2.0772 -1.7256
 1557SOL    HW216134   2.658   3.369   3.701  0.1080  0.3765  0.4403
 1558SOL     OW16135   3.349   0.496   4.503 -0.7037  0.5221 -0.1584
 1558SOL    HW116136   3.362   0.516   4.411 -0.0239 -1.2467 -0.4381
 1558SOL    HW216137   3.264   0.452   4.498 -0.3446 -0.1850 -0.0161
 1559SOL     OW16138   1.026   1.694   2.236  0.5569 -0.3096  0.0922
 1559SOL    HW116139   1.112   1.652   2.226 -1.3199 -3.8145 -1.4287
 1559SOL    HW216140   1.043   1.773   2.185  1.0176  0.9473  2.2322
 1560SOL     OW16141   1.516   2.157   9.996 -0.5562 -0.4589  0.5573
 1560SOL    HW116142   1.425   2.163   9.966  0.6574 -0.0510 -3.1029
 1560SOL    HW216143   1.511   2.173  10.090  3.0488  2.4675  0.2650
 1561SOL     OW16144   3.604   3.548  11.449  0.5765 -0.5518 -0.0007
 1561SOL    HW116145   3.593   3.517  11.539 -3.2990 -0.7659 -0.5624
 1561SOL    HW216146   3.625   3.472  11.395 -1.4609  0.6166 -2.4685
 1562SOL     OW16147   2.093   4.254   0.042  0.3117  0.5435  0.4603
 1562SOL    HW116148   2.043   4.336   0.035  0.3021  0.4675 -0.3820
 1562SOL    HW216149   2.175   4.281   0.083 -0.4137  2.4462  0.6526
 1563SOL     OW16150   3.327   3.280  12.695 -0.6241  0.5045  0.1946
 1563SOL    HW116151   3.316   3.357  12.640 -2.0811  1.1480  1.3761
 1563SOL    HW216152   3.379   3.312  12.769 -0.7910 -0.3648  0.7025
 1564SOL     OW16153   3.762   2.547   6.941  0.2500  0.1609 -0.3749
 1564SOL    HW116154   3.841   2.510   6.902  0.2511 -2.0141  1.6391
 1564SOL    HW216155   3.770   2.482   7.011 -0.5617 -0.4756 -0.8736
 1565SOL     OW16156   0.202   1.129   8.929 -0.2005 -0.1070 -0.0164
 1565SOL    HW116157   0.205   1.195   8.998  0.6896  0.7900 -0.9091
 1565SOL    HW216158   0.214   1.051   8.983  1.0799  0.7012  0.8690
 1566SOL     OW16159   1.546   0.786   5.707  0.4380 -0.2835 -0.0665
 1566SOL    HW116160   1.544   0.881   5.711 -0.5083 -0.3041 -0.1690
 1566SOL    HW216161   1.514   0.767   5.618  1.5747 -0.5443 -0.4315
 1567SOL     OW16162   3.400   4.059   5.770 -0.2628 -0.5308 -0.0331
 1567SOL    HW116163   3.342   4.038   5.844  0.6468 -0.4199  0.7069
 1567SOL    HW216164   3.461   3.986   5.781 -0.9782 -1.0493  0.5723
 1568SOL     OW16165   2.400   0.837   2.894 -0.4353 -0.2478 -0.5234
 1568SOL    HW116166   2.446   0.919   2.876 -0.8450 -0.3642 -2.0733
 1568SOL    HW216167   2.473   0.777   2.911  0.6505  1.7361  1.8482
 1569SOL     OW16168   1.587   0.965   8.075  0.3037  0.6386 -0.0156
 1569SOL    HW116169   1.641   1.022   8.020 -0.6066 -0.7965 -2.3834
 1569SOL    HW216170   1.591   1.021   8.153  0.1530  1.2596 -0.4494
 1570SOL     OW16171   3.102   2.097   0.747 -0.8143 -0.4715  0.3218
 1570SOL    HW116172   3.041   2.170   0.738  0.3336  0.6134  1.1717
 1570SOL    HW216173   3.064   2.035   0.685 -3.2794  1.2901  0.0953
 1571SOL     OW16174   3.861   4.631   5.595 -0.5141 -0.2090  0.0635
 1571SOL    HW116175   3.839   4.569   5.664 -2.9349 -1.5210 -1.8662
 1571SOL    HW216176   3.908   4.701   5.641 -3.5269  0.6015  1.9244
 1572SOL     OW16177   4.693   0.924   5.303 -0.2963 -0.3331 -0.1134
 1572SOL    HW116178   4.677   0.940   5.396 -1.2821  0.7416 -0.4759
 1572SOL    HW216179   4.640   0.845   5.297  1.2875 -1.7364  3.9776
 1573SOL     OW16180   3.903   2.073   3.822  0.1610  0.3149  0.0915
 1573SOL    HW116181   3.838   2.003   3.820  1.5869 -0.9547 -4.1532
 1573SOL    HW216182   3.934   2.076   3.912 -0.2636  0.2495  0.2359
 1574SOL     OW16183   0.156   3.326   3.701 -0.3287 -0.1224  0.5105
 1574SOL    HW116184   0.125   3.281   3.623  0.8335 -1.2717  0.7001
 1574SOL    HW216185   0.125   3.272   3.774 -0.1460 -1.0064 -0.0724
 1575SOL     OW16186   2.612   1.286   8.695  0.5939 -0.2322 -0.1718
 1575SOL    HW116187   2.529   1.241   8.678  0.5065  0.1017 -0.6321
 1575SOL    HW216188   2.580   1.358   8.748  0.6165  0.1157 -0.6294
 1576SOL     OW16189   2.965   0.114  17.531 -0.3217  0.8754 -0.2964
 1576SOL    HW116190   2.910   0.127  17.608  0.7697 -1.6411  0.8970
 1576SOL    HW216191   2.901   0.131  17.461  0.5456 -0.7247 -1.4685
 1577SOL     OW16192   0.048   2.020   6.155 -0.3780  0.6968  0.2169
 1577SOL    HW116193   0.009   2.013   6.068  1.3699  0.4459 -0.5427
 1577SOL    HW216194   0.060   1.926   6.170 -3.3887  0.2584 -0.1973
 1578SOL     OW16195   4.110   3.819   1.836 -0.4561 -0.0539  0.5820
 1578SOL    HW116196   4.093   3.813   1.930 -2.3500  0.5429  0.2782
 1578SOL    HW216197   4.174   3.889   1.822 -1.1278  0.6291  0.9682
 1579SOL     OW16198   2.644   1.840   7.813 -0.2350  0.0319 -0.5265
 1579SOL    HW116199   2.621   1.796   7.731 -1.3408  1.5916 -1.0482
 1579SOL    HW216200   2.566   1.833   7.868 -0.5123 -1.8357 -1.1687
 1580SOL     OW16201   3.264   4.272   5.951  0.5527  0.5215 -0.1320
 1580SOL    HW116202   3.270   4.183   5.985 -0.0374  0.5554  0.0698
 1580SOL    HW216203   3.169   4.286   5.952  0.4721 -0.1060  2.6237
 1581SOL     OW16204   0.961   0.304   2.413  0.1689 -0.6143 -0.0711
 1581SOL    HW116205   0.931   0.381   2.461  0.5838 -0.1951 -0.4872
 1581SOL    HW216206   0.878   0.278   2.372  0.4027  1.7118 -2.0332
 1582SOL     OW16207   4.055   3.668   5.492 -0.2876  0.6330  0.7917
 1582SOL    HW116208   4.118   3.598   5.509 -0.2320  0.2876 -0.8337
 1582SOL    HW216209   4.117   3.733   5.460 -1.2204  0.4506 -1.3899
 1583SOL     OW16210   2.050   3.470   8.672 -0.3483  0.5461  0.0457
 1583SOL    HW116211   2.107   3.404   8.713  1.2609  2.0361  0.2113
 1583SOL    HW216212   1.982   3.476   8.739  1.8151 -1.2356  2.4357
 1584SOL     OW16213   0.809   1.966  12.651 -0.1159 -0.8162  0.1962
 1584SOL    HW116214   0.841   1.885  12.689  0.8674 -0.2191  0.6397
 1584SOL    HW216215   0.773   2.005  12.731 -0.5133 -2.1274  0.6505
 1585SOL     OW16216   1.076   2.642   5.789 -0.1727 -0.0483 -0.1674
 1585SOL    HW116217   1.111   2.710   5.845 -0.3474  0.1084 -0.2515
 1585SOL    HW216218   1.077   2.559   5.838  0.7631 -1.0186 -1.7944
 1586SOL     OW16219   3.959   1.543   6.184 -0.0474 -0.4021  0.1095
 1586SOL    HW116220   3.952   1.468   6.125 -1.0813 -1.2149  1.2382
 1586SOL    HW216221   3.886   1.527   6.244  2.0193 -0.9535  2.5012
 1587SOL     OW16222   1.533   1.253   0.801 -0.2579  0.4795  0.3598
 1587SOL    HW116223   1.478   1.177   0.818  0.2180  0.2134  0.7121
 1587SOL    HW216224   1.600   1.230   0.865 -0.8167  0.5232  0.9581
 1588SOL     OW16225   1.480   0.268   3.204 -0.2577  0.1863 -0.2525
 1588SOL    HW116226   1.444   0.307   3.283  1.1468  0.1286  0.4133
 1588SOL    HW216227   1.405   0.221   3.169 -1.4612  1.4045  0.7314
 1589SOL     OW16228   3.152   3.628   7.864  0.6082 -0.3807 -0.1342
 1589SOL    HW116229   3.237   3.625   7.820  0.1131  0.0786 -1.1322
 1589SOL    HW216230   3.172   3.568   7.936  1.0131  0.0960  0.1468
 1590SOL     OW16231   1.495   2.512  13.586 -1.0680  0.2358  0.1263
 1590SOL    HW116232   1.400   2.510  13.571 -0.8716 -1.6031 -0.7152
 1590SOL    HW216233   1.526   2.552  13.505  1.5321 -1.7349  0.1763
 1591SOL     OW16234   3.279   4.404   5.510 -0.1028 -0.4505  0.1796
 1591SOL    HW116235   3.361   4.358   5.494  1.6681  2.1535  1.6661
 1591SOL    HW216236   3.257   4.440   5.424  1.0271 -0.1023  0.0480
 1592SOL     OW16237   1.562   0.771   6.179 -0.5760 -0.0312  0.0386
 1592SOL    HW116238   1.530   0.690   6.139  0.5659 -0.5043  0.0883
 1592SOL    HW216239   1.653   0.755   6.202 -0.3458  0.0077 -0.8853
 1593SOL     OW16240   4.138   0.889   8.774  0.1302  0.3621 -0.0853
 1593SOL    HW116241   4.108   0.836   8.849  3.0220 -0.8831  0.2028
 1593SOL    HW216242   4.122   0.825   8.705 -0.0955 -0.4127  0.6714
 1594SOL     OW16243   0.055   1.496  16.349 -0.0002  0.2482  0.5721
 1594SOL    HW116244   0.020   1.539  16.427  0.6365 -0.4021  1.2239
 1594SOL    HW216245   0.087   1.412  16.381  1.2661  0.1095 -1.0757
 1595SOL     OW16246   1.831   3.975   8.975 -0.1600 -0.3451  0.5660
 1595SOL    HW116247   1.760   3.945   9.031  0.9313  0.2377  2.2628
 1595SOL    HW216248   1.826   3.920   8.897 -2.4556 -0.6784  0.9551
 1596SOL     OW16249   1.351   1.657   3.562 -0.1283 -0.4198  0.5827
 1596SOL    HW116250   1.418   1.631   3.625  3.1601 -1.0610 -3.1512
 1596SOL    HW216251   1.268   1.634   3.602 -0.0934 -1.8972 -0.1836
 1597SOL     OW16252   0.052   4.238   3.194 -0.0323 -0.0105 -0.0225
 1597SOL    HW116253   4.677   4.260   3.190  0.1470  0.6716 -0.4964
 1597SOL    HW216254   0.041   4.143   3.206  1.8879 -0.2197  0.1234
 1598SOL     OW16255   1.894   0.915   1.631 -0.6216  0.0735  0.3212
 1598SOL    HW116256   1.817   0.933   1.686 -0.3794  2.8437 -0.2207
 1598SOL    HW216257   1.949   0.992   1.646  0.4625 -0.8833  1.1226
 1599SOL     OW16258   3.991   2.798   1.475  0.3734 -0.1057 -0.2672
 1599SOL    HW116259   3.949   2.854   1.540  0.1679 -1.6145  0.8800
 1599SOL    HW216260   3.932   2.801   1.399 -0.2265 -2.1552  0.1388
 1600SOL     OW16261   1.448   1.930   5.128  0.0339 -0.1585 -0.4893
 1600SOL    HW116262   1.486   1.857   5.176 -3.3583 -1.0159  0.9260
 1600SOL    HW216263   1.521   1.974   5.086  0.4412  0.5530  0.9671
 1601SOL     OW16264   3.942   0.921   5.716  0.2192 -0.4311  0.0481
 1601SOL    HW116265   3.953   0.949   5.625 -1.3130  0.0966  0.0259
 1601SOL    HW216266   4.013   0.860   5.738 -0.2864  0.5804  4.5352
 1602SOL     OW16267   1.065   3.288  15.743 -0.1522  0.2400  0.3326
 1602SOL    HW116268   1.147   3.298  15.694  0.7128 -3.2400  1.0479
 1602SOL    HW216269   1.076   3.199  15.777  1.0254 -0.4463 -1.8825
 1603SOL     OW16270   4.529   2.490   2.830  0.0591  0.4910  0.0391
 1603SOL    HW116271   4.562   2.545   2.760 -0.0829  1.4769  0.7490
 1603SOL    HW216272   4.605   2.434   2.841  0.2195  0.6464 -0.2868
 1604SOL     OW16273   2.477   2.002   2.662  0.4284  0.0541 -0.1602
 1604SOL    HW116274   2.564   2.028   2.690  0.1710  0.6110  0.1209
 1604SOL    HW216275   2.491   1.941   2.589 -2.3902 -0.6848 -0.1153
 1605SOL     OW16276   4.295   0.181  12.000  0.0714 -0.6707  0.2958
 1605SOL    HW116277   4.278   0.101  11.949 -5.1227 -0.1440  1.1612
 1605SOL    HW216278   4.300   0.246  11.930  0.4727 -1.6014 -0.5515
 1606SOL     OW16279   1.008   2.730   9.909  0.0907 -0.1436 -0.3728
 1606SOL    HW116280   0.991   2.824   9.916  1.7588  0.1665 -0.5785
 1606SOL    HW216281   0.942   2.697   9.970  1.0894  1.1307  1.3998
 1607SOL     OW16282   1.106   2.979   0.436 -0.4131 -0.0805  0.2794
 1607SOL    HW116283   1.141   3.038   0.504  0.4453 -0.3568  0.0813
 1607SOL    HW216284   1.135   2.897   0.476 -0.1896  0.0068  0.3016
 1608SOL     OW16285   2.487   0.966   4.350 -0.0606 -0.1659  0.1873
 1608SOL    HW116286   2.401   0.933   4.377 -1.2188  1.0606 -1.9658
 1608SOL    HW216287   2.479   1.036   4.415  2.0342  0.2017  0.0367
 1609SOL     OW16288   2.677   0.476   5.330 -0.1886  0.1376  0.4994
 1609SOL    HW116289   2.675   0.386   5.360 -1.9764 -0.2156 -0.7290
 1609SOL    HW216290   2.721   0.469   5.245 -0.6484 -0.0078  0.2726
 1610SOL     OW16291   1.020   2.102  11.049  0.0662  0.8539  0.4707
 1610SOL    HW116292   0.960   2.166  11.011 -0.7208 -0.5296 -0.6046
 1610SOL    HW216293   1.019   2.122  11.143 -0.5090  0.8998  0.4562
 1611SOL     OW16294   4.616   4.047  17.328  0.5399 -0.8089 -0.0362
 1611SOL    HW116295   4.560   3.970  17.336  2.4966 -2.0893  1.2545
 1611SOL    HW216296   4.677   4.015  17.261  0.0463 -2.2156  0.1805
 1612SOL     OW16297   4.102   2.907  12.618 -0.4931  0.2725 -0.4229
 1612SOL    HW116298   4.075   2.994  12.589  1.4308  0.1822 -2.4647
 1612SOL    HW216299   4.140   2.868  12.539 -1.3769 -1.4986  0.0309
 1613SOL     OW16300   1.249   1.190  14.522  0.0358 -0.2343 -0.1328
 1613SOL    HW116301   1.337   1.158  14.543 -0.1081  0.0957  0.9251
 1613SOL    HW216302   1.228   1.106  14.480  1.8137 -1.6050  1.6750
 1614SOL     OW16303   1.946   3.642   7.398 -0.1598 -0.3450  0.4834
 1614SOL    HW116304   1.889   3.655   7.474 -2.6321  1.0809 -1.6249
 1614SOL    HW216305   1.921   3.710   7.336 -0.9125 -1.6267 -0.6383
 1615SOL     OW16306   0.552   3.867   7.078  0.6028  0.3241  0.2245
 1615SOL    HW116307   0.609   3.917   7.019 -0.4200 -1.3140 -2.1224
 1615SOL    HW216308   0.473   3.921   7.088  0.3178 -0.1349  0.4145
 1616SOL     OW16309   4.417   0.651   7.815  0.0667  0.1487  0.1396
 1616SOL    HW116310   4.399   0.678   7.725  1.1369  0.3953 -0.0071
 1616SOL    HW216311   4.458   0.731   7.849 -1.2320 -0.1286  2.3687
 1617SOL     OW16312   2.401   0.507   5.409 -0.2020  0.0250 -0.3632
 1617SOL    HW116313   2.495   0.488   5.403 -0.1876  0.3780 -1.3467
 1617SOL    HW216314   2.384   0.554   5.490  0.7635  1.5114 -1.0158
 1618SOL     OW16315   2.303   0.681  14.419 -0.0368  0.8151 -0.1918
 1618SOL    HW116316   2.325   0.588  14.421 -0.1873  0.7683 -0.7059
 1618SOL    HW216317   2.340   0.718  14.339 -0.0590 -2.9594 -1.9504
 1619SOL     OW16318   0.295   2.240  16.370 -0.0285  0.5097 -0.0908
 1619SOL    HW116319   0.202   2.246  16.347 -0.3040  2.3956  1.5291
 1619SOL    HW216320   0.288   2.240  16.466  1.0443  0.0832 -0.0120
 1620SOL     OW16321   0.491   1.362   5.492 -0.5247  0.0481  0.4505
 1620SOL    HW116322   0.481   1.452   5.524 -0.1509  0.2899 -0.1179
 1620SOL    HW216323   0.521   1.373   5.402 -3.5685 -0.8177 -0.6648
 1621SOL     OW16324   1.493   0.326   1.795 -0.0424 -0.6731 -0.2654
 1621SOL    HW116325   1.441   0.383   1.738 -0.4235 -3.2717 -2.5109
 1621SOL    HW216326   1.502   0.368   1.880  0.3189 -1.0465 -0.1179
 1622SOL     OW16327   3.588   2.855  10.252 -0.1603 -0.2159 -0.0892
 1622SOL    HW116328   3.585   2.949  10.271  0.1286  0.0302 -1.2702
 1622SOL    HW216329   3.670   2.828  10.293 -0.0668 -0.2731 -0.3169
 1623SOL     OW16330   3.472   0.747   4.604 -0.4286 -0.7602  0.0946
 1623SOL    HW116331   3.451   0.654   4.595 -0.2482 -0.7929  0.0088
 1623SOL    HW216332   3.411   0.767   4.675  0.1057  1.6662 -0.1213
 1624SOL     OW16333   0.198   1.799   7.662  0.0438 -0.0523 -0.2913
 1624SOL    HW116334   0.132   1.792   7.731  1.7779 -1.7174  1.1837
 1624SOL    HW216335   0.148   1.756   7.593 -1.3211 -1.5575  1.6367
 1625SOL     OW16336   1.434   1.527   9.389  0.0869  0.3735  0.3258
 1625SOL    HW116337   1.354   1.581   9.390  0.8822  1.5903 -1.8511
 1625SOL    HW216338   1.499   1.583   9.346 -0.4223  0.6888 -0.0333
 1626SOL     OW16339   1.454   4.313  16.033  0.1969 -0.7961 -0.1176
 1626SOL    HW116340   1.385   4.252  16.060 -1.4271  0.0105 -2.4097
 1626SOL    HW216341   1.425   4.338  15.945 -1.2654 -1.8748  0.0553
 1627SOL     OW16342   3.723   4.694   7.806 -0.4885 -0.1374  0.2636
 1627SOL    HW116343   3.793   4.706   7.742  0.2753 -2.0935  0.7402
 1627SOL    HW216344   3.710   4.600   7.792 -1.3602  0.0240  0.0261
 1628SOL     OW16345   1.963   4.460   3.333 -0.5175  0.0478 -0.3109
 1628SOL    HW116346   1.950   4.549   3.302 -1.1362  0.7039  1.8801
 1628SOL    HW216347   2.053   4.460   3.366  0.1382  1.0192 -2.1162
 1629SOL     OW16348   2.683   1.869   3.140 -0.2111 -0.0161  0.1593
 1629SOL    HW116349   2.642   1.915   3.213 -0.0981  1.7835 -0.9115
 1629SOL    HW216350   2.777   1.875   3.157 -0.5494 -1.5437  2.4805
 1630SOL     OW16351   3.460   4.650   4.213  0.1703 -0.0898  0.2304
 1630SOL    HW116352   3.485   4.569   4.259  2.6680  1.2308  1.2250
 1630SOL    HW216353   3.516   0.001   4.250  0.8011 -0.6718  0.3568
 1631SOL     OW16354   2.446   4.277  12.516  0.2383 -0.3725 -0.2293
 1631SOL    HW116355   2.452   4.207  12.581  2.3882 -2.3919 -2.6289
 1631SOL    HW216356   2.375   4.245  12.462  0.2124  0.1229 -0.4938
 1632SOL     OW16357   3.314   2.924  16.321 -0.1845 -0.2438  0.3727
 1632SOL    HW116358   3.332   2.932  16.228 -0.7487 -2.2766  0.0922
 1632SOL    HW216359   3.350   3.011  16.339  2.6554 -1.7346  1.9767
 1633SOL     OW16360   3.360   0.784   6.397  0.0078  0.7633 -0.1842
 1633SOL    HW116361   3.402   0.798   6.312  0.2537  2.2482  0.1690
 1633SOL    HW216362   3.351   0.872   6.434  3.0461  1.6204 -1.4563
 1634SOL     OW16363   2.955   0.206   9.208 -0.1258  0.2025 -0.1201
 1634SOL    HW116364   2.998   0.283   9.171  1.2626 -0.5675 -0.0688
 1634SOL    HW216365   3.032   0.155   9.230  0.8591  2.3675  1.5149
 1635SOL     OW16366   2.678   0.675   3.713 -0.4937  0.1989 -0.0056
 1635SOL    HW116367   2.718   0.735   3.649 -1.7487  2.0889  0.9865
 1635SOL    HW216368   2.584   0.688   3.717 -0.5869 -0.7511  0.9747
 1636SOL     OW16369   2.612   4.348   8.304 -0.2972  0.3048  0.0222
 1636SOL    HW116370   2.621   4.390   8.389 -1.1025  0.1362  0.1980
 1636SOL    HW216371   2.616   4.425   8.247 -0.2150  0.1032 -0.2466
 1637SOL     OW16372   1.337   2.426  14.227  0.0815  0.0233 -0.7161
 1637SOL    HW116373   1.404   2.415  14.295 -0.9276  0.1672  0.2977
 1637SOL    HW216374   1.262   2.392  14.275 -0.5099  1.8315 -0.3641
 1638SOL     OW16375   1.207   2.054   8.109  0.4672  0.2249  0.0223
 1638SOL    HW116376   1.302   2.063   8.116  0.3431  1.5824 -0.0381
 1638SOL    HW216377   1.190   2.065   8.202  1.5117  0.4044  0.1966
 1639SOL     OW16378   0.849   1.207  17.414 -0.0238 -0.0020 -0.1163
 1639SOL    HW116379   0.778   1.182  17.473  0.9442  1.3491  1.6277
 1639SOL    HW216380   0.842   1.148  17.339  0.3652  0.7724 -0.7553
 1640SOL     OW16381   1.392   2.014  17.580 -0.0038 -0.7625  0.2787
 1640SOL    HW116382   1.364   1.928  17.549  0.1969 -0.6827 -0.1271
 1640SOL    HW216383   1.477   1.997  17.619  0.0422 -1.7890 -0.2658
 1641SOL     OW16384   2.613   1.242  17.452 -0.8094  0.3710 -0.4265
 1641SOL    HW116385   2.521   1.261  17.435 -1.1582 -1.2875 -0.3910
 1641SOL    HW216386   2.622   1.273  17.542 -2.1757  1.1659 -0.5608
 1642SOL     OW16387   1.303   1.142   6.719  0.3518 -0.0838 -0.1443
 1642SOL    HW116388   1.334   1.113   6.804 -0.0989 -0.8781 -0.2525
 1642SOL    HW216389   1.319   1.060   6.671  0.5387  0.2945 -0.7357
 1643SOL     OW16390   4.441   1.551   3.229  0.3616 -0.2028  0.4414
 1643SOL    HW116391   4.474   1.464   3.207 -0.2352 -0.3327  0.0494
 1643SOL    HW216392   4.514   1.585   3.280 -0.1444  1.3393  0.1495
 1644SOL     OW16393   0.235   1.819   8.835 -0.5370  0.2973 -0.2108
 1644SOL    HW116394   0.325   1.797   8.859 -0.7891 -0.2935  0.2066
 1644SOL    HW216395   0.190   1.800   8.917 -1.9765  0.4358 -0.9573
 1645SOL     OW16396   3.809   0.764   9.127 -0.1229  0.5709  0.0850
 1645SOL    HW116397   3.798   0.725   9.214 -1.2431 -0.2126 -0.4086
 1645SOL    HW216398   3.865   0.839   9.148  0.0228 -0.2816  2.7700
 1646SOL     OW16399   4.434   2.780   1.521 -0.7299 -0.4107  0.3650
 1646SOL    HW116400   4.345   2.750   1.503 -2.0934  1.9827  3.0770
 1646SOL    HW216401   4.478   2.742   1.446  1.1036 -0.7772  1.6222
 1647SOL     OW16402   1.672   2.711   9.340  0.1017  0.1679  0.5863
 1647SOL    HW116403   1.758   2.711   9.381  0.6302  1.8916 -0.5124
 1647SOL    HW216404   1.682   2.629   9.291 -1.1457 -0.5142  1.4631
 1648SOL     OW16405   1.629   2.011   5.423  0.0415  0.4765  0.4121
 1648SOL    HW116406   1.660   1.921   5.414 -1.0354 -0.1513  3.0263
 1648SOL    HW216407   1.564   1.999   5.492  1.1759 -2.0077  1.0748
 1649SOL     OW16408   0.838   0.801   2.698  0.3773 -0.0857 -0.2061
 1649SOL    HW116409   0.905   0.847   2.648 -1.6361  1.5094 -1.4347
 1649SOL    HW216410   0.861   0.710   2.681  1.2125  0.2720 -1.0150
 1650SOL     OW16411   3.378   1.414   4.139 -0.4142 -0.0201 -0.3131
 1650SOL    HW116412   3.433   1.449   4.210 -1.0620  1.2181 -0.4209
 1650SOL    HW216413   3.344   1.495   4.101 -0.9927  0.5440  1.4069
 1651SOL     OW16414   0.580   3.492   2.028  1.1763 -0.0935  0.2059
 1651SOL    HW116415   0.557   3.434   1.955  0.9721 -0.1578  0.3221
 1651SOL    HW216416   0.671   3.516   2.009  1.2197 -2.0961 -2.0542
 1652SOL     OW16417   2.646   3.056  10.392  0.1602 -0.4714  0.5463
 1652SOL    HW116418   2.571   3.000  10.413 -0.7381  0.9883  1.2567
 1652SOL    HW216419   2.705   3.011  10.452  2.6739  0.9192 -0.8650
 1653SOL     OW16420   3.497   3.242   3.356 -0.2513 -0.2149 -0.0261
 1653SOL    HW116421   3.551   3.165   3.375  1.1861  0.8306  0.1802
 1653SOL    HW216422   3.494   3.236   3.261  0.7802 -1.1552  0.0030
 1654SOL     OW16423   1.380   0.547   3.745  0.4340 -0.1355  0.1678
 1654SOL    HW116424   1.322   0.497   3.687 -1.1374  2.2194 -0.3121
 1654SOL    HW216425   1.397   0.631   3.703  1.1143 -1.0790 -1.4459
 1655SOL     OW16426   3.732   2.688  10.534 -0.5351 -0.2698 -0.3434
 1655SOL    HW116427   3.819   2.727  10.545 -1.1302  1.4917 -1.8643
 1655SOL    HW216428   3.680   2.759  10.569  1.6528  2.7459 -3.2213
 1656SOL     OW16429   0.652   4.218   5.669 -0.0535  0.5152  0.0844
 1656SOL    HW116430   0.735   4.189   5.629  0.0239 -1.6085  1.7670
 1656SOL    HW216431   0.651   4.312   5.651 -0.9024  0.8030  1.6925
 1657SOL     OW16432   2.829   0.178   8.671  0.1835 -0.5766  0.2497
 1657SOL    HW116433   2.838   0.158   8.765 -0.3289  0.7013  0.5793
 1657SOL    HW216434   2.733   0.176   8.669  0.1785 -1.1566  0.8821
 1658SOL     OW16435   4.473   0.142   5.759  0.1662 -0.3329  0.0987
 1658SOL    HW116436   4.493   0.056   5.723 -0.1517 -1.0432  1.6179
 1658SOL    HW216437   4.381   0.148   5.730  0.6489 -1.6612 -1.7189
 1659SOL     OW16438   2.828   4.378   4.444 -0.8315  0.3125 -0.0991
 1659SOL    HW116439   2.840   4.401   4.351 -0.2938  1.8231  0.3379
 1659SOL    HW216440   2.796   4.462   4.477 -1.1130  0.3977 -0.5859
 1660SOL     OW16441   0.516   3.685   5.834  0.5696  0.3595  0.0820
 1660SOL    HW116442   0.466   3.718   5.909  0.4128 -0.8878  0.5187
 1660SOL    HW216443   0.454   3.638   5.778  0.1447 -0.5975  1.3542
 1661SOL     OW16444   2.538   0.759  13.010  0.5569  0.2319  0.3570
 1661SOL    HW116445   2.541   0.671  13.047 -0.5428 -0.4073 -1.0995
 1661SOL    HW216446   2.511   0.809  13.087 -1.7168  0.0720 -0.3276
 1662SOL     OW16447   1.277   3.507  14.151 -1.1254 -0.1789  0.0433
 1662SOL    HW116448   1.315   3.425  14.118  2.7229  0.8330  2.0062
 1662SOL    HW216449   1.186   3.490  14.128 -1.8950  3.2987  0.6017
 1663SOL     OW16450   2.882   0.098  12.048 -0.3352  0.3827 -0.4115
 1663SOL    HW116451   2.811   0.098  12.112 -0.1477 -3.0359 -0.2265
 1663SOL    HW216452   2.912   0.188  12.059  0.1856 -0.0119  1.3443
 1664SOL     OW16453   1.232   3.919   3.600  0.5732  0.1035  0.7474
 1664SOL    HW116454   1.268   3.832   3.584  1.3660  0.8641 -1.5811
 1664SOL    HW216455   1.203   3.911   3.691 -0.0095 -0.2148  0.5357
 1665SOL     OW16456   4.396   2.191   3.255 -0.3763  0.1684 -0.0376
 1665SOL    HW116457   4.426   2.168   3.343  2.0368 -1.2447 -1.2421
 1665SOL    HW216458   4.427   2.282   3.252  0.2369 -0.0910 -1.4979
 1666SOL     OW16459   1.528   4.140   3.766  0.4741  0.0960  0.3539
 1666SOL    HW116460   1.606   4.139   3.821 -0.9613 -0.3161  2.3702
 1666SOL    HW216461   1.552   4.077   3.699 -0.4033 -0.0318  0.1510
 1667SOL     OW16462   2.542   3.672   6.750 -0.1781 -0.0350 -0.0480
 1667SOL    HW116463   2.617   3.673   6.809 -0.4811 -0.9757  0.3591
 1667SOL    HW216464   2.571   3.639   6.665  0.8777 -1.7720  0.9864
 1668SOL     OW16465   3.793   3.292   9.905 -0.4794 -0.0824  0.3416
 1668SOL    HW116466   3.804   3.312   9.812  0.9217  2.7805  1.1071
 1668SOL    HW216467   3.843   3.366   9.941  0.7640 -0.2918 -0.9959
 1669SOL     OW16468   0.506   2.514   4.483  0.9295  0.4565 -0.4163
 1669SOL    HW116469   0.540   2.458   4.553  0.6138 -2.2935 -2.5136
 1669SOL    HW216470   0.582   2.568   4.464  0.0051  1.7395 -0.5253
 1670SOL     OW16471   1.255   3.262  10.437  0.8097  0.0864 -0.3715
 1670SOL    HW116472   1.292   3.269  10.349  1.1379  1.2399 -0.1474
 1670SOL    HW216473   1.173   3.214  10.422 -0.4855  1.5822  1.8450
 1671SOL     OW16474   0.719   4.418   8.684 -0.4117 -0.6164 -0.1091
 1671SOL    HW116475   0.778   4.397   8.756  1.9485  1.6206 -1.4001
 1671SOL    HW216476   0.644   4.463   8.723  1.4857  3.0484 -0.6260
 1672SOL     OW16477   3.824   2.655   5.345 -0.1047  0.1873  1.0127
 1672SOL    HW116478   3.873   2.595   5.401  1.8824 -0.9489 -1.9091
 1672SOL    HW216479   3.782   2.718   5.404 -2.8102  0.6109 -1.3416
 1673SOL     OW16480   0.379   3.605  14.122 -0.1014 -0.6794  0.1215
 1673SOL    HW116481   0.435   3.620  14.046  0.4558 -0.0096  0.6634
 1673SOL    HW216482   0.299   3.565  14.088  0.4314  0.4413 -2.5014
 1674SOL     OW16483   3.541   1.856   7.295 -0.0752 -0.0257 -0.2331
 1674SOL    HW116484   3.543   1.888   7.205  0.2486 -0.8240 -0.5106
 1674SOL    HW216485   3.469   1.792   7.290 -0.4117  0.2135  1.4567
 1675SOL     OW16486   0.515   2.928   4.080  0.0042  0.2027  0.3262
 1675SOL    HW116487   0.436   2.977   4.057  0.0206  1.0708  2.1080
 1675SOL    HW216488   0.586   2.992   4.079 -0.5116  0.7668 -0.6134
 1676SOL     OW16489   1.688   4.629   7.121  0.0280  0.1618  0.0403
 1676SOL    HW116490   1.615   4.660   7.066 -1.7974 -1.3372  1.6231
 1676SOL    HW216491   1.671   4.679   7.201  1.6865 -0.8135  0.9952
 1677SOL     OW16492   2.633   2.756   3.492  0.2966  0.8000 -0.5478
 1677SOL    HW116493   2.611   2.689   3.428 -2.9526  1.8742 -0.5830
 1677SOL    HW216494   2.573   2.828   3.471 -1.3338 -0.5685 -0.5897
 1678SOL     OW16495   2.094   2.069   6.555 -0.0121 -0.8380  0.8942
 1678SOL    HW116496   2.104   1.988   6.505  2.9399  0.8068 -1.1364
 1678SOL    HW216497   2.068   2.026   6.637  2.0017 -0.0511  1.9392
 1679SOL     OW16498   1.481   3.805   7.969 -0.2182 -0.4155  0.0522
 1679SOL    HW116499   1.479   3.849   7.884 -1.7382  0.3483  0.4786
 1679SOL    HW216500   1.501   3.874   8.032 -1.0189 -2.0608  2.1094
 1680SOL     OW16501   3.292   0.006   1.586 -0.2341  0.3505  0.3445
 1680SOL    HW116502   3.304   0.018   1.492 -1.4378  0.0804  0.1543
 1680SOL    HW216503   3.274   4.630   1.579  1.0106  0.1540 -0.1352
 1681SOL     OW16504   3.516   0.565   8.327  0.1691 -0.4651 -0.1926
 1681SOL    HW116505   3.486   0.604   8.409  2.8950 -0.3304  0.7558
 1681SOL    HW216506   3.579   0.500   8.360 -0.0345 -1.4652 -1.8123
 1682SOL     OW16507   0.408   2.241   7.542  0.2842 -0.1277  0.0906
 1682SOL    HW116508   0.384   2.159   7.499 -2.0729  0.5797  0.0803
 1682SOL    HW216509   0.390   2.219   7.634  3.1555  2.3642  1.2648
 1683SOL     OW16510   2.870   4.172  10.551 -0.2095  0.4798 -0.5058
 1683SOL    HW116511   2.896   4.154  10.641 -1.6651  1.1319  0.0320
 1683SOL    HW216512   2.783   4.137  10.535 -0.1779  0.5523 -0.8377
 1684SOL     OW16513   1.621   3.800   4.332 -0.4701  0.2729 -0.2704
 1684SOL    HW116514   1.589   3.886   4.304 -1.2146  0.9743  2.7198
 1684SOL    HW216515   1.577   3.746   4.267  1.5492 -0.4330 -1.0359
 1685SOL     OW16516   3.064   4.220   2.254  0.1329 -0.0649 -0.3094
 1685SOL    HW116517   2.998   4.220   2.185 -2.2939 -2.3410  2.0446
 1685SOL    HW216518   3.114   4.149   2.213 -0.3902 -1.8949  2.2353
 1686SOL     OW16519   2.355   3.717   7.445 -0.3055 -0.0106 -0.2123
 1686SOL    HW116520   2.320   3.805   7.458 -2.3786 -1.1887  2.3830
 1686SOL    HW216521   2.295   3.699   7.372 -2.7433  1.2975  1.4842
 1687SOL     OW16522   2.368   2.996   9.349 -0.5246 -0.0441  0.0950
 1687SOL    HW116523   2.426   3.041   9.411 -1.8666 -2.7464  3.3212
 1687SOL    HW216524   2.427   2.956   9.285  1.0224  0.0667  1.4523
 1688SOL     OW16525   0.663   2.679   2.544 -0.0141  0.0679 -0.2846
 1688SOL    HW116526   0.573   2.651   2.560 -0.1098  0.0983 -0.7564
 1688SOL    HW216527   0.645   2.773   2.546 -1.8518 -0.3744  3.2565
 1689SOL     OW16528   2.904   2.138   3.597 -0.1796 -0.2033 -0.0981
 1689SOL    HW116529   2.916   2.117   3.690 -0.2724 -0.7847 -0.2157
 1689SOL    HW216530   2.821   2.184   3.612 -0.1840  0.3895 -1.9576
 1690SOL     OW16531   2.395   2.239   0.682  0.5521  0.0089  0.5694
 1690SOL    HW116532   2.321   2.298   0.672  0.6782  0.0598 -0.0290
 1690SOL    HW216533   2.357   2.161   0.643 -1.0919  0.5547  1.0836
 1691SOL     OW16534   2.497   2.340   9.318 -0.0953  0.0950  0.1230
 1691SOL    HW116535   2.486   2.425   9.277 -0.4693  0.4245  0.9076
 1691SOL    HW216536   2.494   2.357   9.412  1.3470 -1.3365  0.4324
 1692SOL     OW16537   3.915   0.466  12.690  0.2950 -0.2222  0.0811
 1692SOL    HW116538   3.975   0.460  12.765  1.8868 -0.0928 -1.1711
 1692SOL    HW216539   3.914   0.559  12.667 -0.0599 -0.0894  0.6362
 1693SOL     OW16540   2.206   0.951   7.760 -0.3470  0.4087 -0.1936
 1693SOL    HW116541   2.163   0.878   7.805 -1.2422  0.4297 -1.0098
 1693SOL    HW216542   2.193   1.022   7.823 -3.8300  0.9379 -1.4730
 1694SOL     OW16543   3.484   0.161   6.555 -0.2698  0.5489  0.4688
 1694SOL    HW116544   3.480   0.086   6.496  3.8024  0.4568  0.2663
 1694SOL    HW216545   3.399   0.191   6.523 -0.1782 -0.0529 -0.3299
 1695SOL     OW16546   3.750   4.648   8.107 -0.0350  0.1256 -0.2013
 1695SOL    HW116547   3.842   4.623   8.110  0.5131  2.1566 -0.0912
 1695SOL    HW216548   3.751   4.698   8.025 -0.0218  0.9657  0.3182
 1696SOL     OW16549   3.259   4.198   0.416  0.0327  0.6042  0.2382
 1696SOL    HW116550   3.284   4.225   0.504  0.4718  1.2852 -0.0888
 1696SOL    HW216551   3.165   4.186   0.426  0.2048 -1.5130 -0.7098
 1697SOL     OW16552   3.571   0.786   4.121  0.1103  0.2426 -0.5473
 1697SOL    HW116553   3.580   0.820   4.210 -1.7776 -2.3357  0.6273
 1697SOL    HW216554   3.506   0.839   4.076 -0.5177 -0.0086  0.0649
 1698SOL     OW16555   1.885   3.200  17.668 -0.0394 -0.4541  0.3336
 1698SOL    HW116556   1.976   3.194   0.022 -0.6460 -0.0531  2.4196
 1698SOL    HW216557   1.845   3.177   0.078 -0.1335  0.1523  0.4549
 1699SOL     OW16558   4.565   1.297   4.887  0.0134  0.7952  0.4687
 1699SOL    HW116559   4.648   1.268   4.926 -1.7163 -1.0216  2.7406
 1699SOL    HW216560   4.538   1.365   4.948 -0.4815 -0.1847  1.3548
 1700SOL     OW16561   3.557   4.484  14.469 -0.0756  0.0357 -0.3309
 1700SOL    HW116562   3.476   4.501  14.517  0.3334 -0.9917  0.6943
 1700SOL    HW216563   3.602   4.445  14.543  4.1799  2.0342 -1.8529
 1701SOL     OW16564   2.162   2.774  15.244 -0.3822 -0.1148 -0.1923
 1701SOL    HW116565   2.111   2.846  15.282  1.1462  2.5365 -3.2110
 1701SOL    HW216566   2.114   2.759  15.163  2.0151  1.0616 -1.8420
 1702SOL     OW16567   2.955   2.321   3.282  0.1461  0.7453  0.4186
 1702SOL    HW116568   2.876   2.307   3.335 -0.8864  0.4436 -1.2007
 1702SOL    HW216569   3.021   2.356   3.341  1.9659  1.7538 -2.2408
 1703SOL     OW16570   3.871   0.362   6.175  0.2251  0.1846 -0.0478
 1703SOL    HW116571   3.798   0.365   6.236  1.4560  0.0885  1.4397
 1703SOL    HW216572   3.904   0.452   6.185 -0.6725  0.6930 -1.7217
 1704SOL     OW16573   1.031   2.955   4.773  0.3520  0.7990  0.7002
 1704SOL    HW116574   0.975   3.031   4.759 -0.4340  0.7039  3.2590
 1704SOL    HW216575   1.088   2.994   4.839  0.4196  1.4225  0.2774
 1705SOL     OW16576   2.601   4.098   8.218  0.1216  0.0256 -0.3685
 1705SOL    HW116577   2.676   4.076   8.163  0.8178 -0.5576  0.8292
 1705SOL    HW216578   2.619   4.185   8.256 -0.5622 -0.8992  2.0359
 1706SOL     OW16579   0.768   2.685  10.037  0.1842  0.1127 -0.0786
 1706SOL    HW116580   0.722   2.711   9.957  1.3865  0.3914 -0.6826
 1706SOL    HW216581   0.750   2.591  10.041  0.1652  0.1488  0.6826
 1707SOL     OW16582   2.578   4.068   4.687 -0.3463  0.1105 -0.5178
 1707SOL    HW116583   2.622   4.101   4.609  2.0249  0.8237  1.1157
 1707SOL    HW216584   2.647   4.026   4.738 -0.3303  0.2126 -0.4532
 1708SOL     OW16585   0.919   0.805   0.780 -0.4286 -0.0160  0.4790
 1708SOL    HW116586   0.827   0.809   0.752  0.1440  0.5744 -1.3345
 1708SOL    HW216587   0.941   0.897   0.795 -0.6062 -0.1655  1.6225
 1709SOL     OW16588   1.368   1.117   5.534  0.5094  0.7290 -0.3043
 1709SOL    HW116589   1.444   1.089   5.583  1.0841  0.7213 -1.1922
 1709SOL    HW216590   1.409   1.146   5.452  0.0584  0.1726 -0.7245
 1710SOL     OW16591   1.491   0.979  10.282 -0.5335 -0.0444  0.1103
 1710SOL    HW116592   1.431   1.018  10.219 -0.1793 -1.3555 -1.0302
 1710SOL    HW216593   1.469   0.886  10.276 -0.6674 -0.2922  3.9730
 1711SOL     OW16594   4.245   2.108   9.076 -0.4242  0.1679 -0.2071
 1711SOL    HW116595   4.312   2.057   9.031 -1.2901 -1.1259 -0.0352
 1711SOL    HW216596   4.303   2.139   9.145  0.9135 -0.1448 -1.1825
 1712SOL     OW16597   0.215   2.537   5.966 -0.2490 -0.6968 -0.1420
 1712SOL    HW116598   0.269   2.518   6.042  0.6163 -1.0764 -0.8540
 1712SOL    HW216599   0.263   2.482   5.904 -0.4206 -0.1861 -0.7342
 1713SOL     OW16600   0.691   1.662   8.047 -0.9269  0.0883  0.3301
 1713SOL    HW116601   0.645   1.730   8.097  0.1119  1.8404 -1.0988
 1713SOL    HW216602   0.628   1.591   8.041  0.3397 -0.9825 -0.3890
 1714SOL     OW16603   2.465   1.492   4.848  0.1052 -0.3072  0.2661
 1714SOL    HW116604   2.383   1.461   4.810 -0.6933  0.6745  1.1630
 1714SOL    HW216605   2.455   1.447   4.932 -0.9269 -0.0625  0.2806
 1715SOL     OW16606   2.816   3.253  10.299 -0.5069 -0.1769 -0.0167
 1715SOL    HW116607   2.800   3.283  10.388  0.3745 -1.8030  0.6926
 1715SOL    HW216608   2.758   3.177  10.306 -1.1541  0.1132 -2.1989
 1716SOL     OW16609   2.988   0.922   6.424 -0.4160 -0.1370 -0.1325
 1716SOL    HW116610   3.031   0.910   6.339  1.4166 -1.2272  0.9464
 1716SOL    HW216611   2.955   0.834   6.438  0.0645 -0.3348 -0.2484
 1717SOL     OW16612   2.079   3.092   0.642  0.0280  0.2398 -0.3089
 1717SOL    HW116613   1.990   3.089   0.608 -1.0043  1.5512  2.3304
 1717SOL    HW216614   2.058   3.107   0.734  0.4642  1.1615 -0.3609
 1718SOL     OW16615   1.670   4.233   8.820 -0.6581 -0.0426 -0.6804
 1718SOL    HW116616   1.641   4.145   8.845 -0.3865 -0.1104 -0.6111
 1718SOL    HW216617   1.663   4.282   8.902 -1.0268  1.8038 -1.7954
 1719SOL     OW16618   3.002   1.076   5.983  0.2784  0.1663 -0.3585
 1719SOL    HW116619   3.063   1.133   5.937 -0.7444  2.6369  1.2931
 1719SOL    HW216620   2.977   1.022   5.908  1.5184  0.0908 -0.7163
 1720SOL     OW16621   2.724   0.884  12.853  0.7090 -0.1103 -0.0454
 1720SOL    HW116622   2.663   0.919  12.917 -1.3063  0.7045 -2.4011
 1720SOL    HW216623   2.669   0.811  12.823 -1.4489  1.1633  0.8102
 1721SOL     OW16624   4.136   3.515   6.494  0.7520 -0.6602 -0.0193
 1721SOL    HW116625   4.090   3.543   6.415 -1.0499  2.1213  2.0093
 1721SOL    HW216626   4.137   3.420   6.486 -2.1095 -0.7261  0.4087
 1722SOL     OW16627   1.867   4.502   6.211 -0.0319  0.3892 -0.3474
 1722SOL    HW116628   1.785   4.549   6.220  0.2706  0.4839  1.9709
 1722SOL    HW216629   1.893   4.482   6.301 -0.7871 -0.5334 -0.3402
 1723SOL     OW16630   4.142   2.124  11.790 -0.1032  0.3214  0.0937
 1723SOL    HW116631   4.092   2.042  11.794  1.9072 -0.8236  2.1181
 1723SOL    HW216632   4.133   2.146  11.883 -1.6972 -1.5483  0.3786
 1724SOL     OW16633   3.532   3.235  16.046 -0.2008  0.3247  0.0225
 1724SOL    HW116634   3.447   3.278  16.034 -1.0302 -1.8655 -1.9344
 1724SOL    HW216635   3.535   3.226  16.141  1.5843 -0.4234 -0.1050
 1725SOL     OW16636   1.726   2.762   4.985 -0.0044 -0.1835 -0.5308
 1725SOL    HW116637   1.665   2.748   4.913 -1.0947 -2.0998  0.7665
 1725SOL    HW216638   1.685   2.730   5.065  0.0519 -0.2653 -0.5341
 1726SOL     OW16639   3.482   3.915   4.671  0.0936  0.3481  0.0394
 1726SOL    HW116640   3.462   4.006   4.646 -0.3319  0.5981  1.2866
 1726SOL    HW216641   3.539   3.892   4.598 -1.4698 -2.3639 -0.3001
 1727SOL     OW16642   0.763   1.240  16.899  0.0113  0.4511 -0.3711
 1727SOL    HW116643   0.737   1.244  16.991 -2.4304 -1.0385 -0.9801
 1727SOL    HW216644   0.799   1.151  16.893 -0.3007  0.2861  0.2520
 1728SOL     OW16645   0.565   3.930  11.667  0.4603 -0.4374 -0.1654
 1728SOL    HW116646   0.478   3.930  11.627  1.1956 -1.3663 -1.8105
 1728SOL    HW216647   0.559   3.854  11.725  1.4728  0.3374  0.9471
 1729SOL     OW16648   2.012   2.287   8.561 -0.1077  0.0534  0.1604
 1729SOL    HW116649   1.967   2.359   8.607  0.9054  0.4083  0.5904
 1729SOL    HW216650   2.043   2.324   8.479  3.0006 -1.8735  0.4706
 1730SOL     OW16651   1.493   0.811   3.986  0.0776  0.1766 -0.0814
 1730SOL    HW116652   1.506   0.722   4.019  1.4115 -0.0814 -1.3105
 1730SOL    HW216653   1.569   0.850   4.028 -0.4201 -0.3221  1.2903
 1731SOL     OW16654   1.537   4.281  14.325 -1.1606  0.1995 -0.4734
 1731SOL    HW116655   1.615   4.330  14.350  0.3659 -1.4323 -2.0772
 1731SOL    HW216656   1.513   4.325  14.243 -0.2493  0.6330 -0.5086
 1732SOL     OW16657   3.491   1.107   0.287 -0.2140  0.2383  0.3515
 1732SOL    HW116658   3.581   1.088   0.263  0.3210  1.9225  0.9797
 1732SOL    HW216659   3.489   1.201   0.269 -0.6332  0.0031 -0.8029
 1733SOL     OW16660   1.541   2.404  14.397 -0.3873 -0.3290 -0.3890
 1733SOL    HW116661   1.626   2.377  14.363  0.3895  1.9040 -0.2072
 1733SOL    HW216662   1.530   2.362  14.482 -1.4154 -2.0315 -1.3731
 1734SOL     OW16663   2.354   0.001  14.435 -0.1870 -0.0824  0.0940
 1734SOL    HW116664   2.412   0.073  14.460 -3.1552  1.1061  3.6131
 1734SOL    HW216665   2.407   4.679  14.365  1.2931 -1.7468  2.1406
 1735SOL     OW16666   4.084   1.902   6.392 -0.5481 -0.4481  0.1264
 1735SOL    HW116667   4.022   1.946   6.334 -1.7175  0.4909  2.1144
 1735SOL    HW216668   4.161   1.879   6.340  0.1121 -2.7256  2.1197
 1736SOL     OW16669   1.590   1.112  17.352 -0.0825 -0.0201 -0.0178
 1736SOL    HW116670   1.604   1.082  17.262 -1.7095  0.0658 -0.3130
 1736SOL    HW216671   1.549   1.195  17.330  0.4364  0.2576  0.0781
 1737SOL     OW16672   1.591   4.422   3.196 -0.0628  0.1271  0.5738
 1737SOL    HW116673   1.509   4.468   3.216  1.6106  3.1577  0.3783
 1737SOL    HW216674   1.584   4.333   3.228  0.8259  0.1913  0.9332
 1738SOL     OW16675   3.209   0.495   7.400 -0.7116  0.7456  0.3858
 1738SOL    HW116676   3.266   0.434   7.446  1.0380  2.5716  0.6565
 1738SOL    HW216677   3.174   0.536   7.479  0.5292  0.4271  1.0891
 1739SOL     OW16678   0.073   3.493   1.318  0.6521  0.3868  0.1585
 1739SOL    HW116679   0.093   3.583   1.343  0.6527  0.3749  0.2006
 1739SOL    HW216680   0.114   3.489   1.231 -0.3272 -2.2158 -0.1859
 1740SOL     OW16681   1.846   1.083   8.562 -0.4999 -0.2756  0.5180
 1740SOL    HW116682   1.903   1.154   8.533  0.1480 -2.2764 -3.1435
 1740SOL    HW216683   1.865   1.023   8.490  1.1210  3.4900 -2.1991
 1741SOL     OW16684   1.383   1.692  15.635  0.8979  0.1111 -0.5095
 1741SOL    HW116685   1.410   1.718  15.547 -1.9910 -0.9125 -1.6942
 1741SOL    HW216686   1.380   1.596  15.632 -0.2133  0.1895 -2.3888
 1742SOL     OW16687   4.335   3.993   4.466  0.1111 -0.8594  0.0326
 1742SOL    HW116688   4.246   3.973   4.436 -0.4437  1.3421  0.2012
 1742SOL    HW216689   4.347   3.925   4.533  0.9361 -0.0433  0.7055
 1743SOL     OW16690   2.895   3.572   2.926  0.0902 -0.0914  0.1438
 1743SOL    HW116691   2.953   3.496   2.932 -1.0826 -1.1549 -1.7223
 1743SOL    HW216692   2.834   3.537   2.992 -1.5769 -1.4790 -2.1447
 1744SOL     OW16693   1.313   2.984   5.752  0.1076  0.0983 -0.1161
 1744SOL    HW116694   1.247   2.949   5.813  1.1054  1.3284  1.6628
 1744SOL    HW216695   1.387   2.940   5.794 -0.2338  0.6531  1.0770
 1745SOL     OW16696   1.003   3.871   8.632 -0.3397 -0.3876 -0.7149
 1745SOL    HW116697   1.061   3.944   8.613 -0.5719  0.0136  0.1056
 1745SOL    HW216698   0.998   3.875   8.728  0.9300 -0.5331 -0.6500
 1746SOL     OW16699   3.645   1.555   6.048 -0.5098 -0.3211 -0.0164
 1746SOL    HW116700   3.597   1.500   6.110  2.7884 -1.4017  1.6032
 1746SOL    HW216701   3.664   1.624   6.111 -0.8427 -0.1558 -0.0997
 1747SOL     OW16702   4.255   3.241  10.775 -0.3849  0.2729  0.1051
 1747SOL    HW116703   4.243   3.334  10.794 -2.3865  0.1066 -0.3566
 1747SOL    HW216704   4.342   3.235  10.736 -0.4818 -3.3057  0.4220
 1748SOL     OW16705   4.606   2.914   5.853  0.2623 -0.4083  0.1855
 1748SOL    HW116706   4.659   2.836   5.837 -0.0055 -0.9295  1.8194
 1748SOL    HW216707   4.651   2.945   5.932 -0.5672 -3.4094  1.8002
 1749SOL     OW16708   1.404   2.609  15.793  0.4175  0.1841  0.3719
 1749SOL    HW116709   1.405   2.516  15.771 -1.1787  0.8377 -2.5082
 1749SOL    HW216710   1.498   2.628  15.788  0.1051  1.3008 -1.1899
 1750SOL     OW16711   1.973   0.077   5.345  0.3938 -0.0812  0.2264
 1750SOL    HW116712   2.000   0.164   5.319 -2.0105  0.6664  0.1578
 1750SOL    HW216713   1.908   0.059   5.277 -0.6032  0.1987  1.0903
 1751SOL     OW16714   0.898   4.276  10.995 -0.1214 -0.1632 -0.6586
 1751SOL    HW116715   0.903   4.291  10.901 -1.2743 -0.6689 -0.7951
 1751SOL    HW216716   0.938   4.355  11.031 -2.0072  1.0029 -1.1166
 1752SOL     OW16717   4.089   2.193   5.403 -0.3338 -0.4850 -0.4260
 1752SOL    HW116718   4.137   2.112   5.417  0.3208  0.2003  1.2316
 1752SOL    HW216719   4.029   2.214   5.474 -1.7938 -3.4876 -0.7533
 1753SOL     OW16720   0.352   1.331   4.214 -0.8803 -0.6451 -0.7018
 1753SOL    HW116721   0.440   1.343   4.177 -1.2445  0.6625 -1.1532
 1753SOL    HW216722   0.347   1.236   4.222 -1.7467 -0.7220 -2.3129
 1754SOL     OW16723   1.408   4.631   2.171 -0.3826  0.1536 -0.0035
 1754SOL    HW116724   1.497   4.597   2.160  0.7178  3.1376 -0.0825
 1754SOL    HW216725   1.394   4.686   2.094  0.9495 -2.0796 -1.8371
 1755SOL     OW16726   3.161   3.389  15.795 -0.2148 -0.1133 -0.2462
 1755SOL    HW116727   3.190   3.438  15.719 -2.7854 -0.8026 -1.6656
 1755SOL    HW216728   3.215   3.309  15.792  1.4220  0.9867 -0.0001
 1756SOL     OW16729   2.139   2.423   7.130  0.0346  0.0849 -0.3572
 1756SOL    HW116730   2.197   2.363   7.176  1.1236  1.4886  0.0974
 1756SOL    HW216731   2.118   2.475   7.208 -0.0708 -0.0419 -0.2992
 1757SOL     OW16732   0.696   4.665  16.557 -0.0075  0.2909  0.3875
 1757SOL    HW116733   0.676   4.625  16.641 -0.0983 -0.6810 -0.0858
 1757SOL    HW216734   0.698   0.035  16.594  1.3361  1.0183 -1.3884
 1758SOL     OW16735   2.424   3.224   7.466  0.1201  0.3870  0.1442
 1758SOL    HW116736   2.383   3.268   7.392 -3.7957 -1.0759  1.4375
 1758SOL    HW216737   2.438   3.304   7.517  4.6915 -1.3571  1.6378
 1759SOL     OW16738   3.874   2.683   8.947 -0.3435  0.2681  0.0465
 1759SOL    HW116739   3.932   2.751   8.982 -2.4633  2.3769 -0.5482
 1759SOL    HW216740   3.790   2.725   8.968 -0.2805  0.0638  0.7035
 1760SOL     OW16741   1.495   4.541   4.052 -0.2945  0.3820  0.1841
 1760SOL    HW116742   1.585   4.539   4.085  0.3255  2.9840 -1.3006
 1760SOL    HW216743   1.481   4.636   4.046  0.3148  0.6036  2.4734
 1761SOL     OW16744   0.832   2.490   0.646  0.4101  0.0416 -0.0443
 1761SOL    HW116745   0.871   2.419   0.594  0.3729  1.4970 -2.0727
 1761SOL    HW216746   0.897   2.510   0.713  0.8847 -2.2332  0.1772
 1762SOL     OW16747   1.831   0.269   6.204  0.2587  0.0662  0.3779
 1762SOL    HW116748   1.818   0.251   6.111  0.3846 -0.8030  0.5300
 1762SOL    HW216749   1.915   0.315   6.205  1.0590 -1.3872 -1.0267
 1763SOL     OW16750   3.535   3.002   2.831 -0.5044  0.6461 -0.1511
 1763SOL    HW116751   3.597   3.063   2.872 -0.0518 -0.6175  1.0520
 1763SOL    HW216752   3.453   3.047   2.849 -0.4138  1.3765 -1.5492
 1764SOL     OW16753   3.548   3.787   7.378  0.3336 -0.4644  0.4111
 1764SOL    HW116754   3.526   3.876   7.351 -0.2583 -0.2370  1.6574
 1764SOL    HW216755   3.628   3.779   7.326 -1.2464  0.8413 -2.1950
 1765SOL     OW16756   1.507   2.343   6.711 -0.5754  0.2564  0.3914
 1765SOL    HW116757   1.555   2.422   6.733  1.6123 -1.4537  1.6568
 1765SOL    HW216758   1.468   2.313   6.793  3.6048 -0.3185  2.1347
 1766SOL     OW16759   3.279   0.174  12.680 -0.6215  0.2919  0.1743
 1766SOL    HW116760   3.334   0.118  12.626  1.7194 -0.1155  2.9628
 1766SOL    HW216761   3.219   0.105  12.710  0.5665  0.0831  2.0576
 1767SOL     OW16762   1.118   0.676   0.559 -0.0809  0.0471 -0.1889
 1767SOL    HW116763   1.070   0.736   0.616 -1.4523  1.3231 -2.6645
 1767SOL    HW216764   1.174   0.634   0.624 -0.9324 -0.6648  0.0950
 1768SOL     OW16765   1.333   3.640  12.462  0.0782 -0.3090  0.3034
 1768SOL    HW116766   1.243   3.659  12.433 -0.3987 -1.1157  1.2493
 1768SOL    HW216767   1.367   3.572  12.403 -1.8333  0.2746 -1.4974
 1769SOL     OW16768   1.574   3.015   1.365 -0.2851 -0.1903 -0.3900
 1769SOL    HW116769   1.579   3.104   1.400 -1.2382 -0.2983  0.0267
 1769SOL    HW216770   1.664   2.982   1.365 -0.0370  0.4984  0.1598
 1770SOL     OW16771   4.601   4.595   3.737  0.5165  0.1059 -0.4576
 1770SOL    HW116772   4.556   4.513   3.759  0.8101  0.3661  1.1124
 1770SOL    HW216773   4.530   4.640   3.692  2.1037  2.4256 -0.5985
 1771SOL     OW16774   1.827   2.434  12.424 -0.3115  0.2613  0.1048
 1771SOL    HW116775   1.885   2.365  12.457 -1.1473 -1.1744 -1.3975
 1771SOL    HW216776   1.887   2.504  12.398 -2.5742  1.2945 -2.3086
 1772SOL     OW16777   1.272   1.816   7.221 -0.2456  0.1846 -0.3976
 1772SOL    HW116778   1.341   1.758   7.253  2.1948  2.7634 -1.0026
 1772SOL    HW216779   1.316   1.901   7.225 -1.7415  0.9443 -0.1137
 1773SOL     OW16780   0.288   2.495  13.014  0.2575 -0.8705 -0.2604
 1773SOL    HW116781   0.364   2.459  13.060 -0.2023 -1.7491 -0.1805
 1773SOL    HW216782   0.303   2.587  13.037  1.8663 -1.7985  2.4793
 1774SOL     OW16783   2.911   4.413   5.422 -0.2220  0.0189  0.3555
 1774SOL    HW116784   2.892   4.464   5.344 -2.4015  1.1688  1.6445
 1774SOL    HW216785   2.952   4.336   5.382 -1.0950 -0.3882  0.2457
 1775SOL     OW16786   3.206   0.079  17.641  0.6720 -0.1256  0.6860
 1775SOL    HW116787   3.121   0.072  17.598  0.1896 -1.1639  1.8158
 1775SOL    HW216788   3.221   0.169  17.668  3.1494  0.8240 -3.9396
 1776SOL     OW16789   1.928   3.342  14.274 -0.4613 -0.3362 -0.3994
 1776SOL    HW116790   1.908   3.422  14.324  0.2305  0.1429 -0.8922
 1776SOL    HW216791   2.018   3.324  14.299 -0.2242 -0.2986 -1.2468
 1777SOL     OW16792   4.686   4.445   8.600  0.2551  0.5272 -0.1781
 1777SOL    HW116793   4.684   4.483   8.688  0.6392 -0.1338  0.1123
 1777SOL    HW216794   4.593   4.424   8.600  0.6238 -1.1112 -1.7259
 1778SOL     OW16795   2.063   0.056  14.418  0.7715  0.1417 -0.3175
 1778SOL    HW116796   2.152   0.022  14.430  1.4854  1.2739 -2.3902
 1778SOL    HW216797   2.016   4.709  14.366 -1.0549  1.9231 -0.8564
 1779SOL     OW16798   4.699   2.724   4.100 -0.2783  0.0262 -0.1755
 1779SOL    HW116799   0.042   2.796   4.120  1.2216 -1.6719  1.4087
 1779SOL    HW216800   4.624   2.778   4.073  0.2149  2.3971  3.1542
 1780SOL     OW16801   1.765   0.496   2.613  0.3541 -0.2556 -0.0175
 1780SOL    HW116802   1.845   0.549   2.619 -0.1370  0.5583 -0.6476
 1780SOL    HW216803   1.720   0.527   2.692 -2.6480  0.8469 -2.1941
 1781SOL     OW16804   2.717   0.811   5.077 -0.7951 -0.1343 -0.1565
 1781SOL    HW116805   2.651   0.880   5.084 -0.6215  0.0695 -0.5464
 1781SOL    HW216806   2.783   0.844   5.138  0.8334 -0.5773 -1.7084
 1782SOL     OW16807   3.707   4.011   2.689 -0.3452 -0.2259 -0.8968
 1782SOL    HW116808   3.686   3.925   2.726 -3.6604  0.7224 -0.5445
 1782SOL    HW216809   3.636   3.999   2.626 -1.5114 -1.6774  0.6623
 1783SOL     OW16810   3.291   0.618   5.321 -0.6069 -0.0947  0.0093
 1783SOL    HW116811   3.317   0.673   5.395  0.4498 -2.9004  1.7386
 1783SOL    HW216812   3.338   0.670   5.256  0.4074 -1.4417 -0.3366
 1784SOL     OW16813   4.390   0.247  14.324  0.6046 -0.0418  0.1307
 1784SOL    HW116814   4.298   0.253  14.298  0.3329  0.5841  1.2413
 1784SOL    HW216815   4.428   0.302  14.256  1.2945  3.5534  3.4271
 1785SOL     OW16816   0.553   1.212   4.712  0.4375 -0.1189  0.2515
 1785SOL    HW116817   0.482   1.245   4.657  1.6316  0.4833 -0.8990
 1785SOL    HW216818   0.502   1.138   4.747 -0.1511 -0.7625 -1.9558
 1786SOL     OW16819   0.720   1.548   8.977  0.2391  0.2905 -0.0786
 1786SOL    HW116820   0.789   1.557   9.044 -1.4759  0.0590  1.7048
 1786SOL    HW216821   0.638   1.535   9.025 -0.9420 -0.0923 -2.2117
 1787SOL     OW16822   2.359   0.921  11.148  0.2673  0.1821 -0.5341
 1787SOL    HW116823   2.275   0.944  11.109 -0.6643 -0.4732  1.0504
 1787SOL    HW216824   2.401   0.890  11.068 -0.5068 -0.9259 -0.5019
 1788SOL     OW16825   2.841   2.679   4.260 -0.0070  0.1714  0.1082
 1788SOL    HW116826   2.889   2.661   4.341  2.0320 -1.2862 -1.4181
 1788SOL    HW216827   2.873   2.614   4.199  0.9706  1.2719 -0.5592
 1789SOL     OW16828   2.868   4.074   0.850  0.2841 -0.7339  0.7113
 1789SOL    HW116829   2.902   4.008   0.789 -2.9450 -0.0014 -1.8504
 1789SOL    HW216830   2.947   4.108   0.892 -1.1783  2.1911  1.0641
 1790SOL     OW16831   2.602   0.536   6.058 -0.4876  0.4038  0.2363
 1790SOL    HW116832   2.647   0.619   6.037  0.0397  0.0167 -0.1673
 1790SOL    HW216833   2.513   0.570   6.059 -0.6251  0.0549 -0.2922
 1791SOL     OW16834   2.794   3.313   0.478  0.1758 -0.0270 -0.6566
 1791SOL    HW116835   2.715   3.360   0.452 -0.6365 -0.1001  1.6347
 1791SOL    HW216836   2.749   3.231   0.500 -1.1162  0.2196 -2.3723
 1792SOL     OW16837   1.366   0.394  12.429 -0.2115  0.2504 -0.5140
 1792SOL    HW116838   1.278   0.362  12.452  0.4424 -1.9042 -1.0946
 1792SOL    HW216839   1.399   0.319  12.380  1.4417 -0.4434  1.6503
 1793SOL     OW16840   0.407   1.363  16.104 -0.1080  0.8740  0.1897
 1793SOL    HW116841   0.484   1.333  16.055 -2.6725 -0.9875 -2.6627
 1793SOL    HW216842   0.330   1.341  16.051 -1.8720  0.4962  2.9251
 1794SOL     OW16843   3.413   1.875  16.155 -0.2743  0.4806  0.3345
 1794SOL    HW116844   3.435   1.783  16.169  0.3117  0.7375  1.1699
 1794SOL    HW216845   3.489   1.913  16.111 -0.7416  1.0054 -0.0188
 1795SOL     OW16846   0.487   4.245   3.647 -0.3900  0.1353 -1.0762
 1795SOL    HW116847   0.471   4.332   3.683 -1.3107 -0.4613 -0.0499
 1795SOL    HW216848   0.581   4.242   3.664 -0.5886 -2.2031 -0.4068
 1796SOL     OW16849   2.552   1.265   7.773  0.6229  0.4621 -0.1280
 1796SOL    HW116850   2.646   1.274   7.783  0.4249  0.8767  1.2830
 1796SOL    HW216851   2.538   1.171   7.787 -2.0941  1.1363  1.5707
 1797SOL     OW16852   4.515   3.695   6.651 -0.2454  0.3959  0.3955
 1797SOL    HW116853   4.605   3.699   6.620 -0.8184  2.4731 -1.0493
 1797SOL    HW216854   4.467   3.678   6.570 -1.0546 -1.6577  1.3248
 1798SOL     OW16855   1.161   3.501   2.047  1.1680 -0.0723 -0.1360
 1798SOL    HW116856   1.173   3.458   1.962 -2.1474  1.5003 -1.3729
 1798SOL    HW216857   1.096   3.439   2.079 -0.9517  2.1031 -0.2382
 1799SOL     OW16858   4.302   4.474   7.819  0.0009 -0.2949 -0.1595
 1799SOL    HW116859   4.375   4.413   7.827  1.6867  1.8169  0.6777
 1799SOL    HW216860   4.349   4.549   7.855 -0.2022 -1.0229  1.6303
 1800SOL     OW16861   1.934   1.355  10.364 -0.4158  0.2750  0.2543
 1800SOL    HW116862   1.933   1.398  10.278 -1.1416  1.0468  0.6505
 1800SOL    HW216863   1.842   1.367  10.388  0.5788  1.1335  3.6302
 1801SOL     OW16864   3.391   1.399   1.181  0.0987  0.0626 -0.2481
 1801SOL    HW116865   3.363   1.453   1.107 -1.3404 -0.5520 -0.1466
 1801SOL    HW216866   3.415   1.476   1.233 -0.5957 -0.7301  1.2266
 1802SOL     OW16867   4.177   3.009   1.668 -0.0215  0.1205  0.3732
 1802SOL    HW116868   4.087   3.026   1.697 -0.1353 -0.6571  0.4815
 1802SOL    HW216869   4.230   3.070   1.720 -0.7439  0.1111  1.1171
 1803SOL     OW16870   0.483   2.131   4.742  0.0257  0.0781  0.0893
 1803SOL    HW116871   0.526   2.100   4.822 -1.9768 -0.4550  0.9630
 1803SOL    HW216872   0.494   2.063   4.676 -1.2936  0.8384 -0.9338
 1804SOL     OW16873   1.155   0.883   9.403  0.2991 -0.0744 -0.7159
 1804SOL    HW116874   1.186   0.862   9.315 -0.5318 -1.4433 -0.6750
 1804SOL    HW216875   1.230   0.925   9.446 -1.0016  3.1442 -1.5394
 1805SOL     OW16876   1.776   0.238   3.446  0.3475  0.9642  0.2323
 1805SOL    HW116877   1.798   0.151   3.478 -1.2828  0.3402 -0.3462
 1805SOL    HW216878   1.762   0.275   3.533  1.6964  1.1288  0.3891
 1806SOL     OW16879   0.312   3.135   4.461 -0.0855 -0.3353 -0.1625
 1806SOL    HW116880   0.264   3.178   4.390  2.1783  0.5125 -1.1529
 1806SOL    HW216881   0.398   3.129   4.420 -0.2730 -2.0694 -0.3009
 1807SOL     OW16882   3.792   4.076  13.088 -0.1324 -0.0876  0.3786
 1807SOL    HW116883   3.788   4.094  13.182  0.4950  0.3865  0.3111
 1807SOL    HW216884   3.704   4.086  13.052 -0.3557 -1.2771  0.6028
 1808SOL     OW16885   4.012   3.484  17.008  0.2756  0.1415 -0.7756
 1808SOL    HW116886   4.030   3.404  17.057 -0.6292 -0.2081 -1.0190
 1808SOL    HW216887   4.097   3.528  17.003 -0.2950  1.1831 -1.2487
 1809SOL     OW16888   2.564   1.191  13.572  0.5561  0.2479 -0.4009
 1809SOL    HW116889   2.554   1.204  13.666  0.4426 -0.3881 -0.3258
 1809SOL    HW216890   2.481   1.147  13.554  0.3595 -0.4246  2.1068
 1810SOL     OW16891   1.249   0.223   1.540 -0.4862  0.2558 -0.0532
 1810SOL    HW116892   1.197   0.174   1.604 -2.0174  0.7799 -0.9010
 1810SOL    HW216893   1.196   0.302   1.533  0.2201  0.6378 -0.9952
 1811SOL     OW16894   0.103   1.172   3.081  0.1407 -0.1936  0.3238
 1811SOL    HW116895   0.083   1.085   3.113  0.2201  0.0497  1.0420
 1811SOL    HW216896   0.187   1.156   3.038  0.2478  2.2653 -0.3937
 1812SOL     OW16897   2.502   0.576   2.886  0.1432 -0.1711  0.1561
 1812SOL    HW116898   2.506   0.511   2.956 -1.4849 -0.1562  0.2554
 1812SOL    HW216899   2.483   0.523   2.808 -0.7056  0.9345 -0.3944
 1813SOL     OW16900   1.777   0.724  13.927  0.3435  0.6202 -0.3468
 1813SOL    HW116901   1.828   0.714  13.846  3.2771 -0.6175  1.6647
 1813SOL    HW216902   1.851   0.730  13.987  0.2133  0.4756 -0.1724
 1814SOL     OW16903   1.508   2.244  12.687  0.5167 -0.3615 -0.2159
 1814SOL    HW116904   1.523   2.303  12.614  1.0842  1.6515  1.5461
 1814SOL    HW216905   1.455   2.176  12.644  0.0168 -0.7012  0.9350
 1815SOL     OW16906   2.157   3.546   2.260 -0.1584 -0.2600 -0.2902
 1815SOL    HW116907   2.219   3.486   2.220 -0.0496 -1.1541  1.1989
 1815SOL    HW216908   2.217   3.597   2.314 -1.9766 -1.4433  2.8567
 1816SOL     OW16909   1.079   0.044   8.577 -0.0611 -0.2314  0.1639
 1816SOL    HW116910   1.049   0.088   8.656 -0.7308  0.1947 -0.3224
 1816SOL    HW216911   1.014   4.693   8.562 -1.0888  0.7911 -0.1085
 1817SOL     OW16912   0.967   2.860  15.964 -1.1610  0.2973  0.2116
 1817SOL    HW116913   0.894   2.799  15.963 -1.0766  0.1725  1.1887
 1817SOL    HW216914   1.026   2.795  15.928  1.0849  1.3153  2.0136
 1818SOL     OW16915   0.416   2.983  15.410  0.8632 -0.2424  0.0251
 1818SOL    HW116916   0.343   3.027  15.454  1.4321  0.2629  0.4550
 1818SOL    HW216917   0.456   3.061  15.373  0.5105  0.9406  2.1074
 1819SOL     OW16918   1.418   3.721   3.540  0.3017  0.0933  0.1735
 1819SOL    HW116919   1.394   3.632   3.513 -1.5333  0.8896 -0.8434
 1819SOL    HW216920   1.493   3.733   3.482 -0.8573  2.0378 -0.9306
 1820SOL     OW16921   3.148   3.572   5.201  0.3107  0.1402 -0.6074
 1820SOL    HW116922   3.081   3.631   5.236  1.9553  1.3328  0.5347
 1820SOL    HW216923   3.219   3.634   5.184  1.5264 -0.8099  0.9928
 1821SOL     OW16924   0.683   4.642   4.315  0.0164  0.0457  0.1264
 1821SOL    HW116925   0.688   4.658   4.409 -2.6561  0.5205  0.1721
 1821SOL    HW216926   0.740   4.712   4.284  0.3527 -0.4093 -0.2861
 1822SOL     OW16927   0.724   0.988   6.261 -0.3609 -0.5403  0.0303
 1822SOL    HW116928   0.784   0.975   6.187  0.0229  0.0817  0.2385
 1822SOL    HW216929   0.777   0.957   6.335  0.3695  0.3458 -0.1211
 1823SOL     OW16930   0.033   4.422   6.162 -0.4804 -0.2448 -0.4767
 1823SOL    HW116931   0.116   4.437   6.207 -1.0840  0.2560  0.4774
 1823SOL    HW216932   4.697   4.483   6.213  2.5236  0.9538  1.2469
 1824SOL     OW16933   1.573   2.739   0.754 -0.2977  0.5765  0.8053
 1824SOL    HW116934   1.566   2.757   0.848 -0.0966  0.2626  0.8805
 1824SOL    HW216935   1.497   2.683   0.742 -0.1326  0.9691 -2.1817
 1825SOL     OW16936   1.703   1.727   7.755  0.2215 -0.1722 -0.0289
 1825SOL    HW116937   1.735   1.816   7.745 -2.4797  0.7535 -0.3365
 1825SOL    HW216938   1.609   1.734   7.739  0.3563  0.5913 -0.4741
 1826SOL     OW16939   3.651   0.464   6.591  0.4161  0.7674  0.0583
 1826SOL    HW116940   3.647   0.376   6.630  1.2227  1.9250  2.7085
 1826SOL    HW216941   3.632   0.433   6.502 -1.7467  0.4246  0.6274
 1827SOL     OW16942   3.160   1.085   7.118  0.2939 -0.1011  0.1932
 1827SOL    HW116943   3.125   0.997   7.102 -1.9974  0.9271 -0.4681
 1827SOL    HW216944   3.117   1.107   7.200  0.3451  0.2685  0.1230
 1828SOL     OW16945   4.532   2.561   1.822  0.0564 -0.0795  0.2504
 1828SOL    HW116946   4.607   2.594   1.773 -0.3449 -3.4405 -2.7080
 1828SOL    HW216947   4.531   2.616   1.900 -2.7159  0.5941 -0.2743
 1829SOL     OW16948   2.152   3.826   7.038  0.0077 -0.0856 -0.0635
 1829SOL    HW116949   2.206   3.826   6.959  1.4675 -0.8052  0.9400
 1829SOL    HW216950   2.139   3.919   7.057  1.8463  0.0038  0.7781
 1830SOL     OW16951   1.638   2.218   5.243 -0.4086  0.5718  0.0190
 1830SOL    HW116952   1.617   2.148   5.305  3.4726 -0.2685  0.4063
 1830SOL    HW216953   1.732   2.201   5.254 -0.1130  1.3327 -1.4418
 1831SOL     OW16954   0.117   0.779   9.090  0.6975  0.0743 -0.3494
 1831SOL    HW116955   0.177   0.800   9.018  0.0616  1.0427 -0.6023
 1831SOL    HW216956   0.166   0.709   9.133  0.3846 -0.8195 -1.4578
 1832SOL     OW16957   2.033   3.222   6.980  0.6037 -0.0456  0.0082
 1832SOL    HW116958   2.085   3.297   6.949  1.1623  0.0162  1.1061
 1832SOL    HW216959   1.991   3.183   6.903 -0.3483  0.3392  0.3445
 1833SOL     OW16960   0.052   0.895   3.205  0.8078  0.7432 -0.3990
 1833SOL    HW116961   0.078   0.809   3.172  0.0382 -0.1222  1.2661
 1833SOL    HW216962   0.127   0.926   3.255  2.2529 -1.3643 -1.2427
 1834SOL     OW16963   1.275   4.051   3.350  0.0968 -0.2149 -0.5037
 1834SOL    HW116964   1.193   4.010   3.321 -0.0049  0.3490 -0.9991
 1834SOL    HW216965   1.280   4.002   3.432 -0.4620  0.0992 -0.2784
 1835SOL     OW16966   0.884   0.298   5.275 -0.7138 -0.1647 -0.0692
 1835SOL    HW116967   0.850   0.303   5.365  0.7917  0.0953  0.4825
 1835SOL    HW216968   0.838   0.371   5.235 -1.0266 -0.8766 -1.0263
 1836SOL     OW16969   2.816   0.758   7.638  0.7080 -0.1426 -0.2042
 1836SOL    HW116970   2.785   0.678   7.681 -1.6399  2.8324  3.6890
 1836SOL    HW216971   2.842   0.817   7.708 -1.7044  2.2306 -1.3043
 1837SOL     OW16972   1.579   4.060   4.249 -0.8389  0.3093  0.0285
 1837SOL    HW116973   1.624   4.087   4.169 -1.3665  2.4978  0.4670
 1837SOL    HW216974   1.652   4.087   4.305  1.2261  1.1541 -3.0612
 1838SOL     OW16975   2.495   0.064   5.909 -0.3289 -0.1946  0.4785
 1838SOL    HW116976   2.477   0.018   5.827 -0.7392  2.2511 -0.8119
 1838SOL    HW216977   2.530   0.146   5.874 -0.6458  0.6036  2.0488
 1839SOL     OW16978   3.513   2.659   7.041  0.1967  0.2558 -0.8758
 1839SOL    HW116979   3.574   2.613   6.984  1.2205 -0.5125  0.8294
 1839SOL    HW216980   3.435   2.619   7.001  0.1037  1.4540 -1.8675
 1840SOL     OW16981   4.662   1.966  10.282  0.6986  0.5278 -0.3476
 1840SOL    HW116982   4.650   1.871  10.273  3.3278  0.1172  0.2606
 1840SOL    HW216983   4.689   1.955  10.373 -2.7112 -1.3065  0.4469
 1841SOL     OW16984   3.179   0.834  13.327 -0.3877  0.6123 -0.3387
 1841SOL    HW116985   3.141   0.752  13.294  1.6428 -0.7278  0.6122
 1841SOL    HW216986   3.256   0.836  13.271 -0.3647  0.6022 -0.3079
 1842SOL     OW16987   4.249   2.424   8.299  0.2208  0.1846  0.1183
 1842SOL    HW116988   4.157   2.400   8.297  0.1047  0.9780 -3.7625
 1842SOL    HW216989   4.254   2.450   8.207  1.3090  0.3303  0.2181
 1843SOL     OW16990   2.937   3.387   3.626 -0.2042  0.1834  0.0217
 1843SOL    HW116991   3.032   3.377   3.631 -0.1514 -0.1621 -1.6182
 1843SOL    HW216992   2.917   3.388   3.720  2.0744  0.2077  0.5044
 1844SOL     OW16993   1.760   3.778   1.955  0.0756 -0.3659  0.2817
 1844SOL    HW116994   1.848   3.744   1.970  0.7369  1.2750  0.1764
 1844SOL    HW216995   1.739   3.796   2.047 -2.1854 -1.5384  0.0015
 1845SOL     OW16996   4.237   0.914   2.688 -0.1017  0.1014  0.5249
 1845SOL    HW116997   4.187   0.891   2.610  1.2240 -0.0823 -0.2765
 1845SOL    HW216998   4.259   1.002   2.658 -0.5196 -0.1784 -0.6194
 1846SOL     OW16999   1.099   4.685  16.364  0.0760  0.1436 -0.1807
 1846SOL    HW117000   1.154   4.614  16.396 -0.3912  1.3151  3.2550
 1846SOL    HW217001   1.045   4.632  16.305 -0.8745  0.3816  0.4648
 1847SOL     OW17002   2.829   0.073   0.965 -0.0375 -0.4485 -0.2532
 1847SOL    HW117003   2.845   0.163   0.993 -0.9105  0.1111 -1.5801
 1847SOL    HW217004   2.735   0.063   0.981  0.5114 -2.5365  1.6610
 1848SOL     OW17005   2.053   0.080  17.394 -0.1868 -0.4692 -0.1722
 1848SOL    HW117006   2.013   0.009  17.344 -2.7861  1.0358 -0.2467
 1848SOL    HW217007   2.144   0.050  17.396 -0.4682 -1.3466 -0.4451
 1849SOL     OW17008   2.335   0.871   4.935  0.4764  0.2846 -0.2478
 1849SOL    HW117009   2.327   0.850   4.842 -1.0711  1.9609 -0.4913
 1849SOL    HW217010   2.353   0.785   4.973 -0.7948  0.3387  0.4630
 1850SOL     OW17011   1.759   1.258   0.580  0.1734 -0.2470  0.2832
 1850SOL    HW117012   1.774   1.195   0.650 -1.8623 -0.9388  0.0937
 1850SOL    HW217013   1.790   1.208   0.504 -1.8031  0.3707 -0.9287
 1851SOL     OW17014   1.741   1.498   0.689 -0.1833  0.1004 -0.1274
 1851SOL    HW117015   1.744   1.410   0.652 -1.7922 -0.3018  0.6971
 1851SOL    HW217016   1.648   1.523   0.690 -0.2001  0.0548 -0.7490
 1852SOL     OW17017   3.022   3.838  11.500 -0.5136  0.2360 -0.1702
 1852SOL    HW117018   3.100   3.793  11.534 -0.8202  1.0238  1.6023
 1852SOL    HW217019   3.038   3.834  11.406  3.1806 -0.8096  0.4866
 1853SOL     OW17020   2.476   1.359  11.199  0.0254  0.3627 -0.0773
 1853SOL    HW117021   2.435   1.339  11.115  1.6972 -1.6535 -0.4096
 1853SOL    HW217022   2.399   1.324  11.243 -0.6288  1.5860 -0.2458
 1854SOL     OW17023   0.582   3.281   8.424  0.3975  0.3371  0.1259
 1854SOL    HW117024   0.618   3.366   8.451  0.5660  0.9076 -1.8887
 1854SOL    HW217025   0.489   3.305   8.428  0.1459 -0.3196 -1.6431
 1855SOL     OW17026   4.404   1.613  17.321  0.1906  0.2558 -0.5199
 1855SOL    HW117027   4.391   1.594  17.229  0.7418  0.1094 -0.5682
 1855SOL    HW217028   4.329   1.565  17.356  1.3849 -2.5947 -1.8714
 1856SOL     OW17029   1.388   3.201   4.812  0.4857 -0.1046 -0.2247
 1856SOL    HW117030   1.332   3.261   4.763  0.8220  0.1562 -0.2948
 1856SOL    HW217031   1.472   3.241   4.789  1.1961 -1.1000  0.6335
 1857SOL     OW17032   4.714   1.402  12.979  0.1805  0.2455 -0.3607
 1857SOL    HW117033   0.050   1.480  12.987  0.0648  0.2033  0.7893
 1857SOL    HW217034   4.715   1.393  12.884  0.3491  0.3800 -0.3712
 1858SOL     OW17035   0.853   0.431   0.796 -0.2738 -0.7365 -0.5407
 1858SOL    HW117036   0.768   0.472   0.814  0.2549 -0.1361  0.6288
 1858SOL    HW217037   0.904   0.470   0.867  0.4579  0.6011 -1.7846
 1859SOL     OW17038   2.382   3.189  10.365  1.0052 -0.1090  0.0286
 1859SOL    HW117039   2.316   3.213  10.300 -1.5414 -1.2665  2.1621
 1859SOL    HW217040   2.447   3.151  10.307 -0.0292 -0.3869 -0.9579
 1860SOL     OW17041   4.213   2.665   1.430  0.0024  0.1133  0.3975
 1860SOL    HW117042   4.125   2.698   1.447 -0.7744 -1.3785 -0.7332
 1860SOL    HW217043   4.194   2.573   1.409 -0.7325  1.0232 -2.9533
 1861SOL     OW17044   4.595   3.481  17.582  0.0978  0.3428 -0.1322
 1861SOL    HW117045   4.588   3.389  17.558 -1.1004  0.2160  0.6701
 1861SOL    HW217046   4.534   3.516  17.517 -1.5711  0.4786  1.4920
 1862SOL     OW17047   2.868   1.134   5.250 -0.5342 -0.1084  0.1435
 1862SOL    HW117048   2.773   1.123   5.245 -0.5757 -0.4409  1.5305
 1862SOL    HW217049   2.897   1.046   5.274  1.0493 -0.0583 -1.6325
 1863SOL     OW17050   1.160   4.086  14.242  0.3265 -0.6892 -0.3552
 1863SOL    HW117051   1.104   4.075  14.318 -1.8050  1.4503 -1.5819
 1863SOL    HW217052   1.086   4.108  14.184  0.7959 -0.8296 -1.0078
 1864SOL     OW17053   1.518   2.409   8.014  0.0388  0.2411 -0.7029
 1864SOL    HW117054   1.515   2.416   8.109 -0.5513  2.2313 -0.8624
 1864SOL    HW217055   1.490   2.496   7.983 -0.8195  0.3170  0.2839
 1865SOL     OW17056   4.704   3.767   4.862  0.8273  0.0601  0.6152
 1865SOL    HW117057   4.624   3.719   4.840 -0.9037  2.8863  0.7406
 1865SOL    HW217058   0.015   3.723   4.942 -1.0874 -0.6731  0.9089
 1866SOL     OW17059   4.562   4.154  14.081 -0.2178  0.3934  0.2032
 1866SOL    HW117060   4.537   4.206  14.004  0.0680  1.7277  1.0058
 1866SOL    HW217061   4.621   4.096  14.033  2.8292  1.0208  3.2321
 1867SOL     OW17062   1.553   3.386  16.095 -0.0469 -0.0387 -0.4280
 1867SOL    HW117063   1.646   3.369  16.079  0.6287  3.7611 -0.3643
 1867SOL    HW217064   1.515   3.379  16.007 -1.9519  0.0988  0.3937
 1868SOL     OW17065   3.009   4.053   8.960  1.2903  0.1993  0.0673
 1868SOL    HW117066   3.029   4.001   9.038 -1.2358 -1.8581 -0.6601
 1868SOL    HW217067   3.055   4.012   8.886  0.4943 -1.5646  0.5489
 1869SOL     OW17068   1.235   2.622   4.396 -0.8432 -0.0341  0.3647
 1869SOL    HW117069   1.253   2.694   4.457  3.1111  0.2350 -1.0780
 1869SOL    HW217070   1.247   2.545   4.451  2.0078  1.2121  1.5129
 1870SOL     OW17071   0.495   0.206  10.165 -0.3361  0.2993 -0.1694
 1870SOL    HW117072   0.492   0.114  10.140  2.0168 -0.1111  0.9860
 1870SOL    HW217073   0.430   0.212  10.235  1.4325 -2.3690  1.7048
 1871SOL     OW17074   4.340   3.592   7.765  0.0608 -0.2124  0.1535
 1871SOL    HW117075   4.351   3.507   7.724 -1.6711 -0.9152  1.1380
 1871SOL    HW217076   4.362   3.571   7.856 -1.2169 -1.4182  0.1841
 1872SOL     OW17077   0.957   1.601   8.453 -0.1751 -0.0994 -0.2268
 1872SOL    HW117078   0.975   1.521   8.502 -1.5235  1.0605  2.1379
 1872SOL    HW217079   0.861   1.602   8.459 -0.1839 -2.1353  0.2204
 1873SOL     OW17080   0.387   1.899   6.482 -0.3350 -0.4235 -0.1345
 1873SOL    HW117081   0.372   1.872   6.572  2.9148 -1.3557  0.1179
 1873SOL    HW217082   0.327   1.974   6.490  0.4560  0.1392  0.6204
 1874SOL     OW17083   4.301   2.879   5.616  0.1768 -0.1867  0.5883
 1874SOL    HW117084   4.283   2.805   5.673 -1.2291 -2.2858 -2.5724
 1874SOL    HW217085   4.285   2.839   5.530  1.6931  0.1355  0.1686
 1875SOL     OW17086   3.365   0.558   1.254  0.1779  0.1055  0.6891
 1875SOL    HW117087   3.339   0.570   1.162  0.0739  0.0418  0.7103
 1875SOL    HW217088   3.281   0.534   1.294 -0.5732  1.7211  0.0966
 1876SOL     OW17089   0.769   2.310  17.178  0.9232 -0.1708 -0.3462
 1876SOL    HW117090   0.784   2.293  17.271  1.2038 -2.0185 -0.7316
 1876SOL    HW217091   0.762   2.405  17.184  0.3883 -0.3578  1.9824
 1877SOL     OW17092   4.616   0.811   4.705 -0.1001  0.2833 -0.1562
 1877SOL    HW117093   4.567   0.890   4.682 -0.6212 -0.0029 -0.0323
 1877SOL    HW217094   4.695   0.848   4.744  1.4172  0.7850 -3.7235
 1878SOL     OW17095   4.524   2.414   5.144 -0.0899  0.4459  0.5916
 1878SOL    HW117096   4.562   2.399   5.058 -0.7503  0.6540  0.2578
 1878SOL    HW217097   4.428   2.406   5.141 -0.1662  2.0864 -1.5747
 1879SOL     OW17098   1.153   2.863   3.136  0.3098 -0.0962 -0.0411
 1879SOL    HW117099   1.237   2.908   3.139  0.2553 -0.0822  1.6217
 1879SOL    HW217100   1.175   2.780   3.180 -0.7480 -0.1092  0.4671
 1880SOL     OW17101   2.629   4.626  15.043 -0.6738 -0.0117 -0.1447
 1880SOL    HW117102   2.695   4.695  15.038 -1.5309  0.8517  0.3473
 1880SOL    HW217103   2.641   4.576  15.124  0.9237  2.9522  1.4529
 1881SOL     OW17104   3.280   2.110   4.374 -0.0944  0.1836 -0.2249
 1881SOL    HW117105   3.185   2.124   4.368  0.0170  0.8849 -0.3925
 1881SOL    HW217106   3.315   2.194   4.344 -2.1506  1.1410  0.0571
 1882SOL     OW17107   2.185   0.583   7.504 -0.1556 -0.9740 -0.1160
 1882SOL    HW117108   2.249   0.635   7.552 -0.9888  0.9022 -1.0419
 1882SOL    HW217109   2.206   0.589   7.410 -0.3315  1.4704  0.0050
 1883SOL     OW17110   4.090   1.731   7.354  0.0234  0.3552  0.1210
 1883SOL    HW117111   4.070   1.656   7.410  1.3237  1.4773  2.0901
 1883SOL    HW217112   4.041   1.734   7.272 -0.8821  1.5456  0.6954
 1884SOL     OW17113   2.338   1.143   2.529 -0.4060  0.0162  0.1276
 1884SOL    HW117114   2.344   1.201   2.604 -1.8377  0.8118 -0.3691
 1884SOL    HW217115   2.432   1.123   2.525 -0.4215 -0.2652  1.3551
 1885SOL     OW17116   4.139   1.486   2.788  0.6176  0.5484 -0.4455
 1885SOL    HW117117   4.090   1.408   2.762 -2.1606  2.5810 -1.4129
 1885SOL    HW217118   4.133   1.487   2.884 -1.1221  0.8293 -0.5556
 1886SOL     OW17119   3.577   1.141   1.703 -0.2650  0.9030  0.4035
 1886SOL    HW117120   3.590   1.058   1.658  1.2174  1.1162  0.4077
 1886SOL    HW217121   3.663   1.152   1.744  0.6941 -1.5979 -0.9481
 1887SOL     OW17122   0.641   2.286   6.299 -0.1396  0.5477  0.3309
 1887SOL    HW117123   0.625   2.235   6.379  0.4573 -0.6470 -0.3163
 1887SOL    HW217124   0.737   2.289   6.292 -0.0370 -1.4484  0.7175
 1888SOL     OW17125   2.928   0.676  13.210 -0.6582  0.3269  0.1081
 1888SOL    HW117126   2.929   0.622  13.131  1.5167  3.0822 -1.7931
 1888SOL    HW217127   2.875   0.627  13.272 -1.9779  3.8990  1.7874
 1889SOL     OW17128   2.581   1.307  12.514 -0.5165  0.1129  0.6553
 1889SOL    HW117129   2.559   1.249  12.586  0.7100 -2.0853 -0.7245
 1889SOL    HW217130   2.545   1.391  12.542 -0.1483  0.6482 -0.4461
 1890SOL     OW17131   0.119   2.351   3.175 -0.0059 -0.0891  0.1619
 1890SOL    HW117132   0.077   2.427   3.215 -0.0452 -0.2385  0.4007
 1890SOL    HW217133   0.208   2.360   3.209 -1.0267  0.1889  2.7497
 1891SOL     OW17134   1.978   1.829  14.776 -0.2955 -0.8253  0.2632
 1891SOL    HW117135   2.057   1.874  14.805 -2.2743  3.1227 -0.4477
 1891SOL    HW217136   1.986   1.845  14.682 -0.0364  2.0456  0.7806
 1892SOL     OW17137   1.129   0.240   8.124 -0.3420 -0.2810 -0.2194
 1892SOL    HW117138   1.078   0.260   8.203  1.1125 -1.9786  1.1602
 1892SOL    HW217139   1.215   0.251   8.163 -0.8378  1.0803  0.5142
 1893SOL     OW17140   0.934   2.740   8.028  0.0207 -0.4806 -0.4228
 1893SOL    HW117141   0.972   2.803   8.089 -1.5630 -1.4001  1.4910
 1893SOL    HW217142   0.840   2.746   8.040  0.1877 -0.6401  0.9421
 1894SOL     OW17143   3.100   1.487   6.317  0.4934 -0.5169 -0.1922
 1894SOL    HW117144   3.048   1.532   6.384 -0.1944  0.4181 -1.3484
 1894SOL    HW217145   3.151   1.556   6.274  0.0893  0.2378  0.5334
 1895SOL     OW17146   0.146   1.295   2.445  0.4565  0.5827  0.4248
 1895SOL    HW117147   0.111   1.220   2.397  1.7842  0.3026 -0.1010
 1895SOL    HW217148   0.080   1.357   2.414 -0.7513 -1.8134 -1.8168
 1896SOL     OW17149   4.367   2.936  13.210  0.0324 -0.4099  0.1125
 1896SOL    HW117150   4.411   3.011  13.251 -2.1571  1.4415 -0.9112
 1896SOL    HW217151   4.276   2.962  13.224  0.3316  0.4187  0.5537
 1897SOL     OW17152   0.008   1.571  15.694  0.3640  0.1837  0.0482
 1897SOL    HW117153   0.021   1.529  15.609  0.9201  1.2254 -0.3830
 1897SOL    HW217154   4.675   1.501  15.735  3.0934 -1.0618  1.2651
 1898SOL     OW17155   0.479   0.731   0.986  0.1785  0.2701 -0.0044
 1898SOL    HW117156   0.409   0.744   0.922 -0.9070  0.0130  1.1410
 1898SOL    HW217157   0.470   0.810   1.040 -1.1445  0.7124 -0.8690
 1899SOL     OW17158   0.934   4.657  15.311  0.0089  0.1584  0.0734
 1899SOL    HW117159   0.902   4.579  15.265  1.5128 -0.9151  0.8364
 1899SOL    HW217160   0.848   4.695  15.327  0.1489  0.6311 -0.3098
 1900SOL     OW17161   1.986   2.974   9.881 -0.5808 -0.3588 -0.0777
 1900SOL    HW117162   2.007   2.882   9.868  4.9006  0.8660 -0.2147
 1900SOL    HW217163   2.052   3.010   9.822 -0.7020  0.4329  0.2617
 1901SOL     OW17164   0.083   1.920   3.749 -0.5058  0.3255  0.8540
 1901SOL    HW117165   0.097   1.827   3.768 -0.0670  0.5206  1.4862
 1901SOL    HW217166   4.707   1.923   3.732 -0.2974 -2.7026 -0.8470
 1902SOL     OW17167   1.549   1.212   2.984  0.0582 -0.3713  0.3442
 1902SOL    HW117168   1.598   1.146   3.034  0.2016 -0.6544 -0.1728
 1902SOL    HW217169   1.541   1.175   2.896  1.8286  0.0381  0.0028
 1903SOL     OW17170   1.755   1.032   9.850  0.3689  0.4965  0.2515
 1903SOL    HW117171   1.762   1.102   9.785 -1.0360  0.5645  0.1714
 1903SOL    HW217172   1.706   0.975   9.791 -0.6052 -0.5852  2.1399
 1904SOL     OW17173   1.587   4.588  17.652  0.2092  0.4224  0.0015
 1904SOL    HW117174   1.554   4.506  17.615  1.8816 -1.1209  1.9451
 1904SOL    HW217175   1.661   4.548   0.023  0.2886  0.1144 -0.3957
 1905SOL     OW17176   2.734   3.781   2.113  0.2126  0.5688  0.0260
 1905SOL    HW117177   2.783   3.851   2.070  0.5821  0.3679  0.1176
 1905SOL    HW217178   2.788   3.704   2.093 -0.5545  0.0444 -0.0277
 1906SOL     OW17179   1.021   1.601   3.928  0.0224 -0.1040  0.3590
 1906SOL    HW117180   1.070   1.573   4.005  0.5532 -0.1879 -0.0094
 1906SOL    HW217181   0.977   1.684   3.948 -0.6303 -0.4070  0.2054
 1907SOL     OW17182   4.717   4.502   4.165  0.2519  0.1795 -0.5286
 1907SOL    HW117183   0.034   4.521   4.077 -0.4091 -2.1361 -1.2917
 1907SOL    HW217184   0.072   4.521   4.225 -0.2866  2.1650 -0.4963
 1908SOL     OW17185   3.182   3.331   0.817 -0.2888  0.3906 -0.5331
 1908SOL    HW117186   3.227   3.329   0.733 -0.0910 -1.5070 -0.3798
 1908SOL    HW217187   3.091   3.340   0.788 -0.1342 -2.4111 -1.7724
 1909SOL     OW17188   3.665   0.832   5.868  0.1503  0.2752 -0.0694
 1909SOL    HW117189   3.736   0.854   5.808 -0.5308 -1.7954 -1.6455
 1909SOL    HW217190   3.659   0.736   5.865 -1.9547  0.3867  0.1972
 1910SOL     OW17191   1.487   4.303   9.916  0.0641  0.2068  0.0830
 1910SOL    HW117192   1.571   4.317   9.960  0.8705  0.8300 -1.6271
 1910SOL    HW217193   1.497   4.212   9.889 -1.4420 -0.2030  0.9116
 1911SOL     OW17194   1.728   1.590  12.206 -0.2993  0.4214  0.5470
 1911SOL    HW117195   1.769   1.509  12.176  1.3718  2.0866 -1.6431
 1911SOL    HW217196   1.738   1.650  12.132 -0.0939  0.0294  0.2592
 1912SOL     OW17197   0.390   1.052   9.340 -0.5329 -0.3582 -0.0579
 1912SOL    HW117198   0.442   1.077   9.416 -0.2759 -1.0486 -0.0095
 1912SOL    HW217199   0.432   0.971   9.312 -0.1441 -0.0657 -0.3248
 1913SOL     OW17200   2.577   3.984   3.475 -0.0264  0.0253  0.5662
 1913SOL    HW117201   2.537   3.900   3.453  2.3303 -0.7531 -0.6957
 1913SOL    HW217202   2.564   4.033   3.394  0.4648 -0.5926  0.1188
 1914SOL     OW17203   1.122   1.413  16.275 -0.1518  0.0374 -0.1675
 1914SOL    HW117204   1.067   1.410  16.353  0.8078  0.3419  0.5111
 1914SOL    HW217205   1.126   1.507  16.261  3.1319 -0.0713  0.2547
 1915SOL     OW17206   0.252   3.704   7.542 -0.2466 -0.4717  0.0948
 1915SOL    HW117207   0.305   3.625   7.530  0.7485 -0.2775  3.0726
 1915SOL    HW217208   0.207   3.708   7.458  0.0425  1.6596  0.0369
 1916SOL     OW17209   4.508   3.581   4.759 -0.4696  0.4158  0.5696
 1916SOL    HW117210   4.471   3.520   4.822 -0.9831 -2.0513 -2.1135
 1916SOL    HW217211   4.488   3.537   4.676  1.1374  1.5686 -0.4356
 1917SOL     OW17212   0.246   2.464   7.762 -0.0769  0.2593 -0.2122
 1917SOL    HW117213   0.308   2.532   7.788  1.9395 -2.2096  1.5578
 1917SOL    HW217214   0.162   2.494   7.797 -0.5736 -2.4701  0.9444
 1918SOL     OW17215   2.155   4.219   3.793 -0.3330 -0.2491  0.5546
 1918SOL    HW117216   2.102   4.139   3.800 -1.2101  0.0967 -2.0932
 1918SOL    HW217217   2.199   4.211   3.877  0.2759  1.6550  0.4079
 1919SOL     OW17218   0.027   1.687  10.619  0.6742 -0.1982 -0.6494
 1919SOL    HW117219   0.082   1.725  10.551 -0.8362  1.4167 -0.9667
 1919SOL    HW217220   0.011   1.762  10.676 -0.4908 -0.6224 -0.4189
 1920SOL     OW17221   0.666   0.333  12.320  0.0011  0.5703  0.1563
 1920SOL    HW117222   0.681   0.400  12.254  2.0211  0.0078  0.0521
 1920SOL    HW217223   0.751   0.335  12.364 -0.4884  0.2878  1.1197
 1921SOL     OW17224   0.696   3.683   3.067 -0.5725  0.1512  0.9011
 1921SOL    HW117225   0.790   3.698   3.066 -0.2348 -2.1048 -0.8659
 1921SOL    HW217226   0.669   3.741   2.996 -1.1472 -2.6889 -1.2239
 1922SOL     OW17227   4.388   0.239   6.048  0.2594  0.0584 -0.3021
 1922SOL    HW117228   4.383   0.260   5.955 -0.1054  3.0621  0.4148
 1922SOL    HW217229   4.452   0.168   6.053 -0.8655 -0.9476  0.1156
 1923SOL     OW17230   1.615   3.719  16.420  0.3063 -0.4493  0.2899
 1923SOL    HW117231   1.703   3.755  16.411  0.6028 -1.4773 -0.9354
 1923SOL    HW217232   1.561   3.779  16.370 -0.8435 -1.6162  0.1182
 1924SOL     OW17233   2.379   0.265   2.006  0.3408  0.2648  0.4981
 1924SOL    HW117234   2.440   0.315   2.060 -1.6512  0.7083  2.3364
 1924SOL    HW217235   2.337   0.344   1.971  2.2485  1.4364  0.8598
 1925SOL     OW17236   3.855   1.821   5.569  0.2348  0.0177  0.2862
 1925SOL    HW117237   3.878   1.836   5.660 -2.1325 -2.1131  1.2583
 1925SOL    HW217238   3.916   1.749   5.555 -0.2943 -0.0908 -1.4910
 1926SOL     OW17239   4.040   2.598   2.203  0.1891 -0.3113  0.1229
 1926SOL    HW117240   3.988   2.606   2.123  0.2494  0.2294  0.1355
 1926SOL    HW217241   3.974   2.572   2.267 -0.1915  0.4775  0.0485
 1927SOL     OW17242   1.130   2.404  11.945 -0.2890 -0.0058  0.1619
 1927SOL    HW117243   1.036   2.401  11.929 -0.1491  2.4628 -1.1911
 1927SOL    HW217244   1.151   2.312  11.959 -1.4185  0.5548  5.4109
 1928SOL     OW17245   3.404   3.260   2.440  0.3622 -0.2321  0.2061
 1928SOL    HW117246   3.379   3.352   2.451  0.8835 -0.0189 -0.4212
 1928SOL    HW217247   3.345   3.222   2.506  1.5281 -2.8353 -0.2413
 1929SOL     OW17248   1.002   0.172   2.809 -0.1338 -0.1349  0.1635
 1929SOL    HW117249   0.924   0.115   2.801 -0.0689  0.0450 -1.8605
 1929SOL    HW217250   0.987   0.196   2.900 -0.7812  1.0432 -0.2516
 1930SOL     OW17251   1.693   2.591   6.804  0.3191  0.3707  0.3925
 1930SOL    HW117252   1.645   2.655   6.856  0.1193 -0.0144  0.6753
 1930SOL    HW217253   1.726   2.532   6.872 -1.8431 -1.3548 -0.0597
 1931SOL     OW17254   3.910   1.948  13.644 -0.1470 -0.3657  0.2009
 1931SOL    HW117255   3.886   1.974  13.732 -0.6900 -0.6966  0.1509
 1931SOL    HW217256   3.964   2.022  13.617  0.8477 -1.1572  0.0127
 1932SOL     OW17257   4.560   3.040   7.963  0.5290 -0.2467 -0.1914
 1932SOL    HW117258   4.495   3.044   7.892  1.6589 -0.6775 -1.2602
 1932SOL    HW217259   4.609   3.120   7.942 -1.8060  1.2069 -0.1136
 1933SOL     OW17260   4.444   1.511   5.068  0.4893  0.3474 -0.3057
 1933SOL    HW117261   4.380   1.441   5.085 -1.0072  1.8050  0.0091
 1933SOL    HW217262   4.427   1.571   5.139 -1.6593  2.1104 -2.3218
 1934SOL     OW17263   4.091   1.891   9.091 -0.1204  0.0246 -0.3076
 1934SOL    HW117264   4.080   1.883   9.186  0.7956 -0.6404 -0.2582
 1934SOL    HW217265   4.130   1.978   9.093  1.0629 -0.6012  3.3158
 1935SOL     OW17266   0.806   3.455  12.707 -0.2354 -0.7646  0.1255
 1935SOL    HW117267   0.716   3.474  12.681  0.7475  1.6355 -1.5475
 1935SOL    HW217268   0.828   3.381  12.650 -0.1484 -1.0511  0.5313
 1936SOL     OW17269   2.919   0.853   5.797 -0.5932  0.4361  0.9021
 1936SOL    HW117270   2.848   0.882   5.739 -0.3521 -1.0996 -0.1553
 1936SOL    HW217271   2.878   0.784   5.849  0.9148 -1.0241  0.1476
 1937SOL     OW17272   1.965   0.696  16.784 -0.0091 -0.4475  0.0228
 1937SOL    HW117273   2.000   0.742  16.707  2.7737 -0.6980  1.1083
 1937SOL    HW217274   1.871   0.702  16.768 -0.0720 -0.1202  0.5330
 1938SOL     OW17275   3.029   3.361   4.234 -0.0970  0.4903  0.2072
 1938SOL    HW117276   3.064   3.312   4.159  2.6004  2.4637  0.1917
 1938SOL    HW217277   3.060   3.310   4.309 -2.3173  0.5358  1.1475
 1939SOL     OW17278   0.780   2.498   6.018  0.0482  0.2037  0.3029
 1939SOL    HW117279   0.811   2.566   6.078  3.5016 -1.6811  0.6273
 1939SOL    HW217280   0.851   2.434   6.024  0.0548  0.0111 -1.6472
 1940SOL     OW17281   0.332   1.034   8.429  0.0787 -0.1399  0.2350
 1940SOL    HW117282   0.266   1.064   8.491 -0.0885 -1.4669  0.6936
 1940SOL    HW217283   0.408   1.006   8.480  0.1103 -1.6253 -0.6114
 1941SOL     OW17284   0.461   1.716   0.039  0.0658  0.0712  0.2842
 1941SOL    HW117285   0.501   1.777   0.101 -0.1745  1.5227 -0.9824
 1941SOL    HW217286   0.530   1.722  17.648 -0.6923  1.5395 -0.3764
 1942SOL     OW17287   0.856   4.310   2.750  0.1152 -0.3695 -0.0078
 1942SOL    HW117288   0.877   4.322   2.657  1.0999 -0.6312  0.1853
 1942SOL    HW217289   0.816   4.223   2.760  0.8862 -0.7085  0.1090
 1943SOL     OW17290   0.549   3.551  16.869 -0.0642 -0.1547  0.0546
 1943SOL    HW117291   0.546   3.540  16.964  1.4666 -3.2194 -0.2228
 1943SOL    HW217292   0.614   3.621  16.872 -0.5414  0.2955 -0.2860
 1944SOL     OW17293   2.240   1.719  17.108  0.3379  0.2084 -0.1486
 1944SOL    HW117294   2.306   1.649  17.104 -1.4657 -1.4985  0.3859
 1944SOL    HW217295   2.273   1.770  17.182 -0.0138 -1.0846  0.8891
 1945SOL     OW17296   1.152   0.440  14.845  0.2081 -0.2382  0.1361
 1945SOL    HW117297   1.141   0.345  14.845 -0.0488 -0.2139 -0.6254
 1945SOL    HW217298   1.061   0.461  14.866  0.4803  1.8766 -0.7621
 1946SOL     OW17299   1.167   3.059   8.374  1.0537 -0.6588  0.5643
 1946SOL    HW117300   1.160   3.135   8.432 -0.7296 -0.6855  0.3562
 1946SOL    HW217301   1.139   2.991   8.434 -2.1171  1.2482  1.2218
 1947SOL     OW17302   1.564   0.326  15.418 -0.5140  0.4317 -0.0698
 1947SOL    HW117303   1.490   0.360  15.367 -0.5037 -0.4049 -0.6523
 1947SOL    HW217304   1.562   0.395  15.484  0.7259 -0.0676  0.4811
 1948SOL     OW17305   2.208   0.641   7.204 -0.0101  0.3098  0.3440
 1948SOL    HW117306   2.118   0.658   7.177  0.2542  2.0071  0.5095
 1948SOL    HW217307   2.258   0.701   7.148 -0.9744  1.0650  0.2986
 1949SOL     OW17308   3.537   3.986   8.095 -0.0557  0.3961 -0.0796
 1949SOL    HW117309   3.530   4.076   8.062  2.7031 -0.0451 -1.7645
 1949SOL    HW217310   3.632   3.985   8.101 -0.1225 -0.9129  0.7460
 1950SOL     OW17311   1.028   3.474   5.092  0.1636 -0.1954  0.1403
 1950SOL    HW117312   1.108   3.486   5.143  0.4918 -0.8417 -0.2171
 1950SOL    HW217313   0.994   3.394   5.132  1.9305 -1.6032 -1.1523
 1951SOL     OW17314   0.702   4.393   6.587  0.1696 -0.3951 -0.6796
 1951SOL    HW117315   0.762   4.338   6.638  0.2038 -1.1055 -1.4843
 1951SOL    HW217316   0.736   4.479   6.612 -0.3059 -0.5282  0.3926
 1952SOL     OW17317   3.021   0.284   3.348 -0.4448 -0.5761 -0.3224
 1952SOL    HW117318   3.015   0.371   3.387 -0.7358 -0.7021 -0.0884
 1952SOL    HW217319   3.103   0.289   3.299 -0.4559  1.2599 -0.1805
 1953SOL     OW17320   0.233   1.029  15.377  0.3192  0.1347  0.4864
 1953SOL    HW117321   0.320   0.989  15.380 -0.3370 -1.3982 -1.0292
 1953SOL    HW217322   0.237   1.065  15.465  1.7872  0.7347  0.1766
 1954SOL     OW17323   2.546   4.184   4.223 -0.1246  0.7435 -0.2732
 1954SOL    HW117324   2.556   4.171   4.128  1.3698  0.9164 -0.1362
 1954SOL    HW217325   2.511   4.099   4.249  1.9615 -0.3526 -0.9979
 1955SOL     OW17326   3.492   2.618  10.307  0.5994 -0.3510  0.3644
 1955SOL    HW117327   3.515   2.710  10.295 -2.9110  0.1554 -2.4001
 1955SOL    HW217328   3.408   2.619  10.261  0.4494 -1.3579  0.6179
 1956SOL     OW17329   3.503   3.453  12.863  0.3054 -0.4391 -0.3574
 1956SOL    HW117330   3.489   3.548  12.872 -2.4554 -0.8788 -0.1226
 1956SOL    HW217331   3.592   3.438  12.829  1.6852  0.4419  2.7965
 1957SOL     OW17332   2.547   3.737   1.409  0.3270  0.2931 -0.0945
 1957SOL    HW117333   2.600   3.778   1.340 -0.9636  1.2732 -0.4972
 1957SOL    HW217334   2.603   3.664   1.436  1.2486  0.8355 -0.5023
 1958SOL     OW17335   1.840   2.542   5.963  0.0385 -0.1860 -0.3117
 1958SOL    HW117336   1.903   2.610   5.988 -1.7279  1.4265 -0.2355
 1958SOL    HW217337   1.752   2.581   5.955  1.2581  2.7996  0.7023
 1959SOL     OW17338   3.698   0.345   1.671 -0.0770 -0.1176 -0.3779
 1959SOL    HW117339   3.773   0.367   1.726 -0.1280 -0.0594 -0.3321
 1959SOL    HW217340   3.657   0.286   1.734 -1.1342  0.2232 -0.7484
 1960SOL     OW17341   0.061   3.515   4.523  0.2079 -0.4535 -0.4722
 1960SOL    HW117342   0.018   3.433   4.500  2.2717 -1.7844  0.3950
 1960SOL    HW217343   0.107   3.538   4.442 -0.0260  0.7325 -0.2746
 1961SOL     OW17344   0.954   0.214  10.890  0.1892 -0.2004 -0.4385
 1961SOL    HW117345   1.017   0.142  10.881 -1.5995 -1.8973  0.6853
 1961SOL    HW217346   0.936   0.228  10.797  0.2130 -1.8587 -0.6930
 1962SOL     OW17347   4.688   0.564   2.500  0.1349  0.0660 -0.2200
 1962SOL    HW117348   0.059   0.574   2.465 -0.3640 -1.6494 -2.0412
 1962SOL    HW217349   4.654   0.494   2.444 -0.7029 -0.7942  1.3681
 1963SOL     OW17350   1.543   2.673   6.308  0.1781  0.3675  0.2308
 1963SOL    HW117351   1.600   2.609   6.350  0.0465 -0.0439 -0.2044
 1963SOL    HW217352   1.548   2.741   6.374 -0.9446  0.0090  0.6901
 1964SOL     OW17353   0.121   3.082   2.403  0.1329  0.3140 -0.2467
 1964SOL    HW117354   0.036   3.109   2.369 -0.3524  1.3425  1.8107
 1964SOL    HW217355   0.160   3.170   2.408  2.7231 -1.0218  3.5113
 1965SOL     OW17356   2.967   3.030   4.238 -0.1668  0.3844  0.5878
 1965SOL    HW117357   3.027   3.093   4.277 -0.5963 -0.0505  1.9445
 1965SOL    HW217358   2.954   2.963   4.305 -1.7117 -1.9387 -2.0261
 1966SOL     OW17359   0.157   0.055   1.431  0.2315 -0.0576  0.1089
 1966SOL    HW117360   0.068   0.065   1.463 -0.2973 -2.3868 -0.6195
 1966SOL    HW217361   0.172   4.680   1.451  0.3952  0.0725  0.5815
 1967SOL     OW17362   2.972   3.706   1.514  0.4500  0.1552 -0.5014
 1967SOL    HW117363   3.038   3.740   1.453  1.2958 -0.6880 -0.0734
 1967SOL    HW217364   3.036   3.658   1.567  0.6755  0.7029 -0.2696
 1968SOL     OW17365   4.049   1.593   5.043  0.3892 -0.6145  0.3670
 1968SOL    HW117366   4.088   1.664   5.093  2.4448 -2.0747  0.8189
 1968SOL    HW217367   4.079   1.617   4.955 -0.6170  0.7605  0.3982
 1969SOL     OW17368   0.448   0.907  10.364 -0.1158  0.4861 -0.1745
 1969SOL    HW117369   0.445   1.001  10.348  3.7656  0.7335  0.6452
 1969SOL    HW217370   0.468   0.873  10.277 -2.0339 -1.4044  0.1093
 1970SOL     OW17371   2.276   3.668   8.094  0.3980 -0.1861  0.0088
 1970SOL    HW117372   2.363   3.645   8.062  0.2662 -0.6855  0.0224
 1970SOL    HW217373   2.292   3.699   8.183 -0.6906  3.4058 -1.0099
 1971SOL     OW17374   2.256   4.191  12.320  0.0392 -0.5103 -0.1335
 1971SOL    HW117375   2.173   4.203  12.273  0.1955  2.3063  0.3147
 1971SOL    HW217376   2.279   4.113  12.270  0.8205 -0.7015  0.5208
 1972SOL     OW17377   4.319   4.545   8.252  0.0981  0.0086  0.4771
 1972SOL    HW117378   4.235   4.527   8.295 -0.1211  1.2030  0.5616
 1972SOL    HW217379   4.390   4.525   8.314  1.3256  0.3510 -0.8321
 1973SOL     OW17380   4.685   1.133   5.118 -0.2635 -0.3075 -0.0435
 1973SOL    HW117381   0.004   1.063   5.171  2.8032  1.7279  0.5353
 1973SOL    HW217382   0.030   1.203   5.139  0.3706 -0.5332 -1.1729
 1974SOL     OW17383   1.262   1.564   2.577  0.3266 -0.2402 -0.3093
 1974SOL    HW117384   1.190   1.505   2.556 -2.0809  2.4117  0.5110
 1974SOL    HW217385   1.336   1.508   2.603  0.1574  0.1710  1.0556
 1975SOL     OW17386   3.226   2.455  13.481  0.1445  0.2583  0.1910
 1975SOL    HW117387   3.205   2.484  13.570  1.1208  1.5856 -0.0172
 1975SOL    HW217388   3.179   2.526  13.438 -0.5737 -0.1980  0.2170
 1976SOL     OW17389   1.045   2.118  11.339 -0.3167 -0.2121  0.1926
 1976SOL    HW117390   0.998   2.041  11.370  1.3539 -0.6253  1.6918
 1976SOL    HW217391   1.090   2.154  11.415 -2.4060  1.4277  0.6600
 1977SOL     OW17392   2.493   0.969   6.881  0.0623 -0.0065  0.0539
 1977SOL    HW117393   2.485   0.905   6.952 -1.6180  0.5565  0.3861
 1977SOL    HW217394   2.531   1.039   6.934  0.8966  0.2817 -0.9346
 1978SOL     OW17395   1.124   3.582  12.105  0.1697  0.2427  0.0910
 1978SOL    HW117396   1.030   3.600  12.113 -0.2506 -1.0306 -1.8996
 1978SOL    HW217397   1.156   3.620  12.023 -0.5382 -2.1136 -1.2756
 1979SOL     OW17398   2.945   4.586   8.393 -0.4830 -0.1685 -0.2399
 1979SOL    HW117399   2.851   4.573   8.383 -0.6761  0.9334  0.1073
 1979SOL    HW217400   2.948   4.682   8.392 -0.4061 -0.1686  0.0283
 1980SOL     OW17401   3.699   1.711   0.183  0.3702  0.3140 -0.1019
 1980SOL    HW117402   3.784   1.671   0.200  0.3327  0.5201  0.5754
 1980SOL    HW217403   3.641   1.651   0.136 -1.2875  1.4293  0.5197
 1981SOL     OW17404   2.180   0.430  15.223 -0.1772 -0.2129  0.4513
 1981SOL    HW117405   2.199   0.469  15.138  1.7559 -1.1500  0.4710
 1981SOL    HW217406   2.104   0.376  15.199 -0.8579  1.6650 -1.5654
 1982SOL     OW17407   2.308   4.700  17.383 -0.4551 -0.0048 -0.7734
 1982SOL    HW117408   2.342   4.710  17.294  1.5791 -2.0749 -0.2490
 1982SOL    HW217409   2.351   4.617  17.404  2.1708  1.4781 -0.2560
 1983SOL     OW17410   0.973   4.338   1.459 -0.2284 -0.1968  0.5273
 1983SOL    HW117411   1.013   4.252   1.441 -0.4655  0.2645 -2.2128
 1983SOL    HW217412   1.030   4.390   1.401 -0.1384 -0.3735  0.4560
 1984SOL     OW17413   1.266   1.728   6.528  0.7160  0.0834  0.3407
 1984SOL    HW117414   1.288   1.810   6.572 -0.3004 -0.7849  2.4642
 1984SOL    HW217415   1.345   1.673   6.531  0.8709  0.3511  1.1064
 1985SOL     OW17416   0.846   3.812  13.684 -0.7975  0.1805  0.1443
 1985SOL    HW117417   0.780   3.870  13.646  0.4779  0.2460 -1.9720
 1985SOL    HW217418   0.928   3.862  13.686 -0.1326 -0.8550 -1.0333
 1986SOL     OW17419   0.250   4.277  16.436 -0.4076  0.3603  0.2165
 1986SOL    HW117420   0.198   4.325  16.372  3.4925  2.8203 -1.1281
 1986SOL    HW217421   0.314   4.230  16.382 -0.3056 -0.1196  0.7541
 1987SOL     OW17422   2.894   1.145   8.351  0.2159 -0.0331  0.1527
 1987SOL    HW117423   2.974   1.134   8.403 -1.1288 -0.5974  2.1179
 1987SOL    HW217424   2.924   1.097   8.274  0.4011 -1.6993  1.2739
 1988SOL     OW17425   1.868   2.209  11.996  0.1391 -0.8908  0.4342
 1988SOL    HW117426   1.791   2.237  12.045 -0.9787  0.5399 -2.1378
 1988SOL    HW217427   1.863   2.122  12.036  1.1176 -0.3108  1.7878
 1989SOL     OW17428   4.017   1.696   7.839  0.2746 -0.5992 -0.0088
 1989SOL    HW117429   3.952   1.627   7.856  0.3763 -0.2597  1.8034
 1989SOL    HW217430   3.971   1.771   7.876  1.2221  0.1563 -0.3875
 1990SOL     OW17431   0.750   2.624  10.356 -0.0037  0.0702 -0.2729
 1990SOL    HW117432   0.663   2.587  10.369  0.3739 -0.4431  0.8466
 1990SOL    HW217433   0.781   2.636  10.446  0.7158 -2.7931 -0.1380
 1991SOL     OW17434   3.690   3.222   7.740  0.8596 -0.3706 -0.0310
 1991SOL    HW117435   3.760   3.202   7.679 -0.0479  3.2865 -2.2785
 1991SOL    HW217436   3.677   3.313   7.712 -1.2999 -0.8640 -0.6754
 1992SOL     OW17437   4.254   3.822   7.610  0.3374  0.0300  0.1335
 1992SOL    HW117438   4.278   3.905   7.651 -0.4329  0.0021  0.6528
 1992SOL    HW217439   4.260   3.750   7.672 -1.5560  0.2741  0.6259
 1993SOL     OW17440   3.974   4.045  15.040 -0.4167  0.0419 -0.4866
 1993SOL    HW117441   3.883   4.070  15.057  0.7229  4.2610 -0.4097
 1993SOL    HW217442   3.993   4.031  14.947  1.9326 -1.7759  0.2691
 1994SOL     OW17443   3.188   3.941  10.359  0.0145  0.0075 -0.1636
 1994SOL    HW117444   3.214   3.873  10.421 -1.4565  1.2776  1.8644
 1994SOL    HW217445   3.257   3.939  10.293 -1.3810  3.0299 -1.6995
 1995SOL     OW17446   2.157   2.517   8.094 -0.3868 -0.5267 -0.1437
 1995SOL    HW117447   2.168   2.604   8.131 -2.1922 -0.3442 -0.0274
 1995SOL    HW217448   2.121   2.542   8.009  1.0184 -0.8580 -0.8403
 1996SOL     OW17449   0.910   2.899   7.492 -0.2916  0.5809 -0.1433
 1996SOL    HW117450   0.957   2.885   7.574 -0.0305  2.5628  0.0474
 1996SOL    HW217451   0.819   2.882   7.516  0.3442  0.6997  2.3282
 1997SOL     OW17452   3.689   1.689  11.728  0.4129 -0.1549 -0.1781
 1997SOL    HW117453   3.726   1.601  11.736 -2.8648 -1.3348  1.9064
 1997SOL    HW217454   3.627   1.682  11.656 -0.8072  1.6087  0.7003
 1998SOL     OW17455   1.508   2.302   5.632 -0.7470 -0.4670  0.2763
 1998SOL    HW117456   1.601   2.286   5.615 -0.8059 -0.4093 -0.1155
 1998SOL    HW217457   1.484   2.351   5.554 -0.1795 -0.0857  0.3453
 1999SOL     OW17458   0.860   3.166   6.780 -0.0250 -0.2470  0.3363
 1999SOL    HW117459   0.820   3.088   6.742 -0.4287  0.5096 -0.7703
 1999SOL    HW217460   0.844   3.234   6.716 -2.6716 -0.9816  0.2300
 2000SOL     OW17461   3.466   1.647   3.135  0.6577 -0.3698  0.6983
 2000SOL    HW117462   3.404   1.578   3.156  2.3790 -1.8641  0.8433
 2000SOL    HW217463   3.532   1.592   3.092  0.9410  0.3954  0.1398
 2001SOL     OW17464   0.872   3.268   7.058 -0.2908  0.0360  0.2743
 2001SOL    HW117465   0.835   3.200   7.115 -0.6450 -0.0325 -0.0331
 2001SOL    HW217466   0.862   3.237   6.968 -3.1251  0.3302  0.4932
 2002SOL     OW17467   4.716   1.830   2.526  0.2718 -0.0437 -0.3666
 2002SOL    HW117468   0.062   1.874   2.469  0.7818  1.2074  1.1757
 2002SOL    HW217469   0.052   1.765   2.570 -0.7187  0.3563  1.4151
 2003SOL     OW17470   0.707   3.384  16.042  0.0353  0.0203 -0.3282
 2003SOL    HW117471   0.669   3.299  16.023 -1.6280  0.3111  1.7140
 2003SOL    HW217472   0.659   3.448  15.989 -1.2331  1.3970  2.4839
 2004SOL     OW17473   0.218   2.893   2.840 -0.6120 -0.0748 -0.0864
 2004SOL    HW117474   0.154   2.822   2.841 -0.1660 -0.4767 -0.1352
 2004SOL    HW217475   0.194   2.940   2.920 -0.1050  0.7486 -0.4169
 2005SOL     OW17476   3.135   1.530   9.199  0.5741 -0.2723 -0.1774
 2005SOL    HW117477   3.137   1.622   9.172  0.9915  0.3691  2.0620
 2005SOL    HW217478   3.138   1.488   9.113  2.6900  2.0103 -1.2228
 2006SOL     OW17479   2.335   0.371   5.149 -0.2559  0.1467 -0.1745
 2006SOL    HW117480   2.414   0.336   5.107  0.2375  1.3360 -0.2167
 2006SOL    HW217481   2.363   0.393   5.238 -1.1820 -1.3527  0.5020
 2007SOL     OW17482   0.124   0.659   4.468 -0.4530  0.2335  0.3807
 2007SOL    HW117483   0.059   0.716   4.426  0.6392  1.4566  0.3131
 2007SOL    HW217484   0.124   0.583   4.411 -1.9549 -1.0284  2.0660
 2008SOL     OW17485   0.997   4.057  12.564  0.1243 -0.1326  0.0061
 2008SOL    HW117486   0.960   4.144  12.547 -0.3857 -0.2158  0.6409
 2008SOL    HW217487   1.075   4.057  12.509 -0.2257 -0.9955 -0.4973
 2009SOL     OW17488   3.266   0.060   6.810  0.1236 -0.3618  0.5506
 2009SOL    HW117489   3.337   0.069   6.746 -0.2110 -1.8016 -0.0281
 2009SOL    HW217490   3.254   0.153   6.829  0.7362  0.1436 -1.5537
 2010SOL     OW17491   1.474   4.343   1.921  0.3087 -0.2288 -0.2035
 2010SOL    HW117492   1.510   4.359   1.834  4.0196 -1.7404  1.0705
 2010SOL    HW217493   1.529   4.388   1.986  0.5267 -2.4180  1.1129
 2011SOL     OW17494   1.395   4.316   2.267 -0.1031  0.7006 -0.4493
 2011SOL    HW117495   1.384   4.400   2.222  0.8174  0.1167 -1.7797
 2011SOL    HW217496   1.303   4.289   2.267 -0.0064  0.3591 -1.6248
 2012SOL     OW17497   4.161   3.354   3.064  0.1234 -0.1449  0.2535
 2012SOL    HW117498   4.236   3.303   3.095 -1.2587 -1.7181  0.9773
 2012SOL    HW217499   4.165   3.343   2.969  1.0702 -1.6307  0.4740
 2013SOL     OW17500   3.887   1.991   4.855 -0.3160 -0.1642  0.1585
 2013SOL    HW117501   3.872   2.076   4.812  0.1850  1.2304  2.7450
 2013SOL    HW217502   3.954   1.955   4.798  1.1173  2.1824  0.3464
 2014SOL     OW17503   2.465   0.683  16.822 -0.7810 -0.1033  0.5115
 2014SOL    HW117504   2.461   0.743  16.747  0.4992  0.7581  1.1250
 2014SOL    HW217505   2.557   0.672  16.844 -1.5581 -1.5291  3.0167
 2015SOL     OW17506   2.388   3.155   5.695 -0.4142  0.0506  0.4508
 2015SOL    HW117507   2.454   3.101   5.738  1.4347  0.6246 -1.6850
 2015SOL    HW217508   2.421   3.150   5.605  0.7633 -0.1457  0.9025
 2016SOL     OW17509   1.596   3.785   6.641  0.7792 -0.3935  0.3150
 2016SOL    HW117510   1.665   3.842   6.674 -0.0871  0.6035  0.4116
 2016SOL    HW217511   1.610   3.794   6.547 -3.1726 -0.0409 -0.2425
 2017SOL     OW17512   2.516   3.277   5.914 -0.3800 -0.3933  0.3534
 2017SOL    HW117513   2.445   3.285   5.850  0.2793  2.4894 -0.0103
 2017SOL    HW217514   2.475   3.238   5.991  2.2342  0.1742  2.0172
 2018SOL     OW17515   1.481   4.687  16.981 -0.0843 -0.6677 -0.4112
 2018SOL    HW117516   1.576   4.698  16.972 -0.2192  0.4221 -0.4325
 2018SOL    HW217517   1.476   4.591  16.990 -2.8325 -0.2286  2.5129
 2019SOL     OW17518   1.896   3.450   3.665  0.5068 -0.3464  0.0008
 2019SOL    HW117519   1.976   3.398   3.658 -0.0094 -1.2474  0.8266
 2019SOL    HW217520   1.918   3.523   3.722  2.4942 -0.7503 -0.2421
 2020SOL     OW17521   1.923   0.306   2.365  0.6172  0.6202  0.6399
 2020SOL    HW117522   1.944   0.241   2.432  1.5147  0.4308  0.1661
 2020SOL    HW217523   2.012   0.338   2.351  0.4198  1.1290  0.5381
 2021SOL     OW17524   0.546   0.222   9.303 -0.4690 -0.3119  0.0375
 2021SOL    HW117525   0.458   0.254   9.320 -0.5220  0.1784 -1.1557
 2021SOL    HW217526   0.596   0.279   9.362 -1.2443 -0.6881  1.0477
 2022SOL     OW17527   0.733   0.232   0.974  0.2361  0.2177  0.1844
 2022SOL    HW117528   0.651   0.192   0.944 -0.4009  0.9027  0.9997
 2022SOL    HW217529   0.755   0.292   0.903  0.3752 -1.6533 -1.3715
 2023SOL     OW17530   0.223   1.802   0.837  0.0048 -0.6904  0.2395
 2023SOL    HW117531   0.278   1.879   0.844  0.8256 -1.2161 -0.4219
 2023SOL    HW217532   0.147   1.812   0.895 -0.7743  0.0675 -0.9061
 2024SOL     OW17533   3.327   0.267  14.081 -0.3577 -0.0507  0.3016
 2024SOL    HW117534   3.234   0.280  14.063 -0.2796  0.8732  0.5700
 2024SOL    HW217535   3.369   0.352  14.065  2.5341 -1.8241 -1.4707
 2025SOL     OW17536   3.036   3.341   0.377 -0.2882 -0.3846 -0.0027
 2025SOL    HW117537   3.038   3.374   0.287  0.1613  2.3888  1.0459
 2025SOL    HW217538   2.942   3.332   0.387 -0.5579  2.5532  0.0929
 2026SOL     OW17539   2.379   1.069   4.582  0.8763  0.3294 -0.5608
 2026SOL    HW117540   2.301   1.123   4.596  0.5455  0.0567 -1.3820
 2026SOL    HW217541   2.350   0.978   4.596  0.7771  0.1427 -2.0269
 2027SOL     OW17542   3.802   4.698   6.903 -0.0852 -0.0788  0.4056
 2027SOL    HW117543   3.877   4.656   6.861 -0.7252  0.7362 -1.5709
 2027SOL    HW217544   3.846   0.036   6.968 -0.8412 -1.3807  2.0109
 2028SOL     OW17545   1.819   4.422   4.627  0.3951  0.3623  0.2090
 2028SOL    HW117546   1.736   4.449   4.665  0.0545 -1.1568  0.5493
 2028SOL    HW217547   1.842   4.501   4.578  0.8382 -0.8405 -1.5421
 2029SOL     OW17548   0.434   1.623   0.850 -0.1374  0.1844  0.2875
 2029SOL    HW117549   0.370   1.694   0.862 -1.1161 -0.5456 -0.6247
 2029SOL    HW217550   0.435   1.610   0.755 -1.2933  0.4022  0.2393
 2030SOL     OW17551   0.614   0.305   0.104  0.3392 -0.0006 -0.5713
 2030SOL    HW117552   0.523   0.320   0.080  0.8526  2.6846 -0.8241
 2030SOL    HW217553   0.660   0.384   0.075 -0.3716  0.2568 -0.9939
 2031SOL     OW17554   0.226   0.965   0.860 -0.3981  0.3340  0.1171
 2031SOL    HW117555   0.150   0.945   0.915 -0.0187 -0.2044  0.4483
 2031SOL    HW217556   0.291   0.998   0.922  0.3990 -1.6886  0.3779
 2032SOL     OW17557   1.558   0.245   5.801  0.1967 -0.5082 -0.4079
 2032SOL    HW117558   1.554   0.341   5.802  1.6109 -0.4407 -0.1053
 2032SOL    HW217559   1.466   0.233   5.822  1.0827 -1.5164  2.8891
 2033SOL     OW17560   4.640   2.509  13.683 -0.7177 -0.0417  0.1526
 2033SOL    HW117561   0.002   2.458  13.670 -1.1547 -0.3234 -1.3658
 2033SOL    HW217562   4.596   2.500  13.599 -0.4502 -0.1535  0.0250
 2034SOL     OW17563   4.215   1.213   1.199  0.0441  0.1849 -0.5729
 2034SOL    HW117564   4.226   1.308   1.200 -1.1282  0.3247 -1.4227
 2034SOL    HW217565   4.123   1.201   1.224  0.5633 -2.1715  0.1374
 2035SOL     OW17566   2.490   2.829  15.401 -0.4389 -0.2505 -0.4067
 2035SOL    HW117567   2.480   2.744  15.360  1.2634 -0.6542  0.0246
 2035SOL    HW217568   2.403   2.864  15.383 -1.2989 -1.9673  0.4904
 2036SOL     OW17569   3.587   3.678   1.113 -0.1195 -0.5501  0.2108
 2036SOL    HW117570   3.592   3.642   1.025  1.6315 -0.4861  0.2823
 2036SOL    HW217571   3.679   3.698   1.133 -0.0772 -1.0424  0.5227
 2037SOL     OW17572   3.815   1.448  11.853  0.3275 -0.9847  0.2180
 2037SOL    HW117573   3.897   1.442  11.902  0.6136  0.3460 -0.0780
 2037SOL    HW217574   3.765   1.369  11.871  0.1829 -1.1605 -0.9689
 2038SOL     OW17575   4.123   2.581   7.096 -0.4182 -0.6398 -0.3770
 2038SOL    HW117576   4.120   2.517   7.168 -1.6261 -1.1907 -0.9105
 2038SOL    HW217577   4.117   2.665   7.141  1.2396  0.1109 -1.5969
 2039SOL     OW17578   0.839   2.702   2.102  0.0648 -0.5670 -0.3045
 2039SOL    HW117579   0.776   2.671   2.036  1.2235 -1.6871 -0.8820
 2039SOL    HW217580   0.865   2.623   2.150  1.4154 -1.1480 -2.0087
 2040SOL     OW17581   0.451   4.538  12.352  0.0385 -0.0409 -0.3000
 2040SOL    HW117582   0.482   4.537  12.442 -1.1364 -1.5208  0.0917
 2040SOL    HW217583   0.473   4.627  12.324 -3.1559  0.7974 -0.2201
 2041SOL     OW17584   0.684   2.562   5.223  0.1217  0.7096 -0.0290
 2041SOL    HW117585   0.677   2.481   5.173 -0.3974  0.6344  0.1654
 2041SOL    HW217586   0.721   2.612   5.150 -1.1452 -1.0463 -1.8540
 2042SOL     OW17587   1.640   4.467  14.896 -0.1376  0.0057  0.3433
 2042SOL    HW117588   1.618   4.493  14.807  0.2212 -1.0728 -0.0632
 2042SOL    HW217589   1.718   4.413  14.888  0.1016 -0.0031  2.5515
 2043SOL     OW17590   1.806   0.228   5.946 -0.0311  0.7645 -0.2924
 2043SOL    HW117591   1.720   0.204   5.911  0.5609 -2.0499  0.2146
 2043SOL    HW217592   1.815   0.315   5.907 -0.9277  0.4218 -1.2947
 2044SOL     OW17593   3.086   2.616   4.411  0.2276 -0.3030 -0.0949
 2044SOL    HW117594   3.100   2.528   4.444 -0.9761 -0.5244 -0.1671
 2044SOL    HW217595   3.177   2.642   4.399  0.2405  0.0986  0.8970
 2045SOL     OW17596   1.295   3.802  14.496  0.0655 -0.1303 -0.2356
 2045SOL    HW117597   1.305   3.836  14.584 -1.9595  0.5456 -0.2462
 2045SOL    HW217598   1.202   3.776  14.499 -1.1508  4.3854  1.9517
 2046SOL     OW17599   3.317   2.665   2.908 -0.1707 -0.6932 -0.2415
 2046SOL    HW117600   3.364   2.734   2.954 -0.5013 -1.2163  0.8636
 2046SOL    HW217601   3.389   2.604   2.886 -1.6307 -2.1381 -1.0554
 2047SOL     OW17602   0.770   3.971  11.288 -0.0912  0.3398 -0.0046
 2047SOL    HW117603   0.745   3.986  11.197  0.8752  1.7186 -0.0310
 2047SOL    HW217604   0.865   3.982  11.280 -0.0778 -0.3318 -0.8585
 2048SOL     OW17605   1.069   3.201   5.343 -0.3896 -0.0732 -0.5345
 2048SOL    HW117606   1.043   3.122   5.392  0.7814  0.7172  1.3476
 2048SOL    HW217607   1.164   3.195   5.341 -0.3452  1.0900 -1.5200
 2049SOL     OW17608   3.464   4.073   3.622 -0.1758  0.4126 -0.3541
 2049SOL    HW117609   3.525   4.082   3.548  0.2249  0.3650 -0.0343
 2049SOL    HW217610   3.474   4.160   3.661 -0.7530  0.2649  0.1249
 2050SOL     OW17611   2.160   3.023  16.982 -0.5335 -0.2121 -0.6705
 2050SOL    HW117612   2.144   3.117  16.991  1.1837  0.1329 -1.3701
 2050SOL    HW217613   2.249   3.025  17.018  0.4655 -0.3761 -3.1484
 2051SOL     OW17614   4.662   4.695  14.065  0.3298 -0.2710  0.8071
 2051SOL    HW117615   4.571   0.007  14.071  0.8635  1.7042 -0.8289
 2051SOL    HW217616   0.001   0.038  14.112 -0.1653 -0.1002  1.1912
 2052SOL     OW17617   0.948   3.443  12.939 -0.3013  0.1314 -0.0449
 2052SOL    HW117618   1.027   3.394  12.917  0.0471  2.0835 -3.0806
 2052SOL    HW217619   0.908   3.454  12.853 -0.4446  1.3778  0.1761
 2053SOL     OW17620   3.676   0.464   4.173 -0.3734  0.1523  0.0861
 2053SOL    HW117621   3.662   0.406   4.248  3.5339  1.6008  1.9169
 2053SOL    HW217622   3.669   0.403   4.099 -0.8908  0.4749 -0.1285
 2054SOL     OW17623   3.032   0.050   2.848  0.4050 -0.2213  0.1713
 2054SOL    HW117624   2.940   0.070   2.866 -0.0447  0.3687 -2.6775
 2054SOL    HW217625   3.048   0.065   2.755 -3.1582  0.6625 -0.3273
 2055SOL     OW17626   3.469   0.535   4.883 -0.3579  0.0869 -0.1591
 2055SOL    HW117627   3.386   0.555   4.839  1.4348  0.6736 -3.2723
 2055SOL    HW217628   3.464   0.598   4.956 -0.8804 -0.9483  0.6962
 2056SOL     OW17629   3.131   3.561  16.782 -0.0367 -0.4533  0.4751
 2056SOL    HW117630   3.106   3.512  16.860 -0.8990 -1.7149 -0.5682
 2056SOL    HW217631   3.226   3.553  16.785 -0.1719 -2.4808 -0.1268
 2057SOL     OW17632   2.458   0.890   6.353  0.0984 -0.3713 -0.0385
 2057SOL    HW117633   2.546   0.928   6.363  0.1518 -0.4476 -0.2177
 2057SOL    HW217634   2.484   0.799   6.365  1.3274  0.0130  0.2221
 2058SOL     OW17635   0.945   1.415  16.482 -0.1094 -0.0920  0.7301
 2058SOL    HW117636   0.864   1.466  16.484 -0.4965 -0.6658 -0.6526
 2058SOL    HW217637   0.959   1.404  16.576  0.0824  0.5766  0.7826
 2059SOL     OW17638   2.315   4.014   4.324  0.2389  0.7171  0.0669
 2059SOL    HW117639   2.224   3.985   4.318  1.7963 -4.2038  0.6565
 2059SOL    HW217640   2.309   4.102   4.362 -1.6665  0.7042 -0.2180
 2060SOL     OW17641   2.644   3.774   6.067 -0.0165  0.4032 -0.4205
 2060SOL    HW117642   2.616   3.685   6.044 -0.4603  0.7576 -1.2577
 2060SOL    HW217643   2.562   3.805   6.106 -0.6379  0.2383 -1.5993
 2061SOL     OW17644   4.172   2.163  13.884  0.1863 -0.2186  0.1589
 2061SOL    HW117645   4.121   2.136  13.808  1.9102  1.0269 -1.4558
 2061SOL    HW217646   4.134   2.251  13.892  4.7320  1.8303 -0.5162
 2062SOL     OW17647   1.232   4.694   1.008 -0.2394  0.1686 -0.0770
 2062SOL    HW117648   1.232   0.027   1.089 -0.1448 -0.5763  0.3859
 2062SOL    HW217649   1.148   0.003   0.971  0.2409  1.4708 -0.2535
 2063SOL     OW17650   2.142   4.144  14.838  0.2992 -0.4125 -0.1222
 2063SOL    HW117651   2.138   4.077  14.770  1.1897  0.0402 -0.6200
 2063SOL    HW217652   2.092   4.090  14.899 -0.2440  1.0795  0.7785
 2064SOL     OW17653   3.618   1.268   1.417 -0.0642 -0.1258  0.0949
 2064SOL    HW117654   3.568   1.274   1.499 -0.2786 -0.7353  0.0088
 2064SOL    HW217655   3.571   1.195   1.378  1.7809 -0.7242 -1.0325
 2065SOL     OW17656   0.247   2.401   0.102 -0.2943 -0.4813  0.0607
 2065SOL    HW117657   0.243   2.475   0.162  2.4177 -0.0111 -0.3175
 2065SOL    HW217658   0.245   2.450   0.020 -0.4290 -1.2993 -0.4251
 2066SOL     OW17659   3.132   3.289   5.825  0.0276  0.1536  0.6206
 2066SOL    HW117660   3.214   3.314   5.866  0.3918  1.4479 -0.8978
 2066SOL    HW217661   3.070   3.325   5.889 -1.4415 -0.4003 -0.4688
 2067SOL     OW17662   1.064   2.484   2.985 -0.1541  0.6783 -0.1805
 2067SOL    HW117663   0.984   2.536   2.973 -0.0052  0.9061 -0.1788
 2067SOL    HW217664   1.093   2.511   3.072 -2.0271  1.9575  0.0610
 2068SOL     OW17665   1.565   3.827   0.766  0.4231 -0.2337 -0.6044
 2068SOL    HW117666   1.523   3.873   0.693 -0.7879  0.1537  0.3255
 2068SOL    HW217667   1.515   3.869   0.836 -1.1661 -1.9902 -0.6762
 2069SOL     OW17668   4.536   1.629   8.255 -0.3435 -0.2490 -0.6671
 2069SOL    HW117669   4.582   1.663   8.332 -1.5233 -0.0519 -0.0533
 2069SOL    HW217670   4.524   1.539   8.287 -0.8356 -0.9881 -2.9250
 2070SOL     OW17671   2.255   3.499   2.636 -0.2608 -0.6833 -0.3928
 2070SOL    HW117672   2.315   3.431   2.607  0.6890  0.0813 -0.2128
 2070SOL    HW217673   2.260   3.564   2.566 -0.3432 -0.8470 -0.5519
 2071SOL     OW17674   4.274   4.528  13.488 -0.2776  0.2744 -0.7154
 2071SOL    HW117675   4.192   4.498  13.528  0.3355 -1.8819 -1.0944
 2071SOL    HW217676   4.237   4.591  13.425 -1.3758  0.7774  0.4270
 2072SOL     OW17677   3.020   1.377   2.552  0.3975  0.4465  0.0225
 2072SOL    HW117678   3.100   1.409   2.511  1.1492  1.9493  2.6793
 2072SOL    HW217679   2.989   1.319   2.482  2.6652  0.6428 -1.1367
 2073SOL     OW17680   4.243   4.513   3.707 -0.5252  0.3535 -0.2899
 2073SOL    HW117681   4.162   4.564   3.711  0.3839  1.9682 -2.0648
 2073SOL    HW217682   4.225   4.437   3.762 -1.6853 -0.3953 -1.7049
 2074SOL     OW17683   2.692   4.239   5.721 -0.1959 -0.0228 -0.0224
 2074SOL    HW117684   2.699   4.147   5.694 -2.0333  0.8905 -3.6395
 2074SOL    HW217685   2.778   4.280   5.714 -0.6816  0.7932 -1.2064
 2075SOL     OW17686   1.956   0.166   2.603  0.0251 -0.3989  0.2145
 2075SOL    HW117687   2.005   0.086   2.585  0.7857 -0.1735  1.3157
 2075SOL    HW217688   1.931   0.141   2.692  1.9815 -1.9226  0.3309
 2076SOL     OW17689   0.868   2.460   8.163 -0.3588 -0.8797 -0.0271
 2076SOL    HW117690   0.806   2.399   8.123 -0.0577  0.8331 -3.1153
 2076SOL    HW217691   0.941   2.469   8.101 -0.3601 -1.5073 -0.1216
 2077SOL     OW17692   1.217   0.034  14.526  0.4282  0.0091 -0.2805
 2077SOL    HW117693   1.298   0.078  14.500  0.9114 -1.8467 -1.8744
 2077SOL    HW217694   1.155   0.106  14.536 -0.2071 -0.5922  0.1853
 2078SOL     OW17695   3.413   2.315   3.868  0.2198 -0.1009 -0.1264
 2078SOL    HW117696   3.360   2.332   3.790 -0.6519  0.1371  0.5274
 2078SOL    HW217697   3.503   2.313   3.834  0.1515  0.2065 -0.3215
 2079SOL     OW17698   2.901   2.536   2.810  0.6355  0.4319  0.5634
 2079SOL    HW117699   2.986   2.517   2.851  0.2003 -0.7279  0.9242
 2079SOL    HW217700   2.934   2.579   2.731 -0.4369  1.2154  0.5524
 2080SOL     OW17701   4.586   3.391   5.352 -0.1922  0.2939  0.0597
 2080SOL    HW117702   4.582   3.470   5.298 -0.6237 -0.2018 -0.6309
 2080SOL    HW217703   4.573   3.437   5.434  1.1928  0.6010  0.1002
 2081SOL     OW17704   0.448   1.359  15.084  0.0342  0.0538 -0.1345
 2081SOL    HW117705   0.518   1.296  15.066 -1.6845 -1.1295 -2.7985
 2081SOL    HW217706   0.368   1.306  15.089 -0.4807  0.7398 -1.0742
 2082SOL     OW17707   3.612   3.984   8.865 -0.1472 -0.1193 -0.3035
 2082SOL    HW117708   3.663   3.903   8.863 -1.6087 -1.1160  2.7553
 2082SOL    HW217709   3.559   3.966   8.943 -0.4176  3.2938  0.3041
 2083SOL     OW17710   4.314   1.279  10.792 -0.5077 -0.4657  0.5445
 2083SOL    HW117711   4.319   1.368  10.827 -3.0889  0.1990 -0.8424
 2083SOL    HW217712   4.357   1.228  10.862  0.0735  0.3027  0.7457
 2084SOL     OW17713   4.331   1.915   8.648 -0.6217 -0.1840  0.0226
 2084SOL    HW117714   4.378   1.840   8.685  1.7613  1.5572  0.5519
 2084SOL    HW217715   4.386   1.990   8.671  0.1821 -0.7891  0.0838
 2085SOL     OW17716   1.074   0.559  11.930  0.2976  0.0606 -0.0935
 2085SOL    HW117717   1.066   0.590  11.840 -1.6576  0.5082  0.2268
 2085SOL    HW217718   1.062   0.465  11.917  0.0291  0.2676 -1.3918
 2086SOL     OW17719   2.558   2.293   4.577 -0.2032  0.2003 -0.4841
 2086SOL    HW117720   2.564   2.385   4.600 -1.6527  0.0982  0.3063
 2086SOL    HW217721   2.625   2.253   4.633 -1.5539  1.1021  1.7727
 2087SOL     OW17722   3.426   0.090  16.224 -0.8490  0.1074 -0.1557
 2087SOL    HW117723   3.340   0.129  16.208 -1.0041 -0.5350 -0.8652
 2087SOL    HW217724   3.427   0.069  16.318  0.6674 -1.3539 -0.4999
 2088SOL     OW17725   1.027   0.761   6.955 -0.9745  0.3421 -0.8697
 2088SOL    HW117726   1.033   0.783   6.862 -3.6695 -0.2796 -1.1823
 2088SOL    HW217727   1.068   0.833   7.004 -0.6054 -0.9777  0.7369
 2089SOL     OW17728   1.305   0.723  13.076  0.3526  0.5029 -0.1526
 2089SOL    HW117729   1.288   0.807  13.035 -1.8440 -0.4202 -1.1257
 2089SOL    HW217730   1.396   0.732  13.104  0.2809  1.3563 -0.2196
 2090SOL     OW17731   2.463   3.115   9.786  0.1671  0.2389 -0.2952
 2090SOL    HW117732   2.473   3.210   9.781  0.5012  0.2295  0.2365
 2090SOL    HW217733   2.547   3.099   9.744 -0.3354 -1.4182 -0.6658
 2091SOL     OW17734   3.170   3.478   8.975  0.6909 -0.3144  0.5045
 2091SOL    HW117735   3.211   3.397   9.007 -2.7741 -1.9035  0.9465
 2091SOL    HW217736   3.190   3.462   8.883  0.7933 -1.8841  0.7914
 2092SOL     OW17737   1.312   1.946   6.667  0.3139  0.7526 -0.0343
 2092SOL    HW117738   1.268   1.930   6.751 -0.7520  0.2348 -0.6807
 2092SOL    HW217739   1.266   2.026   6.643  1.4032  1.1362 -0.8433
 2093SOL     OW17740   2.468   4.110   6.122  0.3349 -0.3417 -0.2051
 2093SOL    HW117741   2.529   4.094   6.050  1.7886 -0.1805  1.0006
 2093SOL    HW217742   2.447   4.020   6.144 -1.0254 -0.3233 -1.3835
 2094SOL     OW17743   3.616   0.084   5.076  0.5233 -0.2105  0.3583
 2094SOL    HW117744   3.536   0.041   5.106  0.4429 -0.4487 -0.1976
 2094SOL    HW217745   3.607   0.171   5.114  0.6481 -0.0522  0.0229
 2095SOL     OW17746   2.411   0.128   3.924  0.0200 -0.5269  0.3037
 2095SOL    HW117747   2.383   0.041   3.897 -0.6131 -1.0376  2.5716
 2095SOL    HW217748   2.493   0.133   3.875  0.2955 -2.0019  0.6161
 2096SOL     OW17749   3.452   1.032   0.918 -0.4136  0.2053  0.4933
 2096SOL    HW117750   3.503   0.979   0.857 -1.3617 -0.2072  0.0630
 2096SOL    HW217751   3.526   1.075   0.962 -0.5005  0.3030  0.5439
 2097SOL     OW17752   0.005   1.072   8.146  0.1520  0.6091  0.1631
 2097SOL    HW117753   0.065   1.005   8.176 -0.0718  0.6585  0.7249
 2097SOL    HW217754   4.681   1.103   8.226  1.5042 -1.7655  1.7653
 2098SOL     OW17755   0.056   3.479   8.530 -0.1732 -0.5571 -0.3452
 2098SOL    HW117756   0.019   3.513   8.611  1.3498  0.5125 -0.1173
 2098SOL    HW217757   0.105   3.554   8.497  0.7765 -0.1429  2.0996
 2099SOL     OW17758   3.982   1.190   0.113  0.2986 -0.0602  0.1530
 2099SOL    HW117759   4.061   1.234   0.144  0.5594 -0.3968 -0.0448
 2099SOL    HW217760   3.991   1.214   0.021 -2.4490  2.5406  0.5626
 2100SOL     OW17761   4.652   1.774   7.804 -0.1526  0.1318 -0.2137
 2100SOL    HW117762   4.638   1.848   7.864  0.7312 -0.0027  0.1600
 2100SOL    HW217763   4.696   1.713   7.863  0.0940  2.0873  1.6729
 2101SOL     OW17764   4.446   1.766   4.514  0.5001 -0.4003 -0.1106
 2101SOL    HW117765   4.491   1.791   4.433  1.1491  1.1555  0.7229
 2101SOL    HW217766   4.408   1.682   4.490  1.1189 -0.2028 -1.7624
 2102SOL     OW17767   3.142   3.028   7.112  0.2076  0.1077  0.1723
 2102SOL    HW117768   3.059   3.063   7.144 -0.2376 -1.4008  0.6839
 2102SOL    HW217769   3.178   2.988   7.191 -1.2345  0.3088  0.9275
 2103SOL     OW17770   2.136   2.835  16.218 -0.1712  0.3706  0.2272
 2103SOL    HW117771   2.108   2.923  16.192  0.4055  0.0898 -1.3086
 2103SOL    HW217772   2.198   2.875  16.280 -0.8980  1.3401  0.3228
 2104SOL     OW17773   1.418   0.109   5.554  0.5480 -0.9914 -0.1649
 2104SOL    HW117774   1.474   0.161   5.612  1.5810  2.1410 -4.0368
 2104SOL    HW217775   1.448   0.021   5.578 -2.9858 -1.9568  0.6655
 2105SOL     OW17776   0.664   3.147   4.092 -0.0308  0.1779 -1.0393
 2105SOL    HW117777   0.759   3.146   4.080  0.4248 -0.5100  2.7436
 2105SOL    HW217778   0.654   3.240   4.072 -1.5618  0.4997  1.2011
 2106SOL     OW17779   4.584   2.828   2.962  0.2011  0.0673 -0.5496
 2106SOL    HW117780   4.531   2.805   2.885 -0.1873  0.9708 -0.5503
 2106SOL    HW217781   4.657   2.770   2.942  0.0895 -0.3123  0.1447
 2107SOL     OW17782   2.617   0.204   1.245  0.2422 -0.6680  0.1050
 2107SOL    HW117783   2.689   0.246   1.292 -0.1864 -1.2106  1.2495
 2107SOL    HW217784   2.541   0.257   1.270  0.8236  0.2949 -0.1462
 2108SOL     OW17785   4.089   4.537   8.396  0.2035  0.0903  0.2585
 2108SOL    HW117786   3.997   4.515   8.407  0.1108 -0.0518 -0.8194
 2108SOL    HW217787   4.092   4.624   8.435 -0.5664  0.3739 -0.3171
 2109SOL     OW17788   0.915   2.154   1.906  0.6836 -0.4498  0.2932
 2109SOL    HW117789   0.830   2.157   1.949 -0.5608 -2.9868 -1.9468
 2109SOL    HW217790   0.888   2.183   1.818  0.7759  0.0321  0.4252
 2110SOL     OW17791   2.946   0.224  13.152  0.3920  0.3476  0.7799
 2110SOL    HW117792   2.911   0.299  13.105  2.4672  1.1826  0.5324
 2110SOL    HW217793   3.013   0.271  13.203  1.0330 -0.1333  0.3703
 2111SOL     OW17794   4.076   3.530   2.550  0.0361  0.5547 -0.4717
 2111SOL    HW117795   4.149   3.536   2.489 -0.7026  2.6665 -1.1635
 2111SOL    HW217796   4.006   3.553   2.489 -2.6187  3.5835  3.6796
 2112SOL     OW17797   1.235   4.539   3.881 -0.5762  0.4507 -0.4163
 2112SOL    HW117798   1.180   4.546   3.959 -0.2514  0.2010 -0.1616
 2112SOL    HW217799   1.326   4.530   3.909  0.4434  4.3169 -2.4375
 2113SOL     OW17800   2.821   2.379   8.648  0.2805  0.5139 -0.6414
 2113SOL    HW117801   2.773   2.407   8.725  3.3060 -0.9907  1.7863
 2113SOL    HW217802   2.782   2.437   8.582 -1.8190 -0.8502 -0.5934
 2114SOL     OW17803   0.129   0.096   4.320 -0.3712 -0.0699 -0.0730
 2114SOL    HW117804   0.119   0.005   4.345 -0.0262  0.3004  1.4026
 2114SOL    HW217805   0.184   0.130   4.391 -0.8712 -0.4684  0.5008
 2115SOL     OW17806   0.064   3.127  16.712  0.1444 -0.0960  0.0061
 2115SOL    HW117807   0.057   3.045  16.662 -1.2468  0.5241 -0.8425
 2115SOL    HW217808   0.158   3.129  16.725  0.1533  0.9420 -0.2174
 2116SOL     OW17809   2.082   4.537   0.132  0.4061 -0.1807  0.1331
 2116SOL    HW117810   2.043   4.589   0.061  1.2102  0.2181 -0.0235
 2116SOL    HW217811   2.111   4.600   0.198 -0.7260  1.9512 -1.4027
 2117SOL     OW17812   3.724   4.126  15.117  0.3913 -0.0175 -0.0138
 2117SOL    HW117813   3.742   4.216  15.089  0.2360  0.1797  0.5259
 2117SOL    HW217814   3.666   4.146  15.190 -0.1540 -0.1389 -0.4166
 2118SOL     OW17815   1.479   1.646  17.305  0.0102 -0.1905 -0.6915
 2118SOL    HW117816   1.455   1.614  17.392 -1.0813 -0.9798 -1.2796
 2118SOL    HW217817   1.438   1.733  17.309  0.3810  0.0868 -3.3488
 2119SOL     OW17818   4.143   2.013   2.024 -0.3787 -0.2196 -0.0191
 2119SOL    HW117819   4.109   2.058   1.947  0.3611 -0.6010 -0.5628
 2119SOL    HW217820   4.182   2.073   2.087 -2.0967  1.0991 -0.2190
 2120SOL     OW17821   4.050   4.158   0.988 -0.3489  0.2322  0.3941
 2120SOL    HW117822   4.004   4.168   1.072 -1.3007  1.2339 -0.2514
 2120SOL    HW217823   4.120   4.223   0.994  0.8167 -0.9539 -0.3640
 2121SOL     OW17824   3.877   2.177  16.920 -0.1307  0.5848 -0.0474
 2121SOL    HW117825   3.795   2.218  16.890 -0.1251  0.9663  0.4576
 2121SOL    HW217826   3.876   2.188  17.015 -4.0121  1.7155 -0.2061
 2122SOL     OW17827   2.814   3.896   3.563  0.6008  0.2115  0.4454
 2122SOL    HW117828   2.809   3.803   3.540 -0.8159  0.0588  1.4214
 2122SOL    HW217829   2.735   3.933   3.524  0.6424 -1.1495 -0.9760
 2123SOL     OW17830   0.108   1.441   8.479 -0.2108  0.4124 -0.5065
 2123SOL    HW117831   0.136   1.373   8.417 -0.1030 -1.3482  1.4489
 2123SOL    HW217832   0.187   1.447   8.533 -2.4424  2.8325  2.5141
 2124SOL     OW17833   0.631   3.602  17.424 -0.4730 -0.2241 -0.0265
 2124SOL    HW117834   0.697   3.580  17.359 -2.0146 -0.1178 -1.6003
 2124SOL    HW217835   0.693   3.634  17.490  1.4711  0.7054 -2.3157
 2125SOL     OW17836   3.264   4.429   8.534  0.2032  0.1910  0.7097
 2125SOL    HW117837   3.309   4.465   8.611  3.7884  0.5865 -1.5842
 2125SOL    HW217838   3.340   4.405   8.481  0.3103  0.1225  0.8947
 2126SOL     OW17839   2.899   2.047  14.994 -0.0509  0.1487  0.1522
 2126SOL    HW117840   2.864   2.136  14.992 -2.3835 -0.8426 -3.4227
 2126SOL    HW217841   2.842   2.001  15.057  1.0422  0.2968  1.2578
 2127SOL     OW17842   4.342   1.534   4.393 -0.6167  0.1114 -0.0086
 2127SOL    HW117843   4.335   1.451   4.347  1.6499  0.6939 -1.3940
 2127SOL    HW217844   4.258   1.581   4.391 -0.4182  0.5538  1.6759
 2128SOL     OW17845   0.375   1.898   5.737  0.0998 -0.8746  0.8645
 2128SOL    HW117846   0.396   1.870   5.826 -0.5898  0.4004  1.4276
 2128SOL    HW217847   0.458   1.882   5.693 -0.1534  0.5375 -0.1451
 2129SOL     OW17848   1.431   1.818  11.515  0.4334 -0.1385  0.5653
 2129SOL    HW117849   1.487   1.880  11.563  1.7982 -0.7478 -0.2646
 2129SOL    HW217850   1.448   1.844  11.425 -1.2223 -2.3960 -0.3925
 2130SOL     OW17851   3.733   3.371   0.953  0.4387 -0.2596 -0.4552
 2130SOL    HW117852   3.644   3.398   0.978  0.7150 -1.4447  1.7977
 2130SOL    HW217853   3.721   3.298   0.893  0.3049 -1.4797  1.0392
 2131SOL     OW17854   4.705   1.308   2.669 -0.1832  1.1671  0.0839
 2131SOL    HW117855   4.634   1.288   2.607  0.8855  0.0489 -0.7958
 2131SOL    HW217856   0.066   1.272   2.628 -0.8629  0.3243 -0.5166
 2132SOL     OW17857   1.824   4.712   2.125 -0.0594 -0.1611 -0.0011
 2132SOL    HW117858   1.798   0.006   2.217  0.1422 -0.0188  0.0394
 2132SOL    HW217859   1.899   4.653   2.135  0.4148  0.6124  1.0693
 2133SOL     OW17860   4.637   0.794   4.339 -0.1441 -0.3602  0.4922
 2133SOL    HW117861   4.599   0.854   4.403  0.4733 -1.2651  1.7167
 2133SOL    HW217862   4.564   0.744   4.302 -0.2719 -1.4056  2.1500
 2134SOL     OW17863   4.310   2.492  10.777  0.0353  0.3768 -0.1536
 2134SOL    HW117864   4.374   2.427  10.806  0.9144  1.9944  1.4965
 2134SOL    HW217865   4.341   2.574  10.815 -0.5515  1.3752 -1.7913
 2135SOL     OW17866   1.916   2.758   9.468  0.0989  0.4742  0.5281
 2135SOL    HW117867   1.949   2.734   9.555  0.9418 -2.5307 -0.6202
 2135SOL    HW217868   1.989   2.814   9.443  1.3032 -1.0384  0.6932
 2136SOL     OW17869   1.935   3.781   5.158  0.0018 -0.3566  0.2243
 2136SOL    HW117870   1.898   3.792   5.246 -1.8381 -0.4229 -0.5462
 2136SOL    HW217871   1.938   3.686   5.150 -1.2159 -0.0970 -3.0971
 2137SOL     OW17872   0.365   0.666   4.261  1.0814 -0.7502 -0.6085
 2137SOL    HW117873   0.335   0.637   4.347  0.0897  1.9687 -0.0450
 2137SOL    HW217874   0.299   0.722   4.221  1.7112 -0.6390 -1.5049
 2138SOL     OW17875   3.664   1.228  17.610 -0.5193 -0.0383 -0.3837
 2138SOL    HW117876   3.703   1.312  17.636 -1.6097  0.3789 -0.1138
 2138SOL    HW217877   3.688   1.162   0.001  1.4578  1.4315  0.4117
 2139SOL     OW17878   4.426   1.076   4.795 -0.3178  0.6267  0.2520
 2139SOL    HW117879   4.460   1.164   4.814 -1.5468  1.1089  0.2013
 2139SOL    HW217880   4.407   1.052   4.885 -0.0732  0.4516  0.2591
 2140SOL     OW17881   3.608   4.505  13.970 -0.2813  0.0903 -0.1004
 2140SOL    HW117882   3.534   4.468  14.019  0.3150  0.8317  1.3529
 2140SOL    HW217883   3.638   4.432  13.915  0.8375 -0.1349  0.7960
 2141SOL     OW17884   0.922   2.979  15.030  0.4684 -0.8373 -0.3271
 2141SOL    HW117885   0.875   2.964  15.112  0.6043 -1.6340 -0.4029
 2141SOL    HW217886   0.883   3.062  15.002  2.8439 -0.2211 -1.8410
 2142SOL     OW17887   3.239   2.016   6.004  0.5888 -0.4562 -0.0281
 2142SOL    HW117888   3.248   2.073   5.928  3.7370  0.2627  0.9247
 2142SOL    HW217889   3.147   1.988   6.003  1.2920 -2.7778 -1.2573
 2143SOL     OW17890   1.139   1.697   1.025  0.3917  0.5174 -0.0648
 2143SOL    HW117891   1.051   1.671   1.052  1.0398 -0.7698  0.8162
 2143SOL    HW217892   1.152   1.658   0.938 -0.7233  0.1761 -0.0800
 2144SOL     OW17893   3.019   2.073   7.702  0.6598 -0.3411  0.1041
 2144SOL    HW117894   2.925   2.075   7.718  0.9080 -2.3796  1.9560
 2144SOL    HW217895   3.026   2.075   7.607 -0.6488  2.3086  0.0744
 2145SOL     OW17896   0.488   3.996   5.700 -0.4190  0.2947  0.2999
 2145SOL    HW117897   0.533   4.079   5.709 -1.2112  0.4126  2.9886
 2145SOL    HW217898   0.557   3.931   5.711 -0.2090  0.7858  1.9055
 2146SOL     OW17899   4.707   2.510   7.596 -0.4438  0.4151 -0.6781
 2146SOL    HW117900   4.675   2.598   7.579 -0.5664 -0.1620 -3.4017
 2146SOL    HW217901   0.037   2.517   7.678  0.0403  2.6495 -1.1567
 2147SOL     OW17902   1.842   1.991   6.099 -0.1532  0.1176 -0.3866
 2147SOL    HW117903   1.772   2.048   6.066 -0.4035  0.1562  0.2148
 2147SOL    HW217904   1.854   2.035   6.182 -1.9962 -1.9499  0.9897
 2148SOL     OW17905   2.530   2.774   8.118  0.2469  0.5765 -0.5557
 2148SOL    HW117906   2.563   2.818   8.040  0.8820 -1.0132 -1.1936
 2148SOL    HW217907   2.602   2.760   8.180 -0.2245 -0.5122 -0.2485
 2149SOL     OW17908   3.321   4.050   5.223  0.1705  0.3744 -0.2279
 2149SOL    HW117909   3.318   3.960   5.191  3.5661 -1.0670  3.5398
 2149SOL    HW217910   3.242   4.040   5.275 -0.8886 -0.8079 -2.0637
 2150SOL     OW17911   1.772   3.798  14.697 -0.2586 -0.1365 -0.5402
 2150SOL    HW117912   1.779   3.707  14.728 -3.0206 -0.4883 -0.9802
 2150SOL    HW217913   1.719   3.824  14.772  0.4439 -0.7750  0.1834
 2151SOL     OW17914   3.860   2.635   3.170 -0.4047  0.4392  0.3110
 2151SOL    HW117915   3.939   2.597   3.207 -0.9982  0.0252  1.1486
 2151SOL    HW217916   3.854   2.586   3.088 -0.1637  0.7328  0.1206
 2152SOL     OW17917   0.719   3.888   6.597  0.0247 -0.0964  0.1212
 2152SOL    HW117918   0.699   3.975   6.561  0.1256 -0.3052 -0.4360
 2152SOL    HW217919   0.734   3.841   6.515  1.2174  1.1514 -0.3782
 2153SOL     OW17920   1.833   4.292  13.633 -0.0680  0.2774  0.1680
 2153SOL    HW117921   1.777   4.226  13.592  0.5526 -0.8277  1.1151
 2153SOL    HW217922   1.799   4.307  13.721  1.7400 -1.4892  1.1739
 2154SOL     OW17923   0.813   0.761   5.462 -0.2730  0.3300 -0.0063
 2154SOL    HW117924   0.823   0.742   5.555  0.5067  0.1741 -0.1201
 2154SOL    HW217925   0.753   0.835   5.467  0.2394  0.7690 -0.3473
 2155SOL     OW17926   4.673   1.727   5.084  0.1938 -0.2309  0.1395
 2155SOL    HW117927   4.630   1.648   5.050 -3.0945  1.6221 -0.0960
 2155SOL    HW217928   4.655   1.789   5.013  1.6250  0.3398  0.2948
 2156SOL     OW17929   2.403   3.325   3.875 -0.3606  0.3110 -0.1985
 2156SOL    HW117930   2.328   3.272   3.845 -0.1814 -1.5250  2.6366
 2156SOL    HW217931   2.457   3.258   3.917 -0.5942 -0.2767 -0.8148
 2157SOL     OW17932   3.371   3.896   6.872  0.1973  0.5867 -0.5103
 2157SOL    HW117933   3.371   3.986   6.839 -1.2295  1.7375  2.6424
 2157SOL    HW217934   3.347   3.847   6.794 -2.9464 -1.9557  2.0978
 2158SOL     OW17935   2.600   2.756   2.564  0.2190  0.7792 -0.4683
 2158SOL    HW117936   2.588   2.837   2.614 -0.5377  0.2519  0.1979
 2158SOL    HW217937   2.692   2.751   2.540  0.9831  1.3516  2.3545
 2159SOL     OW17938   0.509   4.041  13.840  0.1782  0.5723 -0.2590
 2159SOL    HW117939   0.465   4.013  13.760  0.1447  2.8174 -1.0171
 2159SOL    HW217940   0.438   4.022  13.902 -0.8499  1.3776 -1.2048
 2160SOL     OW17941   1.379   4.668   4.609 -0.1402  0.2510 -0.3641
 2160SOL    HW117942   1.411   0.034   4.642  1.3574 -0.9724  1.3288
 2160SOL    HW217943   1.286   4.675   4.631  0.0391  1.3521  0.0163
 2161SOL     OW17944   2.638   1.191  11.321  0.2361  0.5337  0.0667
 2161SOL    HW117945   2.599   1.263  11.271 -0.2446  1.3863  1.6576
 2161SOL    HW217946   2.557   1.171  11.368  0.1220 -1.0977 -0.8260
 2162SOL     OW17947   2.711   2.753   0.646  0.1726  0.0383 -0.5027
 2162SOL    HW117948   2.800   2.782   0.668 -0.9800  0.8012  3.1878
 2162SOL    HW217949   2.686   2.808   0.572  1.5097  2.7430  1.0454
 2163SOL     OW17950   4.023   3.062   5.022  0.1134 -0.0230  0.3158
 2163SOL    HW117951   4.091   3.076   4.956  0.4402 -2.2031  0.2001
 2163SOL    HW217952   4.019   3.150   5.060 -0.7268 -0.5617  1.4892
 2164SOL     OW17953   4.604   0.055   3.267 -0.2523 -0.0533 -0.4833
 2164SOL    HW117954   4.604   0.024   3.176  1.7017 -0.6049 -0.2904
 2164SOL    HW217955   4.516   0.091   3.272 -0.0591  0.1167  1.6453
 2165SOL     OW17956   2.446   2.556  15.588 -0.0716  0.5389  0.3181
 2165SOL    HW117957   2.415   2.471  15.621 -1.6524  1.6534  1.6559
 2165SOL    HW217958   2.402   2.574  15.505  0.7566  1.9582  0.1936
 2166SOL     OW17959   3.516   4.578   3.018 -0.0080  0.1796 -0.7013
 2166SOL    HW117960   3.487   4.503   3.069 -1.8715  0.9914 -0.5705
 2166SOL    HW217961   3.440   4.614   2.972 -1.2110  0.1324  1.2524
 2167SOL     OW17962   0.873   0.623   9.104  0.0322  0.0834  0.1964
 2167SOL    HW117963   0.949   0.669   9.069 -0.2568  1.0049  0.7808
 2167SOL    HW217964   0.859   0.689   9.172 -2.2485  0.7727 -0.9487
 2168SOL     OW17965   3.059   0.651   2.962  0.0247 -0.4021 -0.0699
 2168SOL    HW117966   3.084   0.743   2.960 -0.7812 -0.2098 -1.3393
 2168SOL    HW217967   3.092   0.635   2.874  3.3842 -2.5607  1.5906
 2169SOL     OW17968   3.736   3.290   6.673  0.5456 -0.6687 -0.4005
 2169SOL    HW117969   3.690   3.216   6.714 -2.6293  1.1879 -0.5895
 2169SOL    HW217970   3.737   3.275   6.578 -0.4513  1.2459 -0.7332
 2170SOL     OW17971   4.212   4.132   1.478 -0.0078  0.3722  0.4740
 2170SOL    HW117972   4.160   4.202   1.439 -1.2933 -1.7024 -1.5397
 2170SOL    HW217973   4.196   4.140   1.573  1.3846  0.9016  0.6579
 2171SOL     OW17974   0.203   1.550   5.067  0.8268  0.1699 -0.0019
 2171SOL    HW117975   0.286   1.599   5.063  0.2381  1.2673  1.2204
 2171SOL    HW217976   0.145   1.625   5.051  1.9108  0.7363 -1.3693
 2172SOL     OW17977   2.575   0.311   5.880  0.0040  0.6124 -0.0490
 2172SOL    HW117978   2.578   0.360   5.798 -2.6184  0.3966 -0.2806
 2172SOL    HW217979   2.622   0.372   5.936 -0.5524  0.9599  0.0309
 2173SOL     OW17980   0.926   0.843   1.780 -0.0168 -0.3042  0.1390
 2173SOL    HW117981   0.954   0.836   1.871  2.9999 -3.7073 -1.0979
 2173SOL    HW217982   0.863   0.771   1.770 -1.0682  0.6665 -0.3288
 2174SOL     OW17983   4.251   1.056  10.620 -0.3748 -0.8945 -0.1047
 2174SOL    HW117984   4.279   1.130  10.673 -1.3724 -1.3371  1.0524
 2174SOL    HW217985   4.249   1.098  10.534 -0.0154  1.0482  0.8387
 2175SOL     OW17986   2.778   2.649   5.044  0.1224 -0.4089  0.3443
 2175SOL    HW117987   2.809   2.738   5.032  0.6668 -0.3851  1.9011
 2175SOL    HW217988   2.848   2.591   5.014  0.2660  0.8158 -1.6414
 2176SOL     OW17989   0.167   1.307   6.943 -0.1988 -0.1926 -0.5522
 2176SOL    HW117990   0.246   1.341   6.901 -0.6218  2.0397  0.4975
 2176SOL    HW217991   0.186   1.217   6.916  1.7540  0.7221 -2.2379
 2177SOL     OW17992   1.627   3.058   3.017  0.4758  0.0283  0.4045
 2177SOL    HW117993   1.641   3.144   2.977 -1.5102  0.8641  1.4665
 2177SOL    HW217994   1.557   3.028   2.958 -0.1872 -0.7694  1.5923
 2178SOL     OW17995   4.481   0.398   7.863 -0.8565 -0.5010 -0.3891
 2178SOL    HW117996   4.438   0.472   7.819  1.1563  1.4774  0.9723
 2178SOL    HW217997   4.423   0.384   7.938 -1.6834 -0.0790 -0.9459
 2179SOL     OW17998   3.505   3.510   8.917 -0.2430  0.1786  0.5881
 2179SOL    HW117999   3.576   3.533   8.977  0.6110  2.1906 -1.2103
 2179SOL    HW218000   3.466   3.435   8.963  0.1401 -1.0055 -1.0429
 2180SOL     OW18001   3.572   0.503  17.581  0.7826 -0.2327  0.0915
 2180SOL    HW118002   3.532   0.521  17.666  0.3016  0.4309 -0.2731
 2180SOL    HW218003   3.567   0.594  17.551 -0.5468 -0.2106  0.3932
 2181SOL     OW18004   3.725   2.389  10.681  0.4031 -0.0832 -0.2457
 2181SOL    HW118005   3.678   2.369  10.762  0.7346 -0.9984 -0.2761
 2181SOL    HW218006   3.809   2.406  10.722 -0.6496  1.1581  1.4065
 2182SOL     OW18007   1.316   2.875   6.675  0.0470  0.2635  0.1336
 2182SOL    HW118008   1.359   2.829   6.747  2.2453 -0.4371 -1.6433
 2182SOL    HW218009   1.238   2.826   6.648 -1.0799  0.9827  2.0906
 2183SOL     OW18010   3.788   4.115   4.641  1.0153  0.1883 -0.3643
 2183SOL    HW118011   3.788   4.044   4.577 -1.8442 -0.0046 -0.1395
 2183SOL    HW218012   3.844   4.087   4.714 -2.5825 -2.2333  1.4676
 2184SOL     OW18013   2.114   1.066   8.282  0.3574 -0.3227  0.4116
 2184SOL    HW118014   2.110   1.106   8.196  1.8114  0.7261  0.8281
 2184SOL    HW218015   2.207   1.044   8.292  0.5639  0.0497 -0.7641
 2185SOL     OW18016   3.493   2.769   1.518 -0.7031  0.4284  0.6450
 2185SOL    HW118017   3.430   2.725   1.461  0.7834 -1.9103  0.8201
 2185SOL    HW218018   3.448   2.854   1.522 -0.8896  0.3945 -0.8231
 2186SOL     OW18019   3.961   2.988  10.999 -0.2852  0.5595 -0.1870
 2186SOL    HW118020   3.921   3.045  10.934 -1.2977 -0.0689 -0.1051
 2186SOL    HW218021   4.023   3.044  11.047  0.2608  1.8384 -2.4087
 2187SOL     OW18022   2.182   3.856   7.765  0.2146 -0.2005  0.2217
 2187SOL    HW118023   2.263   3.828   7.720 -0.4458  1.2379 -1.8766
 2187SOL    HW218024   2.119   3.877   7.696  1.6586  2.2729 -0.3629
 2188SOL     OW18025   0.298   3.193  10.089  0.2772 -0.1461 -0.7820
 2188SOL    HW118026   0.267   3.102  10.091  2.2491 -0.7767  0.9809
 2188SOL    HW218027   0.373   3.176  10.145 -2.1676 -0.6373  2.3794
 2189SOL     OW18028   2.513   1.585   8.595 -0.0755  0.2275  0.0548
 2189SOL    HW118029   2.471   1.647   8.535  0.5817  2.3770  1.8213
 2189SOL    HW218030   2.606   1.597   8.579  0.1498 -0.8282  0.5744
 2190SOL     OW18031   1.128   1.413  11.432  0.1805 -0.0605 -0.7902
 2190SOL    HW118032   1.122   1.456  11.517  0.4169  1.1685 -1.4048
 2190SOL    HW218033   1.220   1.388  11.424  0.8663  2.4433 -0.7329
 2191SOL     OW18034   1.223   0.739   9.999  0.1743 -0.2654 -0.9068
 2191SOL    HW118035   1.167   0.674   9.955  0.0981  0.3965 -1.7959
 2191SOL    HW218036   1.170   0.754  10.077 -0.2859  1.4201 -1.5453
 2192SOL     OW18037   1.983   2.936  15.374 -0.0938  0.4034 -0.2031
 2192SOL    HW118038   1.898   2.902  15.345 -0.0641  1.7344 -1.8089
 2192SOL    HW218039   1.969   3.030  15.368 -1.0305  0.1310 -2.6335
 2193SOL     OW18040   3.875   2.158   8.309 -0.7947 -0.2640 -0.1854
 2193SOL    HW118041   3.830   2.110   8.378  0.1268 -0.1399  0.4993
 2193SOL    HW218042   3.941   2.097   8.277 -0.2520 -0.4025  1.1998
 2194SOL     OW18043   3.540   3.028  15.869  0.1765  0.8731  0.2237
 2194SOL    HW118044   3.572   3.089  15.935 -1.7230  0.7069  1.2831
 2194SOL    HW218045   3.578   3.067  15.790  0.1674 -0.6664 -0.5488
 2195SOL     OW18046   3.482   0.758   3.255  0.2377 -0.3903 -0.4181
 2195SOL    HW118047   3.545   0.767   3.327 -0.0581  0.7853 -0.3153
 2195SOL    HW218048   3.470   0.848   3.224 -0.0191 -0.2970 -0.0435
 2196SOL     OW18049   0.360   1.039  16.071  0.8693  0.0680  0.2644
 2196SOL    HW118050   0.430   1.067  16.013 -0.3451 -2.4774 -2.4557
 2196SOL    HW218051   0.289   1.089  16.030  0.7597 -1.6721 -1.7069
 2197SOL     OW18052   1.767   0.884   2.668 -0.4161 -0.6721 -0.0499
 2197SOL    HW118053   1.787   0.900   2.576  0.0994 -0.4973  0.0947
 2197SOL    HW218054   1.833   0.819   2.695  0.4854  0.1391 -0.3231
 2198SOL     OW18055   3.079   1.751   9.029 -0.0467  0.0195  0.0939
 2198SOL    HW118056   2.992   1.776   9.061  0.1107 -1.0869  1.3600
 2198SOL    HW218057   3.076   1.770   8.935  3.0028 -1.1351 -0.2306
 2199SOL     OW18058   3.460   1.048   5.809 -0.0797  0.3500 -0.3916
 2199SOL    HW118059   3.529   0.990   5.842 -0.3869 -0.3566 -1.0009
 2199SOL    HW218060   3.448   1.101   5.888 -0.1002 -0.9521  0.4973
 2200SOL     OW18061   4.492   1.666   2.449 -0.1947 -0.2570  0.5488
 2200SOL    HW118062   4.575   1.671   2.496  0.8935 -1.7159 -1.2392
 2200SOL    HW218063   4.428   1.648   2.518  1.0103  0.3140  1.8251
 2201SOL     OW18064   1.159   1.240   2.808 -0.6405 -0.5921 -0.1830
 2201SOL    HW118065   1.066   1.234   2.827 -1.5455 -0.8718 -4.7360
 2201SOL    HW218066   1.194   1.189   2.881  2.3014 -1.7868 -2.4577
 2202SOL     OW18067   1.131   1.485  12.973  0.7256 -0.4427 -0.5235
 2202SOL    HW118068   1.191   1.516  13.040  0.5688 -0.0380 -0.5641
 2202SOL    HW218069   1.148   1.561  12.916  3.2382 -1.6973 -1.4461
 2203SOL     OW18070   3.000   0.246   6.273  0.0244 -0.1787  0.3843
 2203SOL    HW118071   2.999   0.157   6.307  3.5809 -0.2100  0.3939
 2203SOL    HW218072   3.008   0.241   6.178 -0.7353  1.4932  0.2224
 2204SOL     OW18073   1.272   1.799   6.129 -0.1465 -0.0052  1.3633
 2204SOL    HW118074   1.330   1.874   6.117 -0.9811  0.1518 -1.8107
 2204SOL    HW218075   1.247   1.795   6.037  1.6943  0.9233  0.8256
 2205SOL     OW18076   3.873   2.936   1.680 -0.9252  0.9178 -0.1772
 2205SOL    HW118077   3.861   2.970   1.769  2.3445  0.4425  0.4464
 2205SOL    HW218078   3.788   2.952   1.639 -0.5201 -0.0763 -1.3860
 2206SOL     OW18079   1.720   0.320   5.466  0.0946  0.0529 -0.4046
 2206SOL    HW118080   1.718   0.236   5.513 -0.6788 -1.4084 -3.0591
 2206SOL    HW218081   1.779   0.376   5.518 -0.0776 -1.6027  1.5865
 2207SOL     OW18082   2.705   3.475   3.094  0.6162 -0.1275  0.7102
 2207SOL    HW118083   2.664   3.486   3.179  1.1974  0.2812  0.9403
 2207SOL    HW218084   2.669   3.389   3.070 -0.4468  0.5446 -0.1029
 2208SOL     OW18085   1.098   3.605   7.999 -0.2589  0.3348 -0.4713
 2208SOL    HW118086   1.149   3.683   8.021 -0.6117  0.6304 -0.7271
 2208SOL    HW218087   1.042   3.641   7.931  1.4107  0.0854 -1.9671
 2209SOL     OW18088   2.072   4.053  13.041  0.3527  0.0835  0.0913
 2209SOL    HW118089   2.100   4.001  13.116 -1.9677  0.7264  1.3855
 2209SOL    HW218090   2.102   4.007  12.962 -2.0225  0.7429 -1.1902
 2210SOL     OW18091   0.965   0.060   5.165 -0.1342  0.1545 -0.1632
 2210SOL    HW118092   0.954   0.151   5.192  0.0865 -0.0250  0.5128
 2210SOL    HW218093   0.998   0.037   5.251 -1.6554  1.3346  0.7308
 2211SOL     OW18094   3.166   2.111   5.347  0.0824  0.1315 -0.1027
 2211SOL    HW118095   3.115   2.031   5.363  0.5966 -0.0955  0.3876
 2211SOL    HW218096   3.230   2.079   5.284 -0.3022  0.1296 -0.4960
 2212SOL     OW18097   0.296   4.586  14.144  0.3136  0.5132  0.2466
 2212SOL    HW118098   0.280   4.680  14.149 -1.4010  0.1778  1.2314
 2212SOL    HW218099   0.214   4.550  14.178  0.9238 -2.1297 -1.0344
 2213SOL     OW18100   3.303   2.561   8.078  0.0129 -0.0598 -0.3855
 2213SOL    HW118101   3.216   2.599   8.077 -0.6727 -1.6028  0.1398
 2213SOL    HW218102   3.286   2.469   8.054  1.3473 -0.3930 -0.0524
 2214SOL     OW18103   4.128   1.160  16.672  0.1855  0.6022  0.4980
 2214SOL    HW118104   4.182   1.117  16.739  1.7095  0.8822 -0.5409
 2214SOL    HW218105   4.057   1.099  16.650  0.2875  0.6545  0.0292
 2215SOL     OW18106   4.498   1.902   2.675 -0.2936 -0.4119  0.2330
 2215SOL    HW118107   4.459   1.837   2.616  0.7876 -2.5232  1.8494
 2215SOL    HW218108   4.578   1.918   2.624 -1.3448  1.1969 -0.9230
 2216SOL     OW18109   4.362   4.222   4.026 -0.3125  0.2997 -0.1043
 2216SOL    HW118110   4.278   4.266   4.037 -1.2927 -1.3452 -1.0522
 2216SOL    HW218111   4.324   4.135   4.024 -2.5194  1.2223  2.0042
 2217SOL     OW18112   4.703   2.624  16.668  0.1446 -0.1248 -0.4285
 2217SOL    HW118113   0.012   2.619  16.576  1.0341  1.5071 -0.2565
 2217SOL    HW218114   4.635   2.692  16.667  2.2956  1.9960 -1.6441
 2218SOL     OW18115   4.302   1.610   2.078 -0.5759  0.1766 -0.1779
 2218SOL    HW118116   4.393   1.635   2.090 -0.4209  0.2419 -1.5295
 2218SOL    HW218117   4.291   1.576   1.989  1.0537 -2.9845  0.8253
 2219SOL     OW18118   0.669   4.139   6.520  0.3957  0.5762 -0.0216
 2219SOL    HW118119   0.673   4.230   6.548 -1.4368  0.5613  0.3182
 2219SOL    HW218120   0.759   4.125   6.490  0.6967  1.6178  0.3806
 2220SOL     OW18121   0.268   2.311   5.295 -0.1766 -0.5192  0.4761
 2220SOL    HW118122   0.316   2.351   5.222  0.0735 -1.8608 -0.0988
 2220SOL    HW218123   0.339   2.254   5.325 -0.2183  0.5110  2.5335
 2221SOL     OW18124   2.372   2.718   6.869 -0.1470 -0.1526 -0.2417
 2221SOL    HW118125   2.388   2.719   6.775  1.2501 -2.0119 -0.0311
 2221SOL    HW218126   2.280   2.692   6.873 -0.7436  1.5293 -2.6880
 2222SOL     OW18127   1.341   2.536   8.771 -0.3001  0.1977 -0.1702
 2222SOL    HW118128   1.273   2.519   8.706  0.5146  1.3083 -1.3100
 2222SOL    HW218129   1.294   2.614   8.799 -0.3490  0.4567 -0.9922
 2223SOL     OW18130   1.672   2.154  12.910  0.1276 -0.0841 -0.3158
 2223SOL    HW118131   1.612   2.198  12.849 -1.6307 -0.2886  1.2740
 2223SOL    HW218132   1.756   2.184  12.875  0.5905 -0.2847  0.6359
 2224SOL     OW18133   3.454   0.075  12.458 -0.8153  0.0142 -0.8859
 2224SOL    HW118134   3.487   0.000  12.508  1.2819  0.4264 -1.6304
 2224SOL    HW218135   3.519   0.144  12.472 -2.4908  0.9787  2.1238
 2225SOL     OW18136   2.837   1.517   4.003  0.2587 -0.0349 -0.5305
 2225SOL    HW118137   2.913   1.574   3.988 -0.6131  1.0966 -0.6576
 2225SOL    HW218138   2.779   1.589   4.028 -0.0646 -0.0140 -1.3217
 2226SOL     OW18139   4.396   0.684   6.248  0.3278  0.1858  1.0002
 2226SOL    HW118140   4.426   0.599   6.281  0.5214  0.5028  1.6343
 2226SOL    HW218141   4.341   0.716   6.319  0.5088  1.6835  0.4775
 2227SOL     OW18142   0.506   4.238   4.068  0.1905 -0.2045  0.0263
 2227SOL    HW118143   0.572   4.306   4.072  1.1059 -1.1037  0.2140
 2227SOL    HW218144   0.432   4.286   4.030  0.6796 -0.1611 -0.8625
 2228SOL     OW18145   1.545   4.657   1.510 -0.1824  0.7497 -0.1041
 2228SOL    HW118146   1.479   4.609   1.461  0.1448  0.5395 -0.3396
 2228SOL    HW218147   1.531   0.027   1.476 -1.3699  0.5726 -0.0576
 2229SOL     OW18148   3.698   3.236  15.226 -0.2115 -0.8818  0.2319
 2229SOL    HW118149   3.750   3.218  15.148  0.7103 -0.9724  0.8743
 2229SOL    HW218150   3.735   3.322  15.248 -0.6784 -1.1718  2.1612
 2230SOL     OW18151   2.332   2.591  15.332  1.0558  0.2561  0.0878
 2230SOL    HW118152   2.340   2.563  15.240  0.1826 -0.7320  0.3156
 2230SOL    HW218153   2.258   2.652  15.325  2.4015  1.9384  0.3102
 2231SOL     OW18154   3.583   3.911  16.197 -0.1276 -0.4902  0.0442
 2231SOL    HW118155   3.541   3.904  16.283  0.8216  0.1453  0.5613
 2231SOL    HW218156   3.646   3.981  16.213 -0.7007  0.4449 -1.8053
 2232SOL     OW18157   0.857   0.815   3.215 -0.2233 -0.1859 -0.0274
 2232SOL    HW118158   0.805   0.818   3.135  1.6622 -1.6285 -1.2993
 2232SOL    HW218159   0.791   0.799   3.283 -0.1596  1.8468  0.4941
 2233SOL     OW18160   1.053   3.233  10.679 -0.0477 -0.2106 -0.1656
 2233SOL    HW118161   0.994   3.266  10.747  0.1542 -0.4596  0.1336
 2233SOL    HW218162   1.082   3.312  10.634  4.0056 -2.6599 -1.8420
 2234SOL     OW18163   4.633   3.656   7.645  0.1522  0.3170 -0.2568
 2234SOL    HW118164   4.548   3.651   7.689 -0.5785 -0.0966 -1.7139
 2234SOL    HW218165   4.683   3.716   7.700  1.2788 -0.5061 -0.3826
 2235SOL     OW18166   2.044   0.617  12.900  0.2379 -0.3555  0.5281
 2235SOL    HW118167   2.098   0.696  12.895  0.9018 -0.7982  0.7990
 2235SOL    HW218168   2.066   0.599  12.991 -0.7509 -0.1988  0.8042
 2236SOL     OW18169   0.883   2.292   2.399  0.0956 -0.1276 -0.6411
 2236SOL    HW118170   0.827   2.338   2.337 -0.8587  0.5559  0.7273
 2236SOL    HW218171   0.965   2.293   2.350  0.1412 -1.6286 -0.6009
 2237SOL     OW18172   1.990   4.273  10.810  0.1054  0.3911 -0.2198
 2237SOL    HW118173   1.995   4.222  10.890 -1.2908 -1.4669 -1.3201
 2237SOL    HW218174   2.037   4.351  10.838 -0.2963  0.4375  0.3220
 2238SOL     OW18175   3.298   0.973  12.249 -0.0918 -0.4720 -0.2514
 2238SOL    HW118176   3.240   0.986  12.175 -1.3663 -2.4588  0.3985
 2238SOL    HW218177   3.259   1.033  12.312  2.8190 -0.1999  1.2915
 2239SOL     OW18178   2.501   1.774   2.454 -0.2758  0.4345 -0.3356
 2239SOL    HW118179   2.528   1.710   2.520 -0.8338 -1.7672 -2.2607
 2239SOL    HW218180   2.406   1.762   2.444 -0.2704  0.7393 -0.7481
 2240SOL     OW18181   2.287   1.246   7.784  0.5086 -0.3833  0.2156
 2240SOL    HW118182   2.287   1.235   7.689  0.9918 -0.7702  0.2598
 2240SOL    HW218183   2.382   1.254   7.792  0.2925  1.7397  0.5336
 2241SOL     OW18184   0.484   4.385   7.925 -0.2726  0.1402 -0.2297
 2241SOL    HW118185   0.541   4.460   7.940 -0.5480  0.1492  0.7962
 2241SOL    HW218186   0.454   4.362   8.014 -0.5234 -3.3965 -1.2267
 2242SOL     OW18187   3.769   4.366   1.669  0.5260 -0.3444  0.2763
 2242SOL    HW118188   3.773   4.287   1.614  0.1590  0.8056 -1.4178
 2242SOL    HW218189   3.692   4.348   1.723  2.0117 -2.6013  1.6688
 2243SOL     OW18190   1.547   3.565   0.636  0.2898  0.2979 -0.3483
 2243SOL    HW118191   1.579   3.645   0.678 -2.8715  1.1811  0.3131
 2243SOL    HW218192   1.510   3.518   0.710  0.0778 -0.8372 -1.1809
 2244SOL     OW18193   2.772   0.882   4.309 -0.4747  0.0278 -0.3266
 2244SOL    HW118194   2.805   0.911   4.224 -1.4524 -0.3147 -0.8303
 2244SOL    HW218195   2.711   0.955   4.324  0.2311  0.3252  1.0813
 2245SOL     OW18196   1.898   3.154   0.386 -0.2483  0.0505  0.2270
 2245SOL    HW118197   1.820   3.100   0.401  0.3296 -0.2099  2.2959
 2245SOL    HW218198   1.949   3.093   0.333  0.3641  0.2722  0.5700
 2246SOL     OW18199   3.802   2.142   7.298  0.1842  0.5484  0.3795
 2246SOL    HW118200   3.802   2.223   7.349 -1.3694 -0.0777  1.3972
 2246SOL    HW218201   3.719   2.111   7.334  0.9115  0.5244  2.0507
 2247SOL     OW18202   2.727   4.570   3.738  0.5490  0.1018 -0.3073
 2247SOL    HW118203   2.802   4.511   3.729  1.2593  0.9917 -0.1116
 2247SOL    HW218204   2.685   4.543   3.820 -0.9067  3.3006 -0.0188
 2248SOL     OW18205   4.441   1.613   3.709 -0.1523 -0.2415 -0.1984
 2248SOL    HW118206   4.397   1.540   3.666  0.1072 -1.5706  1.8307
 2248SOL    HW218207   4.482   1.560   3.777 -1.1013 -0.3167  0.3109
 2249SOL     OW18208   1.980   1.698   8.194  0.1086  0.5861 -0.1504
 2249SOL    HW118209   1.885   1.710   8.203  0.0797 -0.2370  0.6485
 2249SOL    HW218210   1.980   1.670   8.103  2.7026 -0.8553  0.2967
 2250SOL     OW18211   1.983   0.578  17.379 -0.2956 -0.2022 -0.3549
 2250SOL    HW118212   1.960   0.485  17.388 -1.0975 -0.2382 -2.8974
 2250SOL    HW218213   1.980   0.583  17.283 -0.4695 -2.3221 -0.4594
 2251SOL     OW18214   4.432   3.142   4.721 -0.1115  0.3054 -0.3997
 2251SOL    HW118215   4.450   3.053   4.693 -2.2991 -0.7010  1.3600
 2251SOL    HW218216   4.483   3.186   4.653  0.3939 -0.0581 -0.2499
 2252SOL     OW18217   1.666   0.967   9.162 -0.6883 -0.0010 -0.7701
 2252SOL    HW118218   1.755   0.953   9.129 -0.4104 -0.3897  0.1303
 2252SOL    HW218219   1.678   0.988   9.255 -1.5653 -1.8287 -0.2520
 2253SOL     OW18220   3.825   1.314   0.514  0.2122 -0.1075  0.7555
 2253SOL    HW118221   3.865   1.368   0.582  0.7571 -0.7454  0.9384
 2253SOL    HW218222   3.858   1.229   0.542 -0.9880 -0.9708 -0.4462
 2254SOL     OW18223   3.803   1.921   8.882 -0.0911  0.2124 -0.3516
 2254SOL    HW118224   3.707   1.911   8.876  0.1472 -1.5002 -1.4289
 2254SOL    HW218225   3.810   2.015   8.896  0.5222  0.2233 -0.7459
 2255SOL     OW18226   0.775   2.608   4.750 -0.2786  0.1606 -0.0636
 2255SOL    HW118227   0.705   2.625   4.814  1.3307  0.3364  1.6533
 2255SOL    HW218228   0.751   2.662   4.675 -0.4446  0.8737  0.4960
 2256SOL     OW18229   0.023   3.424   2.134 -0.2830 -0.7389 -0.1758
 2256SOL    HW118230   4.647   3.409   2.122 -0.3303  1.0410 -2.0144
 2256SOL    HW218231   0.052   3.353   2.077 -3.0705 -0.9600 -1.2914
 2257SOL     OW18232   1.882   0.931   8.288  0.4696  0.1299 -0.3837
 2257SOL    HW118233   1.974   0.953   8.278  0.9727 -0.4304  3.1498
 2257SOL    HW218234   1.868   0.890   8.202  0.0104  2.0508 -1.2223
 2258SOL     OW18235   1.471   3.898   1.740  0.3105 -0.1443  0.1318
 2258SOL    HW118236   1.457   3.968   1.804  3.4527 -0.4757  1.1817
 2258SOL    HW218237   1.564   3.875   1.741  0.1894 -0.7046 -1.6738
 2259SOL     OW18238   0.208   1.958  13.769  0.0340 -0.7074  0.0587
 2259SOL    HW118239   0.210   2.050  13.795 -2.8200 -1.2298  2.2764
 2259SOL    HW218240   0.128   1.924  13.809 -0.1733  0.5491  0.7129
 2260SOL     OW18241   1.769   0.954  12.203  0.9699 -0.0037  0.3986
 2260SOL    HW118242   1.767   0.871  12.251 -1.2603 -0.8032 -1.1052
 2260SOL    HW218243   1.721   0.929  12.125  1.7081 -0.2047  0.0111
 2261SOL     OW18244   0.839   3.808   6.017  0.4353  0.7678  0.8764
 2261SOL    HW118245   0.834   3.713   6.005  1.8239  0.5501  1.9460
 2261SOL    HW218246   0.844   3.850   5.931  1.6644 -0.4706  0.3317
 2262SOL     OW18247   1.443   4.566  11.290  0.0887 -0.3069  0.4794
 2262SOL    HW118248   1.476   4.500  11.229  1.4120  2.0200 -1.2989
 2262SOL    HW218249   1.353   4.540  11.309 -0.6729  1.7930 -0.3588
 2263SOL     OW18250   1.575   1.620   5.029 -0.2346  0.4543  0.1027
 2263SOL    HW118251   1.504   1.657   5.081 -0.8537  2.4038 -2.1407
 2263SOL    HW218252   1.544   1.530   5.018  1.3405  0.1273 -1.8030
 2264SOL     OW18253   1.704   1.773   8.353 -0.6592  0.0484  0.5053
 2264SOL    HW118254   1.608   1.780   8.350 -0.7374 -1.2542 -0.2463
 2264SOL    HW218255   1.712   1.789   8.447 -0.4701 -1.7746  0.8107
 2265SOL     OW18256   2.681   1.608   6.483  0.0869 -0.0781  0.2599
 2265SOL    HW118257   2.629   1.590   6.405 -0.1571  1.9315 -0.0587
 2265SOL    HW218258   2.739   1.680   6.454  0.1383 -0.5379 -0.7830
 2266SOL     OW18259   0.166   0.961   7.634 -0.3061 -0.1652  0.3759
 2266SOL    HW118260   0.258   0.934   7.630 -0.6054 -1.0732 -0.7089
 2266SOL    HW218261   0.152   0.971   7.539  2.4996 -2.0412 -0.2316
 2267SOL     OW18262   2.469   4.363   5.512 -0.2017 -0.3836 -1.0108
 2267SOL    HW118263   2.465   4.309   5.433 -0.5003 -0.7455 -0.7533
 2267SOL    HW218264   2.562   4.380   5.524  0.3827 -2.4932 -2.4611
 2268SOL     OW18265   3.874   2.979   7.681  0.1558 -0.1357 -0.6086
 2268SOL    HW118266   3.791   2.941   7.655 -1.7331  2.3627  1.7720
 2268SOL    HW218267   3.929   2.902   7.694  1.9285  1.3596  0.8238
 2269SOL     OW18268   4.268   0.322   5.794  0.0057  0.0076 -0.1488
 2269SOL    HW118269   4.225   0.407   5.799 -1.1579 -0.4512 -2.1879
 2269SOL    HW218270   4.226   0.293   5.713  1.8874  2.4847 -2.0125
 2270SOL     OW18271   1.151   4.404   0.230  0.5486  0.3295 -0.0144
 2270SOL    HW118272   1.209   4.473   0.198  1.0708 -0.8237 -1.5272
 2270SOL    HW218273   1.062   4.417   0.195  0.0015 -1.8146  0.6222
 2271SOL     OW18274   4.031   4.507   8.711  0.0094 -0.4200  0.6149
 2271SOL    HW118275   4.004   4.458   8.633 -1.0357  0.1019  0.6608
 2271SOL    HW218276   4.102   4.448   8.735  0.6285 -0.0200 -0.1963
 2272SOL     OW18277   2.933   4.092   9.514  0.0912  0.8754  0.7279
 2272SOL    HW118278   2.867   4.059   9.453  0.2646 -0.4207  1.2441
 2272SOL    HW218279   2.876   4.116   9.587 -0.3489  0.6897  0.4410
 2273SOL     OW18280   4.002   3.234   2.227  0.0757  0.0916 -0.2758
 2273SOL    HW118281   4.014   3.244   2.322 -1.7316 -0.9882  0.0691
 2273SOL    HW218282   3.922   3.283   2.208  1.1637  1.2939 -1.7586
 2274SOL     OW18283   1.891   3.768  17.057 -0.1821 -0.1320 -0.4594
 2274SOL    HW118284   1.978   3.730  17.057  1.0206  2.6308 -2.5002
 2274SOL    HW218285   1.868   3.764  16.964  1.7196 -1.5828 -0.8620
 2275SOL     OW18286   1.470   1.346   2.415 -0.6189 -0.2226 -0.4701
 2275SOL    HW118287   1.441   1.268   2.368 -0.9036 -2.1200  2.8332
 2275SOL    HW218288   1.443   1.324   2.504 -1.4524  0.0506 -0.6518
 2276SOL     OW18289   3.263   2.017  11.019  0.1643 -0.1050  0.3460
 2276SOL    HW118290   3.336   1.980  10.969 -0.4932 -0.4524 -0.3538
 2276SOL    HW218291   3.306   2.030  11.103  1.2458  0.0508 -0.2268
 2277SOL     OW18292   3.490   0.348   9.186 -0.3273  0.1305  0.2158
 2277SOL    HW118293   3.511   0.290   9.259  1.9774 -0.3788 -0.8573
 2277SOL    HW218294   3.492   0.430   9.235 -3.6911  0.3189  0.0099
 2278SOL     OW18295   0.531   4.376  14.295 -0.1393  0.6302  0.0603
 2278SOL    HW118296   0.499   4.380  14.205  1.8029  0.8890 -0.6301
 2278SOL    HW218297   0.455   4.419  14.335 -0.9783 -2.7379  2.0498
 2279SOL     OW18298   2.250   3.254   4.811  0.0878 -0.1557 -0.4136
 2279SOL    HW118299   2.255   3.320   4.742  3.0218  0.8306  0.7451
 2279SOL    HW218300   2.278   3.312   4.882  0.1591 -0.4947 -0.1674
 2280SOL     OW18301   1.569   0.536   5.810  0.3734 -0.1484 -0.0568
 2280SOL    HW118302   1.552   0.628   5.788  2.5413 -0.6140 -3.7261
 2280SOL    HW218303   1.660   0.534   5.780  0.6096 -1.0922  0.7517
 2281SOL     OW18304   2.515   3.743   3.378 -0.5690 -0.3402  0.2499
 2281SOL    HW118305   2.565   3.663   3.394 -0.9156 -0.5719  0.1925
 2281SOL    HW218306   2.508   3.735   3.283 -0.0346  1.3669  0.0804
 2282SOL     OW18307   0.208   2.077   9.192  0.0232  0.0219  0.0725
 2282SOL    HW118308   0.298   2.106   9.179 -0.0904  0.7283  0.8489
 2282SOL    HW218309   0.217   2.043   9.281  0.1559  0.6340  0.2965
 2283SOL     OW18310   3.957   3.944  11.733  0.1792  0.4564 -0.0506
 2283SOL    HW118311   4.021   3.969  11.666  1.0491 -1.5693  0.0082
 2283SOL    HW218312   3.898   4.019  11.730  0.6281  0.9402  3.3951
 2284SOL     OW18313   0.461   3.644   8.243 -0.6779  0.3806  0.0774
 2284SOL    HW118314   0.414   3.719   8.280  0.4158  0.4910  1.2060
 2284SOL    HW218315   0.550   3.667   8.267 -0.4207  0.0219 -0.5243
 2285SOL     OW18316   4.518   4.310   6.735  0.6254 -0.0607  0.6660
 2285SOL    HW118317   4.490   4.294   6.644  1.0578  0.8214  0.3776
 2285SOL    HW218318   4.435   4.317   6.783  0.3981  3.5690 -0.1715
 2286SOL     OW18319   1.091   3.215   8.118  0.2074 -0.2558 -0.6924
 2286SOL    HW118320   1.021   3.269   8.154  1.3920 -0.2186  1.5873
 2286SOL    HW218321   1.119   3.168   8.197 -0.7522 -0.4187 -0.4461
 2287SOL     OW18322   3.555   4.323  15.991 -0.3555 -0.0754 -0.2356
 2287SOL    HW118323   3.548   4.336  15.897 -0.7679 -1.7105 -0.4227
 2287SOL    HW218324   3.510   4.400  16.027  3.1985  0.8614  2.2568
 2288SOL     OW18325   0.170   4.108   4.168 -0.0137  0.1817 -0.1894
 2288SOL    HW118326   0.171   4.042   4.237 -1.0737 -0.6578 -0.9669
 2288SOL    HW218327   0.082   4.147   4.171 -0.5480 -0.9029 -1.6990
 2289SOL     OW18328   3.656   4.160   6.955 -1.0117  0.3938 -0.4188
 2289SOL    HW118329   3.634   4.196   6.869  0.1810 -1.2360 -1.4113
 2289SOL    HW218330   3.668   4.065   6.943  1.5647  0.5674  0.6303
 2290SOL     OW18331   4.343   0.097   2.798 -0.5941  0.6946 -0.5119
 2290SOL    HW118332   4.349   0.187   2.767 -1.2606  1.4282  1.5364
 2290SOL    HW218333   4.254   0.075   2.769 -0.4214 -0.2574 -0.3129
 2291SOL     OW18334   3.870   2.608   5.784  0.1884  0.7364  0.3546
 2291SOL    HW118335   3.942   2.663   5.814 -0.2697  1.0849  0.8357
 2291SOL    HW218336   3.796   2.665   5.806 -1.4200 -0.5128 -1.8364
 2292SOL     OW18337   2.418   2.079  17.545 -0.3537 -0.4530  0.2234
 2292SOL    HW118338   2.509   2.085  17.513 -0.3974  2.5405  0.6648
 2292SOL    HW218339   2.384   2.162  17.512  0.3661 -0.0202  0.5760
 2293SOL     OW18340   0.292   0.329   9.347  0.3657 -0.0790  0.4477
 2293SOL    HW118341   0.289   0.299   9.437  1.9510 -0.9818  0.2058
 2293SOL    HW218342   0.212   0.281   9.325 -0.4585  1.6590 -0.3332
 2294SOL     OW18343   1.379   0.321   8.256 -0.1055 -0.4117  0.0767
 2294SOL    HW118344   1.365   0.355   8.344  2.1309 -0.3189  0.3984
 2294SOL    HW218345   1.445   0.255   8.277  0.7543  1.1971  2.4623
 2295SOL     OW18346   4.047   1.716   8.597  0.0344 -0.7371 -0.0972
 2295SOL    HW118347   4.098   1.638   8.616  2.7828  1.4684  1.6848
 2295SOL    HW218348   4.059   1.762   8.680  1.7714 -0.6344 -0.3986
 2296SOL     OW18349   1.241   2.061   1.087 -0.0204 -0.2154 -0.3615
 2296SOL    HW118350   1.174   2.059   1.156  0.5227  0.2165  0.1811
 2296SOL    HW218351   1.280   2.148   1.099 -1.0444  0.2989 -0.7629
 2297SOL     OW18352   4.656   1.890   3.251 -0.3927 -0.2858 -0.2452
 2297SOL    HW118353   4.600   1.861   3.323 -0.4610 -1.3197 -0.7140
 2297SOL    HW218354   4.700   1.962   3.297 -0.1954 -0.8230  0.4103
 2298SOL     OW18355   0.685   3.807   5.216 -0.1660  0.5452  0.2540
 2298SOL    HW118356   0.745   3.763   5.276  0.1297 -1.1076 -1.2320
 2298SOL    HW218357   0.647   3.731   5.171  2.2172  0.6768 -2.0030
 2299SOL     OW18358   3.572   2.546   3.989  0.7342 -0.1702  0.5038
 2299SOL    HW118359   3.601   2.637   3.992 -1.9408  0.7794 -1.5834
 2299SOL    HW218360   3.484   2.549   4.026 -0.1193  3.5574 -1.7971
 2300SOL     OW18361   1.353   0.503   2.434  0.1355 -0.7843 -0.1291
 2300SOL    HW118362   1.280   0.459   2.479  0.1523 -0.0686  0.6106
 2300SOL    HW218363   1.320   0.500   2.345  0.0528  1.0913 -0.1649
 2301SOL     OW18364   1.134   0.191   7.246 -0.7779 -0.0627 -0.2922
 2301SOL    HW118365   1.222   0.184   7.207 -0.0087  0.6214  1.3184
 2301SOL    HW218366   1.147   0.149   7.331 -1.0109 -0.6599 -0.5563
 2302SOL     OW18367   2.964   1.224   6.539 -0.2422 -0.5410 -0.1359
 2302SOL    HW118368   2.935   1.163   6.471 -0.8272 -1.7018  1.1615
 2302SOL    HW218369   2.880   1.247   6.579  0.6017  1.7497  0.2983
 2303SOL     OW18370   3.751   2.733  12.794 -0.2438  0.3243 -0.1047
 2303SOL    HW118371   3.715   2.821  12.805  0.4783  0.7847 -1.3389
 2303SOL    HW218372   3.770   2.735  12.700  0.1892 -1.6572 -0.0484
 2304SOL     OW18373   2.162   1.510   2.645  0.2625 -0.0786  0.2098
 2304SOL    HW118374   2.097   1.471   2.704 -1.4115  2.2413 -0.0995
 2304SOL    HW218375   2.130   1.600   2.651 -0.4125 -0.5639  4.2938
 2305SOL     OW18376   4.401   4.638  13.765 -0.0841  0.3418 -0.0502
 2305SOL    HW118377   4.435   4.568  13.709  0.5583  1.6944 -1.3236
 2305SOL    HW218378   4.387   4.710  13.704  0.3897  0.8622  0.4566
 2306SOL     OW18379   3.117   1.499   6.702  0.2617 -0.0371  0.2013
 2306SOL    HW118380   3.098   1.496   6.796 -3.4907  2.5091 -0.4924
 2306SOL    HW218381   3.125   1.407   6.675  1.0987 -0.0366  0.4393
 2307SOL     OW18382   1.238   3.998   4.738 -0.5068 -0.1568 -0.2219
 2307SOL    HW118383   1.333   3.990   4.748 -0.4788 -0.4713 -0.7059
 2307SOL    HW218384   1.214   3.907   4.754 -0.4306  0.2776  2.2917
 2308SOL     OW18385   0.674   3.386   3.919  0.0957  0.4357 -0.3975
 2308SOL    HW118386   0.767   3.409   3.914  0.8877 -2.6471 -0.3309
 2308SOL    HW218387   0.626   3.452   3.870 -2.4741 -1.7237 -0.8229
 2309SOL     OW18388   3.497   3.236  16.882 -0.2379  0.6267  0.5774
 2309SOL    HW118389   3.572   3.267  16.934  0.4030  1.5153 -0.8707
 2309SOL    HW218390   3.437   3.220  16.955  1.4277  1.0336  2.0458
 2310SOL     OW18391   0.920   2.814   8.768  0.0443  0.0453 -0.0348
 2310SOL    HW118392   0.888   2.847   8.853  0.3070  0.3610 -0.0566
 2310SOL    HW218393   0.904   2.720   8.772 -1.4446  0.3386  1.3727
 2311SOL     OW18394   0.760   1.713   8.670 -0.3511 -0.3854  0.2198
 2311SOL    HW118395   0.725   1.644   8.614  0.1762 -0.3936 -0.0958
 2311SOL    HW218396   0.826   1.667   8.721  0.4267 -0.1849 -0.6146
 2312SOL     OW18397   0.627   2.884   7.480  0.3441  0.0050 -0.3966
 2312SOL    HW118398   0.640   2.843   7.395  1.0383 -2.5624  0.9730
 2312SOL    HW218399   0.639   2.979   7.476 -0.5703  0.0280 -2.2786
 2313SOL     OW18400   0.876   4.032   1.286 -0.7445 -0.1763 -0.1834
 2313SOL    HW118401   0.925   3.965   1.334 -0.9965  1.0486  1.7846
 2313SOL    HW218402   0.834   3.969   1.228 -0.9345 -0.0951 -0.1363
 2314SOL     OW18403   1.400   3.267  14.017  0.4442  0.0482  0.2420
 2314SOL    HW118404   1.473   3.277  13.956  0.1627 -1.9281 -0.4186
 2314SOL    HW218405   1.434   3.183  14.049 -1.6839 -1.0021 -0.2640
 2315SOL     OW18406   0.103   0.310  17.223 -0.4619  0.6343 -0.8748
 2315SOL    HW118407   0.151   0.321  17.305 -1.1820 -0.7336 -0.2708
 2315SOL    HW218408   0.153   0.377  17.176  0.6479  1.9641  2.1923
 2316SOL     OW18409   1.527   0.359   2.085 -0.3668  0.0069  0.1980
 2316SOL    HW118410   1.547   0.312   2.166  2.9680  0.0540 -0.5946
 2316SOL    HW218411   1.443   0.400   2.108  0.1715  0.2044  1.8296
 2317SOL     OW18412   3.356   3.771   6.095 -0.0686  0.0853  0.0550
 2317SOL    HW118413   3.343   3.745   6.186 -1.8020 -1.4961 -0.6443
 2317SOL    HW218414   3.301   3.716   6.039 -0.5729 -0.3315  0.9484
 2318SOL     OW18415   3.250   3.568   5.763 -0.1618  0.0349  0.4555
 2318SOL    HW118416   3.290   3.517   5.833 -0.8330  0.8573  1.4484
 2318SOL    HW218417   3.186   3.614   5.818 -1.2601  0.2689 -1.0159
 2319SOL     OW18418   2.101   1.911   5.891  0.4284  0.3259 -0.0507
 2319SOL    HW118419   2.175   1.969   5.907  1.1751 -0.4347 -0.7743
 2319SOL    HW218420   2.064   1.896   5.978 -0.7420 -0.4338 -0.6772
 2320SOL     OW18421   2.295   4.472   3.109 -0.2540  0.6106 -0.2713
 2320SOL    HW118422   2.347   4.549   3.132  0.4027 -0.0401  0.4256
 2320SOL    HW218423   2.220   4.519   3.071 -0.3689 -1.0310 -2.1178
 2321SOL     OW18424   3.614   2.340  13.866  0.2145  0.2830  0.4456
 2321SOL    HW118425   3.635   2.329  13.773  0.5772  0.4142  0.5102
 2321SOL    HW218426   3.531   2.292  13.868  0.1666  0.3371 -0.1900
 2322SOL     OW18427   0.591   3.015   2.544  0.3157  0.3155  0.3555
 2322SOL    HW118428   0.499   2.993   2.553  0.7252 -1.6436 -0.1161
 2322SOL    HW218429   0.600   3.062   2.627  0.0264  2.7247 -0.9977
 2323SOL     OW18430   1.387   4.139   5.231  0.4823 -0.3377 -0.0988
 2323SOL    HW118431   1.322   4.082   5.189  0.7056 -1.3967  0.9736
 2323SOL    HW218432   1.401   4.091   5.313  2.1938 -0.7506 -0.6378
 2324SOL     OW18433   0.375   4.161   4.744  0.0012 -0.2685 -0.1528
 2324SOL    HW118434   0.291   4.170   4.789 -0.9046 -2.2042 -1.4461
 2324SOL    HW218435   0.428   4.221   4.797 -0.1600  2.1830 -2.7718
 2325SOL     OW18436   2.648   3.392  10.118  0.2042 -0.7210  0.0256
 2325SOL    HW118437   2.696   3.459  10.069  0.3593 -0.7214  0.1789
 2325SOL    HW218438   2.711   3.341  10.169  1.8665  0.3909 -0.9123
 2326SOL     OW18439   1.982   0.738   3.454  0.7300 -0.0999  0.4187
 2326SOL    HW118440   1.990   0.833   3.457  0.6527 -0.0970  0.5239
 2326SOL    HW218441   1.889   0.744   3.432  0.6979 -0.9623  0.3238
 2327SOL     OW18442   3.979   3.846   3.412 -0.4912  0.1253 -0.0281
 2327SOL    HW118443   3.968   3.930   3.369  2.4538  0.6813  0.3037
 2327SOL    HW218444   4.072   3.859   3.429 -0.2962 -1.2142 -0.0692
 2328SOL     OW18445   1.504   0.071   1.930  0.3453 -0.1024  0.4241
 2328SOL    HW118446   1.470   0.150   1.972 -0.8737 -0.1087 -0.5371
 2328SOL    HW218447   1.492   0.084   1.836  0.3181 -2.6142  0.0685
 2329SOL     OW18448   1.226   0.271  10.990 -0.0180  0.2130 -0.6899
 2329SOL    HW118449   1.144   0.316  10.971  0.3257  0.1313 -2.4228
 2329SOL    HW218450   1.283   0.346  11.009 -0.0373  0.6772 -2.4243
 2330SOL     OW18451   3.546   4.361   4.212  0.3650  0.3543  0.9018
 2330SOL    HW118452   3.631   4.317   4.220  1.7206  2.9182  0.6605
 2330SOL    HW218453   3.505   4.356   4.299 -4.3112  2.1538 -1.1823
 2331SOL     OW18454   1.014   1.843   4.938 -0.2132  0.6212 -0.1377
 2331SOL    HW118455   1.075   1.909   4.904 -1.0255  1.3153 -0.2611
 2331SOL    HW218456   0.930   1.855   4.893 -0.6265 -0.8991  0.2146
 2332SOL     OW18457   0.934   2.042   3.791  0.2714  0.2262 -0.4721
 2332SOL    HW118458   0.874   2.050   3.717  0.5925  1.8429 -0.5532
 2332SOL    HW218459   0.903   2.121   3.836 -1.2862  0.0362 -1.2118
 2333SOL     OW18460   1.013   1.355  10.103  0.6668 -0.4298  0.3880
 2333SOL    HW118461   0.922   1.384  10.109 -0.0247 -1.8566 -3.2044
 2333SOL    HW218462   1.010   1.297  10.179  0.1974 -1.9120 -0.7678
 2334SOL     OW18463   0.241   4.057   5.960  0.1078  0.5949  0.4876
 2334SOL    HW118464   0.221   3.991   6.026 -0.7604  1.6549  1.2793
 2334SOL    HW218465   0.184   4.130   5.986  1.5649  2.0481 -0.3731
 2335SOL     OW18466   1.473   0.542   6.055 -0.4168  0.1849 -0.1590
 2335SOL    HW118467   1.424   0.459   6.056  2.6776 -1.6389  0.3203
 2335SOL    HW218468   1.514   0.539   5.969 -0.3645  1.0540 -0.1615
 2336SOL     OW18469   0.745   4.327   5.252 -0.1274  0.1710  0.3217
 2336SOL    HW118470   0.663   4.306   5.296 -0.7274  0.8717 -0.4875
 2336SOL    HW218471   0.769   4.240   5.219 -1.9111  0.7980 -2.5579
 2337SOL     OW18472   3.994   2.571   3.519  0.4023 -0.2557  0.8532
 2337SOL    HW118473   4.090   2.577   3.523  0.4635 -0.6163 -0.0984
 2337SOL    HW218474   3.971   2.643   3.578 -0.9598 -0.9778  1.1880
 2338SOL     OW18475   2.560   2.243  13.091  0.1109 -0.0417 -0.1638
 2338SOL    HW118476   2.542   2.332  13.119  2.6600  0.3987  0.0693
 2338SOL    HW218477   2.651   2.248  13.063 -0.6808 -0.4685 -2.8483
 2339SOL     OW18478   2.622   1.850   6.267 -0.5497  0.2681 -0.4133
 2339SOL    HW118479   2.591   1.919   6.326 -1.1120  0.5288 -1.0201
 2339SOL    HW218480   2.612   1.888   6.180  1.0530  0.1930 -0.6292
 2340SOL     OW18481   0.932   0.585  14.693 -0.8265  0.0459 -0.1468
 2340SOL    HW118482   0.881   0.660  14.724 -0.0736  1.5697 -2.5538
 2340SOL    HW218483   1.021   0.620  14.684 -0.2864 -0.6987  2.2323
 2341SOL     OW18484   3.464   2.175   8.386 -0.2425 -0.3902  0.1584
 2341SOL    HW118485   3.511   2.190   8.304 -0.7880  1.7712  0.2386
 2341SOL    HW218486   3.518   2.229   8.443  0.2459 -2.2936  1.5134
 2342SOL     OW18487   3.305   0.118   8.383 -0.3768  0.2104  0.2499
 2342SOL    HW118488   3.359   0.123   8.462  0.4776 -2.5466 -0.1444
 2342SOL    HW218489   3.248   0.194   8.397 -1.6302 -0.7036  0.1049
 2343SOL     OW18490   3.538   2.134   6.098 -0.1733  0.4065 -0.3151
 2343SOL    HW118491   3.516   2.104   6.010  0.2505 -1.7025  0.2925
 2343SOL    HW218492   3.633   2.130   6.089 -0.2676  1.2233 -1.5639
 2344SOL     OW18493   2.856   4.213   2.518  0.2530  0.0652  0.0339
 2344SOL    HW118494   2.872   4.156   2.594  4.0989  1.5781  0.3350
 2344SOL    HW218495   2.888   4.162   2.444  0.5007  0.5760 -0.2059
 2345SOL     OW18496   2.037   2.568   3.762  0.2786 -0.1373 -0.0914
 2345SOL    HW118497   1.957   2.558   3.711  0.0510 -0.4655  0.3273
 2345SOL    HW218498   2.003   2.568   3.852 -0.5057  0.9610 -0.3817
 2346SOL     OW18499   1.146   4.064   1.810  0.2169  0.3810  0.2288
 2346SOL    HW118500   1.202   4.101   1.742 -0.5210  1.0526 -0.0145
 2346SOL    HW218501   1.068   4.116   1.790  2.3196  3.8566  1.0488
 2347SOL     OW18502   3.125   1.566   5.399 -0.4029  0.3867 -0.1159
 2347SOL    HW118503   3.126   1.534   5.490 -1.4772  0.6878  0.0007
 2347SOL    HW218504   3.073   1.498   5.357 -0.9216  0.2598  0.7397
 2348SOL     OW18505   3.662   1.167  16.011  0.2443  0.0255 -0.2679
 2348SOL    HW118506   3.685   1.089  16.061  1.6808 -0.5811 -1.8651
 2348SOL    HW218507   3.640   1.135  15.923 -1.9440  2.2715 -0.5296
 2349SOL     OW18508   1.192   1.560   7.202 -0.4046  0.1144 -0.3378
 2349SOL    HW118509   1.197   1.655   7.205 -1.3028  0.1260  1.0414
 2349SOL    HW218510   1.271   1.553   7.255 -1.3484 -0.2547  1.0424
 2350SOL     OW18511   2.138   4.090   7.108  0.4463 -0.1124  0.4323
 2350SOL    HW118512   2.122   4.107   7.015  1.7798  3.5511  0.8763
 2350SOL    HW218513   2.083   4.160   7.143  0.5098  0.5829 -0.8372
 2351SOL     OW18514   1.012   1.636  14.248 -0.6873 -0.4992  0.1671
 2351SOL    HW118515   1.050   1.720  14.273  0.1556 -0.6947 -0.4541
 2351SOL    HW218516   1.071   1.570  14.286  1.0302  0.2546 -1.1747
 2352SOL     OW18517   2.510   0.723   8.265  0.3343  0.0301  0.0143
 2352SOL    HW118518   2.508   0.628   8.276 -1.3421 -0.0425 -0.9177
 2352SOL    HW218519   2.545   0.752   8.349 -0.9788  2.5899 -0.3036
 2353SOL     OW18520   2.338   0.727   0.147  0.0757 -0.4384  0.4578
 2353SOL    HW118521   2.415   0.745   0.093 -0.8215 -2.4831 -1.5328
 2353SOL    HW218522   2.292   0.655   0.104  0.0466  1.0889 -2.0744
 2354SOL     OW18523   4.404   3.907   5.895  0.2144 -0.1220  0.3936
 2354SOL    HW118524   4.394   3.936   5.986  0.5461  0.7711  0.1500
 2354SOL    HW218525   4.499   3.913   5.883  0.3600 -0.8659  1.1359
 2355SOL     OW18526   0.175   3.987   1.244 -0.3167  0.1465  0.6176
 2355SOL    HW118527   0.116   3.963   1.173 -1.4737 -1.1030  1.9803
 2355SOL    HW218528   0.261   3.977   1.203  0.2517  0.4266  1.7444
 2356SOL     OW18529   1.147   3.307   7.041  0.4311 -0.1057  0.8013
 2356SOL    HW118530   1.058   3.308   7.076  1.1197 -1.9974  2.6254
 2356SOL    HW218531   1.135   3.248   6.966 -1.4546  2.0849 -0.5950
 2357SOL     OW18532   3.375   4.279   2.708  0.1724 -0.2991 -0.0634
 2357SOL    HW118533   3.301   4.293   2.649  1.8915 -0.2351 -2.2125
 2357SOL    HW218534   3.332   4.239   2.783  0.5805 -1.9874 -0.7297
 2358SOL     OW18535   3.034   3.542   6.462  0.2739 -0.2585  0.0996
 2358SOL    HW118536   3.070   3.466   6.508  0.6657 -1.0170 -1.4435
 2358SOL    HW218537   2.999   3.589   6.537 -1.1353  0.2426 -0.8703
 2359SOL     OW18538   0.372   2.291  13.384  0.2845 -0.2974  0.2100
 2359SOL    HW118539   0.298   2.294  13.444 -0.2048  0.1604 -0.4168
 2359SOL    HW218540   0.423   2.370  13.403  0.3953  0.0195 -1.4023
 2360SOL     OW18541   1.444   3.206   6.027 -0.4723  0.0984  0.0704
 2360SOL    HW118542   1.520   3.193   5.970 -0.3821  2.0350 -0.2550
 2360SOL    HW218543   1.462   3.131   6.083 -0.3256 -0.3367 -0.5672
 2361SOL     OW18544   1.058   3.032   5.554  0.0328 -0.0026 -0.0131
 2361SOL    HW118545   1.072   2.953   5.606 -1.6918  0.0199  0.4970
 2361SOL    HW218546   1.115   3.098   5.595 -0.3079  1.3463 -1.6811
 2362SOL     OW18547   1.172   0.459   5.529  0.6515 -0.8883 -0.0217
 2362SOL    HW118548   1.141   0.369   5.516  0.6594 -1.2181  2.2028
 2362SOL    HW218549   1.195   0.469   5.621 -1.5050  2.8062  0.0830
 2363SOL     OW18550   4.264   1.577  15.223  0.3635 -0.0204 -0.0779
 2363SOL    HW118551   4.216   1.589  15.141  0.9760  0.4427 -0.3745
 2363SOL    HW218552   4.196   1.573  15.290  2.3628  0.1223  1.9631
 2364SOL     OW18553   0.105   4.472  14.294  0.4143  0.1411 -0.1433
 2364SOL    HW118554   0.053   4.525  14.355  0.5507  0.2643 -0.1336
 2364SOL    HW218555   0.183   4.467  14.349  0.4426 -1.1316 -0.3021
 2365SOL     OW18556   1.062   4.005   6.707  0.0851 -0.1606 -0.6277
 2365SOL    HW118557   1.123   3.942   6.746  0.4558  1.1591  0.9042
 2365SOL    HW218558   1.016   3.949   6.645  1.8021 -1.2823 -0.9007
 2366SOL     OW18559   0.257   0.159  12.583 -0.0403 -0.3707 -0.3079
 2366SOL    HW118560   0.290   0.224  12.521 -0.1565 -0.7251 -0.7406
 2366SOL    HW218561   0.334   0.102  12.574  0.1006 -0.4401  1.4728
 2367SOL     OW18562   2.261   0.993   0.267  0.3135  0.7997  0.2375
 2367SOL    HW118563   2.333   0.997   0.204  0.3103 -2.7372  0.0058
 2367SOL    HW218564   2.187   0.948   0.227  0.8356  0.0338  0.1356
 2368SOL     OW18565   3.681   0.398  13.918 -0.3717 -0.0238  0.2861
 2368SOL    HW118566   3.736   0.438  13.851 -2.6459 -0.1208 -1.6251
 2368SOL    HW218567   3.708   0.307  13.908 -1.1005 -0.1247 -0.7894
 2369SOL     OW18568   0.140   3.272   4.712  0.3884 -0.3142 -0.3390
 2369SOL    HW118569   0.095   3.286   4.796  1.4904  1.1981  0.0112
 2369SOL    HW218570   0.144   3.176   4.717 -0.1498 -0.2498  1.5267
 2370SOL     OW18571   2.839   3.289   4.534  0.2187 -0.1541 -0.1486
 2370SOL    HW118572   2.873   3.379   4.536  0.1999 -0.1471 -0.1441
 2370SOL    HW218573   2.769   3.289   4.598  0.3635 -2.9623 -0.0115
 2371SOL     OW18574   1.353   0.843   7.626  0.2578  0.0771  0.3174
 2371SOL    HW118575   1.358   0.927   7.672  2.0325  0.2057 -0.1064
 2371SOL    HW218576   1.439   0.801   7.635  0.0984 -0.8634 -2.6346
 2372SOL     OW18577   3.365   1.488  10.725 -0.2817  0.1847  0.3985
 2372SOL    HW118578   3.291   1.529  10.772 -1.0648 -0.6474 -0.1218
 2372SOL    HW218579   3.320   1.427  10.667 -1.1006  1.3987 -0.2527
 2373SOL     OW18580   1.998   1.592   2.951 -0.1121  0.1303 -0.3429
 2373SOL    HW118581   1.986   1.646   3.029  2.5576 -1.5928  1.2951
 2373SOL    HW218582   1.914   1.568   2.912 -0.2604 -2.0144  1.2881
 2374SOL     OW18583   1.928   3.377   2.324 -0.3873  0.0843 -0.0429
 2374SOL    HW118584   2.009   3.428   2.317  0.3176 -1.1476 -0.7438
 2374SOL    HW218585   1.921   3.329   2.242 -1.7183 -0.5171  0.4321
 2375SOL     OW18586   4.166   0.261   8.727 -0.3599 -0.1468  0.0201
 2375SOL    HW118587   4.240   0.256   8.788  0.1667  4.0081 -0.2861
 2375SOL    HW218588   4.189   0.343   8.682  0.8344 -1.4629 -1.8028
 2376SOL     OW18589   3.173   3.475   1.643  0.0805  0.0884 -0.5998
 2376SOL    HW118590   3.233   3.549   1.634 -0.6353  0.7482 -0.0615
 2376SOL    HW218591   3.149   3.480   1.736  0.2010 -1.5464 -0.4945
 2377SOL     OW18592   2.398   0.650   1.128  0.3440 -0.1142  0.0558
 2377SOL    HW118593   2.324   0.631   1.185 -0.4178 -0.6348 -1.0928
 2377SOL    HW218594   2.468   0.684   1.183 -0.3025 -2.2800  2.1892
 2378SOL     OW18595   3.363   2.517   6.878 -0.0872 -0.1297  0.1921
 2378SOL    HW118596   3.291   2.455   6.867 -2.5358  2.5647  0.9234
 2378SOL    HW218597   3.412   2.516   6.795 -0.7414 -0.6185 -0.1868
 2379SOL     OW18598   0.886   1.092  13.061  0.8893 -0.5739  0.0569
 2379SOL    HW118599   0.873   1.182  13.091  0.5192 -0.3897 -0.6405
 2379SOL    HW218600   0.961   1.108  13.004  0.9634  0.1042  0.3440
 2380SOL     OW18601   4.549   1.378   8.352  0.1182 -0.0227  0.8417
 2380SOL    HW118602   4.626   1.407   8.401  0.1286  0.6003  0.4572
 2380SOL    HW218603   4.561   1.283   8.355 -0.2276 -0.0827  0.1997
 2381SOL     OW18604   0.939   3.769   7.863 -0.0580  0.2157  0.3878
 2381SOL    HW118605   0.929   3.777   7.768 -1.5143  0.0592  0.5227
 2381SOL    HW218606   0.919   3.858   7.890  0.8434  0.9910 -1.5079
 2382SOL     OW18607   1.826   0.598   3.994 -0.3284  0.1167  0.1659
 2382SOL    HW118608   1.841   0.598   3.900 -0.0829  0.4467  0.2058
 2382SOL    HW218609   1.838   0.692   4.007  0.9889 -0.3377  2.2586
 2383SOL     OW18610   0.235   0.985   3.368  0.5579  0.5016  0.0450
 2383SOL    HW118611   0.306   0.941   3.414  0.6705 -0.4350 -1.0132
 2383SOL    HW218612   0.265   1.076   3.375  0.9194  0.4732 -1.0774
 2384SOL     OW18613   3.544   4.406   5.249  0.2496  0.1084  0.1711
 2384SOL    HW118614   3.566   4.317   5.222 -3.8949 -0.5317 -1.0936
 2384SOL    HW218615   3.467   4.428   5.196  0.3214 -0.3273 -0.1160
 2385SOL     OW18616   3.900   0.248   4.623  0.1619 -0.2120 -0.1471
 2385SOL    HW118617   3.826   0.212   4.673  0.3684  0.9919  1.0139
 2385SOL    HW218618   3.906   0.332   4.667  1.0441 -0.7930  0.8181
 2386SOL     OW18619   1.582   2.441  12.500 -0.0228 -0.0731 -0.2620
 2386SOL    HW118620   1.548   2.452  12.411 -0.6380  0.2282  0.0110
 2386SOL    HW218621   1.672   2.431  12.468 -0.0505 -0.0588 -0.3463
 2387SOL     OW18622   2.657   1.330   5.819  0.4956  0.0650 -0.1206
 2387SOL    HW118623   2.567   1.329   5.787 -0.2070  0.3655  1.8192
 2387SOL    HW218624   2.702   1.315   5.736 -2.4158  1.5605 -2.0116
 2388SOL     OW18625   2.819   3.359  10.555  0.0576  0.6622  0.0926
 2388SOL    HW118626   2.875   3.421  10.509 -0.1985 -0.5526 -1.8712
 2388SOL    HW218627   2.766   3.423  10.602 -0.2056  1.2281 -0.9765
 2389SOL     OW18628   2.414   4.635   5.677  0.4182  0.6727 -0.0318
 2389SOL    HW118629   2.356   4.573   5.721  2.1641 -1.2429 -0.4074
 2389SOL    HW218630   2.484   4.574   5.651  1.0229  0.6249  1.7601
 2390SOL     OW18631   1.497   3.241   2.331  0.4806 -0.3773 -0.1575
 2390SOL    HW118632   1.520   3.149   2.325  1.0730 -0.1973 -0.6552
 2390SOL    HW218633   1.473   3.250   2.424 -0.5520  0.2727 -0.4865
 2391SOL     OW18634   1.261   4.474  14.560 -0.2262  0.5046 -0.5798
 2391SOL    HW118635   1.173   4.437  14.561 -1.3249  3.1248  0.7497
 2391SOL    HW218636   1.251   4.570  14.562  2.7592  0.7989  0.0482
 2392SOL     OW18637   3.569   2.965  15.263 -0.2722 -0.6380 -0.1861
 2392SOL    HW118638   3.616   3.033  15.311 -1.4929 -0.0234  0.1074
 2392SOL    HW218639   3.498   3.019  15.228 -1.2960 -1.9499 -0.1089
 2393SOL     OW18640   4.512   3.061   5.650  0.3234 -0.2700  0.8814
 2393SOL    HW118641   4.449   2.994   5.622 -0.4323 -0.9095  4.1089
 2393SOL    HW218642   4.544   3.023   5.731 -0.7922 -5.0970 -0.9714
 2394SOL     OW18643   1.837   3.496  12.443 -0.0602  0.4917  0.4603
 2394SOL    HW118644   1.789   3.552  12.505 -0.8299 -0.5338  0.7958
 2394SOL    HW218645   1.800   3.408  12.455  0.9016 -0.1286 -1.2116
 2395SOL     OW18646   1.576   4.301   2.541  0.3118 -0.7127 -0.2492
 2395SOL    HW118647   1.652   4.350   2.509 -0.9107  1.7252  0.5207
 2395SOL    HW218648   1.553   4.267   2.454  1.7859  1.9397 -1.6936
 2396SOL     OW18649   4.300   3.625  12.584  0.5456  0.1557  0.1575
 2396SOL    HW118650   4.268   3.710  12.615  1.0798  0.3788  0.1040
 2396SOL    HW218651   4.220   3.575  12.568  0.6254  0.2064 -0.3857
 2397SOL     OW18652   3.628   2.360   4.419 -0.2145  0.2541  0.8825
 2397SOL    HW118653   3.655   2.441   4.376  2.6238 -1.0833  0.1489
 2397SOL    HW218654   3.537   2.368   4.392 -0.4094 -0.0545  1.4643
 2398SOL     OW18655   1.965   2.814   3.103  0.3600  0.0183 -0.6936
 2398SOL    HW118656   1.951   2.884   3.040 -0.1043  0.7642  0.2510
 2398SOL    HW218657   1.977   2.736   3.048  1.6836  0.1098 -0.5319
 2399SOL     OW18658   4.105   0.617   5.316  0.4646  0.5857  0.3612
 2399SOL    HW118659   4.075   0.578   5.234  1.7432  0.0917  0.1209
 2399SOL    HW218660   4.024   0.662   5.339 -0.1691  0.0815 -0.9001
 2400SOL     OW18661   2.883   0.111   5.325 -0.4440 -0.0580  0.4488
 2400SOL    HW118662   2.941   0.102   5.401  2.5678  2.8113 -1.5295
 2400SOL    HW218663   2.794   0.104   5.358 -1.0190  1.1962 -0.8390
 2401SOL     OW18664   0.940   2.889  11.816 -0.5298  0.2159  0.0260
 2401SOL    HW118665   0.886   2.904  11.893 -1.6824  2.5673 -1.2403
 2401SOL    HW218666   0.935   2.977  11.779  0.2871  0.2229 -0.0480
 2402SOL     OW18667   1.361   3.456  11.395  0.0172  0.5377  0.1194
 2402SOL    HW118668   1.355   3.371  11.439  2.5589  1.0385  1.4301
 2402SOL    HW218669   1.282   3.461  11.342  0.4427  2.2293 -0.3703
 2403SOL     OW18670   1.492   3.688   4.110  0.2712 -0.2448  0.2675
 2403SOL    HW118671   1.513   3.637   4.032  1.8225 -0.1221  0.5963
 2403SOL    HW218672   1.465   3.774   4.078  0.2861 -0.6379 -0.7860
 2404SOL     OW18673   1.431   3.148   0.345 -0.1296  0.5480 -0.1645
 2404SOL    HW118674   1.336   3.147   0.330 -0.2606 -0.0996  0.6781
 2404SOL    HW218675   1.451   3.066   0.390 -0.2884 -0.1430 -1.3297
 2405SOL     OW18676   1.748   1.766  11.998 -0.0840  0.3930  0.4614
 2405SOL    HW118677   1.678   1.825  11.971 -1.7339 -1.8720 -0.1978
 2405SOL    HW218678   1.743   1.695  11.934  0.7793  0.2252  0.5797
 2406SOL     OW18679   4.570   0.959  12.184  0.2730  0.0038  0.6453
 2406SOL    HW118680   4.583   1.053  12.201 -1.1952  0.2940  0.1438
 2406SOL    HW218681   4.476   0.962  12.199  0.4316  1.5675  1.3157
 2407SOL     OW18682   2.232   0.989  14.049  0.2361  0.2670  0.3452
 2407SOL    HW118683   2.191   0.909  14.016 -0.4534  1.1589 -0.9846
 2407SOL    HW218684   2.164   1.051  14.024  0.1162 -0.3892 -0.9465
 2408SOL     OW18685   1.890   0.303  15.388  0.1177  0.0245  0.8798
 2408SOL    HW118686   1.799   0.276  15.373 -0.0046  0.2795  1.1746
 2408SOL    HW218687   1.878   0.365  15.459  0.7617 -0.7229  1.6284
 2409SOL     OW18688   0.332   2.197   2.552  0.2050  0.5178 -0.3015
 2409SOL    HW118689   0.313   2.227   2.641 -0.6097 -0.6254 -0.0931
 2409SOL    HW218690   0.353   2.275   2.501  2.6851  0.1169  0.0980
 2410SOL     OW18691   1.066   0.652  14.406  0.1242  0.3086  0.3903
 2410SOL    HW118692   1.043   0.706  14.482 -2.5771  1.8056 -1.5113
 2410SOL    HW218693   1.098   0.717  14.344 -1.2127 -0.1665 -0.8002
 2411SOL     OW18694   3.269   4.185   2.961  0.1153  0.5108 -0.1103
 2411SOL    HW118695   3.313   4.120   3.015  2.4995  1.6865 -0.6172
 2411SOL    HW218696   3.232   4.252   3.019  2.5832  0.5355  1.4314
 2412SOL     OW18697   0.928   1.300   6.731  0.2646 -0.1466 -0.2718
 2412SOL    HW118698   1.015   1.327   6.759  1.3838 -3.0694 -1.0662
 2412SOL    HW218699   0.873   1.376   6.754  2.7537  0.4749  3.5641
 2413SOL     OW18700   3.783   3.038   6.996 -0.2415 -0.1943 -0.0250
 2413SOL    HW118701   3.727   3.094   6.943 -3.5856 -3.2195  0.2872
 2413SOL    HW218702   3.773   2.955   6.949 -1.8193  0.4317 -0.7959
 2414SOL     OW18703   0.129   4.404   4.675  0.8152 -0.3904  0.3580
 2414SOL    HW118704   0.039   4.398   4.646  1.3357 -0.2314 -1.2848
 2414SOL    HW218705   0.136   4.348   4.753 -0.5781 -0.8736  0.1294
 2415SOL     OW18706   4.343   0.833   3.535  0.3184 -0.3479  0.8299
 2415SOL    HW118707   4.387   0.839   3.620 -2.1696 -4.5207  2.4108
 2415SOL    HW218708   4.410   0.801   3.475  0.9093  1.3080  0.6190
 2416SOL     OW18709   1.163   2.937   7.066  0.1244  1.2335  0.3163
 2416SOL    HW118710   1.224   2.885   7.118 -0.8774 -1.4944 -1.2502
 2416SOL    HW218711   1.110   2.973   7.137 -0.2856 -1.0288  1.1342
 2417SOL     OW18712   3.891   1.494   0.784 -0.5042  0.1052  0.0477
 2417SOL    HW118713   3.805   1.489   0.824 -0.4084  1.4203  0.4063
 2417SOL    HW218714   3.943   1.442   0.845  1.1508  2.1562  0.3927
 2418SOL     OW18715   0.326   3.539  16.239 -0.5269 -0.5712  0.2273
 2418SOL    HW118716   0.371   3.456  16.223 -1.5825 -0.8830 -1.0433
 2418SOL    HW218717   0.242   3.522  16.198 -0.5574  0.7471 -0.2660
 2419SOL     OW18718   3.868   3.705  10.097 -0.1199  0.0862  0.4657
 2419SOL    HW118719   3.834   3.660  10.174 -1.9981 -2.3833 -1.8130
 2419SOL    HW218720   3.836   3.791  10.123  1.7323 -0.0286  3.2470
 2420SOL     OW18721   3.016   0.541   6.640  0.0678  0.3153 -0.1622
 2420SOL    HW118722   3.098   0.549   6.592 -0.1245 -2.2316 -0.9173
 2420SOL    HW218723   3.010   0.448   6.662 -0.1706  0.7953  1.8092
 2421SOL     OW18724   0.907   4.629  16.139 -0.1074 -0.0192 -0.5413
 2421SOL    HW118725   0.861   4.646  16.057  1.6584  0.0081 -1.5347
 2421SOL    HW218726   0.836   4.648  16.199  0.5109 -0.9083  0.4582
 2422SOL     OW18727   2.222   0.407   3.171  0.4445 -0.2556  0.5106
 2422SOL    HW118728   2.138   0.387   3.213  0.7598 -0.2480  1.1479
 2422SOL    HW218729   2.224   0.344   3.099 -1.2020  0.7028 -0.3665
 2423SOL     OW18730   1.961   2.346   8.882 -0.0192 -0.0948  0.2133
 2423SOL    HW118731   2.008   2.276   8.837 -1.0845 -1.2326  0.8376
 2423SOL    HW218732   2.028   2.410   8.903 -1.1169  1.7110 -1.8552
 2424SOL     OW18733   3.880   0.900   3.051 -0.0080  0.0127  0.0010
 2424SOL    HW118734   3.938   0.916   2.976  0.0891 -1.3111 -0.1926
 2424SOL    HW218735   3.911   0.962   3.118 -1.8505 -0.7537  1.5388
 2425SOL     OW18736   2.768   3.574   7.479 -0.0091  0.1796 -0.0439
 2425SOL    HW118737   2.780   3.556   7.385  3.2912  2.5777 -0.0820
 2425SOL    HW218738   2.859   3.576   7.508 -0.3602 -1.8362  1.1951
 2426SOL     OW18739   4.376   0.609  14.808 -0.8903  0.4120  0.5193
 2426SOL    HW118740   4.381   0.555  14.729 -0.5458 -0.6699  1.2804
 2426SOL    HW218741   4.451   0.571  14.854 -2.9411 -2.6977  1.3532
 2427SOL     OW18742   4.554   0.532  16.729  0.2142  0.7625 -0.0589
 2427SOL    HW118743   4.487   0.478  16.771  0.8811  0.9427  1.2149
 2427SOL    HW218744   4.549   0.474  16.652 -1.3969  0.2387  0.4509
 2428SOL     OW18745   1.859   4.085   2.511  0.3276 -0.2317 -0.0165
 2428SOL    HW118746   1.870   4.059   2.602  0.6500  0.9812  0.2797
 2428SOL    HW218747   1.943   4.058   2.473  0.9926  2.5080 -0.4479
 2429SOL     OW18748   1.336   1.811   2.175  0.2150  0.2460 -0.1512
 2429SOL    HW118749   1.297   1.891   2.212  1.9783  1.1429 -0.1980
 2429SOL    HW218750   1.335   1.838   2.083  0.3267  0.0465 -0.2098
 2430SOL     OW18751   3.639   3.276   3.738 -0.6064 -0.1273  0.2797
 2430SOL    HW118752   3.653   3.324   3.820 -2.0008  2.4741 -0.9847
 2430SOL    HW218753   3.686   3.330   3.674 -0.7169  1.5633  1.6381
 2431SOL     OW18754   0.683   1.403  14.326 -0.1318  0.4395  0.4874
 2431SOL    HW118755   0.597   1.388  14.287  0.3761 -0.2497 -0.3757
 2431SOL    HW218756   0.718   1.315  14.340 -0.7649  0.1788  0.4495
 2432SOL     OW18757   1.485   0.381   7.684 -0.2345  0.4176  0.0804
 2432SOL    HW118758   1.480   0.286   7.686 -0.5347  0.4604  0.9660
 2432SOL    HW218759   1.450   0.401   7.597  0.2697  2.6140  0.3711
 2433SOL     OW18760   4.327   3.254  15.601 -0.0265  0.0103  0.0375
 2433SOL    HW118761   4.240   3.285  15.628  0.5896  0.6052  1.3439
 2433SOL    HW218762   4.315   3.294  15.515 -0.3761 -1.4600 -0.5891
 2434SOL     OW18763   3.220   0.218   6.507  0.0154 -0.4473  0.1379
 2434SOL    HW118764   3.168   0.268   6.571  0.3585 -0.3449  0.3352
 2434SOL    HW218765   3.154   0.159   6.471  0.2732 -1.7613  1.7916
 2435SOL     OW18766   1.594   2.402  16.788 -0.5548 -0.2407 -0.3441
 2435SOL    HW118767   1.614   2.493  16.769  3.0848 -0.7697  0.8209
 2435SOL    HW218768   1.507   2.403  16.828  0.5233 -1.5357  2.0474
 2436SOL     OW18769   0.468   1.323  16.379 -0.4734 -0.1890  0.1150
 2436SOL    HW118770   0.497   1.237  16.348 -1.8036 -0.1059 -1.4228
 2436SOL    HW218771   0.442   1.372  16.301  0.4049 -1.5921 -1.0589
 2437SOL     OW18772   0.946   2.605   7.683  0.2892 -0.1560 -0.1042
 2437SOL    HW118773   0.875   2.547   7.656 -0.1262  0.7491 -0.9560
 2437SOL    HW218774   0.900   2.680   7.720  2.7508  0.1827  2.2332
 2438SOL     OW18775   4.702   0.019   5.290  0.0378  0.4488 -0.0171
 2438SOL    HW118776   0.023   0.106   5.291  0.8737  0.0813 -0.5944
 2438SOL    HW218777   4.714   0.002   5.384  0.3093  0.7901  0.0099
 2439SOL     OW18778   3.589   1.777   8.562 -0.2634 -0.4607 -0.7112
 2439SOL    HW118779   3.597   1.865   8.600  0.0877 -0.8149  0.0215
 2439SOL    HW218780   3.630   1.721   8.628 -2.4597 -0.8511  0.3087
 2440SOL     OW18781   0.580   4.701   2.451  0.1831 -0.0614 -0.6300
 2440SOL    HW118782   0.487   4.709   2.472 -0.4399 -3.5336 -1.9832
 2440SOL    HW218783   0.595   4.613   2.486  0.6043 -1.0499 -3.2772
 2441SOL     OW18784   3.583   3.846  10.172 -0.1236 -0.5503 -0.0085
 2441SOL    HW118785   3.606   3.890  10.253  3.3193  0.2611 -1.4271
 2441SOL    HW218786   3.501   3.797  10.185  1.1395 -2.2276  1.5214
 2442SOL     OW18787   3.551   2.698   6.204 -0.1358  0.4726 -0.2364
 2442SOL    HW118788   3.512   2.614   6.229 -1.3210  0.3525 -2.5149
 2442SOL    HW218789   3.640   2.670   6.182 -0.0013  0.6705  0.0601
 2443SOL     OW18790   2.584   1.340   2.352 -0.1711  0.0876  0.1074
 2443SOL    HW118791   2.497   1.376   2.366 -0.5058  0.0107 -1.7799
 2443SOL    HW218792   2.588   1.275   2.422  0.1911  1.6874  1.5678
 2444SOL     OW18793   2.251   4.229   4.060  0.1699 -0.0417 -0.7020
 2444SOL    HW118794   2.304   4.295   4.106  0.5709  0.1367 -1.4254
 2444SOL    HW218795   2.243   4.161   4.127  1.3913  0.2377 -0.2792
 2445SOL     OW18796   4.128   0.338   5.544 -0.2512  0.2416  0.9529
 2445SOL    HW118797   4.192   0.305   5.481 -0.5763 -1.2033  1.3765
 2445SOL    HW218798   4.054   0.369   5.493 -0.8746 -0.7261  1.2632
 2446SOL     OW18799   2.190   2.619   5.402 -0.5380 -0.3934 -0.3186
 2446SOL    HW118800   2.285   2.607   5.410 -0.6052 -0.6959  0.0291
 2446SOL    HW218801   2.143   2.620   5.486 -2.1740  1.2088 -1.2662
 2447SOL     OW18802   0.376   1.572  14.948  0.0018 -0.0066 -0.6247
 2447SOL    HW118803   0.425   1.505  14.997  3.3315  2.0182 -1.2074
 2447SOL    HW218804   0.288   1.535  14.948  0.6437 -1.5691  0.2622
 2448SOL     OW18805   1.546   0.384  11.589 -0.0861  0.3035 -0.3377
 2448SOL    HW118806   1.471   0.403  11.646 -0.8916 -1.0580 -0.9406
 2448SOL    HW218807   1.589   0.470  11.590  0.5087  0.0010  1.5233
 2449SOL     OW18808   1.333   0.857  12.699 -0.2027  0.4586 -0.2704
 2449SOL    HW118809   1.428   0.854  12.711  0.2095 -1.5686 -3.9277
 2449SOL    HW218810   1.338   0.818  12.612 -1.9661 -0.2589 -0.0498
 2450SOL     OW18811   1.174   2.512   1.914  0.1593 -0.3104 -0.2954
 2450SOL    HW118812   1.256   2.462   1.907 -0.5522 -1.7735  1.7700
 2450SOL    HW218813   1.197   2.597   1.879  1.7800  0.0189  1.5644
 2451SOL     OW18814   1.013   1.529   4.229  0.2011  0.0615 -0.6376
 2451SOL    HW118815   0.926   1.492   4.213  0.4037  0.2264 -2.0818
 2451SOL    HW218816   0.983   1.616   4.202  0.7687  0.8296  1.2771
 2452SOL     OW18817   0.952   1.540   9.472 -0.4591  0.4628  0.3046
 2452SOL    HW118818   1.036   1.532   9.518 -0.4044  1.8791  0.4654
 2452SOL    HW218819   0.935   1.634   9.466 -1.5496  0.3735  1.9591
 2453SOL     OW18820   2.737   1.636   1.073  0.1867  0.0910  0.1958
 2453SOL    HW118821   2.724   1.730   1.090 -0.5407  0.1095 -0.4908
 2453SOL    HW218822   2.657   1.617   1.025 -0.6531  1.5983  0.9923
 2454SOL     OW18823   3.280   1.167   2.682 -0.7576  0.2573  0.1676
 2454SOL    HW118824   3.265   1.260   2.701 -2.6048  0.6061 -3.0227
 2454SOL    HW218825   3.328   1.191   2.603  1.5383  0.9908  1.7962
 2455SOL     OW18826   4.669   3.969   5.867  0.0620 -0.0062  0.1969
 2455SOL    HW118827   0.002   3.904   5.916  1.6470 -0.1459 -1.6367
 2455SOL    HW218828   4.684   4.048   5.919  0.0782 -1.1045  1.8619
 2456SOL     OW18829   2.242   0.682  16.969  0.3956  0.1990 -0.2194
 2456SOL    HW118830   2.266   0.712  17.057 -0.7514  0.8563 -0.1191
 2456SOL    HW218831   2.330   0.694  16.934  0.4377  0.3004 -0.0772
 2457SOL     OW18832   1.108   2.853  12.746  0.3394  0.0962 -0.4303
 2457SOL    HW118833   1.035   2.803  12.783 -0.5083  0.1962 -1.9754
 2457SOL    HW218834   1.115   2.916  12.817 -0.8597 -1.1581  0.8180
 2458SOL     OW18835   0.721   3.790   7.620 -0.2188 -0.0907 -0.5640
 2458SOL    HW118836   0.717   3.824   7.531 -4.0024  0.7698 -0.0616
 2458SOL    HW218837   0.777   3.714   7.611 -0.2104 -0.0120 -1.1918
 2459SOL     OW18838   1.484   1.559  11.553 -0.1475  0.2292 -0.7218
 2459SOL    HW118839   1.428   1.535  11.627  1.6306 -1.5723  0.0320
 2459SOL    HW218840   1.448   1.641  11.521 -2.0725 -1.3258 -2.6186
 2460SOL     OW18841   0.087   4.403  14.658 -0.1001  0.4914 -0.3957
 2460SOL    HW118842   0.011   4.432  14.607  1.5215  0.2219 -2.9700
 2460SOL    HW218843   0.119   4.490  14.683  0.9776  0.2611 -0.9791
 2461SOL     OW18844   2.507   1.505   8.866  0.2992  0.0897 -0.1115
 2461SOL    HW118845   2.520   1.565   8.792  0.0172  3.0469  2.2015
 2461SOL    HW218846   2.443   1.551   8.920 -0.3892 -1.0225  0.0184
 2462SOL     OW18847   1.693   3.656  17.272 -0.7667  0.2960 -0.3577
 2462SOL    HW118848   1.628   3.587  17.256 -0.7964  0.4585 -0.9361
 2462SOL    HW218849   1.742   3.660  17.190 -2.5158  0.0410 -1.4198
 2463SOL     OW18850   2.411   0.334   7.466 -0.1213 -0.0560 -0.0120
 2463SOL    HW118851   2.385   0.419   7.501  1.9329  1.2937 -1.7229
 2463SOL    HW218852   2.505   0.337   7.485 -0.0373 -0.3849 -0.3832
 2464SOL     OW18853   3.449   4.684  11.920 -0.1234 -0.0406 -0.1192
 2464SOL    HW118854   3.472   4.592  11.930 -0.3508 -0.1502 -0.5794
 2464SOL    HW218855   3.389   4.704  11.992 -0.7372 -0.6441 -0.4574
 2465SOL     OW18856   3.541   4.612   3.834 -0.4356 -0.3962 -0.1544
 2465SOL    HW118857   3.579   4.684   3.884 -0.0783 -1.0266  0.4893
 2465SOL    HW218858   3.448   4.628   3.849 -0.0104  2.5578 -0.6576
 2466SOL     OW18859   1.287   0.336   6.616  0.3454  0.1039  0.3622
 2466SOL    HW118860   1.297   0.417   6.566 -1.2617  0.4182  0.5707
 2466SOL    HW218861   1.219   0.287   6.569  1.3586 -2.2333  1.3251
 2467SOL     OW18862   0.061   1.201   7.174 -0.1707 -0.0476 -0.0718
 2467SOL    HW118863   0.093   1.248   7.096 -0.1832  1.1159  0.6234
 2467SOL    HW218864   0.130   1.215   7.239 -0.7387  0.8338  0.3469
 2468SOL     OW18865   4.175   1.905   8.399 -0.1669  0.0052 -0.1041
 2468SOL    HW118866   4.228   1.918   8.477  0.8374  1.2048 -0.9939
 2468SOL    HW218867   4.133   1.821   8.416 -0.2496  0.0084 -0.2950
 2469SOL     OW18868   1.909   1.349   8.830  0.1070  0.6319  0.5508
 2469SOL    HW118869   1.864   1.399   8.898  0.0552  1.9475 -0.4560
 2469SOL    HW218870   1.950   1.425   8.789  0.1607  0.5095  0.3760
 2470SOL     OW18871   2.790   2.436  12.808 -0.0747 -0.5644  0.3799
 2470SOL    HW118872   2.879   2.460  12.781 -0.3881 -1.1694 -1.1843
 2470SOL    HW218873   2.811   2.388  12.889 -1.2841 -0.1928  0.9035
 2471SOL     OW18874   2.639   2.985   5.113 -0.2522 -0.2872 -0.2536
 2471SOL    HW118875   2.562   3.026   5.151 -1.0670 -0.8717 -1.2676
 2471SOL    HW218876   2.611   2.990   5.021 -0.6158 -0.1825 -0.1376
 2472SOL     OW18877   3.456   1.291   2.945 -0.3495  0.4405  0.0466
 2472SOL    HW118878   3.397   1.295   3.021 -1.9250 -1.1693 -1.0951
 2472SOL    HW218879   3.412   1.344   2.877  0.7074  0.3213 -0.7271
 2473SOL     OW18880   1.525   1.860  17.109 -0.4213 -0.3480 -0.2421
 2473SOL    HW118881   1.532   1.855  17.013 -1.2090 -1.9651 -0.2186
 2473SOL    HW218882   1.578   1.785  17.133 -0.1711  0.0800  0.5287
 2474SOL     OW18883   2.959   2.575   3.152 -0.0476 -0.3487  0.6580
 2474SOL    HW118884   2.934   2.482   3.157  1.3298 -0.7741 -0.4167
 2474SOL    HW218885   3.041   2.568   3.104 -0.4027  1.4272 -0.1814
 2475SOL     OW18886   1.314   1.995  15.493 -0.3710 -0.4768 -0.3215
 2475SOL    HW118887   1.345   2.046  15.418 -0.2989 -1.8382 -1.2266
 2475SOL    HW218888   1.236   1.947  15.462 -0.7040  0.2697 -0.6359
 2476SOL     OW18889   4.363   1.858   8.184 -0.0660  0.1697  0.0688
 2476SOL    HW118890   4.280   1.855   8.230 -0.6624 -2.4824 -1.2170
 2476SOL    HW218891   4.400   1.772   8.204 -2.1409 -0.2862  1.9744
 2477SOL     OW18892   1.889   4.629  17.197 -0.2980  0.7547 -0.4887
 2477SOL    HW118893   1.873   4.546  17.242 -0.3212  0.5090 -0.9479
 2477SOL    HW218894   1.866   4.616  17.105  0.8623  1.6067 -0.8973
 2478SOL     OW18895   0.493   2.124   5.356 -0.6208 -0.3047 -0.4256
 2478SOL    HW118896   0.502   2.188   5.427 -1.6834 -0.5283 -0.0868
 2478SOL    HW218897   0.573   2.073   5.355 -1.8972 -2.3146  0.3875
 2479SOL     OW18898   3.555   3.445   4.236  0.0672  0.1536 -0.5707
 2479SOL    HW118899   3.472   3.489   4.254 -0.6389 -1.8037  1.0391
 2479SOL    HW218900   3.544   3.382   4.307  0.7393 -0.4934 -1.0387
 2480SOL     OW18901   0.420   0.640  16.432  0.3015  0.4704  0.3439
 2480SOL    HW118902   0.386   0.713  16.380 -0.9146 -2.3024 -2.7494
 2480SOL    HW218903   0.366   0.568  16.398  2.0456  0.3388 -2.1262
 2481SOL     OW18904   3.884   4.295   1.266  0.0170  0.5000  0.3347
 2481SOL    HW118905   3.869   4.248   1.184 -0.7462  0.0232  0.7530
 2481SOL    HW218906   3.881   4.386   1.235  3.3678  0.0499 -1.3843
 2482SOL     OW18907   3.515   3.361   1.135 -0.5802 -0.0777 -0.4048
 2482SOL    HW118908   3.508   3.306   1.213 -1.4139 -1.8497 -1.7362
 2482SOL    HW218909   3.471   3.442   1.160 -0.9719 -0.0229 -1.2672
 2483SOL     OW18910   1.756   0.838   3.715 -0.9399  0.7154 -0.1247
 2483SOL    HW118911   1.832   0.889   3.687 -0.6240  0.1776 -0.2464
 2483SOL    HW218912   1.786   0.748   3.701  0.8026  1.1206  1.0173
 2484SOL     OW18913   4.569   1.189  14.696 -0.1379  0.0734 -0.2607
 2484SOL    HW118914   4.495   1.154  14.746 -1.1334  1.1556 -0.9736
 2484SOL    HW218915   4.595   1.264  14.749 -1.3685 -0.4457  1.0900
 2485SOL     OW18916   4.231   4.364   5.821  0.4359  0.0611 -0.1750
 2485SOL    HW118917   4.215   4.360   5.915  0.7161  3.0137 -0.0002
 2485SOL    HW218918   4.214   4.274   5.794 -0.2257  0.2424 -0.3619
 2486SOL     OW18919   3.052   3.925  15.918  0.1941 -0.2031 -0.0928
 2486SOL    HW118920   2.967   3.888  15.942  0.2321  0.4640  1.0422
 2486SOL    HW218921   3.046   4.020  15.906  2.3231 -0.3502 -2.3028
 2487SOL     OW18922   2.566   0.983  11.732 -0.1946 -0.2734  0.3876
 2487SOL    HW118923   2.632   0.954  11.796  1.6270 -1.3861 -1.9913
 2487SOL    HW218924   2.610   0.978  11.647  0.8522 -4.1852  1.1940
 2488SOL     OW18925   1.847   3.744   3.211  0.1246  0.1363  0.1275
 2488SOL    HW118926   1.826   3.651   3.210  0.4315  0.0576  0.9445
 2488SOL    HW218927   1.824   3.768   3.122 -0.2940  0.7751  0.4063
 2489SOL     OW18928   1.205   1.294  13.720  0.5596 -0.0089 -0.1002
 2489SOL    HW118929   1.214   1.305  13.625 -1.1845 -0.8643 -0.3778
 2489SOL    HW218930   1.121   1.334  13.739  0.9365  0.2298  1.0249
 2490SOL     OW18931   3.277   1.146   8.739 -0.2381  0.6515  0.0980
 2490SOL    HW118932   3.255   1.225   8.789  1.2519  0.7233  0.6367
 2490SOL    HW218933   3.294   1.191   8.656 -0.3040 -0.3756 -0.4670
 2491SOL     OW18934   1.520   3.576  13.895  0.0015 -0.0412  0.0378
 2491SOL    HW118935   1.510   3.483  13.874 -1.3479 -0.4229  2.3886
 2491SOL    HW218936   1.612   3.575  13.866 -0.0029 -1.5074  0.0605
 2492SOL     OW18937   0.569   1.095   3.580  0.0295 -0.3641 -0.3905
 2492SOL    HW118938   0.556   1.006   3.549 -0.0127 -0.4101 -0.2394
 2492SOL    HW218939   0.664   1.095   3.574 -0.0712 -0.7150 -1.9691
 2493SOL     OW18940   1.892   2.090   2.555  0.3448  0.0111 -0.5429
 2493SOL    HW118941   1.815   2.142   2.535 -0.0474 -1.2230 -2.2233
 2493SOL    HW218942   1.955   2.150   2.595  2.6372 -2.1524 -0.9128
 2494SOL     OW18943   3.346   1.347   8.425 -0.6306 -0.4406  0.1065
 2494SOL    HW118944   3.436   1.361   8.397 -1.1599  2.5671 -0.1070
 2494SOL    HW218945   3.302   1.380   8.347  1.2463  0.7697 -0.4349
 2495SOL     OW18946   4.327   1.541   7.597  0.6695 -0.1611  0.4104
 2495SOL    HW118947   4.345   1.463   7.650  1.2100 -0.4336 -0.1731
 2495SOL    HW218948   4.319   1.504   7.509  1.4247  0.6126  0.0206
 2496SOL     OW18949   1.726   0.517  11.131 -0.4585 -0.2472  1.0331
 2496SOL    HW118950   1.776   0.437  11.147  4.0664  1.6265 -3.9239
 2496SOL    HW218951   1.713   0.556  11.218 -1.5961 -1.0053  1.2065
 2497SOL     OW18952   1.993   2.831   2.531 -0.4477  0.3235  1.0533
 2497SOL    HW118953   1.954   2.771   2.595  1.0659 -3.0406 -1.1521
 2497SOL    HW218954   2.084   2.819   2.559 -0.5708 -0.4164  1.1276
 2498SOL     OW18955   4.340   4.264  17.262 -0.5988 -1.0057  0.0377
 2498SOL    HW118956   4.432   4.282  17.282 -0.3337 -0.8992 -1.3197
 2498SOL    HW218957   4.321   4.188  17.317  1.8554 -0.2834  1.8407
 2499SOL     OW18958   1.238   2.781   8.874  0.4149  0.0225 -0.4737
 2499SOL    HW118959   1.294   2.797   8.950  1.2325  1.0336 -1.2831
 2499SOL    HW218960   1.206   2.870   8.854  1.2023  0.1106 -1.3293
 2500SOL     OW18961   1.480   0.656   8.338 -0.7256 -0.5127 -0.1100
 2500SOL    HW118962   1.502   0.628   8.250  0.8867  4.1585 -1.1902
 2500SOL    HW218963   1.530   0.593   8.390  0.0728  1.6712  1.7546
 2501SOL     OW18964   4.469   3.329  13.535  0.5795  0.2958  0.4343
 2501SOL    HW118965   4.384   3.338  13.578  0.6681  3.5119 -0.1062
 2501SOL    HW218966   4.438   3.288  13.454 -0.7998  0.5602  0.8305
 2502SOL     OW18967   2.264   1.466   0.505  0.3952 -0.3690  0.1573
 2502SOL    HW118968   2.280   1.545   0.452 -2.0077  0.6954  1.0258
 2502SOL    HW218969   2.214   1.423   0.436  2.3741  0.4221 -1.7939
 2503SOL     OW18970   0.348   1.336  11.501 -0.0239 -0.0452 -0.1531
 2503SOL    HW118971   0.419   1.395  11.475 -0.1638  0.5044  0.6811
 2503SOL    HW218972   0.271   1.381  11.468 -0.0166  0.5905  0.6989
 2504SOL     OW18973   4.190   1.703   1.693  0.2584 -0.0105 -0.0206
 2504SOL    HW118974   4.240   1.752   1.758 -1.1948  1.0808  0.2585
 2504SOL    HW218975   4.233   1.722   1.610 -0.3801  0.0181 -0.3466
 2505SOL     OW18976   4.539   3.044   6.649  0.1887 -0.1066  0.1003
 2505SOL    HW118977   4.615   3.079   6.601 -0.2227  1.7927  0.8502
 2505SOL    HW218978   4.563   2.951   6.647  0.7077  0.0241  0.2637
 2506SOL     OW18979   4.282   3.362  13.089  0.6878  0.4786 -0.7595
 2506SOL    HW118980   4.291   3.399  13.001  2.1179 -0.0619 -0.8404
 2506SOL    HW218981   4.352   3.408  13.136  0.3387 -1.2666  1.4786
 2507SOL     OW18982   0.086   4.266   7.541  0.0293  0.1495 -0.3162
 2507SOL    HW118983   0.048   4.342   7.497 -1.5379 -0.5477 -0.1742
 2507SOL    HW218984   0.139   4.298   7.615 -0.6562 -0.2936  0.3686
 2508SOL     OW18985   2.113   3.744   0.894  0.0649  0.3407  0.4191
 2508SOL    HW118986   2.070   3.666   0.858 -0.1320  1.4921 -1.8366
 2508SOL    HW218987   2.106   3.727   0.988  2.0835  2.2015  0.9047
 2509SOL     OW18988   2.449   1.518  17.394  0.3699  0.2505 -0.7125
 2509SOL    HW118989   2.414   1.429  17.403 -2.0410  1.3087  0.3584
 2509SOL    HW218990   2.440   1.539  17.301 -0.6678 -1.1958 -0.9339
 2510SOL     OW18991   3.210   2.082   4.915 -0.6603 -0.4685 -0.1788
 2510SOL    HW118992   3.144   2.013   4.925  0.9498 -2.2269 -1.6499
 2510SOL    HW218993   3.285   2.045   4.869 -1.2426 -1.8669 -0.0054
 2511SOL     OW18994   2.259   0.741   0.423 -0.5159 -0.1399 -0.0074
 2511SOL    HW118995   2.290   0.764   0.335  0.4114  0.0239  0.3696
 2511SOL    HW218996   2.341   0.743   0.473 -0.3621  3.6339 -0.4200
 2512SOL     OW18997   2.141   1.189  10.415 -0.9963  0.3190  0.5898
 2512SOL    HW118998   2.069   1.252  10.414 -0.4041  0.9946  0.5122
 2512SOL    HW218999   2.129   1.163  10.324  1.2199  0.8112  0.1643
 2513SOL     OW19000   0.015   3.078  10.763 -0.2660  0.6271  0.0915
 2513SOL    HW119001   4.669   3.128  10.712 -0.4903  0.8454  0.5788
 2513SOL    HW219002   0.039   3.141  10.831 -1.3108 -0.5777  1.5888
 2514SOL     OW19003   0.047   1.356   1.865 -0.1185 -0.1003  0.3186
 2514SOL    HW119004   0.096   1.278   1.840 -0.4481 -0.8880  2.1596
 2514SOL    HW219005   0.113   1.405   1.914 -0.5133 -0.5223  1.2696
 2515SOL     OW19006   4.467   0.259   0.209 -0.1644  0.3582 -0.4827
 2515SOL    HW119007   4.460   0.353   0.226 -2.5054 -0.4941  3.3806
 2515SOL    HW219008   4.454   0.255   0.114  0.0219  1.6836 -0.5550
 2516SOL     OW19009   3.327   4.027   3.946  0.1782 -0.3618  0.2583
 2516SOL    HW119010   3.390   3.997   3.879 -0.6788 -0.6388 -0.4219
 2516SOL    HW219011   3.334   3.965   4.018 -1.1103 -1.2353 -0.3733
 2517SOL     OW19012   2.605   4.376   2.618  0.9983  0.0796  0.0665
 2517SOL    HW119013   2.684   4.323   2.603  0.8342  0.4509 -2.1123
 2517SOL    HW219014   2.594   4.415   2.532 -1.3405  1.6385  1.0688
 2518SOL     OW19015   4.307   3.103   9.823  0.3194  0.6279 -0.4072
 2518SOL    HW119016   4.219   3.127   9.852 -0.5675 -2.5696 -0.4523
 2518SOL    HW219017   4.283   3.024   9.775 -0.0092 -0.3198  1.3313
 2519SOL     OW19018   4.103   2.096   5.006  0.2032  0.9842 -0.5547
 2519SOL    HW119019   4.023   2.053   4.976  0.3999  1.2942 -1.5420
 2519SOL    HW219020   4.151   2.022   5.044  0.4478 -0.6363 -4.0207
 2520SOL     OW19021   3.283   3.652   9.142  0.6929  0.1908 -0.1598
 2520SOL    HW119022   3.240   3.643   9.227  2.8892 -2.2049  0.7111
 2520SOL    HW219023   3.229   3.597   9.085  0.0303  0.8534 -0.1699
 2521SOL     OW19024   3.808   3.771   7.330  0.3207  0.0574  0.5659
 2521SOL    HW119025   3.865   3.716   7.276 -0.3097 -0.5468  0.5179
 2521SOL    HW219026   3.858   3.791   7.408  2.0005  0.2397 -0.5677
 2522SOL     OW19027   0.806   2.259   3.906  0.6792  0.0705  0.4724
 2522SOL    HW119028   0.731   2.286   3.854  0.4260  0.6187  1.1285
 2522SOL    HW219029   0.776   2.275   3.995  2.0244 -1.5205  1.2113
 2523SOL     OW19030   2.227   1.997  11.117 -0.0396  0.3995  0.4420
 2523SOL    HW119031   2.257   2.038  11.198 -1.0264 -0.8395  1.4327
 2523SOL    HW219032   2.211   1.906  11.143  1.1257 -0.4716 -1.8506
 2524SOL     OW19033   1.725   1.982   3.403  0.1707 -0.0781 -0.3721
 2524SOL    HW119034   1.740   1.920   3.475 -0.7357  0.9276  0.6660
 2524SOL    HW219035   1.778   1.942   3.334  1.9221  1.5337  0.0277
 2525SOL     OW19036   0.624   2.411  12.897  0.1369 -0.1709 -0.2765
 2525SOL    HW119037   0.609   2.397  12.991 -1.7174 -0.4653 -0.6006
 2525SOL    HW219038   0.687   2.479  12.917  0.9876 -0.0961 -3.1624
 2526SOL     OW19039   2.002   1.445   1.302 -0.0342  0.2633 -0.2297
 2526SOL    HW119040   2.025   1.537   1.293  0.8675  0.1100  0.4656
 2526SOL    HW219041   1.912   1.443   1.269  0.0397 -1.7504 -0.3236
 2527SOL     OW19042   2.248   4.063   3.447  0.0558 -0.2594 -0.3179
 2527SOL    HW119043   2.278   4.130   3.386 -0.4731  0.2643 -0.0125
 2527SOL    HW219044   2.193   4.007   3.392 -2.3116 -0.7803  2.5357
 2528SOL     OW19045   0.036   2.415   1.309 -0.2496 -0.3663  0.2832
 2528SOL    HW119046   4.711   2.448   1.388 -1.3195 -1.6383  0.2397
 2528SOL    HW219047   0.123   2.407   1.347 -0.5498  3.9657  1.8607
 2529SOL     OW19048   0.141   1.962   4.103 -0.0213  0.1566  0.1750
 2529SOL    HW119049   0.102   2.042   4.138 -2.5209 -1.0965  0.2852
 2529SOL    HW219050   0.063   1.925   4.061 -1.3621  1.1398  1.8236
 2530SOL     OW19051   1.004   0.244   6.596  0.3913 -0.3245 -0.5703
 2530SOL    HW119052   0.968   0.197   6.521  0.5387 -0.2317 -0.7006
 2530SOL    HW219053   0.931   0.282   6.644 -0.0478 -0.5495 -1.0635
 2531SOL     OW19054   0.106   3.679   7.249  0.3506  0.0137 -0.4495
 2531SOL    HW119055   0.045   3.749   7.269  0.8177  0.5131 -0.7715
 2531SOL    HW219056   0.068   3.603   7.294 -0.1768  0.0100 -0.9134
 2532SOL     OW19057   2.385   1.291   5.739  0.5982  0.1230 -0.2587
 2532SOL    HW119058   2.329   1.321   5.810 -1.4146 -1.3349 -1.2097
 2532SOL    HW219059   2.364   1.359   5.674 -0.6768 -0.6291 -0.6360
 2533SOL     OW19060   3.662   2.297   4.091  0.2693  0.8183 -0.2450
 2533SOL    HW119061   3.758   2.299   4.086  0.5096 -3.7632  1.8588
 2533SOL    HW219062   3.634   2.385   4.070 -0.3718  0.4764 -0.8054
 2534SOL     OW19063   1.338   4.271  14.107 -0.4720 -1.1306 -0.6331
 2534SOL    HW119064   1.377   4.215  14.040  0.3156  0.1769 -1.2627
 2534SOL    HW219065   1.264   4.223  14.145  0.8561 -1.6135  1.3305
 2535SOL     OW19066   2.155   0.450  12.677 -0.6320 -0.1178  0.2200
 2535SOL    HW119067   2.065   0.451  12.708 -0.2899  0.7338  1.1875
 2535SOL    HW219068   2.150   0.363  12.638  2.5316  0.2691 -1.1127
 2536SOL     OW19069   2.991   0.632   7.916 -0.1904 -0.3844  0.4051
 2536SOL    HW119070   2.992   0.539   7.938  0.1475 -0.1760  1.2631
 2536SOL    HW219071   2.984   0.675   8.001 -1.2066  3.4094 -1.5768
 2537SOL     OW19072   4.321   4.065  14.224  0.2036 -0.0220 -0.3654
 2537SOL    HW119073   4.331   4.063  14.320  1.0298  1.0378 -0.4254
 2537SOL    HW219074   4.395   4.121  14.202 -0.7214  1.8606  1.2552
 2538SOL     OW19075   0.092   2.778  15.833  0.2963  0.1138 -0.7839
 2538SOL    HW119076   0.184   2.751  15.843 -0.3472 -1.8733 -0.1765
 2538SOL    HW219077   0.084   2.839  15.906  1.3938 -1.5771  0.7778
 2539SOL     OW19078   0.619   1.034  12.957 -0.3382  0.3210 -0.3655
 2539SOL    HW119079   0.691   1.044  13.019  0.9132 -2.2424 -1.3865
 2539SOL    HW219080   0.598   1.127  12.955  0.0229  0.3632 -1.9682
 2540SOL     OW19081   0.658   3.569  16.227  0.4237 -0.1306  0.1397
 2540SOL    HW119082   0.695   3.493  16.180  0.1449 -0.9846  1.2925
 2540SOL    HW219083   0.685   3.543  16.315 -1.5664 -1.9935  0.1967
 2541SOL     OW19084   1.866   0.580   3.717 -0.1659 -0.0504  0.3531
 2541SOL    HW119085   1.934   0.563   3.652  0.0733 -2.4788  1.2275
 2541SOL    HW219086   1.828   0.493   3.724 -0.7954  0.0313 -2.3709
 2542SOL     OW19087   2.195   1.314  11.323  0.1558 -0.2504 -0.5946
 2542SOL    HW119088   2.216   1.221  11.319  1.7041  0.1525 -1.8970
 2542SOL    HW219089   2.121   1.319  11.262 -0.5408 -1.2601  0.1802
 2543SOL     OW19090   3.148   1.944   2.542 -0.4817 -0.4468 -0.9910
 2543SOL    HW119091   3.142   2.039   2.537  0.9576 -0.3428 -0.8174
 2543SOL    HW219092   3.086   1.920   2.473 -0.0820 -1.9874 -0.8226
 2544SOL     OW19093   4.489   1.037   1.173 -0.0555  0.8516 -0.1177
 2544SOL    HW119094   4.508   0.989   1.092 -1.0546 -0.1107  0.2208
 2544SOL    HW219095   4.506   0.979   1.247  0.3806 -2.0896 -2.5020
 2545SOL     OW19096   0.081   1.808   9.644 -0.6686  0.0518  0.1004
 2545SOL    HW119097   0.100   1.902   9.645 -0.7021  0.0590  0.0766
 2545SOL    HW219098   0.142   1.790   9.715 -0.0672  1.5491 -0.0271
 2546SOL     OW19099   3.021   1.136   3.454 -0.0671  0.1246 -0.3653
 2546SOL    HW119100   2.946   1.185   3.422  2.1439  1.5634 -3.3318
 2546SOL    HW219101   3.069   1.119   3.373 -1.4603  1.3441 -1.4507
 2547SOL     OW19102   2.321   2.647   9.534 -0.1782 -0.2011 -0.1436
 2547SOL    HW119103   2.349   2.723   9.585 -1.1271 -0.8787  1.3926
 2547SOL    HW219104   2.238   2.631   9.579  1.9187 -1.1568  3.3983
 2548SOL     OW19105   2.558   0.134   8.698  0.2400 -0.1141  0.1352
 2548SOL    HW119106   2.470   0.170   8.687 -0.0640 -0.7745  0.3984
 2548SOL    HW219107   2.530   0.065   8.759  1.2587  1.1118  1.9901
 2549SOL     OW19108   1.515   3.797   3.769  0.1273 -0.0994  0.1060
 2549SOL    HW119109   1.557   3.879   3.745 -1.3209  1.2224  2.0127
 2549SOL    HW219110   1.462   3.780   3.691 -1.3534 -0.7160  1.2354
 2550SOL     OW19111   4.244   3.756   5.205  1.0264  0.1026 -0.4486
 2550SOL    HW119112   4.232   3.829   5.144 -0.9386 -0.6312 -0.9365
 2550SOL    HW219113   4.306   3.796   5.265  0.2129  0.3846  0.2078
 2551SOL     OW19114   2.075   2.886   3.518  0.1351  0.1573  0.5744
 2551SOL    HW119115   2.136   2.930   3.460  0.6867 -0.4619  0.6846
 2551SOL    HW219116   2.000   2.889   3.458  0.0538  1.1501  0.7326
 2552SOL     OW19117   2.960   0.676  15.513 -0.2213 -0.6229 -0.4983
 2552SOL    HW119118   2.952   0.600  15.455 -0.6738 -0.6325 -0.4258
 2552SOL    HW219119   2.938   0.627  15.593  1.1399  0.8488  0.7629
 2553SOL     OW19120   0.764   2.399   4.590 -0.2458 -0.6617  0.1500
 2553SOL    HW119121   0.786   2.481   4.633 -1.5638  0.0394 -0.5375
 2553SOL    HW219122   0.830   2.341   4.629 -0.7528 -0.7676  0.8526
 2554SOL     OW19123   4.343   3.198  13.320  0.3533 -0.0464  0.1648
 2554SOL    HW119124   4.257   3.170  13.351  0.0257 -1.0721 -1.6745
 2554SOL    HW219125   4.312   3.271  13.267 -3.7222 -0.5112  1.8813
 2555SOL     OW19126   3.080   4.129   1.205  0.2006  0.3100  0.3072
 2555SOL    HW119127   3.061   4.126   1.112  0.3266  2.6294  0.2105
 2555SOL    HW219128   3.138   4.054   1.218  1.0943  1.1371  1.1163
 2556SOL     OW19129   3.480   3.600   0.849 -0.3845 -0.2093  0.0583
 2556SOL    HW119130   3.515   3.587   0.761 -1.2985 -1.4041 -0.1282
 2556SOL    HW219131   3.469   3.695   0.843  0.7285 -0.1028 -0.2699
 2557SOL     OW19132   1.009   3.540   6.651  0.5009 -0.3043  0.3767
 2557SOL    HW119133   1.097   3.579   6.651 -0.9051  2.8642 -2.0546
 2557SOL    HW219134   0.972   3.585   6.728  1.4762  1.8693 -0.4194
 2558SOL     OW19135   4.089   0.144   6.123 -0.1332 -0.3217  0.1093
 2558SOL    HW119136   4.040   0.226   6.119  1.0467  0.3579 -0.3150
 2558SOL    HW219137   4.171   0.174   6.084 -0.5340 -0.4668 -0.8347
 2559SOL     OW19138   4.390   1.013  16.079  0.2633  0.0585  0.5271
 2559SOL    HW119139   4.404   0.951  16.007  0.0378  0.1496  0.4038
 2559SOL    HW219140   4.459   0.975  16.133 -0.1308  0.1506  1.0881
 2560SOL     OW19141   4.161   4.017   1.240 -0.2122  0.1933  0.4344
 2560SOL    HW119142   4.256   4.012   1.233 -0.3369 -0.5395 -0.7286
 2560SOL    HW219143   4.151   4.045   1.331 -1.4648  0.2453  0.2821
 2561SOL     OW19144   2.199   1.673  14.687  0.1404  0.0283  0.0902
 2561SOL    HW119145   2.230   1.710  14.769 -1.0963  0.4124  0.3756
 2561SOL    HW219146   2.141   1.743  14.655 -0.6974 -0.9099 -0.4440
 2562SOL     OW19147   1.574   4.431   1.661 -0.4147 -0.1207 -0.0722
 2562SOL    HW119148   1.588   4.522   1.636  0.8333 -0.1961  0.3664
 2562SOL    HW219149   1.650   4.394   1.616 -1.1798 -2.2571  0.3565
 2563SOL     OW19150   3.357   2.673   4.373 -0.9741 -0.3526 -0.4460
 2563SOL    HW119151   3.415   2.648   4.445 -1.7754 -1.1448 -0.0768
 2563SOL    HW219152   3.382   2.765   4.388  1.3757 -1.3686  1.8786
 2564SOL     OW19153   2.607   3.357   4.690  0.1502 -0.5723  0.0142
 2564SOL    HW119154   2.594   3.449   4.668  0.2668 -0.3008  1.0980
 2564SOL    HW219155   2.524   3.314   4.668 -0.1701  0.0734 -0.0260
 2565SOL     OW19156   2.533   0.930   7.188  0.2072 -0.6793  0.4164
 2565SOL    HW119157   2.608   0.900   7.239  2.3604  1.6726 -1.4182
 2565SOL    HW219158   2.548   1.024   7.185 -0.2693 -0.6193 -0.1058
 2566SOL     OW19159   0.182   3.809  13.467  0.1411 -0.9426  0.4542
 2566SOL    HW119160   0.167   3.720  13.434  1.6991 -0.2852 -2.0107
 2566SOL    HW219161   0.278   3.812  13.461  0.1304 -1.2439  0.1093
 2567SOL     OW19162   4.515   1.767   9.703 -0.3168  0.0889  0.0905
 2567SOL    HW119163   4.471   1.852   9.711  1.1699  1.0469 -1.7282
 2567SOL    HW219164   4.604   1.786   9.674 -0.7699  0.8741 -0.8096
 2568SOL     OW19165   2.173   4.030  16.912  0.0734 -0.2301 -0.0026
 2568SOL    HW119166   2.258   4.063  16.942  0.8859 -2.8855  0.5537
 2568SOL    HW219167   2.181   3.935  16.907  1.1661 -0.1003 -0.8233
 2569SOL     OW19168   1.693   2.972   8.443 -0.2466 -0.1210 -0.3505
 2569SOL    HW119169   1.725   2.890   8.480  0.0996  0.8283  1.5066
 2569SOL    HW219170   1.599   2.952   8.435 -0.5243  0.3909  1.4754
 2570SOL     OW19171   1.959   4.405  17.490 -0.1568  0.1716  0.2959
 2570SOL    HW119172   1.938   4.324  17.442  1.9426 -0.6200  0.6884
 2570SOL    HW219173   2.031   4.419  17.428 -0.0248  0.7865  0.5916
 2571SOL     OW19174   2.078   3.645   3.392 -0.2118 -0.2428 -0.2377
 2571SOL    HW119175   2.105   3.731   3.362  1.5370 -1.5034 -2.2998
 2571SOL    HW219176   2.064   3.659   3.485  0.8762  0.6564 -0.2202
 2572SOL     OW19177   3.957   1.420   4.750 -0.6279 -0.4422 -0.1129
 2572SOL    HW119178   3.880   1.410   4.806 -2.0109  2.6525 -1.4523
 2572SOL    HW219179   3.922   1.373   4.674 -0.6158 -0.6233 -0.0055
 2573SOL     OW19180   2.433   3.075   5.247 -0.1108 -0.0891 -0.0753
 2573SOL    HW119181   2.413   3.148   5.188  0.7754 -0.0016 -0.2552
 2573SOL    HW219182   2.360   3.020   5.219  0.8745 -0.9135 -1.0255
 2574SOL     OW19183   2.633   3.527   4.310  0.1883  0.2149 -0.2389
 2574SOL    HW119184   2.715   3.476   4.315  0.0254 -0.2770 -2.6005
 2574SOL    HW219185   2.655   3.595   4.247 -0.0436  0.9915  0.5147
 2575SOL     OW19186   2.298   0.876   3.631  0.9735 -0.3002 -0.4421
 2575SOL    HW119187   2.250   0.888   3.713  0.3418 -2.3252 -0.5228
 2575SOL    HW219188   2.315   0.782   3.633  0.1519 -0.4719 -1.9723
 2576SOL     OW19189   0.877   3.954   3.867 -0.4281 -0.0458 -0.0769
 2576SOL    HW119190   0.844   3.869   3.897 -0.0136 -0.4477 -0.7721
 2576SOL    HW219191   0.908   3.935   3.779 -1.1498  1.5077 -0.6516
 2577SOL     OW19192   3.439   0.696   8.568 -0.1221 -0.3049 -0.5081
 2577SOL    HW119193   3.411   0.768   8.623 -0.0485  2.1705 -3.7397
 2577SOL    HW219194   3.448   0.625   8.632  1.1949 -1.5025 -2.0154
 2578SOL     OW19195   3.166   1.618   1.403 -0.1221  0.7169 -0.3525
 2578SOL    HW119196   3.260   1.600   1.405 -0.2030  0.3884  0.3379
 2578SOL    HW219197   3.156   1.710   1.429  1.7387  0.1792  2.2354
 2579SOL     OW19198   0.765   4.074  14.508 -0.3569 -0.3564  0.2635
 2579SOL    HW119199   0.856   4.046  14.497 -0.1395 -0.0985  1.4090
 2579SOL    HW219200   0.758   4.157  14.461  0.8865  0.7609  2.0847
 2580SOL     OW19201   0.823   1.944   6.286  0.5425 -0.0550 -0.3852
 2580SOL    HW119202   0.857   1.857   6.305 -2.8623 -1.2686  0.2737
 2580SOL    HW219203   0.896   2.000   6.313  1.6557  0.2947 -4.1686
 2581SOL     OW19204   1.501   1.110   7.370  0.2059  0.1412 -0.1265
 2581SOL    HW119205   1.534   1.027   7.405 -1.5226 -0.3441  0.3428
 2581SOL    HW219206   1.544   1.181   7.417  1.4429 -0.7510  0.0726
 2582SOL     OW19207   3.015   1.423   2.241 -0.2959  0.0050 -0.8505
 2582SOL    HW119208   3.088   1.425   2.302 -0.9568 -0.2307 -0.0464
 2582SOL    HW219209   3.025   1.333   2.209  1.4552  1.7755 -5.2610
 2583SOL     OW19210   3.859   1.863   8.451  0.9016  0.3548 -0.5962
 2583SOL    HW119211   3.939   1.830   8.491 -0.5323 -0.3981  1.6069
 2583SOL    HW219212   3.795   1.851   8.521  1.9755  1.7407  0.6206
 2584SOL     OW19213   3.681   4.328   8.606 -0.7505 -0.1041  0.3525
 2584SOL    HW119214   3.616   4.304   8.671  0.8594 -0.8791  1.6820
 2584SOL    HW219215   3.628   4.323   8.527 -0.0069  2.4475 -0.3204
 2585SOL     OW19216   2.616   0.869   3.330  0.2334 -0.1645  0.2052
 2585SOL    HW119217   2.550   0.817   3.283  0.5920  0.0721 -0.5694
 2585SOL    HW219218   2.681   0.799   3.324  0.1490 -0.1536 -0.9447
 2586SOL     OW19219   0.638   0.889  10.550  0.0638  0.5395  0.0951
 2586SOL    HW119220   0.676   0.808  10.516 -0.4633  0.6605 -0.7694
 2586SOL    HW219221   0.563   0.900  10.492 -0.2267 -2.9651 -0.2118
 2587SOL     OW19222   1.620   2.758   5.520  0.5388  0.2566  0.7207
 2587SOL    HW119223   1.544   2.777   5.466  1.7567  0.8604 -0.8014
 2587SOL    HW219224   1.686   2.805   5.468 -1.4691  0.3816 -1.6860
 2588SOL     OW19225   3.534   1.737   7.615  0.2217 -0.3298 -0.1392
 2588SOL    HW119226   3.616   1.752   7.568 -0.5774  1.4908 -0.9374
 2588SOL    HW219227   3.522   1.818   7.664 -0.0637 -0.2123 -0.4074
 2589SOL     OW19228   3.384   2.306   4.762  0.3776 -0.3225  0.1746
 2589SOL    HW119229   3.408   2.274   4.849  2.8955  0.1393 -0.3465
 2589SOL    HW219230   3.464   2.303   4.710 -0.4611 -1.7725 -1.0369
 2590SOL     OW19231   0.976   1.310  16.078  0.3068 -0.2557  0.2434
 2590SOL    HW119232   1.033   1.347  16.145  1.2387 -0.2984 -0.5287
 2590SOL    HW219233   0.981   1.221  16.114  0.5949 -0.1912  0.3657
 2591SOL     OW19234   2.714   0.409  12.606  0.1396 -0.4718 -0.5835
 2591SOL    HW119235   2.662   0.467  12.551  0.9287  0.0620 -0.7683
 2591SOL    HW219236   2.793   0.405  12.552  0.3686  1.0715 -0.3716
 2592SOL     OW19237   4.698   0.704   8.222  0.7372 -0.0137  0.0674
 2592SOL    HW119238   0.066   0.744   8.236  1.2363 -0.8864 -0.4611
 2592SOL    HW219239   4.662   0.761   8.154  1.3622 -3.8037 -3.4620
 2593SOL     OW19240   0.845   4.030   8.017 -0.2107  0.3562  0.4728
 2593SOL    HW119241   0.836   4.053   8.109 -1.2392 -0.8147  0.6680
 2593SOL    HW219242   0.939   4.017   8.006 -0.3205 -0.7932  0.8339
 2594SOL     OW19243   3.212   3.666   1.207 -0.0336 -0.4568  0.2751
 2594SOL    HW119244   3.234   3.635   1.119 -1.1350  1.9247 -0.8501
 2594SOL    HW219245   3.227   3.594   1.268 -1.7712  0.3924  1.7265
 2595SOL     OW19246   3.876   2.462   4.282  0.2660 -0.2418  0.5413
 2595SOL    HW119247   3.913   2.485   4.367  2.9476 -1.5657 -0.2802
 2595SOL    HW219248   3.814   2.533   4.262  2.0107  0.6875 -1.6482
 2596SOL     OW19249   0.726   3.154  17.298 -0.1801  0.3724 -0.4405
 2596SOL    HW119250   0.641   3.110  17.308 -0.1442 -0.0994 -2.1748
 2596SOL    HW219251   0.784   3.078  17.298 -2.7635 -1.6090 -0.9952
 2597SOL     OW19252   2.801   1.795   3.625  0.1856 -0.1238  0.1011
 2597SOL    HW119253   2.835   1.757   3.544  0.8481 -1.3325  0.9527
 2597SOL    HW219254   2.709   1.789   3.600  0.7172  1.2855 -2.1428
 2598SOL     OW19255   0.943   3.514   2.334  0.2639  0.5931  0.2834
 2598SOL    HW119256   0.937   3.439   2.274  0.4868  1.3824 -0.7076
 2598SOL    HW219257   0.878   3.481   2.396 -0.7665 -1.1377 -1.7335
 2599SOL     OW19258   0.495   3.089   2.050  0.4411  0.2049  0.9455
 2599SOL    HW119259   0.407   3.121   2.069 -1.8085 -3.1089 -3.8329
 2599SOL    HW219260   0.505   3.088   1.954 -0.2723 -0.8694  0.8862
 2600SOL     OW19261   4.510   2.411   7.937  0.2059 -0.2238 -0.3346
 2600SOL    HW119262   4.451   2.437   8.008  0.4479  0.4399 -0.3822
 2600SOL    HW219263   4.475   2.323   7.922  2.1585 -1.0781  0.0610
 2601SOL     OW19264   1.915   0.609   7.201  0.2011 -0.3836  0.1650
 2601SOL    HW119265   1.911   0.539   7.266  0.5707 -0.2876  0.2875
 2601SOL    HW219266   1.891   0.563   7.120 -3.6013  1.2400  0.3778
 2602SOL     OW19267   1.476   2.692  14.415 -0.4734  0.0845 -0.6707
 2602SOL    HW119268   1.475   2.597  14.423 -0.4398  0.0484 -1.0996
 2602SOL    HW219269   1.566   2.706  14.385  0.6469 -1.3969  1.9452
 2603SOL     OW19270   4.686   2.232   4.736 -0.1756 -0.5952  0.1973
 2603SOL    HW119271   0.019   2.155   4.763 -0.6039 -0.6809  0.7552
 2603SOL    HW219272   0.035   2.289   4.699 -1.2513 -0.0238 -0.8563
 2604SOL     OW19273   4.509   0.390   6.801  0.0076  0.1961 -0.2546
 2604SOL    HW119274   4.519   0.415   6.709  3.4243 -1.8337 -0.4314
 2604SOL    HW219275   4.459   0.311   6.783  0.6647  0.3175 -2.6430
 2605SOL     OW19276   3.259   3.914   8.827  0.0846  0.5344  0.0776
 2605SOL    HW119277   3.300   3.833   8.797  0.1937  0.9687 -0.9612
 2605SOL    HW219278   3.293   3.923   8.915  0.0193 -0.2321  0.1791
 2606SOL     OW19279   1.417   3.595   4.635 -0.1238  0.3344  0.0943
 2606SOL    HW119280   1.391   3.617   4.724 -0.2888  0.5819 -0.0166
 2606SOL    HW219281   1.367   3.657   4.582  0.7618 -1.1709 -2.5071
 2607SOL     OW19282   3.758   0.096   5.439  1.1640  0.4835 -0.6754
 2607SOL    HW119283   3.667   0.076   5.460  0.6376  0.2520 -3.2205
 2607SOL    HW219284   3.799   0.040   5.505  1.1755  0.5735 -0.6060
 2608SOL     OW19285   4.500   3.489   4.172 -0.1712  0.2960 -0.0468
 2608SOL    HW119286   4.542   3.553   4.114 -0.4380  0.0141 -0.5461
 2608SOL    HW219287   4.514   3.539   4.253  1.1845  2.9448 -1.8990
 2609SOL     OW19288   3.160   1.473   8.924  0.1188  0.6635  0.3478
 2609SOL    HW119289   3.077   1.426   8.932 -0.2001  1.1357 -0.2504
 2609SOL    HW219290   3.132   1.552   8.877  0.6444  1.3095  1.1187
 2610SOL     OW19291   3.061   3.338   7.685 -0.1006  0.1028 -0.2329
 2610SOL    HW119292   3.147   3.308   7.713 -0.1252  0.4407  0.2048
 2610SOL    HW219293   3.021   3.252   7.675 -0.1425 -0.2457  2.8806
 2611SOL     OW19294   3.565   3.890   3.872 -0.1152  0.2185 -0.4743
 2611SOL    HW119295   3.634   3.951   3.899 -2.2447  2.7577 -0.8088
 2611SOL    HW219296   3.560   3.910   3.779  0.9723  2.6717 -0.0088
 2612SOL     OW19297   0.073   1.669   5.966 -0.5976  0.1029  0.5662
 2612SOL    HW119298   0.110   1.664   5.878 -1.0872 -0.9666  0.4239
 2612SOL    HW219299   0.157   1.668   6.010  0.7114  0.1386 -1.9521
 2613SOL     OW19300   3.257   4.350  11.548  0.4081  0.2236 -0.3606
 2613SOL    HW119301   3.171   4.319  11.522  1.0430 -1.6038 -0.2719
 2613SOL    HW219302   3.229   4.413  11.614 -0.4962 -2.7792  2.0855
 2614SOL     OW19303   3.329   3.307   7.167  0.2880 -0.0592 -0.6241
 2614SOL    HW119304   3.408   3.270   7.127  0.5609  0.2989 -0.4224
 2614SOL    HW219305   3.356   3.396   7.188  0.2531 -0.5030  1.3321
 2615SOL     OW19306   2.394   3.716   6.393 -0.1692  0.5923  0.5062
 2615SOL    HW119307   2.299   3.708   6.383 -0.0023  0.2447 -0.7921
 2615SOL    HW219308   2.408   3.646   6.457  0.9104  0.3299 -0.0154
 2616SOL     OW19309   3.609   1.440   7.144 -0.5564 -0.0024  0.0573
 2616SOL    HW119310   3.525   1.394   7.150  0.1564 -0.9591  2.5311
 2616SOL    HW219311   3.610   1.487   7.227  0.7061  0.2071 -0.0826
 2617SOL     OW19312   4.683   3.365   9.166 -0.3430 -0.3381  0.1410
 2617SOL    HW119313   4.681   3.321   9.251  1.3763  0.4620  0.5824
 2617SOL    HW219314   4.634   3.445   9.189  1.1758  0.3294  1.0478
 2618SOL     OW19315   4.015   4.352   3.548  0.1724 -0.0231 -0.4791
 2618SOL    HW119316   3.982   4.387   3.465 -0.2896  1.5327  0.3586
 2618SOL    HW219317   3.990   4.427   3.602  1.2174 -0.8988  1.1895
 2619SOL     OW19318   1.087   0.702   2.239  1.0943  0.4657  0.1289
 2619SOL    HW119319   1.002   0.670   2.269  1.0261  0.6148  0.0958
 2619SOL    HW219320   1.126   0.726   2.323  0.8136  0.6546  0.2069
 2620SOL     OW19321   0.882   0.014  14.203 -0.4244 -0.3911 -0.6530
 2620SOL    HW119322   0.863   4.693  14.288  1.2810 -2.6000 -1.2830
 2620SOL    HW219323   0.793   0.018  14.167 -0.5948 -1.2990 -0.3230
 2621SOL     OW19324   3.884   2.754   1.173  0.1943 -0.6095  0.9485
 2621SOL    HW119325   3.843   2.692   1.113  1.4482  0.4954 -1.0686
 2621SOL    HW219326   3.807   2.783   1.221 -0.3198  0.0959 -0.3024
 2622SOL     OW19327   1.743   3.088   7.010  0.1964 -0.3312 -0.2136
 2622SOL    HW119328   1.732   3.182   6.998 -1.5534 -0.5509 -0.3272
 2622SOL    HW219329   1.669   3.067   7.067  1.3157 -1.6416  0.7663
 2623SOL     OW19330   2.119   4.252   6.704  0.0505 -0.5020  0.5374
 2623SOL    HW119331   2.207   4.270   6.738  0.4072 -0.8011 -0.2454
 2623SOL    HW219332   2.086   4.176   6.751 -2.1766  1.1238  1.6097
 2624SOL     OW19333   3.896   0.729   2.028  0.0630  0.4011  0.0444
 2624SOL    HW119334   3.880   0.687   1.944 -2.3039  1.4990 -0.0367
 2624SOL    HW219335   3.844   0.809   2.025 -1.5605 -0.7322 -1.4270
 2625SOL     OW19336   1.372   2.817   5.380 -0.0379 -0.2560 -0.1731
 2625SOL    HW119337   1.304   2.827   5.313  0.9215 -1.6924 -1.3761
 2625SOL    HW219338   1.330   2.797   5.463  1.2256 -0.4302  0.4275
 2626SOL     OW19339   2.432   0.405   2.324  0.6913  0.4950 -0.2381
 2626SOL    HW119340   2.468   0.321   2.353  1.5231  1.1510  0.6545
 2626SOL    HW219341   2.492   0.416   2.251 -0.5738 -2.2608 -1.7120
 2627SOL     OW19342   2.539   1.359   4.288  0.0598 -0.1818 -0.1691
 2627SOL    HW119343   2.573   1.343   4.376  1.4295  0.2363 -0.6244
 2627SOL    HW219344   2.614   1.389   4.236  0.4326  0.5424  0.7941
 2628SOL     OW19345   0.532   0.634   7.064  0.8619 -0.4749 -0.4761
 2628SOL    HW119346   0.578   0.639   6.980  0.0130  0.1929 -0.9058
 2628SOL    HW219347   0.557   0.543   7.079 -1.9224 -1.4486 -1.9289
 2629SOL     OW19348   3.348   0.824   5.515  0.0785 -0.1146  0.4034
 2629SOL    HW119349   3.389   0.747   5.553  0.7998 -0.1428 -0.4285
 2629SOL    HW219350   3.282   0.835   5.583 -1.1986 -0.6110 -0.7457
 2630SOL     OW19351   2.670   1.449   3.372 -0.1711  0.0266 -0.4462
 2630SOL    HW119352   2.622   1.469   3.452  0.9431 -0.1967  0.2822
 2630SOL    HW219353   2.617   1.502   3.313 -1.8827 -0.6021  0.5324
 2631SOL     OW19354   0.201   1.466  16.732  0.2747  0.0522 -0.3020
 2631SOL    HW119355   0.117   1.501  16.703  1.0676  1.5707 -0.7680
 2631SOL    HW219356   0.253   1.477  16.653 -0.3520  0.2699 -0.6876
 2632SOL     OW19357   1.976   2.690  14.105 -0.2281 -0.3374 -0.5497
 2632SOL    HW119358   2.061   2.694  14.149  1.4595 -1.9697 -3.7176
 2632SOL    HW219359   1.957   2.780  14.078  0.3272  0.4194  1.5458
 2633SOL     OW19360   1.858   1.434  15.882  0.2800 -0.2798  0.2541
 2633SOL    HW119361   1.936   1.441  15.826 -1.0149  1.8840 -1.2716
 2633SOL    HW219362   1.802   1.504  15.849 -0.6424 -0.8030  0.7360
 2634SOL     OW19363   3.316   4.558  17.473 -0.1212 -1.1763  0.3792
 2634SOL    HW119364   3.267   4.597  17.546 -1.8218  0.2269 -1.5296
 2634SOL    HW219365   3.364   4.637  17.451 -0.6877 -0.5922  1.2351
 2635SOL     OW19366   0.050   0.809   8.727 -0.5818 -0.2864 -0.2690
 2635SOL    HW119367   0.047   0.727   8.678  0.8304  0.6812 -1.9870
 2635SOL    HW219368   0.003   0.786   8.807  1.3717  0.2258  1.0028
 2636SOL     OW19369   4.668   1.170  11.915  0.3589  0.3090  0.0897
 2636SOL    HW119370   0.024   1.109  11.907  0.4143  0.0803  2.3303
 2636SOL    HW219371   4.594   1.113  11.897  0.3473  0.3227  0.0936
 2637SOL     OW19372   1.599   2.224   0.056 -0.8715 -0.2376 -0.2783
 2637SOL    HW119373   1.539   2.174   0.111 -1.1467  0.9072  0.4585
 2637SOL    HW219374   1.623   2.166  17.657 -0.6636 -0.5003 -0.0052
 2638SOL     OW19375   1.957   3.869   8.429 -0.5431 -0.3442 -0.0318
 2638SOL    HW119376   2.026   3.934   8.440  0.8735 -2.2498  2.3713
 2638SOL    HW219377   1.893   3.922   8.380 -0.0221 -0.9668 -1.3804
 2639SOL     OW19378   3.615   4.289   2.653  0.4334 -0.8620  0.8956
 2639SOL    HW119379   3.525   4.273   2.680  0.3844 -1.0293  0.6384
 2639SOL    HW219380   3.645   4.200   2.635  2.5582 -0.2648  1.5353
 2640SOL     OW19381   2.968   1.384   1.310 -0.0253 -0.2168  0.6115
 2640SOL    HW119382   3.044   1.434   1.339  0.1496 -1.4962  2.3948
 2640SOL    HW219383   2.969   1.396   1.215 -1.0248  1.4831  0.8121
 2641SOL     OW19384   2.485   2.391   6.566  0.5124  0.0464 -0.2532
 2641SOL    HW119385   2.502   2.347   6.649  0.6066 -0.1485 -0.3760
 2641SOL    HW219386   2.517   2.325   6.506 -0.1405 -2.6985  2.4147
 2642SOL     OW19387   2.918   4.207   3.966  0.1752  0.3674  0.3484
 2642SOL    HW119388   2.901   4.258   3.887 -0.4962  3.0413  2.2455
 2642SOL    HW219389   2.870   4.128   3.939 -1.1762  0.7323  1.7377
 2643SOL     OW19390   0.245   3.293   8.618  0.2143 -0.4132 -0.2407
 2643SOL    HW119391   0.204   3.373   8.584  0.5209 -0.1890 -0.0782
 2643SOL    HW219392   0.272   3.331   8.701 -0.4795 -0.8036  0.1626
 2644SOL     OW19393   4.711   3.297   6.681  0.3166 -0.4032 -0.0816
 2644SOL    HW119394   0.043   3.226   6.722 -0.2692 -1.5460 -1.3030
 2644SOL    HW219395   4.622   3.280   6.713  0.4919  0.2439  0.7184
 2645SOL     OW19396   0.797   1.453   2.482  0.1548  0.7182 -0.3051
 2645SOL    HW119397   0.783   1.457   2.577  0.2640 -0.2270 -0.2561
 2645SOL    HW219398   0.734   1.518   2.451  0.8572  0.3836 -2.4312
 2646SOL     OW19399   0.428   4.107   6.699  0.4255 -0.4132  0.3330
 2646SOL    HW119400   0.502   4.069   6.652  0.0032 -1.0679  0.2017
 2646SOL    HW219401   0.357   4.107   6.635 -0.6185  2.2770  1.4697
 2647SOL     OW19402   3.266   3.388  11.786  0.4524  0.2948  0.6942
 2647SOL    HW119403   3.257   3.366  11.878 -1.2876 -2.1668 -0.0833
 2647SOL    HW219404   3.315   3.318  11.742 -1.6672 -1.5039  1.2265
 2648SOL     OW19405   4.671   0.304   9.538 -0.2617 -0.1258  0.5792
 2648SOL    HW119406   4.651   0.397   9.546 -1.2534 -0.1666 -1.4843
 2648SOL    HW219407   0.042   0.292   9.571  1.3875  3.6754 -2.4737
 2649SOL     OW19408   3.960   4.066   4.124 -0.3145 -0.5299  0.7544
 2649SOL    HW119409   3.968   3.995   4.188  2.1085 -0.9924 -0.0519
 2649SOL    HW219410   3.991   4.134   4.184 -0.5714  0.0053  0.2766
 2650SOL     OW19411   2.880   1.331   0.216  0.1402  0.4059  0.0966
 2650SOL    HW119412   2.790   1.301   0.203  0.6211 -1.1535  0.3556
 2650SOL    HW219413   2.902   1.337   0.123  2.1779 -2.2703  0.3969
 2651SOL     OW19414   3.413   3.497   3.378  0.2470  0.2685 -0.2637
 2651SOL    HW119415   3.427   3.403   3.366 -1.7684  0.1560 -1.6432
 2651SOL    HW219416   3.319   3.508   3.367  0.4304 -0.2163 -2.1852
 2652SOL     OW19417   0.998   0.326  17.116  0.6631  0.3916 -0.0784
 2652SOL    HW119418   1.063   0.322  17.046  0.7262 -0.0350  0.0013
 2652SOL    HW219419   0.922   0.289  17.069  0.8363  3.2613 -2.5787
 2653SOL     OW19420   0.899   3.918   3.576 -0.4866  0.7686 -0.3997
 2653SOL    HW119421   0.990   3.933   3.549 -0.8088  0.9182 -1.4060
 2653SOL    HW219422   0.849   3.925   3.495  0.6472  0.1344 -1.1542
 2654SOL     OW19423   3.447   0.648   3.633  0.5964  0.3331 -0.1709
 2654SOL    HW119424   3.385   0.695   3.578 -0.3835 -1.1746 -0.3426
 2654SOL    HW219425   3.520   0.710   3.634  1.8616 -1.1586 -0.7467
 2655SOL     OW19426   0.959   4.422  12.933 -0.2487 -0.1762  0.0586
 2655SOL    HW119427   1.039   4.459  12.969  0.5897  0.3650 -2.4159
 2655SOL    HW219428   0.975   4.341  12.885 -0.1880  1.2077 -2.2465
 2656SOL     OW19429   4.612   0.939   9.153  0.3060 -0.6112  0.5273
 2656SOL    HW119430   4.692   0.898   9.118  1.3408  0.3157  1.8091
 2656SOL    HW219431   4.628   1.029   9.123  1.2399 -0.7323  0.6592
 2657SOL     OW19432   1.948   0.912  13.200 -0.2880 -0.3947  0.6236
 2657SOL    HW119433   1.856   0.924  13.177  0.2825  2.6880 -0.0934
 2657SOL    HW219434   1.989   0.900  13.115 -0.2151  0.8475  0.4846
 2658SOL     OW19435   4.689   4.020   0.449 -0.2267 -0.6490  0.5686
 2658SOL    HW119436   4.694   4.094   0.509  1.6441  0.8573 -1.4590
 2658SOL    HW219437   0.026   3.952   0.490 -0.1300 -0.0616  1.4253
 2659SOL     OW19438   1.223   4.007   5.016 -0.6757 -0.4906 -0.3042
 2659SOL    HW119439   1.181   4.004   4.930  0.1363 -2.1166 -0.6452
 2659SOL    HW219440   1.254   4.097   5.025  1.6484 -1.3015 -0.1642
 2660SOL     OW19441   2.412   4.202  17.568  0.1949  0.1800 -0.2496
 2660SOL    HW119442   2.377   4.150  17.640 -0.2045  0.0448 -0.5454
 2660SOL    HW219443   2.463   4.132  17.526 -1.5751 -1.4858  0.3465
 2661SOL     OW19444   2.326   0.718   6.545  0.3804  0.0773 -0.0959
 2661SOL    HW119445   2.328   0.810   6.520  0.9330  0.6121  1.9077
 2661SOL    HW219446   2.418   0.703   6.566  0.2761 -0.9045 -0.3334
 2662SOL     OW19447   4.057   4.375   7.944 -0.0726 -0.4437  0.3970
 2662SOL    HW119448   4.032   4.464   7.969  1.0628 -0.2135  0.7503
 2662SOL    HW219449   4.130   4.392   7.885  0.3454  3.6976  2.0792
 2663SOL     OW19450   2.701   1.930   3.848 -0.2878  0.0444  0.1696
 2663SOL    HW119451   2.761   1.904   3.779 -1.4258 -1.5926 -0.2029
 2663SOL    HW219452   2.677   2.014   3.808  1.1217 -0.2354 -1.2150
 2664SOL     OW19453   2.229   2.098   2.627 -0.4081  0.1801 -0.2231
 2664SOL    HW119454   2.254   2.136   2.544  2.0900 -0.6741  0.1427
 2664SOL    HW219455   2.314   2.056   2.639 -0.0768  1.2332  1.0707
 2665SOL     OW19456   3.845   1.262   8.178 -0.1735 -0.6726 -0.1440
 2665SOL    HW119457   3.870   1.333   8.238  0.0364 -1.6230  0.8937
 2665SOL    HW219458   3.779   1.216   8.230 -0.5543  2.0150  1.7280
 2666SOL     OW19459   0.913   4.236   6.723 -0.0918  0.0158  0.2585
 2666SOL    HW119460   0.973   4.162   6.714  0.1122  0.0606  1.2325
 2666SOL    HW219461   0.947   4.291   6.794 -1.3759 -1.0556  1.6947
 2667SOL     OW19462   2.074   3.348   0.832 -0.0323 -0.3136 -0.2746
 2667SOL    HW119463   2.091   3.409   0.760  2.1139  0.1640  0.6343
 2667SOL    HW219464   2.162   3.333   0.866  0.2307  0.6522 -0.5198
 2668SOL     OW19465   2.994   1.267   7.576 -0.4034  0.0811  0.4189
 2668SOL    HW119466   3.045   1.206   7.630 -0.2310 -0.6502 -0.5643
 2668SOL    HW219467   3.063   1.329   7.553  0.9882 -0.8021  2.1372
 2669SOL     OW19468   0.787   1.075   4.179 -0.3300 -0.2340  0.0259
 2669SOL    HW119469   0.744   1.054   4.262 -0.6557  2.3697  0.4948
 2669SOL    HW219470   0.799   0.995   4.127  0.0495  1.1466 -2.0211
 2670SOL     OW19471   0.167   3.192   9.622  0.6944 -0.2526 -0.1551
 2670SOL    HW119472   0.225   3.117   9.610  1.8057  0.7919 -1.1863
 2670SOL    HW219473   0.114   3.170   9.699 -0.4268  2.0483 -0.2675
 2671SOL     OW19474   4.291   3.221   1.838  0.1172 -0.3711 -0.5655
 2671SOL    HW119475   4.221   3.277   1.871 -1.1953 -2.0761 -0.4043
 2671SOL    HW219476   4.367   3.274   1.860  0.6161 -1.4019  0.1645
 2672SOL     OW19477   0.486   3.010   4.715 -0.0454 -0.6883 -0.3675
 2672SOL    HW119478   0.472   3.078   4.649 -0.3301 -0.2148  0.1756
 2672SOL    HW219479   0.470   2.930   4.665 -0.7887  0.7738 -2.4589
 2673SOL     OW19480   4.657   1.400   7.776 -0.4638  0.0781  0.0008
 2673SOL    HW119481   4.586   1.428   7.834 -0.6932 -1.1167  0.3024
 2673SOL    HW219482   4.669   1.466   7.708 -0.1292  0.1670  0.1491
 2674SOL     OW19483   0.140   0.029   8.478 -0.1438 -0.2027 -0.2931
 2674SOL    HW119484   0.119   0.092   8.409 -0.9994 -0.6921 -0.4698
 2674SOL    HW219485   0.093   0.052   8.558 -1.2756  1.7856 -1.5058
 2675SOL     OW19486   0.049   0.160   4.619  0.1896  0.5579 -0.0572
 2675SOL    HW119487   0.059   0.085   4.677 -0.0893 -1.2960 -2.3884
 2675SOL    HW219488   0.005   0.108   4.551  0.6971  1.2977 -0.9485
 2676SOL     OW19489   1.597   4.576  14.236  0.4755  0.1652  0.3341
 2676SOL    HW119490   1.601   4.627  14.155  2.1270 -0.9136 -0.2627
 2676SOL    HW219491   1.505   4.550  14.241  0.5515 -0.5009 -1.8037
 2677SOL     OW19492   0.588   2.565  12.488 -0.2458  0.3094 -0.2051
 2677SOL    HW119493   0.592   2.472  12.506 -0.8726  0.6757  1.8264
 2677SOL    HW219494   0.559   2.602  12.571 -1.0306  0.0008 -0.3481
 2678SOL     OW19495   2.902   0.488   2.177 -0.0684 -0.4772 -0.1823
 2678SOL    HW119496   2.943   0.556   2.230  0.4890 -0.6987 -0.3370
 2678SOL    HW219497   2.901   0.415   2.240 -0.1409 -1.4732 -1.3367
 2679SOL     OW19498   4.503   1.721   8.713  0.2420  0.2968  0.3868
 2679SOL    HW119499   4.535   1.631   8.722  0.2725  0.2916  0.2108
 2679SOL    HW219500   4.541   1.739   8.627  0.3331 -0.2145  0.3218
 2680SOL     OW19501   0.450   0.244   1.147  0.3368 -0.3026  0.1761
 2680SOL    HW119502   0.355   0.241   1.164  0.1169  0.1275 -0.9969
 2680SOL    HW219503   0.470   0.174   1.085  0.6851  0.0347 -0.0900
 2681SOL     OW19504   1.515   2.545  15.012  0.0501  0.7732 -0.0202
 2681SOL    HW119505   1.490   2.501  14.930  0.0600  0.6614  0.0364
 2681SOL    HW219506   1.439   2.603  15.021 -0.2637  0.0556  1.8419
 2682SOL     OW19507   1.084   0.234  15.301  0.1490 -0.5285  0.2732
 2682SOL    HW119508   1.132   0.194  15.229 -0.0519  1.1212 -0.7828
 2682SOL    HW219509   1.050   0.317  15.268  0.8506 -0.8760 -1.3003
 2683SOL     OW19510   2.034   3.918   3.320 -0.4011  0.1213 -0.0376
 2683SOL    HW119511   1.959   3.859   3.328  0.5990 -1.2702 -0.9312
 2683SOL    HW219512   1.996   3.980   3.259 -0.5266 -0.7323 -0.8195
 2684SOL     OW19513   0.743   0.226   2.267  0.1474  0.5533  0.2433
 2684SOL    HW119514   0.648   0.237   2.258  0.0055  1.2842  2.7565
 2684SOL    HW219515   0.745   0.135   2.239 -0.0463 -0.0036  2.0987
 2685SOL     OW19516   3.761   0.903  13.456 -0.0831 -0.3528  0.1544
 2685SOL    HW119517   3.700   0.928  13.386  0.0206  1.5856  0.7714
 2685SOL    HW219518   3.772   0.813  13.425 -0.0971 -0.3431  0.1223
 2686SOL     OW19519   0.453   2.807   4.550 -0.4109  0.3225  0.4225
 2686SOL    HW119520   0.497   2.725   4.572  0.4321  0.2727 -1.4519
 2686SOL    HW219521   0.463   2.804   4.455  0.8716  0.6760  0.5351
 2687SOL     OW19522   1.549   0.573   4.075  0.5981 -0.4934  0.0662
 2687SOL    HW119523   1.625   0.572   4.017 -1.1504  2.0694 -2.2691
 2687SOL    HW219524   1.582   0.608   4.158  1.0907  0.4130 -0.5105
 2688SOL     OW19525   1.233   0.480  14.595 -0.1387  0.4925 -0.3556
 2688SOL    HW119526   1.321   0.442  14.601  1.0034  3.5523  2.1043
 2688SOL    HW219527   1.206   0.482  14.687 -0.1998  0.1765 -0.3649
 2689SOL     OW19528   0.688   4.710   7.773 -0.4640 -1.1490  0.2892
 2689SOL    HW119529   0.752   4.640   7.780  1.0951  0.2706  0.1953
 2689SOL    HW219530   0.636   4.692   7.851  0.7524  2.4003  1.9094
 2690SOL     OW19531   1.840   2.727   0.630 -0.2866 -0.3085  0.6613
 2690SOL    HW119532   1.762   2.715   0.684 -0.7901 -0.8727 -0.1948
 2690SOL    HW219533   1.811   2.755   0.543 -1.6819 -0.4346  1.0802
 2691SOL     OW19534   3.663   0.074   4.017 -0.7767 -0.9997 -0.3276
 2691SOL    HW119535   3.643   0.162   3.986  0.4610 -0.7417 -0.4016
 2691SOL    HW219536   3.737   0.079   4.078 -0.7666 -0.2238 -0.4082
 2692SOL     OW19537   4.028   2.741   2.758 -0.1624 -0.3402 -0.1295
 2692SOL    HW119538   4.085   2.664   2.753  0.5588  0.1827  0.0590
 2692SOL    HW219539   4.038   2.767   2.667 -1.2678  3.0659  0.7311
 2693SOL     OW19540   3.868   0.165  10.352 -0.5537 -0.1329  0.0593
 2693SOL    HW119541   3.884   0.072  10.341  2.6322  0.1051  2.9530
 2693SOL    HW219542   3.775   0.145  10.337 -0.7198 -0.0212  0.9340
 2694SOL     OW19543   3.817   3.405  14.461 -0.0140 -0.1149  0.3166
 2694SOL    HW119544   3.851   3.370  14.379  0.3713  0.2432  0.3193
 2694SOL    HW219545   3.723   3.389  14.453 -0.1589  2.0679 -2.4594
 2695SOL     OW19546   0.836   3.659  11.548  0.7474  0.4206  0.3452
 2695SOL    HW119547   0.790   3.646  11.465 -2.4228  1.4712  1.9539
 2695SOL    HW219548   0.764   3.703  11.593  0.5328  0.0971  0.3128
 2696SOL     OW19549   3.023   4.367   8.271 -0.5496  0.2992 -0.0671
 2696SOL    HW119550   3.023   4.455   8.310  0.1820 -0.4400  1.6254
 2696SOL    HW219551   2.996   4.386   8.181 -2.0889  1.3843  0.6188
 2697SOL     OW19552   2.118   4.046   6.184 -0.3432  0.0046  0.4421
 2697SOL    HW119553   2.035   3.999   6.186 -0.3770  0.0062 -1.0178
 2697SOL    HW219554   2.144   4.058   6.276  0.0475 -3.1184  0.7478
 2698SOL     OW19555   1.238   4.210   3.609  0.2375 -0.3124  0.1232
 2698SOL    HW119556   1.225   4.115   3.606  1.1435 -0.3710 -1.5946
 2698SOL    HW219557   1.208   4.221   3.519  0.6627  1.5903  0.2070
 2699SOL     OW19558   4.023   4.268   4.278 -0.7193 -0.1117 -0.1309
 2699SOL    HW119559   3.939   4.279   4.322 -0.7835  0.1510 -0.3213
 2699SOL    HW219560   4.071   4.247   4.358 -0.6554 -2.1429 -0.6864
 2700SOL     OW19561   0.790   2.647  15.936  0.7132 -0.0547 -0.4882
 2700SOL    HW119562   0.708   2.599  15.954  1.2081 -0.3388  1.0317
 2700SOL    HW219563   0.851   2.575  15.922 -1.0908 -1.6359 -0.1964
 2701SOL     OW19564   2.343   2.394   7.489  0.2688 -0.3984 -0.4160
 2701SOL    HW119565   2.437   2.379   7.499  0.4499  1.5716  0.9226
 2701SOL    HW219566   2.349   2.487   7.510 -0.4456 -0.5362  0.4216
 2702SOL     OW19567   3.295   2.541  12.468 -0.4915  0.1965  0.2061
 2702SOL    HW119568   3.214   2.576  12.430  0.4259  1.2930 -0.7757
 2702SOL    HW219569   3.308   2.618  12.524 -1.5862  0.5987 -0.0953
 2703SOL     OW19570   0.987   0.306   6.203 -0.2398 -0.3094 -0.4805
 2703SOL    HW119571   0.961   0.250   6.130  1.2847 -1.7089  0.0479
 2703SOL    HW219572   0.960   0.243   6.270 -0.5319 -0.0129 -0.3187
 2704SOL     OW19573   0.582   1.509   7.593  0.0567 -0.0197 -0.2575
 2704SOL    HW119574   0.580   1.468   7.680  0.3565 -1.8464 -1.1081
 2704SOL    HW219575   0.500   1.478   7.555 -1.1780  1.0052  1.5639
 2705SOL     OW19576   2.992   0.137   2.066  0.2525  0.2991 -0.1678
 2705SOL    HW119577   2.918   0.146   2.006  0.7471  2.1599 -0.5210
 2705SOL    HW219578   3.039   0.080   2.006  0.9425 -1.2797  1.8989
 2706SOL     OW19579   0.983   0.427   3.851 -0.7148  0.6979  0.0386
 2706SOL    HW119580   0.924   0.356   3.828  2.4857 -1.8550 -0.4087
 2706SOL    HW219581   0.965   0.440   3.944  0.0607 -1.4971  0.4886
 2707SOL     OW19582   2.317   2.688  12.471 -0.2020  0.5883 -0.3563
 2707SOL    HW119583   2.397   2.722  12.511  1.6653 -2.9729 -1.1257
 2707SOL    HW219584   2.309   2.751  12.399 -0.5366  0.6029 -0.3065
 2708SOL     OW19585   0.557   3.108   3.159  0.2418 -0.2075 -0.4483
 2708SOL    HW119586   0.530   3.162   3.085 -1.1016 -1.1963 -0.6694
 2708SOL    HW219587   0.549   3.022   3.118 -0.2186 -0.1391 -0.5108
 2709SOL     OW19588   4.654   0.193   6.280  0.1506 -0.1116 -0.0773
 2709SOL    HW119589   4.632   0.129   6.213 -2.3487  0.8544 -0.1623
 2709SOL    HW219590   0.002   0.148   6.333  0.8661  0.5349 -0.4256
 2710SOL     OW19591   2.941   0.064  14.842  0.1717  0.1210  0.0423
 2710SOL    HW119592   2.853   0.083  14.811  0.5783  1.8146 -0.0764
 2710SOL    HW219593   2.922   0.079  14.934  0.3007  0.3149  0.0378
 2711SOL     OW19594   1.467   0.832   3.679  0.4132  0.2716 -0.3305
 2711SOL    HW119595   1.516   0.831   3.762  1.2462 -1.4901 -0.8338
 2711SOL    HW219596   1.540   0.852   3.620  1.0781  0.8786  0.6982
 2712SOL     OW19597   1.196   2.318   7.797 -0.0043 -0.2289 -0.1327
 2712SOL    HW119598   1.211   2.400   7.844  1.8783 -0.7293  0.1699
 2712SOL    HW219599   1.137   2.282   7.863  0.9093 -0.9123  0.3218
 2713SOL     OW19600   0.116   4.626   9.503 -0.7766  0.1286 -0.2491
 2713SOL    HW119601   0.142   4.558   9.566 -0.9928  0.8373  0.6055
 2713SOL    HW219602   0.034   4.596   9.463 -2.3230  3.2732  0.5801
 2714SOL     OW19603   1.467   2.194   2.196 -0.2550 -0.3111  0.7780
 2714SOL    HW119604   1.398   2.129   2.180  0.5307 -1.2277  1.0977
 2714SOL    HW219605   1.418   2.253   2.253  0.6766 -1.8037  3.1349
 2715SOL     OW19606   4.587   2.946   3.213  0.7143 -0.1734  0.1748
 2715SOL    HW119607   4.584   2.917   3.121 -0.8940  1.4263 -0.2862
 2715SOL    HW219608   4.678   2.920   3.226  0.2944 -1.6987  0.0703
 2716SOL     OW19609   1.956   1.481   4.306  0.3869 -0.0826 -0.3855
 2716SOL    HW119610   1.996   1.405   4.262  1.4278  0.4422 -0.3436
 2716SOL    HW219611   1.889   1.503   4.242  0.5003 -0.9948 -0.8235
 2717SOL     OW19612   1.374   4.178   2.741 -0.6163  0.1645  1.0568
 2717SOL    HW119613   1.359   4.115   2.812  1.0725 -1.7108 -0.2431
 2717SOL    HW219614   1.467   4.196   2.752 -0.7920  1.4448  0.4236
 2718SOL     OW19615   3.640   0.012  17.127 -0.1610  0.3473  0.3655
 2718SOL    HW119616   3.715   0.036  17.182 -0.5530  0.3364  0.9050
 2718SOL    HW219617   3.567   0.013  17.189 -0.1229  2.1263  0.3769
 2719SOL     OW19618   3.476   4.355   3.779 -0.3055  0.3153  0.1919
 2719SOL    HW119619   3.495   4.449   3.778  0.7577  0.0946 -0.1933
 2719SOL    HW219620   3.549   4.334   3.836 -0.7021  0.3998  0.7352
 2720SOL     OW19621   4.159   1.703   3.485  1.1112  0.5073  0.5420
 2720SOL    HW119622   4.128   1.628   3.435 -2.0621  1.2362  1.4012
 2720SOL    HW219623   4.236   1.666   3.528 -0.1773 -2.4111  0.3509
 2721SOL     OW19624   4.609   0.472   4.925 -0.2673 -0.5999 -0.3381
 2721SOL    HW119625   4.681   0.460   4.987 -0.2575  1.3048  0.0435
 2721SOL    HW219626   4.657   0.472   4.842  1.3736  3.0241  0.5943
 2722SOL     OW19627   0.044   2.557  13.110  0.4920 -0.1379  0.0582
 2722SOL    HW119628   0.071   2.647  13.090 -1.3573  0.3567 -0.2672
 2722SOL    HW219629   0.099   2.505  13.052 -0.3867 -2.8126  1.6321
 2723SOL     OW19630   0.034   0.696  16.633  0.3463 -0.1404 -0.8231
 2723SOL    HW119631   4.705   0.711  16.551 -1.4156  0.3401  0.2806
 2723SOL    HW219632   4.693   0.634  16.674 -0.4740  0.5977 -0.8891
 2724SOL     OW19633   4.681   3.454   1.566 -0.1480 -0.2786 -0.7534
 2724SOL    HW119634   4.702   3.446   1.473  3.4092 -0.7861  0.1071
 2724SOL    HW219635   4.628   3.375   1.579 -0.2604 -0.1806 -0.6082
 2725SOL     OW19636   1.305   2.219   7.582  0.8422 -0.6035  0.2328
 2725SOL    HW119637   1.273   2.260   7.502 -0.6033 -0.7246  0.7545
 2725SOL    HW219638   1.259   2.267   7.651  1.1054 -0.0995  0.0556
 2726SOL     OW19639   2.953   3.176   5.071  0.3464  0.0829  0.2069
 2726SOL    HW119640   2.881   3.223   5.028  0.3870  1.5608  1.7588
 2726SOL    HW219641   2.984   3.238   5.136 -2.8769  1.5357  0.3490
 2727SOL     OW19642   0.505   4.472   8.432 -0.2383  0.0833 -0.2570
 2727SOL    HW119643   0.567   4.463   8.359  0.5886  3.6668  0.0069
 2727SOL    HW219644   0.437   4.519   8.384  1.5546  2.1872 -0.7340
 2728SOL     OW19645   2.602   3.362   9.687 -0.2967  0.3891 -0.0849
 2728SOL    HW119646   2.547   3.440   9.678 -1.8006 -0.7508 -0.7848
 2728SOL    HW219647   2.692   3.393   9.695 -0.5554  2.2576 -4.5653
 2729SOL     OW19648   2.623   4.008   7.645 -0.8254  0.1788  0.2051
 2729SOL    HW119649   2.608   3.919   7.613 -0.6477  0.7919 -1.5872
 2729SOL    HW219650   2.705   4.016   7.597 -1.5606  0.9639 -0.9196
 2730SOL     OW19651   1.312   3.557   6.409  0.0906 -0.2208 -0.1639
 2730SOL    HW119652   1.291   3.481   6.462  1.9258 -1.8462 -1.7711
 2730SOL    HW219653   1.388   3.524   6.361 -0.6998  0.0534 -1.5936
 2731SOL     OW19654   0.260   2.202   3.551  0.1424  0.0979  0.5276
 2731SOL    HW119655   0.207   2.166   3.622 -1.0883 -3.5060 -2.1825
 2731SOL    HW219656   0.343   2.155   3.555 -0.6364 -1.1124  2.2659
 2732SOL     OW19657   2.749   1.463   2.847  0.5572  0.5191 -0.3096
 2732SOL    HW119658   2.707   1.547   2.862  0.4512  0.4762 -0.3704
 2732SOL    HW219659   2.683   1.416   2.897  0.4898 -0.2490 -1.1091
 2733SOL     OW19660   0.892   0.398  12.475  0.7148 -0.2443  0.1687
 2733SOL    HW119661   0.879   0.398  12.569 -1.2819 -0.9204 -0.1146
 2733SOL    HW219662   0.864   0.485  12.445 -0.7365 -0.3254  1.3426
 2734SOL     OW19663   3.661   0.904   7.619 -0.0026 -0.2511  0.4776
 2734SOL    HW119664   3.717   0.934   7.548  0.3853 -1.4729  0.2653
 2734SOL    HW219665   3.719   0.927   7.693  1.4743  1.8023 -1.3369
 2735SOL     OW19666   2.165   3.623  13.411 -0.4819 -0.0690 -0.1642
 2735SOL    HW119667   2.135   3.593  13.497  0.2860 -1.5409 -0.4053
 2735SOL    HW219668   2.137   3.556  13.349  2.1124  1.1209 -2.6501
 2736SOL     OW19669   3.872   0.059   4.228 -0.0507  0.7320 -0.2250
 2736SOL    HW119670   3.881   0.012   4.311 -2.3083 -1.8905 -1.4274
 2736SOL    HW219671   3.961   0.087   4.210 -0.5004  1.2629 -1.6031
 2737SOL     OW19672   3.598   0.611  16.707 -0.3225 -0.0779 -0.1989
 2737SOL    HW119673   3.578   0.544  16.773  0.0128  0.8279  0.8297
 2737SOL    HW219674   3.516   0.623  16.660 -0.4254  0.5894  0.1522
 2738SOL     OW19675   2.758   2.776   1.797 -0.0634  0.3664 -0.3289
 2738SOL    HW119676   2.717   2.690   1.787 -1.1514  1.1072 -2.2470
 2738SOL    HW219677   2.726   2.819   1.718  0.0727  0.2304 -0.4583
 2739SOL     OW19678   4.377   0.370   4.835  0.0338  1.1465 -0.2026
 2739SOL    HW119679   4.461   0.390   4.876 -0.8776  1.4901  1.5281
 2739SOL    HW219680   4.368   0.275   4.842  0.4103  1.1753  0.6595
 2740SOL     OW19681   0.899   3.353   2.070  0.7619  0.3268  0.3174
 2740SOL    HW119682   0.961   3.311   2.130  1.7254  0.0626 -0.8678
 2740SOL    HW219683   0.813   3.313   2.071  1.6263 -1.5472 -0.0749
 2741SOL     OW19684   0.056   0.698   0.948 -0.4670 -0.0953  0.3135
 2741SOL    HW119685   0.009   0.713   1.031  0.0543  1.8625  0.2476
 2741SOL    HW219686   0.125   0.650   0.994 -2.6934 -3.2982  0.3982
 2742SOL     OW19687   0.698   3.865   1.142 -0.0880 -0.1910  0.1823
 2742SOL    HW119688   0.668   3.776   1.159 -0.3978 -0.0937  0.1401
 2742SOL    HW219689   0.618   3.916   1.131  0.1493  0.0287 -0.5476
 2743SOL     OW19690   3.193   1.241   6.400  0.2533 -0.5797  0.1218
 2743SOL    HW119691   3.108   1.246   6.443  0.3748  1.7461  0.1030
 2743SOL    HW219692   3.202   1.336   6.391 -2.0201 -0.3257  0.4304
 2744SOL     OW19693   2.837   3.205  11.544  0.1059  0.2166  0.9583
 2744SOL    HW119694   2.859   3.208  11.451  2.2313  0.6514  1.4818
 2744SOL    HW219695   2.742   3.218  11.552  0.2636  2.3110 -0.5988
 2745SOL     OW19696   2.166   1.258   6.662 -0.2184  0.3235 -0.5024
 2745SOL    HW119697   2.178   1.290   6.751  3.3085 -2.4396 -0.0224
 2745SOL    HW219698   2.159   1.339   6.611  0.6084  1.6888  1.5575
 2746SOL     OW19699   0.397   2.375  15.794 -0.0726  0.0016 -0.0253
 2746SOL    HW119700   0.479   2.326  15.789  0.1133  0.3266 -0.1592
 2746SOL    HW219701   0.331   2.333  15.740 -1.6465  2.0077  0.3213
 2747SOL     OW19702   0.541   0.692  11.896  0.4724 -0.3779  0.1058
 2747SOL    HW119703   0.521   0.614  11.845 -1.6681  1.8483 -2.5303
 2747SOL    HW219704   0.616   0.731  11.849  0.1153  0.0895 -0.0783
 2748SOL     OW19705   1.348   3.812  17.033 -0.3429 -0.2569  1.2230
 2748SOL    HW119706   1.340   3.885  16.971 -2.2692 -0.9774  0.6165
 2748SOL    HW219707   1.262   3.771  17.026  1.4971 -3.5379 -2.4741
 2749SOL     OW19708   3.542   1.792   6.559 -0.4172  0.0573 -0.2031
 2749SOL    HW119709   3.592   1.742   6.625 -5.9462 -1.2294  3.0352
 2749SOL    HW219710   3.582   1.879   6.566  0.9523 -0.7296  1.8803
 2750SOL     OW19711   1.706   4.214   9.322 -0.1049  0.0851  0.2494
 2750SOL    HW119712   1.625   4.163   9.311  0.4928 -0.5857 -1.1180
 2750SOL    HW219713   1.767   4.140   9.312 -0.5798 -0.2730 -0.0196
 2751SOL     OW19714   2.807   0.376  16.939 -0.0259 -0.0709 -0.5776
 2751SOL    HW119715   2.738   0.440  16.956  0.7028  0.1779  1.4619
 2751SOL    HW219716   2.764   0.294  16.917  2.1576 -0.9189 -1.6828
 2752SOL     OW19717   1.997   3.250   1.120  0.0978  0.3012  0.3940
 2752SOL    HW119718   2.036   3.280   1.037  0.0155  0.2462  0.3354
 2752SOL    HW219719   2.010   3.157   1.100 -0.0703  0.3691 -0.0386
 2753SOL     OW19720   2.430   3.769   3.870  0.7340 -0.0626  0.2015
 2753SOL    HW119721   2.522   3.743   3.860  1.0062 -0.3683  3.3302
 2753SOL    HW219722   2.406   3.806   3.786  2.2151 -0.5491 -0.4339
 2754SOL     OW19723   1.199   3.511  15.976  0.6165 -0.2992 -0.1679
 2754SOL    HW119724   1.112   3.498  16.013  0.5613 -0.3121 -0.3017
 2754SOL    HW219725   1.184   3.603  15.951 -2.9461 -0.9509 -0.4388
 2755SOL     OW19726   1.711   4.063   8.562  0.1896  0.1660 -0.1429
 2755SOL    HW119727   1.790   4.090   8.609 -0.4858  0.4545  0.8286
 2755SOL    HW219728   1.741   4.078   8.473  0.9161 -0.8397 -0.0619
 2756SOL     OW19729   3.135   0.890   2.901  0.2069 -0.1584  0.1619
 2756SOL    HW119730   3.220   0.935   2.901  0.0084  0.2338 -0.9950
 2756SOL    HW219731   3.093   0.930   2.825 -3.7604  1.9375  3.4705
 2757SOL     OW19732   4.122   4.613   6.009  0.1638 -0.2593  0.7906
 2757SOL    HW119733   4.180   4.613   5.932 -1.9890  1.8921 -0.8160
 2757SOL    HW219734   4.109   4.704   6.035  0.8814 -0.0592  0.4528
 2758SOL     OW19735   0.785   1.624   0.416  0.0299 -0.4326  0.1345
 2758SOL    HW119736   0.863   1.605   0.468  2.1667  0.8270 -2.5940
 2758SOL    HW219737   0.762   1.693   0.478  0.1061  1.7413 -2.2297
 2759SOL     OW19738   3.969   4.491   0.857 -0.3970 -0.6316 -0.7466
 2759SOL    HW119739   3.922   4.509   0.938 -0.3502 -2.0735 -0.3928
 2759SOL    HW219740   3.983   4.396   0.861  1.1686 -0.3296  0.8320
 2760SOL     OW19741   3.133   3.987   2.484 -0.0983 -0.2073 -0.1402
 2760SOL    HW119742   3.129   3.911   2.543 -0.9502  1.1922  1.6179
 2760SOL    HW219743   3.208   3.961   2.430 -2.0136 -0.9674 -2.4244
 2761SOL     OW19744   1.209   2.590   8.319  0.7574  0.3313  0.2538
 2761SOL    HW119745   1.126   2.559   8.355  0.9451  0.7206  1.0171
 2761SOL    HW219746   1.219   2.509   8.269 -0.3305 -1.3902  2.8090
 2762SOL     OW19747   1.242   3.675   7.339  0.4747 -0.1895 -0.6340
 2762SOL    HW119748   1.184   3.732   7.289 -1.5314 -0.9045  0.8583
 2762SOL    HW219749   1.276   3.734   7.406  2.5323 -0.6679 -1.2464
 2763SOL     OW19750   4.430   2.172   2.708  0.0008  0.0420 -0.5125
 2763SOL    HW119751   4.441   2.077   2.704  0.0835 -0.1333  3.4676
 2763SOL    HW219752   4.512   2.200   2.748  0.4071 -1.5640 -0.2432
 2764SOL     OW19753   1.318   2.924  11.582 -0.0929 -0.5079 -0.3797
 2764SOL    HW119754   1.372   2.845  11.575 -1.2067 -1.1843 -1.5072
 2764SOL    HW219755   1.327   2.953  11.672  0.9019 -0.7238 -0.4074
 2765SOL     OW19756   3.152   0.566   7.681 -0.2397 -0.6283 -0.0375
 2765SOL    HW119757   3.241   0.551   7.713  0.2665  0.2937 -1.0047
 2765SOL    HW219758   3.098   0.580   7.759 -2.4161 -1.8786 -1.3154
 2766SOL     OW19759   2.863   4.298   8.490 -0.0378 -0.1305 -0.2292
 2766SOL    HW119760   2.901   4.333   8.409  0.0166  1.5837  0.5421
 2766SOL    HW219761   2.871   4.361   8.562  1.5603  0.4482 -0.9176
 2767SOL     OW19762   2.638   3.741   9.246  0.1519  0.0260 -0.0375
 2767SOL    HW119763   2.660   3.781   9.161  0.5518 -2.6050 -1.1750
 2767SOL    HW219764   2.680   3.809   9.299  1.0239 -2.9089  3.0187
 2768SOL     OW19765   1.071   3.929  10.976  0.3017 -0.3335  0.2316
 2768SOL    HW119766   1.048   3.995  11.041  1.0718 -0.6587  0.8296
 2768SOL    HW219767   1.000   3.917  10.913 -2.1797 -0.4877  3.1038
 2769SOL     OW19768   1.929   1.961  12.871 -0.5029 -0.2829  0.4475
 2769SOL    HW119769   1.912   2.012  12.792  1.6237 -1.4664 -0.7927
 2769SOL    HW219770   1.904   2.022  12.941 -0.6122  0.0391  0.1282
 2770SOL     OW19771   4.031   0.721   5.035 -0.6156  0.2764  0.2362
 2770SOL    HW119772   4.048   0.770   4.954 -0.0095 -0.3554 -0.0238
 2770SOL    HW219773   4.089   0.647   5.020 -3.6146 -1.7682 -1.1664
 2771SOL     OW19774   0.208   3.457  16.553  0.3184  0.3669 -0.2749
 2771SOL    HW119775   0.277   3.453  16.620  0.6947  1.1739 -0.6136
 2771SOL    HW219776   0.245   3.525  16.496  3.3427 -0.9895  0.0465
 2772SOL     OW19777   1.162   3.393   1.800 -0.0477  0.4487  0.3529
 2772SOL    HW119778   1.194   3.408   1.711 -2.7221  1.0316 -0.5043
 2772SOL    HW219779   1.174   3.298   1.800 -0.4294  0.3976 -0.2971
 2773SOL     OW19780   4.013   3.029   3.317  0.5371 -0.0417  0.0370
 2773SOL    HW119781   4.033   3.119   3.291 -1.0997  1.1025  2.7715
 2773SOL    HW219782   3.917   3.030   3.318  0.5201 -1.6786  0.6844
 2774SOL     OW19783   0.156   1.813  17.061 -0.0667 -0.3204 -0.1865
 2774SOL    HW119784   0.132   1.810  16.968 -1.3821 -0.4631  0.1518
 2774SOL    HW219785   0.236   1.762  17.065 -0.0005 -0.0951  1.3287
 2775SOL     OW19786   4.442   4.185   8.054 -0.3894 -0.6953  0.2912
 2775SOL    HW119787   4.453   4.171   7.960  1.2999 -1.4072  0.5980
 2775SOL    HW219788   4.462   4.104   8.100  1.2864  0.2042  1.1764
 2776SOL     OW19789   0.143   2.924   4.156  0.1237  0.1110 -0.3981
 2776SOL    HW119790   0.172   3.008   4.191 -0.1365 -0.4505  1.1987
 2776SOL    HW219791   0.175   2.927   4.066  0.7327 -1.0161 -0.2223
 2777SOL     OW19792   1.118   0.400  13.485  0.0313  0.0900  0.0015
 2777SOL    HW119793   1.091   0.354  13.564  0.2120  0.7434  0.4468
 2777SOL    HW219794   1.197   0.444  13.517  1.1496 -0.9527 -1.3442
 2778SOL     OW19795   1.538   3.656  14.208 -0.2129  0.8781 -0.2799
 2778SOL    HW119796   1.598   3.701  14.267  0.7739  0.7815 -1.2146
 2778SOL    HW219797   1.487   3.603  14.269  0.4205 -0.7994 -1.1928
 2779SOL     OW19798   2.582   0.323   5.069 -1.0003  0.0237 -0.5005
 2779SOL    HW119799   2.646   0.392   5.081  0.8464 -1.6621 -0.6108
 2779SOL    HW219800   2.609   0.289   4.984 -0.5642 -0.7454 -0.0540
 2780SOL     OW19801   1.224   4.033   4.212  0.3598 -0.4368  0.5098
 2780SOL    HW119802   1.219   4.123   4.179 -2.9863 -0.6156  0.5095
 2780SOL    HW219803   1.290   3.990   4.158  1.1502 -0.0641  1.1761
 2781SOL     OW19804   2.922   1.315   8.968 -0.0235 -0.1890 -0.1367
 2781SOL    HW119805   2.868   1.394   8.970  2.2475  1.4161 -2.3789
 2781SOL    HW219806   2.889   1.269   9.045 -0.5679 -0.9380 -0.8243
 2782SOL     OW19807   2.959   1.979   4.617  0.3797 -0.2458 -0.1053
 2782SOL    HW119808   3.003   2.063   4.619  1.2028 -0.6989  0.5245
 2782SOL    HW219809   2.903   1.985   4.539  0.9639  1.3660 -0.4055
 2783SOL     OW19810   2.111   4.434  17.277 -0.1293  0.0378  0.2769
 2783SOL    HW119811   2.134   4.489  17.201  1.0324  1.2127  1.4805
 2783SOL    HW219812   2.081   4.362  17.221 -2.3643  1.3186 -0.1513
 2784SOL     OW19813   2.572   3.523   0.101 -0.2696 -0.7419  0.3893
 2784SOL    HW119814   2.478   3.531   0.113 -0.0844  0.4842  0.9249
 2784SOL    HW219815   2.594   3.545   0.191  1.9168  1.1051 -0.5894
 2785SOL     OW19816   0.047   3.757  11.853  0.1855  0.0683  0.4300
 2785SOL    HW119817   0.111   3.828  11.857  0.6961 -0.2322 -2.8194
 2785SOL    HW219818   0.033   3.733  11.945  1.3108 -3.4867 -0.2846
 2786SOL     OW19819   4.292   3.528  16.933  0.0542 -0.1927  0.3078
 2786SOL    HW119820   4.280   3.599  16.870 -0.4432 -0.0558  0.5506
 2786SOL    HW219821   4.301   3.463  16.864 -0.9962  1.0992 -1.0358
 2787SOL     OW19822   4.095   0.421  11.450 -0.9895 -0.2463  0.0476
 2787SOL    HW119823   4.142   0.435  11.532 -1.2046 -0.3983  0.1993
 2787SOL    HW219824   4.170   0.418  11.391  0.1333  0.8879  1.4073
 2788SOL     OW19825   3.432   4.692   5.287 -0.1218 -0.2655 -0.2701
 2788SOL    HW119826   3.364   4.625   5.281 -1.7830  1.1651  2.8002
 2788SOL    HW219827   3.497   4.639   5.333  1.7506 -0.0763 -2.6691
 2789SOL     OW19828   1.233   0.089   1.253 -0.4673 -0.1805 -0.1857
 2789SOL    HW119829   1.274   0.014   1.294  1.0157  1.4607  1.3294
 2789SOL    HW219830   1.180   0.122   1.326 -2.7227 -1.7467 -1.1270
 2790SOL     OW19831   0.865   1.030  10.634 -0.3103  0.1201 -0.5577
 2790SOL    HW119832   0.784   0.981  10.620  1.0009 -2.0575 -0.4739
 2790SOL    HW219833   0.925   0.956  10.643  0.5232  0.7602 -0.8686
 2791SOL     OW19834   1.806   3.276  11.714  0.0230 -0.2652  0.4144
 2791SOL    HW119835   1.816   3.304  11.805  2.0364 -0.5718  0.2894
 2791SOL    HW219836   1.879   3.328  11.680 -0.3302 -0.8634 -1.2815
 2792SOL     OW19837   0.143   2.885   3.213  0.0474  0.0135 -0.0856
 2792SOL    HW119838   0.202   2.823   3.257  0.5925 -0.3513 -1.3352
 2792SOL    HW219839   0.186   2.970   3.217  0.4803 -0.2648  1.2499
 2793SOL     OW19840   2.959   0.826  11.700 -0.5928 -0.2015  0.5766
 2793SOL    HW119841   2.977   0.829  11.794 -0.7344 -0.0917  0.5994
 2793SOL    HW219842   3.024   0.765  11.663 -0.8175  0.6790 -1.2933
 2794SOL     OW19843   2.082   1.701   8.464  0.1939  0.1635 -0.6171
 2794SOL    HW119844   2.178   1.707   8.467  0.1756 -1.0045  2.2586
 2794SOL    HW219845   2.063   1.673   8.375 -0.5175  0.8258 -0.6766
 2795SOL     OW19846   1.056   0.108   6.978 -0.1530 -0.2192 -0.2108
 2795SOL    HW119847   1.056   0.171   7.050  0.2476 -0.1824 -0.2416
 2795SOL    HW219848   0.962   0.105   6.963 -0.3525  0.9126  0.7724
 2796SOL     OW19849   1.856   0.956   4.673 -0.2673 -0.0216 -0.2153
 2796SOL    HW119850   1.855   0.910   4.757 -1.1456  0.4958  0.0560
 2796SOL    HW219851   1.894   0.891   4.614  2.0389  1.6024 -0.5147
 2797SOL     OW19852   1.647   4.156   5.788  0.2063  0.4204 -0.2776
 2797SOL    HW119853   1.676   4.085   5.731 -0.0576 -0.4520  0.6735
 2797SOL    HW219854   1.602   4.210   5.723 -0.7208 -0.5149 -0.4134
 2798SOL     OW19855   0.743   4.054   8.276  0.0761  0.0482  0.0107
 2798SOL    HW119856   0.759   4.090   8.364 -0.9574  0.5893 -0.0264
 2798SOL    HW219857   0.664   4.099   8.247  0.8558  1.1960 -0.3169
 2799SOL     OW19858   0.875   2.086   5.807 -0.1602 -0.3967  0.2526
 2799SOL    HW119859   0.878   2.169   5.760 -0.8560 -1.2444 -1.3037
 2799SOL    HW219860   0.860   2.117   5.896 -1.2018  2.5352 -0.9347
 2800SOL     OW19861   2.165   4.400   4.530 -1.0442 -0.3810 -0.3651
 2800SOL    HW119862   2.219   4.322   4.517  0.5793  0.8777 -1.0783
 2800SOL    HW219863   2.183   4.456   4.455  1.9011  1.3881  1.6402
 2801SOL     OW19864   0.039   2.008   7.090  0.1661 -0.0113 -0.6726
 2801SOL    HW119865   0.052   2.102   7.103 -1.3384  0.1346 -0.2344
 2801SOL    HW219866   4.708   1.982   7.168  2.6709 -0.3679  0.7947
 2802SOL     OW19867   0.076   3.948   8.840 -0.7544 -0.0255 -0.5514
 2802SOL    HW119868   0.026   3.916   8.914  1.5598 -0.7090  0.7354
 2802SOL    HW219869   0.056   4.041   8.835 -1.5497 -0.2120 -0.8397
 2803SOL     OW19870   3.895   2.876   0.165  0.3399 -0.3281 -0.1261
 2803SOL    HW119871   3.899   2.781   0.175 -1.3507 -0.3541  0.3287
 2803SOL    HW219872   3.803   2.886   0.141  0.3693 -0.3393 -0.2448
 2804SOL     OW19873   1.156   1.593   5.049 -0.2303 -0.0051 -0.1275
 2804SOL    HW119874   1.108   1.539   4.987  0.8315  1.1689 -1.9777
 2804SOL    HW219875   1.138   1.679   5.013  0.5546  0.1874 -0.0543
 2805SOL     OW19876   1.762   4.081   3.251  0.1329 -0.4387 -0.7022
 2805SOL    HW119877   1.706   4.042   3.185 -0.7016 -0.4675  0.0307
 2805SOL    HW219878   1.697   4.117   3.312  1.2441 -1.5609  1.1663
 2806SOL     OW19879   4.466   0.915   3.791 -0.1597  0.0011 -0.3762
 2806SOL    HW119880   4.379   0.893   3.824  0.2539 -1.2049 -0.0664
 2806SOL    HW219881   4.520   0.867   3.855  2.1262  2.0341 -0.8184
 2807SOL     OW19882   0.199   1.753  13.987 -0.0526 -0.3688  0.4334
 2807SOL    HW119883   0.117   1.704  13.983  0.5068 -1.2752 -0.0163
 2807SOL    HW219884   0.197   1.802  14.069  3.5542  0.6395 -0.0502
 2808SOL     OW19885   1.281   0.233   5.844  0.0675  0.1990  0.2885
 2808SOL    HW119886   1.264   0.139   5.849  0.9308  0.0152 -0.3056
 2808SOL    HW219887   1.193   0.262   5.818 -0.1982 -1.4975 -0.7148
 2809SOL     OW19888   4.202   0.720   6.449  0.3706  0.1485  0.6587
 2809SOL    HW119889   4.208   0.633   6.488 -0.2245 -0.3738 -0.4062
 2809SOL    HW219890   4.133   0.763   6.500 -1.4270  0.1067 -1.7064
 2810SOL     OW19891   2.945   2.951  12.188 -0.3352 -0.3421  0.2927
 2810SOL    HW119892   2.918   3.010  12.117 -0.9626 -2.3492 -1.1132
 2810SOL    HW219893   2.948   2.870  12.137  0.8797  0.9775 -1.7413
 2811SOL     OW19894   3.333   2.251  15.224  0.3905  0.2005 -0.1157
 2811SOL    HW119895   3.265   2.226  15.161  0.4164  1.8588 -0.7734
 2811SOL    HW219896   3.383   2.170  15.215 -0.4265 -0.5834  2.3101
 2812SOL     OW19897   0.383   2.788   8.605  0.0652  0.7588  0.2215
 2812SOL    HW119898   0.289   2.768   8.603 -0.1482  1.8111 -1.3166
 2812SOL    HW219899   0.393   2.878   8.573 -3.6496  0.6532 -1.3372
 2813SOL     OW19900   0.929   2.966  13.266 -0.1978 -0.8880  0.1591
 2813SOL    HW119901   0.886   2.937  13.346  0.2482  1.3533  1.1970
 2813SOL    HW219902   0.846   2.981  13.221  0.4287  0.6248 -0.4760
 2814SOL     OW19903   1.161   4.234   6.974 -0.4729 -0.0419 -0.0834
 2814SOL    HW119904   1.112   4.306   6.935  2.5167  2.6974  1.1818
 2814SOL    HW219905   1.197   4.273   7.053  0.0209 -0.3663 -0.1424
 2815SOL     OW19906   2.519   0.622   4.804 -0.0121  0.4820 -1.0249
 2815SOL    HW119907   2.560   0.538   4.824 -0.8407  0.3801  0.2354
 2815SOL    HW219908   2.589   0.686   4.812  0.4473 -0.3271  1.4100
 2816SOL     OW19909   0.491   4.687   4.592  0.5292 -0.2232 -0.4059
 2816SOL    HW119910   0.475   4.593   4.606  1.4021 -0.5762 -1.6987
 2816SOL    HW219911   0.587   4.684   4.587  0.5029 -1.4017 -0.2607
 2817SOL     OW19912   0.820   3.986   0.919 -0.2202  0.2839  0.0117
 2817SOL    HW119913   0.786   3.920   0.979 -1.7396  0.6212 -0.4734
 2817SOL    HW219914   0.751   4.050   0.930 -0.4275  0.3850 -1.9324
 2818SOL     OW19915   3.910   2.045   2.704 -0.4589  0.2213  0.4586
 2818SOL    HW119916   3.921   2.088   2.789  0.0286  1.4710 -0.2288
 2818SOL    HW219917   3.991   1.999   2.682 -1.2766 -0.7788 -0.4712
 2819SOL     OW19918   4.291   3.923   3.688  0.0815 -0.3082 -0.4581
 2819SOL    HW119919   4.255   3.909   3.600 -0.1863  0.2295 -0.4287
 2819SOL    HW219920   4.282   4.016   3.709  1.2655 -0.4295  0.5423
 2820SOL     OW19921   4.439   1.184   6.188  0.0923  0.0487 -0.2247
 2820SOL    HW119922   4.364   1.174   6.247 -0.1845  1.3076 -0.3579
 2820SOL    HW219923   4.506   1.132   6.232  1.1151  0.0493 -1.7948
 2821SOL     OW19924   3.770   0.595   7.446 -0.0307 -0.0571 -0.6073
 2821SOL    HW119925   3.717   0.530   7.400 -1.2229  1.6636 -1.6953
 2821SOL    HW219926   3.748   0.579   7.537  0.8657  1.3572 -0.1347
 2822SOL     OW19927   1.326   4.083   2.476 -0.4573  0.4496 -0.0514
 2822SOL    HW119928   1.412   4.065   2.439  0.9229  1.0902  2.7893
 2822SOL    HW219929   1.349   4.115   2.564 -0.7417  3.1270 -0.9445
 2823SOL     OW19930   1.183   0.671  13.916 -0.6685  0.4280  0.0107
 2823SOL    HW119931   1.183   0.616  13.837 -0.7805 -0.5507  0.6899
 2823SOL    HW219932   1.213   0.617  13.989  0.5140  1.0317 -0.0315
 2824SOL     OW19933   0.205   1.032   4.530 -1.3700 -0.7470  0.1800
 2824SOL    HW119934   0.167   0.963   4.584 -1.3294 -1.0161 -0.1374
 2824SOL    HW219935   0.204   1.112   4.582 -0.6640 -0.7138  0.1440
 2825SOL     OW19936   1.088   0.079   2.274 -0.6422  0.0931 -0.1137
 2825SOL    HW119937   1.043   0.163   2.280  0.7066  0.7319  1.2257
 2825SOL    HW219938   1.151   0.082   2.347  1.0613 -1.7646 -1.4989
 2826SOL     OW19939   0.888   4.219   3.961 -0.0005  0.3093 -0.6201
 2826SOL    HW119940   0.864   4.126   3.957  1.1314  0.0310 -0.7488
 2826SOL    HW219941   0.896   4.241   4.054  1.8095 -1.7590 -0.3100
 2827SOL     OW19942   3.489   3.824  15.209 -1.2358  0.1485  0.2273
 2827SOL    HW119943   3.577   3.841  15.176 -1.1812 -0.8130 -0.1183
 2827SOL    HW219944   3.484   3.875  15.290  1.1108  1.5533 -0.4860
 2828SOL     OW19945   1.174   1.093   4.086 -0.5905 -0.7562  0.2518
 2828SOL    HW119946   1.157   1.003   4.115 -2.5841 -0.5201 -0.2474
 2828SOL    HW219947   1.259   1.105   4.130 -0.7210  0.2392  0.2168
 2829SOL     OW19948   2.156   4.389   3.594  0.1246  0.2628 -0.1387
 2829SOL    HW119949   2.149   4.323   3.525  1.5702  0.3775 -0.3922
 2829SOL    HW219950   2.166   4.333   3.671  0.4527 -1.3606 -1.3550
 2830SOL     OW19951   3.695   2.247   2.842  0.4625  0.0603  0.4357
 2830SOL    HW119952   3.690   2.262   2.748  1.5491  1.7379  0.6545
 2830SOL    HW219953   3.788   2.258   2.862  0.3413  2.3005 -0.1935
 2831SOL     OW19954   2.983   3.696   5.385  0.2685 -0.6753  0.3519
 2831SOL    HW119955   2.941   3.634   5.444  0.1862 -0.0915  0.9022
 2831SOL    HW219956   3.065   3.711   5.431  0.3660  1.7197 -0.6339
 2832SOL     OW19957   3.080   2.489   2.374  1.0275  0.0152 -0.5287
 2832SOL    HW119958   2.997   2.476   2.328  1.7690 -1.1764 -1.5402
 2832SOL    HW219959   3.128   2.507   2.293  2.0860 -1.2179 -0.1712
 2833SOL     OW19960   3.948   3.991   6.963  0.0051  0.1818  0.0381
 2833SOL    HW119961   3.907   3.911   6.930  1.7789 -0.3157 -0.9563
 2833SOL    HW219962   4.025   3.963   7.013  0.8388  2.3440 -0.0294
 2834SOL     OW19963   4.194   3.492   5.211  0.4722 -0.2336 -0.3032
 2834SOL    HW119964   4.244   3.474   5.291 -1.3393  0.8282  1.0450
 2834SOL    HW219965   4.208   3.587   5.205 -0.0823 -0.0294  1.6671
 2835SOL     OW19966   2.835   2.223  13.008 -0.3334 -0.0954 -0.3223
 2835SOL    HW119967   2.880   2.155  12.957  2.3160  2.4948 -1.4792
 2835SOL    HW219968   2.894   2.222  13.084 -1.1402  1.0377  0.3065
 2836SOL     OW19969   1.956   2.413  10.387  0.9655  0.0846  0.8000
 2836SOL    HW119970   2.028   2.476  10.381 -0.9950  2.2660  0.3456
 2836SOL    HW219971   1.994   2.340  10.436 -0.8342 -1.5003 -0.1897
 2837SOL     OW19972   2.805   2.446  10.856  0.1354  0.1073  0.3992
 2837SOL    HW119973   2.747   2.377  10.888  0.9061 -0.7185  0.0221
 2837SOL    HW219974   2.839   2.473  10.941  0.6098 -1.6916  0.7847
 2838SOL     OW19975   2.294   0.992   6.653  0.3854 -0.5024 -0.3126
 2838SOL    HW119976   2.276   1.086   6.659  0.4657 -0.6033  1.4941
 2838SOL    HW219977   2.347   0.989   6.732  0.4914  0.0357 -0.3592
 2839SOL     OW19978   3.739   3.552   1.837 -0.2559 -0.0094 -0.2094
 2839SOL    HW119979   3.647   3.531   1.822 -0.6119  1.3024  0.0595
 2839SOL    HW219980   3.794   3.494   1.784 -2.6715 -1.6739 -0.8543
 2840SOL     OW19981   2.492   1.629  15.281  0.4304 -0.1427  0.5852
 2840SOL    HW119982   2.460   1.550  15.237  1.3130  1.0981 -2.2403
 2840SOL    HW219983   2.582   1.634  15.250 -0.3890  0.1567 -1.7688
 2841SOL     OW19984   1.575   4.352  16.286 -0.2804 -0.5464 -0.0858
 2841SOL    HW119985   1.547   4.373  16.197  1.8848 -0.4049 -0.7299
 2841SOL    HW219986   1.665   4.383  16.287 -0.7837  0.7659  2.9407
 2842SOL     OW19987   4.097   0.434   6.404  0.1940 -0.3051 -1.0639
 2842SOL    HW119988   4.068   0.472   6.321  1.4686  1.5429 -0.6582
 2842SOL    HW219989   4.052   0.492   6.465  0.5709  0.2664 -1.3269
 2843SOL     OW19990   3.039   3.228   9.298 -0.5359  0.3983  0.3079
 2843SOL    HW119991   2.998   3.239   9.213 -2.7581  0.5483  1.3996
 2843SOL    HW219992   3.123   3.191   9.271 -1.7269 -0.0069 -2.8172
 2844SOL     OW19993   3.845   1.703   3.678  0.2836 -0.1744 -0.0899
 2844SOL    HW119994   3.940   1.713   3.676  0.5086 -2.5002 -2.7496
 2844SOL    HW219995   3.822   1.723   3.587 -1.2314  0.4176  0.4148
 2845SOL     OW19996   1.128   2.082  12.275 -0.2159 -0.0218 -0.5288
 2845SOL    HW119997   1.160   2.020  12.341 -2.0912 -0.9759 -0.4965
 2845SOL    HW219998   1.035   2.058  12.276  0.0410 -1.0469 -0.5109
 2846SOL     OW19999   2.364   1.355   9.253  0.2470 -0.3322  0.1327
 2846SOL    HW120000   2.453   1.385   9.233 -0.1339  0.1737 -0.8376
 2846SOL    HW220001   2.334   1.334   9.164  2.1716  1.6493 -0.9876
 2847SOL     OW20002   0.377   4.363   6.623  0.0625 -0.4768 -0.0093
 2847SOL    HW120003   0.437   4.310   6.676 -1.2049 -0.4162  1.4601
 2847SOL    HW220004   0.314   4.391   6.689  0.9392 -0.2388  0.7191
 2848SOL     OW20005   0.478   4.444  13.986 -0.0136  0.6350 -0.3622
 2848SOL    HW120006   0.421   4.505  14.035  0.3997 -0.1633  1.1044
 2848SOL    HW220007   0.419   4.374  13.956 -1.0466  0.7374  1.4063
 2849SOL     OW20008   0.829   4.568  12.045 -0.2266  0.4705 -0.1161
 2849SOL    HW120009   0.922   4.581  12.028 -0.5658  0.9497 -1.6117
 2849SOL    HW220010   0.806   4.658  12.064  1.0561 -0.0769  4.0352
 2850SOL     OW20011   4.376   4.053   6.901  0.0462  0.6323 -0.6958
 2850SOL    HW120012   4.459   4.051   6.947  0.9562  1.3618 -2.3238
 2850SOL    HW220013   4.396   4.010   6.817 -2.6720 -1.2422 -0.4098
 2851SOL     OW20014   0.154   2.089   6.456  0.1052 -0.0302  0.3596
 2851SOL    HW120015   0.086   2.022   6.459 -0.0049  0.1490  1.7829
 2851SOL    HW220016   0.118   2.151   6.392  0.6212  1.1933  1.2602
 2852SOL     OW20017   3.970   4.111   3.651  0.1549  0.1613  0.6566
 2852SOL    HW120018   3.976   4.202   3.621 -4.0450 -0.0580 -0.8166
 2852SOL    HW220019   3.910   4.071   3.588  0.0900  1.2096  0.0522
 2853SOL     OW20020   0.412   0.263   7.811  0.2549  0.2749 -0.2769
 2853SOL    HW120021   0.387   0.306   7.729  1.2380  0.6730 -0.3791
 2853SOL    HW220022   0.487   0.312   7.846 -0.2542  1.0137 -0.2263
 2854SOL     OW20023   1.375   1.653   3.862 -0.3887  0.5571  0.4663
 2854SOL    HW120024   1.281   1.645   3.877 -0.5239 -0.5931 -0.9847
 2854SOL    HW220025   1.385   1.747   3.872 -3.0636  0.8840  0.0257
 2855SOL     OW20026   1.903   3.508  13.494 -0.2219  0.1319 -0.2079
 2855SOL    HW120027   1.923   3.537  13.583  1.9872 -1.1689 -0.2859
 2855SOL    HW220028   1.836   3.574  13.474  1.6760  2.5877  1.4471
 2856SOL     OW20029   1.489   0.066   7.849 -0.3749  0.4778  0.4598
 2856SOL    HW120030   1.403   0.029   7.870 -0.2047  0.7331  1.5967
 2856SOL    HW220031   1.490   0.149   7.897 -0.2071  2.1417 -2.3871
 2857SOL     OW20032   4.547   4.668   9.154  0.4054  0.0326 -0.0612
 2857SOL    HW120033   4.544   0.040   9.186 -0.4472  0.2224 -0.6459
 2857SOL    HW220034   4.464   4.663   9.106 -0.7585  0.3726  1.9159
 2858SOL     OW20035   3.528   3.460   3.072  0.3821  0.5084 -0.1010
 2858SOL    HW120036   3.461   3.403   3.109  0.7775  1.0743  1.4935
 2858SOL    HW220037   3.475   3.504   3.006  0.4141 -0.4060 -0.7291
 2859SOL     OW20038   2.349   0.456   9.590 -0.1901 -0.4318 -0.0993
 2859SOL    HW120039   2.370   0.362   9.590  0.4716 -0.2815  0.3409
 2859SOL    HW220040   2.364   0.482   9.499  1.6377 -1.5279 -0.1090
 2860SOL     OW20041   1.013   3.956   9.899 -0.0043 -0.0899 -0.0944
 2860SOL    HW120042   1.036   3.929   9.988 -0.1236 -0.9790 -0.3339
 2860SOL    HW220043   0.918   3.967   9.909 -0.0168  0.7899 -1.1819
 2861SOL     OW20044   3.298   1.659   6.150 -0.2976  0.6330 -0.3046
 2861SOL    HW120045   3.324   1.678   6.240  1.5747  0.8633 -0.9118
 2861SOL    HW220046   3.347   1.729   6.108  0.0159  1.0798  0.8115
 2862SOL     OW20047   0.246   3.609   5.793 -0.0258 -0.3845 -0.7201
 2862SOL    HW120048   0.205   3.579   5.712 -1.0893  0.6710 -0.5722
 2862SOL    HW220049   0.250   3.703   5.778  1.9376 -0.6287 -1.7085
 2863SOL     OW20050   3.994   3.782   0.111 -0.1314  0.6310 -0.1186
 2863SOL    HW120051   4.001   3.844   0.183 -0.8631  0.2796  0.2509
 2863SOL    HW220052   4.021   3.841   0.040  1.6917  1.6135  1.3885
 2864SOL     OW20053   1.068   0.844   5.747 -0.1598 -0.1580  1.2135
 2864SOL    HW120054   1.069   0.892   5.664 -0.3724 -0.5690  0.9677
 2864SOL    HW220055   0.974   0.825   5.748 -0.9330  3.3705 -2.1025
 2865SOL     OW20056   1.004   4.365   3.767 -0.1243  0.0747  0.0520
 2865SOL    HW120057   0.960   4.318   3.838 -1.1536 -0.4297 -0.9425
 2865SOL    HW220058   1.075   4.407   3.816  0.7057  1.5422 -2.4140
 2866SOL     OW20059   3.370   4.472   6.116  0.4310 -0.0066 -0.1212
 2866SOL    HW120060   3.331   4.416   6.049 -0.9869 -0.4733  1.0910
 2866SOL    HW220061   3.457   4.471   6.077 -0.5778  0.6694 -2.3580
 2867SOL     OW20062   0.871   1.056  14.695 -0.1520  0.2090 -0.3460
 2867SOL    HW120063   0.888   1.018  14.609 -2.6287  1.2417 -1.2825
 2867SOL    HW220064   0.808   1.126  14.680 -2.2832 -1.5770  0.1872
 2868SOL     OW20065   0.018   4.320   2.875  0.1670 -0.1368  0.0338
 2868SOL    HW120066   4.709   4.411   2.860 -0.3287  0.0306  1.9028
 2868SOL    HW220067   0.006   4.301   2.968  1.5025 -0.3011  0.1704
 2869SOL     OW20068   2.166   0.430   4.509  0.0565 -0.2617  0.0817
 2869SOL    HW120069   2.182   0.336   4.517 -0.2385 -0.1880  1.4801
 2869SOL    HW220070   2.206   0.454   4.593  2.0204 -2.3444 -0.2420
 2870SOL     OW20071   1.401   4.430  10.877  0.2889  0.3751  0.1492
 2870SOL    HW120072   1.307   4.418  10.867  0.2412  0.2438  0.7657
 2870SOL    HW220073   1.404   4.525  10.873 -3.2111  0.5238  1.1968
 2871SOL     OW20074   4.020   0.679   8.914 -0.4055 -0.6227  0.0545
 2871SOL    HW120075   3.926   0.673   8.897 -0.4901  1.9937 -0.4827
 2871SOL    HW220076   4.018   0.638   9.000  0.0925 -0.5647  0.0936
 2872SOL     OW20077   0.184   0.989   1.210  0.4474 -0.0046  0.1779
 2872SOL    HW120078   0.166   1.065   1.265  0.4273  1.2806 -1.6163
 2872SOL    HW220079   0.278   0.968   1.209  0.0487 -1.8779  2.4066
 2873SOL     OW20080   3.631   2.492   7.936  0.7009 -0.1243 -1.0427
 2873SOL    HW120081   3.710   2.454   7.975 -0.0794  0.8525  1.5001
 2873SOL    HW220082   3.623   2.578   7.977 -1.0977 -0.9628  0.3813
 2874SOL     OW20083   3.030   2.071   8.147 -0.2539 -0.2746  0.6775
 2874SOL    HW120084   2.979   2.003   8.104  0.2446 -0.1639 -0.0932
 2874SOL    HW220085   2.971   2.145   8.132  1.0563  0.8079  0.8070
 2875SOL     OW20086   2.378   0.450  12.505  0.1888  0.5313 -0.3656
 2875SOL    HW120087   2.408   0.361  12.523 -2.0981  0.0620  1.0342
 2875SOL    HW220088   2.312   0.465  12.572  1.8998  1.8168  1.0328
 2876SOL     OW20089   4.067   2.507   9.418  0.3498 -0.5801  0.2820
 2876SOL    HW120090   4.025   2.472   9.496  1.1106 -1.6873  0.2007
 2876SOL    HW220091   4.117   2.435   9.378  0.8816 -0.2826  0.4039
 2877SOL     OW20092   4.592   2.385   8.780  0.4151  0.2657 -0.3825
 2877SOL    HW120093   4.639   2.468   8.777 -0.6465  0.8516 -0.4877
 2877SOL    HW220094   4.637   2.349   8.857  0.4917  1.2726  0.0358
 2878SOL     OW20095   4.096   1.062   6.110  0.5833  0.1154 -0.3965
 2878SOL    HW120096   4.181   1.055   6.067  0.3216  0.0864 -0.9076
 2878SOL    HW220097   4.114   1.135   6.170  1.1271  0.0519 -0.4896
 2879SOL     OW20098   4.455   1.771   3.464 -0.4027 -0.7549 -0.3211
 2879SOL    HW120099   4.431   1.763   3.556  1.5556 -1.2977  0.1291
 2879SOL    HW220100   4.520   1.703   3.446  0.5779  0.0670  0.1255
 2880SOL     OW20101   0.659   3.175   8.135 -0.3842 -0.4366 -0.3039
 2880SOL    HW120102   0.683   3.153   8.225 -0.3047  1.6126  0.1648
 2880SOL    HW220103   0.565   3.187   8.144 -0.1467  0.2748  1.0962
 2881SOL     OW20104   3.630   2.293   8.590 -0.1725 -0.1219  0.1635
 2881SOL    HW120105   3.720   2.267   8.569 -0.0801 -0.1537  0.5857
 2881SOL    HW220106   3.639   2.321   8.682  0.7677  1.4798 -0.4260
 2882SOL     OW20107   4.699   0.047   7.845  0.3301  0.0880  0.5138
 2882SOL    HW120108   4.619   4.713   7.842  1.4458 -1.5317 -1.8603
 2882SOL    HW220109   4.692   0.106   7.919  1.8225  0.5668  0.2832
 2883SOL     OW20110   3.190   2.316   7.878 -0.4872  0.0919 -0.4418
 2883SOL    HW120111   3.174   2.241   7.821 -2.4327  0.2063 -0.0521
 2883SOL    HW220112   3.237   2.281   7.954 -0.3097  1.6776  0.1886
 2884SOL     OW20113   1.583   1.401   5.881  0.3011 -0.9602  0.2561
 2884SOL    HW120114   1.586   1.497   5.886  0.8543 -0.9693  0.1692
 2884SOL    HW220115   1.500   1.388   5.835 -0.3923  1.2802  0.8456
 2885SOL     OW20116   0.883   3.816   2.197 -0.0151  0.4210 -0.0795
 2885SOL    HW120117   0.917   3.768   2.273 -0.3206 -0.6969 -0.6508
 2885SOL    HW220118   0.890   3.743   2.136  0.6090  0.5716 -0.1974
 2886SOL     OW20119   4.639   4.119  15.380 -0.0975 -0.0632  0.1028
 2886SOL    HW120120   4.546   4.099  15.368  0.4679 -0.9964 -2.8700
 2886SOL    HW220121   4.680   4.037  15.352 -0.4258  0.3946 -1.7387
 2887SOL     OW20122   4.006   0.549   7.874 -0.1434 -0.1603 -0.2560
 2887SOL    HW120123   3.967   0.461   7.872 -2.7657  1.0647 -2.8918
 2887SOL    HW220124   4.024   0.569   7.782 -0.0514  0.9288  0.0014
 2888SOL     OW20125   4.072   0.088  12.166 -0.0773  0.6965 -0.3143
 2888SOL    HW120126   4.110   0.163  12.120  0.0328  0.0995 -1.1865
 2888SOL    HW220127   4.130   0.059  12.237  0.4161 -1.2320 -1.5244
 2889SOL     OW20128   0.823   2.347   9.533  0.1542 -0.3034  0.1831
 2889SOL    HW120129   0.785   2.305   9.456  1.2096  0.9083 -0.9984
 2889SOL    HW220130   0.897   2.396   9.498 -0.1813  0.1520  0.1027
 2890SOL     OW20131   4.102   0.341   7.698 -0.1945 -0.3827 -0.3331
 2890SOL    HW120132   4.070   0.349   7.608 -0.3526  1.2387 -0.1396
 2890SOL    HW220133   4.194   0.322   7.683 -0.7993 -3.3068 -0.3192
 2891SOL     OW20134   4.301   1.575   0.414  0.3110 -0.3355  0.1647
 2891SOL    HW120135   4.386   1.566   0.456  1.7015  1.9884 -2.1247
 2891SOL    HW220136   4.243   1.589   0.488  0.3792 -0.0205  0.1599
 2892SOL     OW20137   2.436   2.656   6.582 -0.2752 -0.0538  0.0152
 2892SOL    HW120138   2.482   2.722   6.530 -0.4313  1.4469  1.7538
 2892SOL    HW220139   2.484   2.576   6.562  0.7182 -0.1480  2.7836
 2893SOL     OW20140   3.012   0.538   3.511  0.2370 -0.0536  0.1130
 2893SOL    HW120141   2.960   0.502   3.582  0.7066  2.0623  1.5203
 2893SOL    HW220142   2.957   0.595   3.456  1.1845  2.5889  1.8960
 2894SOL     OW20143   0.297   3.775   8.710 -0.4945  0.1392  0.4158
 2894SOL    HW120144   0.341   3.860   8.706 -1.8322  0.8052  0.0851
 2894SOL    HW220145   0.207   3.802   8.726 -0.7956  0.3435 -1.5790
 2895SOL     OW20146   3.014   2.689   7.207 -0.6914 -0.2803 -0.6350
 2895SOL    HW120147   2.929   2.646   7.194 -1.4289  1.0437 -0.1072
 2895SOL    HW220148   2.992   2.747   7.280 -0.6105 -1.6685  0.4888
 2896SOL     OW20149   2.266   0.940   7.314 -0.4777 -0.6494  0.4357
 2896SOL    HW120150   2.353   0.915   7.284 -0.6002 -2.4095  1.4801
 2896SOL    HW220151   2.223   0.927   7.230 -0.4455 -1.0593  0.4811
 2897SOL     OW20152   1.434   2.766   9.474  0.3919  0.1842 -0.1730
 2897SOL    HW120153   1.450   2.859   9.492  0.5198 -0.5760  3.7380
 2897SOL    HW220154   1.525   2.737   9.469  1.3256  3.0530  0.3846
 2898SOL     OW20155   0.875   1.461  13.125  0.1642 -0.1948  0.3245
 2898SOL    HW120156   0.953   1.483  13.074  1.1589 -0.7463  1.6320
 2898SOL    HW220157   0.894   1.500  13.210  0.0078  0.5819  0.0091
 2899SOL     OW20158   3.025   4.629   6.738  0.2294  0.1252  0.0370
 2899SOL    HW120159   3.118   4.654   6.739  0.9331 -2.5027  0.6033
 2899SOL    HW220160   3.024   4.569   6.663  0.3008  0.5889 -0.3372
 2900SOL     OW20161   4.245   4.074   3.174  0.2550  0.5544  0.2854
 2900SOL    HW120162   4.327   4.046   3.134  0.3873 -2.0395  2.3891
 2900SOL    HW220163   4.204   4.138   3.116  0.0916 -0.9516 -1.2604
 2901SOL     OW20164   0.533   3.534   2.635  0.2041 -0.6771 -0.4830
 2901SOL    HW120165   0.591   3.593   2.589  0.1578 -0.0865  0.2119
 2901SOL    HW220166   0.476   3.589   2.689  0.0779 -1.2287 -0.0460
 2902SOL     OW20167   2.102   4.460   8.031  0.5066 -0.1738  0.3817
 2902SOL    HW120168   2.124   4.542   7.988  0.9531 -1.0534 -1.0610
 2902SOL    HW220169   2.186   4.423   8.060  0.3877 -1.7176 -1.2275
 2903SOL     OW20170   3.735   3.069   7.970  0.0476  0.0514  0.0514
 2903SOL    HW120171   3.726   3.123   7.892 -1.8855  1.3393  1.1684
 2903SOL    HW220172   3.817   3.105   8.003 -0.7737  0.4406  1.6901
 2904SOL     OW20173   2.547   1.722   9.538 -0.7082  0.4716  1.2154
 2904SOL    HW120174   2.543   1.654   9.605 -0.0730 -0.6447  0.1111
 2904SOL    HW220175   2.562   1.797   9.595  0.0550  0.0023  1.6239
 2905SOL     OW20176   2.701   2.551   6.226  0.1083  0.1765 -0.2813
 2905SOL    HW120177   2.630   2.513   6.278  1.7992  2.9928  3.9639
 2905SOL    HW220178   2.661   2.522   6.143 -1.2396  1.8444 -0.2140
 2906SOL     OW20179   1.222   1.911   5.292  0.2515  0.2198  0.8478
 2906SOL    HW120180   1.265   1.986   5.333  1.8706 -0.1626 -0.1631
 2906SOL    HW220181   1.283   1.892   5.220  0.2192  0.0578  0.8643
 2907SOL     OW20182   0.582   3.183   7.514  0.1270 -0.1188 -0.2045
 2907SOL    HW120183   0.514   3.141   7.463 -0.7648 -0.6852  1.4678
 2907SOL    HW220184   0.577   3.150   7.604  0.6990 -1.7632 -0.7787
 2908SOL     OW20185   2.321   4.340   8.161 -0.1674 -0.0299 -0.2116
 2908SOL    HW120186   2.412   4.319   8.181 -0.3645 -0.4448  0.2370
 2908SOL    HW220187   2.282   4.302   8.239 -1.0912  2.6771  0.6450
 2909SOL     OW20188   2.373   1.100  11.393  0.1353  0.2085  0.0751
 2909SOL    HW120189   2.383   1.045  11.470  1.6577  0.0748 -0.2185
 2909SOL    HW220190   2.367   1.028  11.330  1.4338  1.0354 -0.9958
 2910SOL     OW20191   1.169   0.795   2.499  0.3168  0.0947 -0.4395
 2910SOL    HW120192   1.168   0.875   2.447 -0.9140 -0.1903 -0.8388
 2910SOL    HW220193   1.169   0.829   2.589  0.5115 -1.2264  0.0720
 2911SOL     OW20194   2.705   2.328   4.032  0.0355  0.5099 -0.2489
 2911SOL    HW120195   2.635   2.392   4.023 -2.3276 -1.9979  0.5395
 2911SOL    HW220196   2.655   2.263   4.080  1.9498 -1.0062 -0.2974
 2912SOL     OW20197   2.877   4.176  16.887  0.1217 -0.5436 -0.1552
 2912SOL    HW120198   2.892   4.104  16.826 -1.0264  0.7298 -1.9525
 2912SOL    HW220199   2.848   4.240  16.822 -0.8070  1.1371  1.9347
 2913SOL     OW20200   2.173   2.906   7.082  0.2684 -0.1724 -0.0972
 2913SOL    HW120201   2.208   2.919   7.170  0.5987 -0.5115 -0.1760
 2913SOL    HW220202   2.084   2.942   7.091  0.1055 -0.8465  1.0452
 2914SOL     OW20203   3.101   2.355   5.997 -0.1022  0.4213  0.7574
 2914SOL    HW120204   3.091   2.405   6.079 -1.0949  0.4580  0.6064
 2914SOL    HW220205   3.031   2.386   5.941  1.2982 -1.0722 -1.8261
 2915SOL     OW20206   1.164   3.060  11.285 -0.1087 -0.3968 -0.1398
 2915SOL    HW120207   1.214   2.983  11.313  0.9499 -0.4129 -2.0952
 2915SOL    HW220208   1.075   3.028  11.272 -0.2185  0.0468 -0.4555
 2916SOL     OW20209   3.504   0.282   2.498  0.3122 -0.1635 -0.1854
 2916SOL    HW120210   3.519   0.229   2.577  1.5115 -0.5820 -0.6861
 2916SOL    HW220211   3.530   0.231   2.421 -1.5758 -1.7741  0.2517
 2917SOL     OW20212   4.395   3.398   4.901 -0.4225 -0.0199 -0.2150
 2917SOL    HW120213   4.367   3.314   4.864  1.0941  0.5534 -2.6264
 2917SOL    HW220214   4.437   3.373   4.983 -1.5979 -1.1683  0.0390
 2918SOL     OW20215   3.658   4.704   0.735 -0.0890  0.5294 -0.7937
 2918SOL    HW120216   3.715   0.061   0.755 -1.2265  1.3555 -0.6717
 2918SOL    HW220217   3.705   4.635   0.782 -0.2724 -0.5012 -2.1193
 2919SOL     OW20218   4.214   1.482  17.097 -0.2315 -0.5235  0.0723
 2919SOL    HW120219   4.257   1.455  17.016  0.2752  1.1916 -0.2278
 2919SOL    HW220220   4.165   1.560  17.070  1.3239 -0.0212 -1.3407
 2920SOL     OW20221   4.408   0.661   4.228  0.1600  0.0091  0.2936
 2920SOL    HW120222   4.407   0.621   4.316 -0.5937 -0.2866  0.1565
 2920SOL    HW220223   4.317   0.645   4.203 -0.0936  0.3131  1.0215
 2921SOL     OW20224   3.520   2.419   5.507  0.3028 -1.3461  0.2734
 2921SOL    HW120225   3.506   2.328   5.481 -2.5935 -0.1799 -2.2161
 2921SOL    HW220226   3.563   2.452   5.428 -0.1805 -1.2859  0.0354
 2922SOL     OW20227   1.317   3.867  14.222 -0.1543 -0.1830  0.2574
 2922SOL    HW120228   1.255   3.940  14.235 -0.6239 -1.0278  2.7076
 2922SOL    HW220229   1.343   3.834  14.308  0.2862  0.5856  0.4203
 2923SOL     OW20230   0.840   0.388  13.482 -0.1959 -0.6395  0.0061
 2923SOL    HW120231   0.931   0.400  13.454 -0.6879 -0.0633 -1.3434
 2923SOL    HW220232   0.809   0.321  13.421 -0.3334 -0.0139 -0.6086
 2924SOL     OW20233   4.358   0.222   8.928  0.0393  0.0497 -0.2150
 2924SOL    HW120234   4.349   0.314   8.954 -1.5591 -0.4900  1.1259
 2924SOL    HW220235   4.445   0.214   8.888 -1.2285  0.3932 -3.0374
 2925SOL     OW20236   0.661   4.052  13.179 -0.2710  0.6054  0.2904
 2925SOL    HW120237   0.606   3.981  13.212  0.1510 -0.6043 -1.6865
 2925SOL    HW220238   0.739   4.049  13.234  0.5979 -0.8306 -1.0508
 2926SOL     OW20239   0.179   4.492   8.427 -0.1227  0.1620 -0.0145
 2926SOL    HW120240   0.102   4.455   8.471 -0.7530 -0.0045 -1.2790
 2926SOL    HW220241   0.184   4.582   8.461  1.0729 -0.6225  1.8439
 2927SOL     OW20242   0.373   0.073   3.061  0.4302  0.7785  0.6877
 2927SOL    HW120243   0.322   0.003   3.021  2.3714  1.0664 -2.3149
 2927SOL    HW220244   0.426   0.024   3.124 -0.3795  0.5619  1.1926
 2928SOL     OW20245   3.948   3.837   6.349 -0.1372  0.0853  0.3627
 2928SOL    HW120246   3.938   3.911   6.409 -0.0135  0.4981 -0.1282
 2928SOL    HW220247   3.904   3.765   6.394 -1.4446  1.1318  0.7703
 2929SOL     OW20248   0.736   2.311   2.655 -0.2033 -0.0984  0.0680
 2929SOL    HW120249   0.782   2.334   2.574 -0.7128  0.7678  0.0288
 2929SOL    HW220250   0.720   2.401   2.685  1.6373 -0.4727  2.2060
 2930SOL     OW20251   2.796   3.207   0.077 -0.4932  0.0306  0.0015
 2930SOL    HW120252   2.846   3.270   0.024 -1.3120  0.3886 -0.3433
 2930SOL    HW220253   2.859   3.163   0.133  1.9281 -0.9232 -3.4534
 2931SOL     OW20254   1.569   2.620   1.937  0.0434  0.0571 -0.0825
 2931SOL    HW120255   1.528   2.534   1.934  0.5569 -0.1982  0.2710
 2931SOL    HW220256   1.661   2.601   1.917 -0.0620  0.0579 -0.5669
 2932SOL     OW20257   3.952   3.080   8.584  0.4205  0.3118  0.1740
 2932SOL    HW120258   3.970   3.034   8.502 -2.7771  1.3339 -1.0974
 2932SOL    HW220259   3.986   3.016   8.646  0.4219  0.8581  0.7394
 2933SOL     OW20260   0.727   0.837  17.458 -0.6096 -0.6923 -0.6505
 2933SOL    HW120261   0.645   0.879  17.432 -0.2127  0.4922 -0.0057
 2933SOL    HW220262   0.736   0.782  17.381  0.5501 -1.2517 -0.1259
 2934SOL     OW20263   1.356   0.871   7.174  0.4102  0.3675 -0.0326
 2934SOL    HW120264   1.418   0.831   7.235  0.3308 -1.7115 -1.3339
 2934SOL    HW220265   1.367   0.801   7.110 -2.3068 -1.4102  1.4242
 2935SOL     OW20266   1.131   0.501   0.910 -0.4547 -0.0136  0.1098
 2935SOL    HW120267   1.197   0.439   0.878 -0.2455  1.2321 -1.8629
 2935SOL    HW220268   1.105   0.452   0.988  1.0371  1.9422  1.8043
 2936SOL     OW20269   0.795   0.719  11.784 -0.3603  0.8303 -0.7350
 2936SOL    HW120270   0.788   0.633  11.825  1.3690  0.3365 -1.4909
 2936SOL    HW220271   0.801   0.703  11.690 -0.6237  0.6379 -0.7197
 2937SOL     OW20272   2.465   2.328   2.553 -0.2053  0.5326 -0.2107
 2937SOL    HW120273   2.412   2.284   2.486  1.4388 -1.5203 -0.1557
 2937SOL    HW220274   2.422   2.320   2.638  3.1829 -0.4058  1.3817
 2938SOL     OW20275   2.645   4.038  12.333 -0.0909 -0.3785 -0.0284
 2938SOL    HW120276   2.567   4.091  12.320  0.0985  0.7599  3.4586
 2938SOL    HW220277   2.696   4.091  12.395 -0.8971  0.8928 -0.4537
 2939SOL     OW20278   0.548   0.160  10.715  0.4272  0.5371  0.2138
 2939SOL    HW120279   0.632   0.179  10.673  0.5785 -1.9077 -0.5721
 2939SOL    HW220280   0.520   0.079  10.673 -1.3045  1.0583  0.3756
 2940SOL     OW20281   1.934   3.906   4.537  0.0208 -0.0277  0.9458
 2940SOL    HW120282   1.999   3.970   4.566 -1.5628  2.1213 -0.2813
 2940SOL    HW220283   1.972   3.874   4.455  0.2695 -2.3090  1.9353
 2941SOL     OW20284   4.036   0.899   1.376  0.0132  0.5450 -0.0659
 2941SOL    HW120285   4.012   0.983   1.414 -0.2081  0.8176 -0.8006
 2941SOL    HW220286   4.130   0.914   1.366  0.5510 -0.4832  3.4965
 2942SOL     OW20287   0.879   4.105  10.461  0.2909  0.2518 -0.0733
 2942SOL    HW120288   0.879   4.114  10.366 -0.0177 -0.9407 -0.1869
 2942SOL    HW220289   0.957   4.155  10.484 -1.3217  2.4063  0.7066
 2943SOL     OW20290   3.640   0.403   6.307 -0.4407  0.6322 -0.1376
 2943SOL    HW120291   3.639   0.482   6.252 -0.8259  0.8908  0.2531
 2943SOL    HW220292   3.548   0.381   6.295 -0.0801 -1.6670  1.2787
 2944SOL     OW20293   3.104   2.306   8.621  0.4288  0.1964  0.5681
 2944SOL    HW120294   3.112   2.217   8.657  2.4413 -0.1933 -0.8809
 2944SOL    HW220295   3.011   2.321   8.637  0.1899  0.9955 -1.5740
 2945SOL     OW20296   3.392   0.973   2.845  0.5814  0.3244 -0.7046
 2945SOL    HW120297   3.442   1.036   2.896  0.3997 -1.6229  1.8590
 2945SOL    HW220298   3.350   1.033   2.783  1.6018  1.1447 -0.5962
 2946SOL     OW20299   3.287   4.578  16.682 -0.0586 -0.3239 -0.6114
 2946SOL    HW120300   3.335   4.503  16.718  1.4048  0.8959 -0.0156
 2946SOL    HW220301   3.217   4.583  16.747 -1.5011  0.5965 -2.2389
 2947SOL     OW20302   2.964   0.334  12.131  0.0334  0.8884  0.8011
 2947SOL    HW120303   2.924   0.419  12.113 -0.6249  0.1183 -1.2943
 2947SOL    HW220304   2.990   0.337  12.223 -2.3402  3.4852  1.3674
 2948SOL     OW20305   4.519   1.249   3.284 -0.1426 -0.1258  0.6922
 2948SOL    HW120306   4.539   1.219   3.195 -0.4309  1.8490 -0.0505
 2948SOL    HW220307   4.432   1.218   3.308 -1.9029  1.7804 -3.0945
 2949SOL     OW20308   4.345   0.280  13.831 -0.0209 -0.4950 -0.0212
 2949SOL    HW120309   4.258   0.317  13.814 -0.3803 -1.2039  0.3009
 2949SOL    HW220310   4.397   0.317  13.759 -0.4552  0.7581  0.3078
 2950SOL     OW20311   2.577   3.139   0.491 -0.1037 -0.8187  0.2640
 2950SOL    HW120312   2.486   3.131   0.520  0.4287  2.6913  2.8224
 2950SOL    HW220313   2.591   3.046   0.473  1.0096 -0.9196  1.6984
 2951SOL     OW20314   2.006   4.031   4.303  0.0381  0.2572 -0.1491
 2951SOL    HW120315   1.979   4.114   4.265  1.1623  0.4278 -0.5675
 2951SOL    HW220316   1.975   4.031   4.394  1.5040 -0.6834  0.3601
 2952SOL     OW20317   2.783   3.228   3.476 -0.4585  0.5391  0.2391
 2952SOL    HW120318   2.834   3.257   3.552 -0.5397  0.1424  0.4449
 2952SOL    HW220319   2.816   3.286   3.408 -1.3167  2.1778  1.2132
 2953SOL     OW20320   1.531   1.032  16.848  0.4279 -0.1831 -0.2686
 2953SOL    HW120321   1.488   0.949  16.829 -0.6214  0.9389 -2.8487
 2953SOL    HW220322   1.504   1.087  16.774 -0.7210 -0.7710 -0.2836
 2954SOL     OW20323   1.033   0.644   6.419 -0.8103 -0.2063 -0.3027
 2954SOL    HW120324   1.099   0.576   6.430  0.1327  0.6502 -0.6793
 2954SOL    HW220325   0.956   0.596   6.450 -0.8712  0.5674  0.7364
 2955SOL     OW20326   1.522   0.959   1.214 -0.3313  0.3993  0.3419
 2955SOL    HW120327   1.435   0.962   1.256 -0.2563 -1.1941  0.6140
 2955SOL    HW220328   1.571   0.969   1.296 -2.1225  2.6504  1.1595
 2956SOL     OW20329   0.891   1.036   9.454  0.0158 -0.1111 -0.1082
 2956SOL    HW120330   0.973   0.992   9.433  0.7071  1.4542 -0.6570
 2956SOL    HW220331   0.915   1.119   9.494 -0.4226 -0.4422  0.8454
 2957SOL     OW20332   1.489   3.348  11.162 -0.4104 -0.3224 -0.3825
 2957SOL    HW120333   1.521   3.431  11.126 -1.5218  0.5570  0.6555
 2957SOL    HW220334   1.473   3.368  11.255  1.1965 -0.6127 -0.0443
 2958SOL     OW20335   1.131   4.629  15.636 -0.2626 -0.3944 -0.3249
 2958SOL    HW120336   1.215   4.598  15.602  1.3649  2.2466  1.2452
 2958SOL    HW220337   1.144   4.632  15.731 -0.8268  2.0893 -0.3234
 2959SOL     OW20338   4.359   3.098   8.711 -0.3161 -0.0315 -0.1953
 2959SOL    HW120339   4.379   3.062   8.798 -1.2077  0.0268  0.0308
 2959SOL    HW220340   4.427   3.063   8.653 -1.5729 -0.1162 -1.6147
 2960SOL     OW20341   3.390   2.259   8.713  0.5360 -0.5682 -0.1247
 2960SOL    HW120342   3.309   2.291   8.673 -0.3627 -1.2633  1.1427
 2960SOL    HW220343   3.454   2.280   8.645  1.1069 -2.3580 -0.1246
 2961SOL     OW20344   3.761   4.109  16.209  0.3866  0.1234 -0.5797
 2961SOL    HW120345   3.830   4.099  16.274 -0.4358 -1.0553  0.1286
 2961SOL    HW220346   3.808   4.154  16.139 -0.5647  1.1679 -0.5538
 2962SOL     OW20347   0.295   4.557   8.103  0.1257 -0.1292 -0.1308
 2962SOL    HW120348   0.250   4.494   8.159 -2.0599  0.4915 -1.1823
 2962SOL    HW220349   0.232   4.568   8.032  0.1417  0.6976 -0.0165
 2963SOL     OW20350   1.814   3.300   4.816  0.0189 -0.3874 -0.6133
 2963SOL    HW120351   1.854   3.291   4.729  1.0467 -0.7821 -0.1037
 2963SOL    HW220352   1.773   3.214   4.826  0.1574 -0.2687  0.9886
 2964SOL     OW20353   4.643   1.491   8.669  0.1547  0.3539  0.7671
 2964SOL    HW120354   4.695   1.463   8.745 -0.6827 -0.2058  1.1312
 2964SOL    HW220355   4.704   1.469   8.598 -2.4438 -0.1927 -1.3163
 2965SOL     OW20356   4.479   0.481   7.074  0.0391  0.6500  0.8894
 2965SOL    HW120357   4.492   0.440   6.988  0.4652  2.0336  0.2864
 2965SOL    HW220358   4.388   0.463   7.097  0.7874 -1.1991  2.3529
 2966SOL     OW20359   4.509   1.916  11.935 -0.3226 -0.5042 -0.0759
 2966SOL    HW120360   4.455   1.844  11.968  1.8310 -1.3675  1.5538
 2966SOL    HW220361   4.518   1.963  12.019  0.1033 -1.1360  0.2304
 2967SOL     OW20362   1.437   2.167  11.386  0.8827 -0.1592 -0.2331
 2967SOL    HW120363   1.474   2.089  11.346  2.6223  0.3072  0.4471
 2967SOL    HW220364   1.433   2.134  11.476  1.8352 -0.0379 -0.1509
 2968SOL     OW20365   4.628   1.219   3.869  0.8293  0.3215 -0.2867
 2968SOL    HW120366   4.648   1.172   3.950  0.9599  1.3675  0.2934
 2968SOL    HW220367   4.693   1.181   3.810  2.8041  1.2248  1.3017
 2969SOL     OW20368   0.729   0.851   9.924  0.0311 -0.2982 -0.1231
 2969SOL    HW120369   0.779   0.820   9.849  0.6713 -1.4867  0.8029
 2969SOL    HW220370   0.697   0.772   9.967 -0.7520 -0.3860 -0.8695
 2970SOL     OW20371   0.301   1.980   1.465  0.0156  0.2307  0.1459
 2970SOL    HW120372   0.334   2.040   1.532 -1.6597  0.8083  0.4707
 2970SOL    HW220373   0.229   2.033   1.431  0.3417  0.1153 -0.7009
 2971SOL     OW20374   2.635   4.484  17.404  0.0260 -0.0489  0.2114
 2971SOL    HW120375   2.552   4.447  17.374 -0.6717  2.9841 -1.6256
 2971SOL    HW220376   2.610   4.479  17.497 -1.9371  2.1595 -0.1962
 2972SOL     OW20377   3.443   3.408  10.628 -0.3145 -0.1940  0.5883
 2972SOL    HW120378   3.461   3.486  10.681  1.4310 -0.3412  0.2090
 2972SOL    HW220379   3.379   3.443  10.566 -0.2591 -1.1910 -0.0242
 2973SOL     OW20380   1.203   0.043   7.892 -0.3962 -0.2519 -0.3301
 2973SOL    HW120381   1.152   0.030   7.972 -0.6751 -1.1615 -0.6573
 2973SOL    HW220382   1.186   0.136   7.878  0.8710 -0.0984 -0.8208
 2974SOL     OW20383   3.803   2.824  15.378  0.1945  0.1568  0.5795
 2974SOL    HW120384   3.891   2.814  15.415  0.8839  0.1284 -1.0815
 2974SOL    HW220385   3.761   2.896  15.426 -0.9795  0.1025 -0.3606
 2975SOL     OW20386   4.182   4.054   5.365 -0.5018 -0.1489 -0.0640
 2975SOL    HW120387   4.172   4.148   5.348  0.2752 -0.1010 -0.2569
 2975SOL    HW220388   4.094   4.017   5.353 -0.3243 -0.3320 -0.8045
 2976SOL     OW20389   1.312   1.157   6.385 -0.0572 -0.6111  0.5551
 2976SOL    HW120390   1.286   1.075   6.342 -0.1695 -0.5864  0.5745
 2976SOL    HW220391   1.235   1.174   6.440  1.5959  2.2919  1.9738
 2977SOL     OW20392   1.323   2.781   1.889 -0.7637  0.0432 -0.3672
 2977SOL    HW120393   1.414   2.751   1.895 -1.1731 -0.9560  1.0319
 2977SOL    HW220394   1.320   2.869   1.925 -3.3643  0.6123 -2.0005
 2978SOL     OW20395   1.857   4.098  16.187  0.4391  0.0525  0.5711
 2978SOL    HW120396   1.927   4.032  16.188  0.1545 -0.2429  1.5121
 2978SOL    HW220397   1.917   4.166  16.218 -0.4010  1.0805 -0.0900
 2979SOL     OW20398   0.839   2.549   8.756 -0.9913 -0.6479  0.0102
 2979SOL    HW120399   0.755   2.560   8.712  0.5632  2.5994 -2.0877
 2979SOL    HW220400   0.808   2.484   8.819 -0.8062  0.8009  1.5794
 2980SOL     OW20401   2.768   4.074   1.572  0.0928  0.1234  0.4913
 2980SOL    HW120402   2.677   4.084   1.542  1.4562  2.5241 -2.7446
 2980SOL    HW220403   2.811   4.134   1.512 -1.3149 -0.6584 -1.3213
 2981SOL     OW20404   3.577   2.710   3.572  0.5018 -0.0715 -0.1010
 2981SOL    HW120405   3.638   2.735   3.502 -1.4249  0.4817 -1.5773
 2981SOL    HW220406   3.612   2.628   3.605 -1.8113 -1.4884 -1.1912
 2982SOL     OW20407   3.488   0.322   3.082  0.4680 -0.1789  0.0980
 2982SOL    HW120408   3.542   0.399   3.098  1.6864 -1.2110  0.9284
 2982SOL    HW220409   3.558   0.260   3.099  1.5519  0.2150 -2.8272
 2983SOL     OW20410   3.456   3.566   5.084 -0.6269 -0.0238 -0.3783
 2983SOL    HW120411   3.458   3.624   5.159 -0.1926 -0.8441  0.2434
 2983SOL    HW220412   3.478   3.624   5.011  1.2311  0.5760  0.6521
 2984SOL     OW20413   3.947   1.615   7.567  0.3992 -0.2689  0.0271
 2984SOL    HW120414   3.922   1.705   7.547  1.5775  0.1390  0.3695
 2984SOL    HW220415   4.014   1.625   7.635  0.7704  0.5099 -0.4549
 2985SOL     OW20416   4.240   4.354   1.018  0.0639 -0.1707 -0.0160
 2985SOL    HW120417   4.255   4.421   0.951  1.4962 -1.1891 -0.6884
 2985SOL    HW220418   4.327   4.316   1.028 -0.2663 -0.8928  0.0624
 2986SOL     OW20419   2.865   2.343  11.132  0.1523  0.4218 -0.0668
 2986SOL    HW120420   2.803   2.315  11.200 -0.4694 -0.9630 -1.2074
 2986SOL    HW220421   2.951   2.351  11.174 -0.1124 -1.5437  0.8651
 2987SOL     OW20422   4.131   0.201   0.166  0.0532 -0.4152 -0.3228
 2987SOL    HW120423   4.145   0.188   0.260  0.5278 -0.8385 -0.4578
 2987SOL    HW220424   4.135   0.295   0.148 -0.9671 -0.3746 -0.3747
 2988SOL     OW20425   1.508   0.146   0.513 -0.2922 -0.2676 -0.4060
 2988SOL    HW120426   1.489   0.129   0.605 -1.5666  3.1498 -0.0283
 2988SOL    HW220427   1.599   0.118   0.510 -0.4185 -0.5092 -1.9160
 2989SOL     OW20428   3.722   0.991   6.072 -0.4576 -0.2386 -0.1075
 2989SOL    HW120429   3.786   0.927   6.104  0.1824 -0.6173 -2.1018
 2989SOL    HW220430   3.694   0.945   5.993 -0.9790  0.3813 -0.2791
 2990SOL     OW20431   4.426   2.845  14.004  0.4211  0.1795 -0.0937
 2990SOL    HW120432   4.493   2.824  13.938  0.2434 -1.1690  0.1574
 2990SOL    HW220433   4.461   2.798  14.080  2.3466 -0.3517 -1.3037
 2991SOL     OW20434   4.566   0.815   3.386  0.2599 -0.2795 -0.2541
 2991SOL    HW120435   4.616   0.852   3.312  1.0368 -3.3368 -1.2522
 2991SOL    HW220436   4.609   0.858   3.459  1.2703 -0.2023 -0.8920
 2992SOL     OW20437   2.269   2.761   8.131 -0.4434  0.6011  0.5745
 2992SOL    HW120438   2.258   2.854   8.152 -0.9998  0.7029 -0.1794
 2992SOL    HW220439   2.363   2.758   8.145 -0.3427 -2.1157 -0.6319
 2993SOL     OW20440   3.973   4.586   4.456 -0.9434 -0.0926  0.0972
 2993SOL    HW120441   4.028   4.620   4.526  1.3007  0.3291 -1.8905
 2993SOL    HW220442   4.028   4.513   4.427 -0.4095 -0.0673  1.0471
 2994SOL     OW20443   4.105   2.187   2.390 -0.2020 -0.0115  0.0016
 2994SOL    HW120444   4.182   2.175   2.334 -1.5139 -0.0640 -1.7781
 2994SOL    HW220445   4.094   2.096   2.418  0.6116 -0.3368 -0.7200
 2995SOL     OW20446   2.054   4.673   7.855  0.5694  0.0088  0.0118
 2995SOL    HW120447   2.065   4.601   7.792  0.4302 -0.5847  0.6684
 2995SOL    HW220448   1.980   0.005   7.820  0.0193 -0.0761  1.0671
 2996SOL     OW20449   0.674   1.762   0.651 -0.3548  0.4427 -0.7154
 2996SOL    HW120450   0.587   1.724   0.636  0.0625 -0.4385 -0.9476
 2996SOL    HW220451   0.688   1.731   0.740  0.5401 -0.8371 -1.2874
 2997SOL     OW20452   1.183   2.140  10.344 -0.4684  0.3122 -0.3514
 2997SOL    HW120453   1.117   2.074  10.364 -3.2501  3.2838  0.4284
 2997SOL    HW220454   1.126   2.217  10.337 -0.2676  0.2416 -2.6266
 2998SOL     OW20455   3.284   4.388  15.537 -0.0136  0.1263 -0.2960
 2998SOL    HW120456   3.258   4.473  15.572  0.4743 -0.6417  1.8992
 2998SOL    HW220457   3.272   4.403  15.443 -0.1074  1.8447 -0.0037
 2999SOL     OW20458   4.074   3.888   5.991 -0.1997 -0.1093  0.0097
 2999SOL    HW120459   4.089   3.795   5.976 -2.3463 -0.4712  0.1442
 2999SOL    HW220460   4.006   3.905   5.926 -1.0184 -0.9473  0.6662
 3000SOL     OW20461   0.925   3.116   0.943  0.1297  0.3056 -0.2172
 3000SOL    HW120462   0.872   3.037   0.938  0.1907  0.2383  0.1580
 3000SOL    HW220463   1.003   3.087   0.896 -3.3492 -1.7952 -4.6639
 3001SOL     OW20464   0.939   2.750   4.295 -0.1156  0.1479  0.1345
 3001SOL    HW120465   1.020   2.716   4.258 -0.9458  0.5256 -2.0298
 3001SOL    HW220466   0.976   2.801   4.368  0.4166  2.0803 -1.4894
 3002SOL     OW20467   0.483   3.564   9.832 -0.3090  0.0285  0.0945
 3002SOL    HW120468   0.473   3.469   9.824  2.0116 -0.1453 -0.6946
 3002SOL    HW220469   0.419   3.595   9.768 -1.0897 -0.0830  0.8165
 3003SOL     OW20470   3.534   2.335   0.018 -0.4507  0.2703 -0.3399
 3003SOL    HW120471   3.549   2.251  17.648  2.5084 -0.3360  1.7676
 3003SOL    HW220472   3.580   2.325   0.101  0.2101  1.1655 -0.6104
 3004SOL     OW20473   1.357   1.993   5.711 -0.5146  0.2718  0.1085
 3004SOL    HW120474   1.425   1.980   5.777 -0.1939 -0.3808 -0.3535
 3004SOL    HW220475   1.358   1.906   5.670  1.4116  0.1031  0.5124
 3005SOL     OW20476   1.775   0.714  17.469  0.7802 -0.0744  0.1996
 3005SOL    HW120477   1.858   0.681  17.437  0.2724 -0.6875 -0.4885
 3005SOL    HW220478   1.745   0.632  17.511 -1.1739  0.1630 -0.7293
 3006SOL     OW20479   4.477   3.264   5.127 -0.2953 -0.6976 -0.0150
 3006SOL    HW120480   4.402   3.204   5.131  1.0390 -2.6556 -3.6861
 3006SOL    HW220481   4.477   3.293   5.218 -2.1498 -1.4467  0.2294
 3007SOL     OW20482   3.335   3.888  11.046 -0.0304 -0.0859 -0.4426
 3007SOL    HW120483   3.425   3.857  11.059  0.1658  0.5976 -0.1781
 3007SOL    HW220484   3.363   3.975  11.019  1.0309  0.5867  2.8175
 3008SOL     OW20485   3.056   4.333   4.583 -0.3290 -0.6120  0.1184
 3008SOL    HW120486   3.127   4.367   4.528 -1.4612 -0.2222 -1.0851
 3008SOL    HW220487   2.982   4.335   4.523 -1.5707 -1.1331  1.6196
 3009SOL     OW20488   0.938   2.624   1.648  0.0607  0.0836  0.0924
 3009SOL    HW120489   0.922   2.647   1.557 -0.0165 -1.1361 -0.2090
 3009SOL    HW220490   0.989   2.700   1.674  1.2698 -1.0382  1.0258
 3010SOL     OW20491   2.444   2.737   9.031 -0.3560  0.1860  0.3014
 3010SOL    HW120492   2.388   2.668   8.995  1.1637 -0.7701 -0.2522
 3010SOL    HW220493   2.446   2.703   9.121 -1.0374 -1.1121 -0.1713
 3011SOL     OW20494   3.198   1.408   7.433 -0.2755 -0.9804 -0.6715
 3011SOL    HW120495   3.236   1.488   7.469 -1.3877 -0.4058 -0.7744
 3011SOL    HW220496   3.153   1.438   7.353 -0.5474  0.3233 -0.0253
 3012SOL     OW20497   3.217   3.499   8.353 -1.0450 -0.2474 -0.0730
 3012SOL    HW120498   3.139   3.546   8.382  0.1867  0.8830  1.4426
 3012SOL    HW220499   3.220   3.497   8.258 -0.8121  0.6409 -0.0901
 3013SOL     OW20500   3.570   4.255  14.670  0.4541  0.0181 -0.0510
 3013SOL    HW120501   3.651   4.210  14.692 -0.6268 -2.1985 -0.5616
 3013SOL    HW220502   3.532   4.272  14.756 -1.8104  1.1044 -1.2494
 3014SOL     OW20503   1.152   2.124  11.578  0.3818  0.2324 -0.1567
 3014SOL    HW120504   1.211   2.068  11.629  1.7782  3.5041  1.8133
 3014SOL    HW220505   1.088   2.140  11.646  2.5084 -0.4813  2.0098
 3015SOL     OW20506   0.212   0.751   1.330  0.1561  0.0269 -0.2866
 3015SOL    HW120507   0.191   0.840   1.302  0.4852  0.9636  2.4426
 3015SOL    HW220508   0.132   0.703   1.307 -0.5684 -0.2043  2.6795
 3016SOL     OW20509   1.775   3.810   6.059 -0.0655  0.1939  0.3231
 3016SOL    HW120510   1.855   3.803   6.006 -0.9831  0.9145 -1.1477
 3016SOL    HW220511   1.811   3.877   6.118 -0.7543  0.3869  0.5199
 3017SOL     OW20512   1.567   2.117   3.830  0.1131 -0.2535 -0.2401
 3017SOL    HW120513   1.564   2.196   3.776 -2.6101  1.2903  2.2118
 3017SOL    HW220514   1.497   2.133   3.893  1.3957  1.2914  0.7908
 3018SOL     OW20515   3.563   3.307   5.428 -0.0193 -0.0718 -0.4207
 3018SOL    HW120516   3.582   3.257   5.508  0.5794 -1.6374 -1.5566
 3018SOL    HW220517   3.485   3.353   5.461  0.0862 -0.4086  0.3033
 3019SOL     OW20518   1.782   4.188   4.405 -0.3057 -0.4153  0.6331
 3019SOL    HW120519   1.807   4.211   4.494 -1.7923  0.2262  0.8874
 3019SOL    HW220520   1.846   4.237   4.353 -2.5052  0.5849 -1.1650
 3020SOL     OW20521   3.359   3.436   4.437  0.3488  0.1335  0.8002
 3020SOL    HW120522   3.319   3.513   4.478 -0.8059 -0.2356  0.3764
 3020SOL    HW220523   3.281   3.382   4.426 -1.4859  2.3248  3.1092
 3021SOL     OW20524   1.715   0.177   9.920 -0.6094 -0.0300 -0.4942
 3021SOL    HW120525   1.778   0.132   9.977  0.0145  0.2760 -0.9383
 3021SOL    HW220526   1.772   0.239   9.874 -1.6306 -0.3731 -2.1991
 3022SOL     OW20527   2.075   1.167  13.937 -0.1071 -0.1697  0.0828
 3022SOL    HW120528   2.009   1.160  13.868 -1.9976 -0.3505  1.9230
 3022SOL    HW220529   2.064   1.258  13.964  1.5397 -0.0238  0.2826
 3023SOL     OW20530   1.450   0.992   5.996 -0.2152  0.6206  0.1561
 3023SOL    HW120531   1.497   0.927   6.049 -0.1761  0.6993  0.2189
 3023SOL    HW220532   1.379   0.933   5.972 -0.1919  0.4852  0.4149
 3024SOL     OW20533   3.226   2.150  16.523  0.0652  0.3644  0.0512
 3024SOL    HW120534   3.268   2.207  16.587 -0.4785 -0.1962  0.9075
 3024SOL    HW220535   3.138   2.186  16.527  0.6466  2.0092 -1.9037
 3025SOL     OW20536   2.937   3.291   6.010 -0.2387  0.3217 -0.5757
 3025SOL    HW120537   2.890   3.375   6.012  0.3116  0.6189 -0.0488
 3025SOL    HW220538   2.870   3.223   6.000  0.0534 -0.3184  1.7451
 3026SOL     OW20539   3.875   4.132   2.853 -0.2742  0.1057  0.4469
 3026SOL    HW120540   3.833   4.091   2.778  0.0380 -1.0281  0.8997
 3026SOL    HW220541   3.802   4.166   2.904  0.5805  0.8903  1.1662
 3027SOL     OW20542   3.079   2.767   7.716 -0.5535 -0.1008  0.4128
 3027SOL    HW120543   3.052   2.857   7.737 -2.0433 -0.1336 -1.3374
 3027SOL    HW220544   3.170   2.785   7.694  0.0282  0.1181  2.9751
 3028SOL     OW20545   0.779   2.010  17.286  0.3259 -0.5151 -0.0577
 3028SOL    HW120546   0.794   2.087  17.340 -1.2976  0.2886 -0.7475
 3028SOL    HW220547   0.686   1.992  17.299 -0.0516  0.1960 -1.6451
 3029SOL     OW20548   3.394   3.489  16.765 -0.3878 -0.4153  0.1933
 3029SOL    HW120549   3.461   3.558  16.769  0.2688 -1.1499  1.8654
 3029SOL    HW220550   3.438   3.421  16.815 -0.0592  0.1283  0.6504
 3030SOL     OW20551   0.417   2.299  12.317 -0.4431  0.1925 -0.4418
 3030SOL    HW120552   0.342   2.259  12.360 -1.2844  1.2884 -0.8736
 3030SOL    HW220553   0.492   2.273  12.370 -0.0993 -0.5005 -1.2783
 3031SOL     OW20554   4.520   2.923   4.602 -0.2334 -0.0881 -0.7627
 3031SOL    HW120555   4.604   2.916   4.557 -0.3765  0.8354 -1.1589
 3031SOL    HW220556   4.479   2.837   4.590 -3.9960  1.5513  0.2537
 3032SOL     OW20557   3.827   4.651  15.632  0.4459 -0.3645  0.2466
 3032SOL    HW120558   3.833   4.556  15.639  2.3854 -0.3824 -1.6528
 3032SOL    HW220559   3.767   4.680  15.701  1.5832 -0.9618  1.4810
 3033SOL     OW20560   0.475   2.842   3.041  0.4019  0.5434 -0.1110
 3033SOL    HW120561   0.502   2.771   3.099 -1.5133 -0.0683  0.0233
 3033SOL    HW220562   0.428   2.794   2.972 -2.0241 -1.0256  2.6240
 3034SOL     OW20563   2.648   0.091   6.549 -0.0637  0.5941 -0.0280
 3034SOL    HW120564   2.678   0.027   6.613  1.9004  1.8010  0.2528
 3034SOL    HW220565   2.653   0.172   6.599  1.0616  1.0537 -0.8851
 3035SOL     OW20566   2.440   3.496  10.918 -0.3003  0.1466 -0.7104
 3035SOL    HW120567   2.429   3.418  10.973 -0.7206  2.7355  2.8671
 3035SOL    HW220568   2.492   3.473  10.841 -0.2529 -0.8249 -0.3864
 3036SOL     OW20569   0.690   0.133   9.759 -0.1909 -0.7505  0.0662
 3036SOL    HW120570   0.598   0.145   9.783  0.3337 -0.7239  2.0707
 3036SOL    HW220571   0.732   0.124   9.844  1.6212 -3.4910 -1.1433
 3037SOL     OW20572   1.951   2.193   5.532 -0.0716 -0.6672 -0.0450
 3037SOL    HW120573   1.935   2.192   5.437  1.1440  1.2380 -0.2834
 3037SOL    HW220574   1.881   2.257   5.545  0.5934 -0.3513  1.9235
 3038SOL     OW20575   1.733   4.051   4.018 -0.7344  0.2487 -0.5722
 3038SOL    HW120576   1.793   3.983   4.048  3.1370  3.3078 -1.3319
 3038SOL    HW220577   1.786   4.100   3.955 -0.6243  0.5639 -0.2298
 3039SOL     OW20578   2.665   1.630   5.820  0.5087 -0.1840  0.4403
 3039SOL    HW120579   2.686   1.537   5.808 -0.2829 -0.3190  0.1597
 3039SOL    HW220580   2.693   1.651   5.909 -1.8033  0.5007  1.0007
 3040SOL     OW20581   4.247   2.768   4.098 -0.5860  0.7279  0.7115
 3040SOL    HW120582   4.245   2.861   4.074 -2.1978  0.5070 -0.0317
 3040SOL    HW220583   4.221   2.766   4.190  0.0545  0.8375  0.8982
 3041SOL     OW20584   4.261   1.841   4.888 -0.1669  0.3351  0.5528
 3041SOL    HW120585   4.254   1.763   4.833 -2.1562 -0.6182  2.1743
 3041SOL    HW220586   4.302   1.899   4.824 -2.3119  1.1587 -0.0584
 3042SOL     OW20587   4.474   3.292   3.339  0.7146  0.1028 -0.1371
 3042SOL    HW120588   4.441   3.320   3.425 -0.1907  1.6017 -0.9728
 3042SOL    HW220589   4.507   3.375   3.303 -3.4186  1.4696 -0.6894
 3043SOL     OW20590   4.134   3.228   6.953  0.0388 -0.3476  0.2900
 3043SOL    HW120591   4.222   3.195   6.936  1.0208  2.3468  0.2596
 3043SOL    HW220592   4.104   3.154   7.007  0.0981  1.8254  3.2819
 3044SOL     OW20593   1.903   2.214  12.774  0.1218 -0.2939  0.1421
 3044SOL    HW120594   1.930   2.226  12.683  0.3225 -0.5404  0.1685
 3044SOL    HW220595   1.937   2.300  12.801  1.1060 -0.0176 -2.0129
 3045SOL     OW20596   2.548   3.082   3.095 -0.3446 -0.1864  0.2951
 3045SOL    HW120597   2.455   3.099   3.078 -0.8200 -1.1489  1.9043
 3045SOL    HW220598   2.548   3.068   3.190  1.5940 -0.5216  0.2293
 3046SOL     OW20599   0.669   1.634  12.342  0.4565  0.0836 -0.8287
 3046SOL    HW120600   0.609   1.704  12.316 -1.6357 -0.3859  2.7703
 3046SOL    HW220601   0.645   1.628  12.434  0.3959 -1.9231 -0.9786
 3047SOL     OW20602   0.255   1.548  12.973 -0.0904 -0.0932 -0.1026
 3047SOL    HW120603   0.295   1.581  13.054  0.2347  1.5660 -0.9363
 3047SOL    HW220604   0.286   1.459  12.986 -1.7206 -0.3460  2.0936
 3048SOL     OW20605   1.873   3.010   4.222  0.0496  0.0073  0.6758
 3048SOL    HW120606   1.810   3.070   4.262 -0.2994 -1.6215  2.5873
 3048SOL    HW220607   1.846   3.017   4.131  0.7148 -3.2574  0.2284
 3049SOL     OW20608   0.664   3.650   4.092 -0.1789 -0.6193  0.2242
 3049SOL    HW120609   0.733   3.693   4.141 -0.5272 -0.4296  0.5486
 3049SOL    HW220610   0.691   3.680   4.005  1.0901 -1.7425  0.2365
 3050SOL     OW20611   1.856   4.354   8.071 -0.3210 -0.4470 -0.6629
 3050SOL    HW120612   1.948   4.378   8.058 -0.2875 -0.2970 -0.1140
 3050SOL    HW220613   1.836   4.304   7.991 -1.2822 -0.8036 -0.1988
 3051SOL     OW20614   0.892   3.308   7.884 -0.1316 -0.5549  0.4368
 3051SOL    HW120615   0.918   3.312   7.976  1.9238  1.2420 -0.2425
 3051SOL    HW220616   0.928   3.389   7.849 -0.6226 -0.0982  0.9839
 3052SOL     OW20617   3.660   3.142   5.636 -0.4160  0.0146  0.3122
 3052SOL    HW120618   3.696   3.164   5.722  0.2656  1.4624 -0.3379
 3052SOL    HW220619   3.695   3.054   5.620 -0.1713  0.0023  0.8968
 3053SOL     OW20620   1.068   0.908  13.486  0.0418  0.3827 -0.2138
 3053SOL    HW120621   0.980   0.875  13.506 -1.3318  2.5309 -2.7477
 3053SOL    HW220622   1.119   0.830  13.464  0.1478 -0.2640  2.2552
 3054SOL     OW20623   3.040   4.417  12.777  0.5379  0.3211 -0.2937
 3054SOL    HW120624   2.997   4.442  12.858  4.5465 -0.2624  2.0030
 3054SOL    HW220625   3.104   4.354  12.811  2.3773  1.9952 -0.6549
 3055SOL     OW20626   0.268   1.824  10.881 -0.7138  0.0643 -0.2852
 3055SOL    HW120627   0.294   1.732  10.886 -3.1714 -0.5093  1.5396
 3055SOL    HW220628   0.173   1.816  10.882 -0.6991  0.3843  2.8004
 3056SOL     OW20629   3.803   1.210   4.970 -0.2581  0.6065 -0.2217
 3056SOL    HW120630   3.749   1.285   4.946 -0.4245 -0.2098 -2.3996
 3056SOL    HW220631   3.783   1.183   5.059 -1.9637  1.8808 -0.2228
 3057SOL     OW20632   2.105   2.510  10.109  0.5068  0.1229  0.6758
 3057SOL    HW120633   2.173   2.465  10.158 -0.3915  0.0075  1.8299
 3057SOL    HW220634   2.029   2.451  10.113  0.0213  0.7184  0.3442
 3058SOL     OW20635   0.560   1.883  10.608  0.1047 -0.1178 -0.6609
 3058SOL    HW120636   0.522   1.948  10.667  0.3110  0.7348 -1.4772
 3058SOL    HW220637   0.531   1.799  10.643 -0.6051  0.4591  0.1350
 3059SOL     OW20638   4.352   2.700   0.876 -0.3511  0.1379 -0.5321
 3059SOL    HW120639   4.290   2.631   0.850 -1.8063  0.7803  1.2158
 3059SOL    HW220640   4.304   2.733   0.952 -1.1646  1.6291 -1.6989
 3060SOL     OW20641   0.374   3.203  14.389 -0.1319 -0.0544 -0.3489
 3060SOL    HW120642   0.390   3.238  14.301 -0.2841  1.6317  0.2849
 3060SOL    HW220643   0.328   3.277  14.428  1.2860  0.1913  0.8409
 3061SOL     OW20644   0.729   2.047   0.606  0.3368  0.7178  0.3250
 3061SOL    HW120645   0.693   1.959   0.617  0.3024  0.4541 -1.8142
 3061SOL    HW220646   0.797   2.048   0.673  1.2044 -3.6786 -0.4612
 3062SOL     OW20647   3.368   1.799  12.614 -0.1187 -0.0508 -0.0306
 3062SOL    HW120648   3.323   1.863  12.669  0.1291  1.6143 -1.7718
 3062SOL    HW220649   3.450   1.787  12.661  0.1149  0.3253 -0.3446
 3063SOL     OW20650   4.173   3.012  12.333 -0.3638 -0.2521 -0.2069
 3063SOL    HW120651   4.168   3.018  12.238 -2.8004  0.0138 -0.0797
 3063SOL    HW220652   4.262   2.979  12.340 -0.8504 -1.2477  1.3016
 3064SOL     OW20653   1.593   2.676   6.041 -0.1222  0.2213 -0.0004
 3064SOL    HW120654   1.570   2.680   6.134  1.0785  0.0459  0.2994
 3064SOL    HW220655   1.524   2.619   6.006  2.3641 -3.2350  0.8202
 3065SOL     OW20656   2.042   0.177   5.803 -0.2202 -0.5796  0.1938
 3065SOL    HW120657   2.106   0.144   5.865 -0.1973 -1.5563 -0.3477
 3065SOL    HW220658   1.986   0.215   5.871 -0.1045 -0.4995  0.2442
 3066SOL     OW20659   3.854   2.559   2.361 -0.4756 -0.5286  0.1912
 3066SOL    HW120660   3.812   2.623   2.419  1.7487  1.2389 -0.1978
 3066SOL    HW220661   3.834   2.469   2.388 -0.5931 -0.0357  1.7503
 3067SOL     OW20662   0.040   4.296   7.900  0.7626 -0.9036  0.2296
 3067SOL    HW120663   0.038   4.371   7.958  0.2889 -1.4529  0.9254
 3067SOL    HW220664   0.113   4.323   7.843  0.6663 -1.5965 -0.2277
 3068SOL     OW20665   2.197   1.681  17.559  0.1860  0.8546 -0.0533
 3068SOL    HW120666   2.119   1.664  17.505  1.1753 -1.3678 -0.7882
 3068SOL    HW220667   2.267   1.688  17.494 -0.3319 -0.0132 -0.7132
 3069SOL     OW20668   1.420   0.780  12.253 -0.3246 -0.1125  0.1317
 3069SOL    HW120669   1.340   0.735  12.283  0.3026 -0.4589  1.2821
 3069SOL    HW220670   1.400   0.781  12.160 -2.7753 -1.5767  0.6134
 3070SOL     OW20671   3.487   1.368   4.471  0.3160 -0.0376 -0.6057
 3070SOL    HW120672   3.503   1.335   4.559  0.9480  0.4194 -0.5490
 3070SOL    HW220673   3.547   1.311   4.422 -0.1954 -1.8759  0.9137
 3071SOL     OW20674   3.866   3.229   6.403  0.0895 -0.0097 -0.0959
 3071SOL    HW120675   3.958   3.256   6.406  0.6156 -1.9260  1.3139
 3071SOL    HW220676   3.854   3.155   6.463  0.0723 -0.0866 -0.1938
 3072SOL     OW20677   0.161   3.889   0.955  0.3855  0.0357 -0.8125
 3072SOL    HW120678   0.239   3.836   0.939  0.3637 -0.6009  1.1994
 3072SOL    HW220679   0.097   3.818   0.966 -0.3261  0.9171  0.6055
 3073SOL     OW20680   1.849   0.410   8.409  0.2430 -0.1614  0.4912
 3073SOL    HW120681   1.891   0.382   8.490  2.1554  0.5526 -0.2552
 3073SOL    HW220682   1.839   0.330   8.357  0.0215  0.7379 -0.8577
 3074SOL     OW20683   4.544   4.538   6.986 -0.4891 -0.0910 -0.0073
 3074SOL    HW120684   4.558   4.501   7.073 -2.0869  1.7655  1.0244
 3074SOL    HW220685   4.638   4.552   6.974 -0.1191 -3.6382 -1.4391
 3075SOL     OW20686   2.794   3.147  14.616  0.4675 -0.8243  0.4519
 3075SOL    HW120687   2.702   3.126  14.631 -0.7536  3.2591 -1.2193
 3075SOL    HW220688   2.814   3.210  14.685 -1.7920  0.3951  0.0078
 3076SOL     OW20689   4.384   0.953   8.872  0.7620  0.3032  0.5195
 3076SOL    HW120690   4.374   1.037   8.917 -0.7171 -0.9553  2.5052
 3076SOL    HW220691   4.299   0.933   8.834  1.7156 -0.4971 -1.1754
 3077SOL     OW20692   1.875   0.093   5.602  0.6931  0.1263  0.0740
 3077SOL    HW120693   1.935   0.092   5.527  0.4809 -1.8939 -0.0722
 3077SOL    HW220694   1.936   0.119   5.670  0.6563  0.0754  0.1259
 3078SOL     OW20695   0.188   0.637  13.622 -0.4232  0.0471 -0.0092
 3078SOL    HW120696   0.276   0.675  13.615 -1.5847  2.9412  1.0101
 3078SOL    HW220697   0.167   0.645  13.715 -2.0361  1.1857 -0.4726
 3079SOL     OW20698   2.446   2.151   4.917 -0.0726 -0.0847  0.0612
 3079SOL    HW120699   2.434   2.153   5.012 -4.5892  1.3006 -0.5304
 3079SOL    HW220700   2.537   2.177   4.909 -0.0735 -0.0274  0.2490
 3080SOL     OW20701   3.957   3.193   8.059  0.0913 -0.5773 -0.0976
 3080SOL    HW120702   4.017   3.244   8.004  2.0672  0.2502  2.7909
 3080SOL    HW220703   4.006   3.178   8.140 -0.9511  0.7748  0.7952
 3081SOL     OW20704   0.102   3.377   8.122 -0.4053  0.4470 -0.0260
 3081SOL    HW120705   0.141   3.418   8.199  1.3646 -2.6017  0.6697
 3081SOL    HW220706   0.076   3.293   8.160  0.7799  0.1231  0.0545
 3082SOL     OW20707   0.648   0.772  16.518 -0.2074  0.1329  0.6129
 3082SOL    HW120708   0.597   0.835  16.570  0.9252  0.9798  0.6866
 3082SOL    HW220709   0.583   0.704  16.502 -2.2843  2.1916  0.2456
 3083SOL     OW20710   0.599   0.277   8.289 -0.7485 -0.4298  0.6336
 3083SOL    HW120711   0.572   0.343   8.352 -0.9181  0.6204 -0.5295
 3083SOL    HW220712   0.668   0.235   8.340 -0.7915 -0.1275  0.9406
 3084SOL     OW20713   0.951   2.174   0.769  0.0824 -0.3668 -0.1358
 3084SOL    HW120714   1.007   2.233   0.819 -2.4023  0.0352  2.1345
 3084SOL    HW220715   0.950   2.225   0.688  0.0894  1.0686  0.7885
 3085SOL     OW20716   4.615   3.789   2.151  0.3205  0.4888  0.5036
 3085SOL    HW120717   4.631   3.879   2.182 -0.6660  0.6833  0.4461
 3085SOL    HW220718   4.663   3.790   2.068  0.6484  1.2399  0.6927
 3086SOL     OW20719   4.538   4.508   5.519  0.2768 -0.0339 -0.0011
 3086SOL    HW120720   4.633   4.516   5.510  0.2280  0.7394  0.1651
 3086SOL    HW220721   4.495   4.580   5.473 -1.6140 -0.7433  0.6599
 3087SOL     OW20722   3.991   3.781   7.524 -0.1108 -0.0955 -0.1027
 3087SOL    HW120723   4.080   3.804   7.551 -0.5364 -1.0056  2.1155
 3087SOL    HW220724   3.979   3.694   7.563  1.5538 -0.8867 -1.3521
 3088SOL     OW20725   3.161   1.212   5.815 -0.4567 -0.1578 -0.1360
 3088SOL    HW120726   3.148   1.228   5.721 -0.4451 -1.6555 -0.4060
 3088SOL    HW220727   3.180   1.296   5.856 -1.1451 -0.0890  0.0450
 3089SOL     OW20728   1.012   3.813  11.404 -0.0323  0.1802  0.1227
 3089SOL    HW120729   0.979   3.882  11.462 -1.0914  0.0607 -0.3411
 3089SOL    HW220730   0.988   3.745  11.467 -0.0206 -0.9523 -1.0976
 3090SOL     OW20731   4.356   4.148   7.411  0.0962 -0.6278 -0.1136
 3090SOL    HW120732   4.420   4.211   7.377 -1.3615  0.5310 -0.7196
 3090SOL    HW220733   4.415   4.084   7.450  1.3459  1.5057  1.5473
 3091SOL     OW20734   3.825   2.796  15.084 -0.4847 -0.3917 -0.5317
 3091SOL    HW120735   3.888   2.780  15.015  0.9354  0.2873  0.6127
 3091SOL    HW220736   3.884   2.839  15.146 -1.3061  0.6413 -0.4596
 3092SOL     OW20737   2.949   0.492   5.982  0.0695  0.2850  0.0973
 3092SOL    HW120738   2.859   0.522   5.988 -1.0023 -2.6779 -0.9619
 3092SOL    HW220739   2.940   0.397   5.977 -2.5626  0.4152  2.3866
 3093SOL     OW20740   0.834   0.694  14.021  0.3881 -0.4371  0.1455
 3093SOL    HW120741   0.907   0.755  14.028 -0.4697  0.2770  2.5899
 3093SOL    HW220742   0.817   0.684  14.115  0.1791  2.7257  0.4288
 3094SOL     OW20743   0.910   2.778   6.178 -0.3120  0.1778  0.1730
 3094SOL    HW120744   0.833   2.795   6.232  0.1291  0.1420  0.8190
 3094SOL    HW220745   0.946   2.864   6.203  2.1445 -1.3613  1.8666
 3095SOL     OW20746   4.409   2.689   1.220 -0.0806  0.2978 -0.0200
 3095SOL    HW120747   4.353   2.729   1.153  0.8424 -0.0826 -1.0139
 3095SOL    HW220748   4.343   2.667   1.286  1.1345  0.4871  1.2636
 3096SOL     OW20749   1.407   0.260  12.046 -1.0587  0.0697 -0.1520
 3096SOL    HW120750   1.346   0.304  11.988  0.0189  0.4437 -0.9952
 3096SOL    HW220751   1.454   0.341  12.067 -2.2177  0.6586  0.1809
 3097SOL     OW20752   3.466   4.663   1.264  0.3902 -0.8832  0.2040
 3097SOL    HW120753   3.469   4.603   1.338 -0.3199 -0.2576  0.7326
 3097SOL    HW220754   3.375   4.694   1.267  0.7394  0.3600 -1.7076
 3098SOL     OW20755   0.293   0.613   3.997 -0.2827 -0.1781 -0.0297
 3098SOL    HW120756   0.227   0.553   3.962 -1.7193  1.7262 -0.5770
 3098SOL    HW220757   0.279   0.620   4.092 -1.0480  1.4372 -0.2541
 3099SOL     OW20758   4.589   3.765  17.352  0.0953  0.1241  0.1493
 3099SOL    HW120759   4.498   3.745  17.377  0.6194 -1.8162  0.5420
 3099SOL    HW220760   4.615   3.807  17.434  2.0790  1.4847 -1.1911
 3100SOL     OW20761   4.696   2.679   6.426  0.5639 -0.2880  0.2642
 3100SOL    HW120762   0.006   2.653   6.338  1.2730 -0.0795  0.4223
 3100SOL    HW220763   0.057   2.724   6.459 -0.2892  0.2999  1.5161
 3101SOL     OW20764   1.491   4.161   0.915  0.3724  0.0942  0.1841
 3101SOL    HW120765   1.414   4.219   0.919  1.5791  1.5948  1.4606
 3101SOL    HW220766   1.437   4.083   0.903 -1.7869  1.5847  0.1138
 3102SOL     OW20767   0.726   4.669   4.934 -0.0739 -0.0926 -0.2893
 3102SOL    HW120768   0.665   4.705   4.999 -0.7274 -3.2447  0.8592
 3102SOL    HW220769   0.740   0.030   4.881 -2.1245 -0.3368 -1.1934
 3103SOL     OW20770   2.652   3.841   2.953  0.0558  0.1942 -0.2778
 3103SOL    HW120771   2.700   3.855   3.035 -3.0653 -0.3883  1.6481
 3103SOL    HW220772   2.587   3.776   2.980 -0.7516  0.6065 -1.2005
 3104SOL     OW20773   4.430   0.641   3.169  0.1047  0.0146 -0.2026
 3104SOL    HW120774   4.472   0.705   3.226  0.8263 -0.5174 -0.1328
 3104SOL    HW220775   4.396   0.698   3.099  2.3124  1.4831 -0.0817
 3105SOL     OW20776   1.122   1.867  15.349  0.7445 -0.5838 -0.2230
 3105SOL    HW120777   1.192   1.805  15.333  2.0484  1.0253 -0.7832
 3105SOL    HW220778   1.092   1.887  15.260 -0.8944  0.6003  0.5965
 3106SOL     OW20779   0.777   0.138   0.256 -0.0407 -0.3940  0.2497
 3106SOL    HW120780   0.707   0.192   0.218  0.2770 -1.1107 -1.3514
 3106SOL    HW220781   0.851   0.187   0.219 -0.2111  1.0953  1.8838
 3107SOL     OW20782   0.797   0.845   6.674 -1.3098 -0.1757 -0.6717
 3107SOL    HW120783   0.885   0.829   6.639 -0.1084  1.7713  1.4428
 3107SOL    HW220784   0.813   0.919   6.732  3.3641 -0.3448 -1.7249
 3108SOL     OW20785   3.762   2.332   5.145 -0.2082 -0.7318  0.5442
 3108SOL    HW120786   3.748   2.371   5.059 -0.4309 -1.3562  0.2909
 3108SOL    HW220787   3.857   2.345   5.143 -0.1501 -1.5352 -2.7884
 3109SOL     OW20788   1.326   0.658   4.890 -0.9434  0.0764 -0.1796
 3109SOL    HW120789   1.301   0.610   4.811  1.5225 -0.7557 -0.4446
 3109SOL    HW220790   1.297   0.747   4.868 -2.6076 -0.1382  1.1391
 3110SOL     OW20791   1.055   4.218  11.426 -0.6383 -0.5251  0.1196
 3110SOL    HW120792   1.142   4.226  11.465 -0.3630 -1.5666 -0.2759
 3110SOL    HW220793   1.015   4.290  11.475  0.2701 -0.8118  1.2906
 3111SOL     OW20794   3.469   0.493   1.588  0.0255  0.3307 -0.1400
 3111SOL    HW120795   3.550   0.458   1.625 -0.5363 -1.5771 -0.7255
 3111SOL    HW220796   3.503   0.515   1.501 -3.6497 -0.7373 -1.8339
 3112SOL     OW20797   0.269   2.075   9.756  0.7003  0.2713 -0.0891
 3112SOL    HW120798   0.359   2.106   9.749  1.7536 -2.7023  0.1158
 3112SOL    HW220799   0.225   2.138   9.813 -1.9658 -0.3256 -1.4984
 3113SOL     OW20800   2.659   4.277   7.740 -0.0646  0.4234  0.7000
 3113SOL    HW120801   2.610   4.201   7.707 -0.0036  0.4762  0.4912
 3113SOL    HW220802   2.747   4.251   7.713 -0.6004 -1.5366  0.7866
 3114SOL     OW20803   1.507   1.000   2.767  0.2947  0.6299 -0.3309
 3114SOL    HW120804   1.453   0.925   2.742  1.4143 -0.3000  0.0596
 3114SOL    HW220805   1.589   0.967   2.729 -0.2594 -0.0322 -0.9465
 3115SOL     OW20806   4.520   2.572  17.067 -0.9241 -0.4228 -0.2647
 3115SOL    HW120807   4.448   2.511  17.051  2.0172 -3.1973 -2.6184
 3115SOL    HW220808   4.576   2.544  16.995 -1.8066 -1.1164 -0.6850
 3116SOL     OW20809   1.310   3.395  13.759  0.6658  0.1081  0.3469
 3116SOL    HW120810   1.276   3.336  13.691 -1.0955  0.5878  0.8071
 3116SOL    HW220811   1.362   3.342  13.818  4.5383  1.7779 -1.5704
 3117SOL     OW20812   0.379   3.748   6.068 -0.1466 -0.3014  0.3284
 3117SOL    HW120813   0.301   3.695   6.051 -2.6674  3.6472 -0.3105
 3117SOL    HW220814   0.403   3.726   6.158 -0.2901  0.5425  0.5711
 3118SOL     OW20815   2.972   3.816   7.514 -0.7854  0.3157 -0.3096
 3118SOL    HW120816   2.984   3.733   7.559  0.0953  1.1666  1.0254
 3118SOL    HW220817   3.061   3.834   7.482 -0.1655  1.0367  1.7798
 3119SOL     OW20818   3.560   0.407   3.613  0.3031 -0.1699 -0.6978
 3119SOL    HW120819   3.487   0.466   3.595  0.4684 -0.0783 -1.0807
 3119SOL    HW220820   3.626   0.453   3.562  0.7119  0.0760  0.0621
 3120SOL     OW20821   0.767   3.248   5.978 -0.2328  0.0783 -0.3211
 3120SOL    HW120822   0.852   3.273   5.942  0.3758 -0.5926  0.6332
 3120SOL    HW220823   0.770   3.283   6.067 -1.6976  1.5591 -0.8384
 3121SOL     OW20824   1.202   0.919   2.803 -0.4380 -0.1528 -0.1260
 3121SOL    HW120825   1.180   0.881   2.888  1.4692 -1.0557 -0.0274
 3121SOL    HW220826   1.250   0.995   2.835 -1.0327  0.8090 -1.5103
 3122SOL     OW20827   0.387   4.316   0.648  0.5164 -0.5437  0.1900
 3122SOL    HW120828   0.366   4.241   0.593  0.7935 -1.3819  1.2244
 3122SOL    HW220829   0.350   4.386   0.594  0.2198 -1.4702 -0.8038
 3123SOL     OW20830   3.780   1.794   7.407  0.1952  0.1971  0.5006
 3123SOL    HW120831   3.698   1.820   7.366  0.9378 -1.7659 -2.1609
 3123SOL    HW220832   3.834   1.801   7.328  1.4383  0.0943  1.3308
 3124SOL     OW20833   0.732   3.419   2.457  0.2297  0.1007 -0.4677
 3124SOL    HW120834   0.644   3.411   2.494  0.2737  0.1520 -0.3522
 3124SOL    HW220835   0.716   3.346   2.397  0.6838  0.9756 -1.6533
 3125SOL     OW20836   0.204   1.747   6.328  0.4306  0.1922  0.2080
 3125SOL    HW120837   0.264   1.672   6.332  0.7084  0.4441  0.6918
 3125SOL    HW220838   0.258   1.824   6.345  1.0188 -0.1012 -0.3339
 3126SOL     OW20839   4.323   3.266   2.249 -0.5654  0.1029 -0.1099
 3126SOL    HW120840   4.252   3.205   2.232 -0.0394 -1.1603  2.2859
 3126SOL    HW220841   4.276   3.349   2.258 -0.3922  0.0153  1.5049
 3127SOL     OW20842   3.968   1.311   4.257  0.2497  0.3514 -0.7640
 3127SOL    HW120843   3.984   1.218   4.273  0.5382  0.3476 -1.0714
 3127SOL    HW220844   3.897   1.314   4.192 -0.5540  0.7780  0.1388
 3128SOL     OW20845   4.495   4.342   3.796 -1.2876  0.1243 -0.4227
 3128SOL    HW120846   4.479   4.303   3.882  2.4176  2.5861  1.3573
 3128SOL    HW220847   4.431   4.302   3.736 -0.0123 -0.1213 -1.6310
 3129SOL     OW20848   1.401   4.576  11.985  0.2665 -0.2423 -0.7571
 3129SOL    HW120849   1.314   4.547  11.959 -0.2673 -0.2488  0.9963
 3129SOL    HW220850   1.456   4.532  11.920  2.2757 -1.4644  1.7619
 3130SOL     OW20851   1.592   4.482   4.347  0.6331  0.0960 -0.5981
 3130SOL    HW120852   1.626   4.495   4.258  2.8094 -2.0694 -0.0877
 3130SOL    HW220853   1.628   4.397   4.372 -1.9871 -1.3748 -1.8377
 3131SOL     OW20854   3.884   1.854   8.167  0.3037  0.1090  0.4109
 3131SOL    HW120855   3.957   1.916   8.167  0.6415 -0.2940 -0.2712
 3131SOL    HW220856   3.881   1.825   8.258 -0.7651  2.7354  1.2101
 3132SOL     OW20857   3.293   1.884  14.964 -0.1897  0.4014 -0.4641
 3132SOL    HW120858   3.202   1.860  14.945 -0.5143  0.3853  1.1081
 3132SOL    HW220859   3.291   1.915  15.054  2.6629 -0.0634 -0.2476
 3133SOL     OW20860   4.479   1.197   1.686  0.2739  0.4164 -0.1901
 3133SOL    HW120861   4.427   1.248   1.624 -1.1985 -0.1753  0.5631
 3133SOL    HW220862   4.504   1.130   1.623  0.2712 -1.3680  1.6901
 3134SOL     OW20863   3.403   2.174   5.507 -0.1088  0.4693 -0.9713
 3134SOL    HW120864   3.419   2.095   5.559  1.2113  2.3252  1.4593
 3134SOL    HW220865   3.355   2.129   5.437  2.0324  2.0229 -3.3914
 3135SOL     OW20866   1.361   3.873   7.066  0.1153  0.6067  0.0767
 3135SOL    HW120867   1.286   3.894   7.121  0.1678  2.4471 -0.5327
 3135SOL    HW220868   1.343   3.935   6.995 -1.0934  0.0211 -0.1146
 3136SOL     OW20869   3.280   1.127   9.116 -0.0500 -0.4730  0.1753
 3136SOL    HW120870   3.279   1.212   9.159  0.2118 -0.7740  0.7759
 3136SOL    HW220871   3.316   1.139   9.029 -0.1815 -0.7734  0.0794
 3137SOL     OW20872   3.471   4.638   1.995 -0.2210  0.3858  0.5372
 3137SOL    HW120873   3.503   4.687   1.920  2.4749  0.1083  1.4977
 3137SOL    HW220874   3.512   4.556   1.967 -0.4592 -0.1764  1.8362
 3138SOL     OW20875   0.653   1.381   2.977 -0.2254  0.3484 -0.4372
 3138SOL    HW120876   0.581   1.333   2.935  1.4592 -1.9416 -0.7454
 3138SOL    HW220877   0.628   1.361   3.067  2.6330 -0.4320  0.1910
 3139SOL     OW20878   1.981   0.814   2.102 -0.1033 -0.5392 -0.3256
 3139SOL    HW120879   1.955   0.772   2.184 -3.3800  2.4344  0.1465
 3139SOL    HW220880   1.944   0.901   2.118  0.0570 -0.7036  0.9224
 3140SOL     OW20881   3.508   4.398  17.304 -0.3175 -0.1208  0.2628
 3140SOL    HW120882   3.589   4.418  17.350 -1.0683  0.9704  1.1048
 3140SOL    HW220883   3.447   4.433  17.369 -1.2499  1.5132 -1.4803
 3141SOL     OW20884   2.414   2.654   2.394 -0.3899 -0.0401 -0.3333
 3141SOL    HW120885   2.463   2.646   2.311 -1.5095  0.0063 -0.9978
 3141SOL    HW220886   2.486   2.683   2.450 -1.1002 -0.4661  0.8032
 3142SOL     OW20887   4.020   1.216   9.204 -0.2325 -0.5221  0.2798
 3142SOL    HW120888   4.086   1.283   9.221  1.3449 -1.6129 -1.5250
 3142SOL    HW220889   3.994   1.182   9.290 -0.0364  0.1085  0.5907
 3143SOL     OW20890   1.123   3.690  11.645 -0.3934  0.1658  0.1402
 3143SOL    HW120891   1.184   3.744  11.594 -0.1180 -0.3681 -0.0938
 3143SOL    HW220892   1.181   3.641  11.704 -0.4038  1.3658  1.1569
 3144SOL     OW20893   1.666   1.009  13.598  0.6968  0.4982 -0.7181
 3144SOL    HW120894   1.588   1.063  13.581 -0.7072 -1.7311 -1.3210
 3144SOL    HW220895   1.727   1.051  13.538  0.2579  0.3914 -1.2413
 3145SOL     OW20896   4.090   4.598   3.083  0.2247 -0.6450 -0.4976
 3145SOL    HW120897   4.085   4.503   3.087 -0.7310 -0.6429 -1.8227
 3145SOL    HW220898   4.176   4.604   3.126  0.3314 -1.1084 -0.6434
 3146SOL     OW20899   1.438   3.031   2.809  0.1320 -0.0848 -0.1955
 3146SOL    HW120900   1.387   3.041   2.890  0.9920 -1.5421  0.5337
 3146SOL    HW220901   1.448   3.123   2.783  2.1650 -1.0016 -2.6655
 3147SOL     OW20902   2.453   2.476   7.998  0.1763 -0.0179 -0.2191
 3147SOL    HW120903   2.427   2.454   8.087  0.3613 -0.2333 -0.2180
 3147SOL    HW220904   2.383   2.538   7.979  1.2954  0.8125 -1.6364
 3148SOL     OW20905   2.838   3.698   7.936  0.0232 -0.2740  0.5332
 3148SOL    HW120906   2.918   3.696   7.884 -0.3485  0.4371 -0.0789
 3148SOL    HW220907   2.872   3.744   8.013 -0.0321 -0.1574  0.4889
 3149SOL     OW20908   4.227   2.114   5.764  0.2976 -0.1217  0.1791
 3149SOL    HW120909   4.298   2.105   5.828 -0.9189 -0.7934  1.4324
 3149SOL    HW220910   4.161   2.066   5.814  1.3918 -0.1360  1.6004
 3150SOL     OW20911   4.492   2.602   6.074 -0.3545 -0.5799  0.7649
 3150SOL    HW120912   4.446   2.686   6.068 -0.6518 -0.8453 -0.6665
 3150SOL    HW220913   4.479   2.581   5.982 -0.3514 -1.7078  1.0120
 3151SOL     OW20914   0.391   1.313   4.526  0.3297  0.1921 -0.2497
 3151SOL    HW120915   0.411   1.319   4.433 -1.0278 -0.1182 -0.5577
 3151SOL    HW220916   0.353   1.401   4.530  1.3548  0.6111  0.0833
 3152SOL     OW20917   1.409   2.349  15.763 -0.2367 -0.7975 -0.1822
 3152SOL    HW120918   1.454   2.355  15.680  1.4914 -0.8880  0.7568
 3152SOL    HW220919   1.432   2.264  15.801  0.7305 -0.0654  0.8528
 3153SOL     OW20920   4.578   1.121   6.847 -0.1234  0.0026 -0.0900
 3153SOL    HW120921   4.594   1.214   6.835 -0.4127  0.2962  1.8625
 3153SOL    HW220922   4.654   1.080   6.806  0.9820 -1.2077  3.0947
 3154SOL     OW20923   2.326   3.085  15.993  0.0385  0.6919  0.2066
 3154SOL    HW120924   2.249   3.028  15.993  0.1911  0.4658 -1.3114
 3154SOL    HW220925   2.397   3.031  16.028 -0.4220 -0.6415 -0.8799
 3155SOL     OW20926   4.414   1.364   8.791  0.8217  0.1487 -0.1591
 3155SOL    HW120927   4.471   1.422   8.741  1.4414 -0.4618 -0.1652
 3155SOL    HW220928   4.401   1.307   8.716 -3.0280 -1.4224  1.7004
 3156SOL     OW20929   3.706   4.078  15.572 -0.0243  0.4496 -0.2463
 3156SOL    HW120930   3.800   4.058  15.578 -0.1239  0.0997  0.1936
 3156SOL    HW220931   3.672   3.998  15.532 -1.0775  0.6262  0.2871
 3157SOL     OW20932   3.544   1.610   2.675  0.0456 -0.4187  0.3654
 3157SOL    HW120933   3.609   1.675   2.648  0.8699 -0.8001  1.4357
 3157SOL    HW220934   3.467   1.667   2.674  0.2888 -0.1039 -0.4072
 3158SOL     OW20935   0.098   1.184   1.362 -0.2607 -0.5217 -0.4242
 3158SOL    HW120936   0.005   1.205   1.355 -0.3352 -0.3242  1.2543
 3158SOL    HW220937   0.138   1.240   1.429 -0.5189  0.6832 -1.2880
 3159SOL     OW20938   4.679   0.514  14.052  0.2496  0.0103 -0.1608
 3159SOL    HW120939   0.018   0.590  14.063  1.1782 -0.7777  0.5077
 3159SOL    HW220940   4.687   0.505  13.957 -0.0388  0.8479 -0.2665
 3160SOL     OW20941   1.908   0.132   2.885  0.2328  0.9383  0.5607
 3160SOL    HW120942   1.824   0.087   2.892  0.9182 -0.4962 -0.4187
 3160SOL    HW220943   1.909   0.207   2.944 -1.1270  1.1915  0.2637
 3161SOL     OW20944   2.942   0.211   6.003  0.6210  0.0090  0.0065
 3161SOL    HW120945   2.847   0.214   6.011  0.6325 -3.0379  1.0607
 3161SOL    HW220946   2.947   0.128   5.956 -0.0377 -0.8771  1.5098
 3162SOL     OW20947   2.954   3.389  17.620  0.2902 -0.1491  0.5375
 3162SOL    HW120948   2.979   3.428  17.537 -1.0688  0.2035  0.2956
 3162SOL    HW220949   3.006   3.424   0.018  0.2254  1.2834 -0.1140
 3163SOL     OW20950   4.197   2.692   5.453  0.7465  0.6174 -0.2180
 3163SOL    HW120951   4.120   2.664   5.502  0.9686  1.7031  0.7534
 3163SOL    HW220952   4.167   2.705   5.363  1.5821  0.0861 -0.5805
 3164SOL     OW20953   1.056   2.343  12.271 -0.4338  0.2220 -0.0648
 3164SOL    HW120954   1.111   2.266  12.280  2.9080  2.6079 -0.0481
 3164SOL    HW220955   0.987   2.314  12.332 -0.5994  0.6501 -0.0460
 3165SOL     OW20956   3.938   4.172   6.275 -0.3171  0.5099  0.5896
 3165SOL    HW120957   3.871   4.112   6.244  0.7716  0.9031 -2.4932
 3165SOL    HW220958   3.889   4.231   6.333  0.0636 -0.0031  1.4459
 3166SOL     OW20959   4.562   2.819   3.711  0.5894 -0.5915 -0.7756
 3166SOL    HW120960   4.657   2.825   3.716  0.2979  1.0024  2.6293
 3166SOL    HW220961   4.556   2.785   3.621 -1.2646  1.1108 -1.3018
 3167SOL     OW20962   2.455   1.935  12.013  0.6552  0.1303  0.5013
 3167SOL    HW120963   2.412   1.914  12.096 -0.3209  0.3785  0.0545
 3167SOL    HW220964   2.544   1.917  12.044  1.1782 -0.0996 -1.1776
 3168SOL     OW20965   0.074   2.144   2.410  0.7419 -0.5325  0.2309
 3168SOL    HW120966   0.151   2.168   2.462  0.1862 -0.4409  1.0186
 3168SOL    HW220967   0.114   2.075   2.358  2.0895 -0.3940  1.0721
 3169SOL     OW20968   2.023   1.395  10.028 -0.7986  0.1976 -0.0385
 3169SOL    HW120969   1.987   1.474  10.068  2.1704  1.4283  0.1956
 3169SOL    HW220970   2.032   1.412   9.934 -3.6526  1.1766 -0.1386
 3170SOL     OW20971   3.141   4.649  16.118 -0.1095 -0.9329 -0.3644
 3170SOL    HW120972   3.187   4.607  16.046  1.7425  1.5632 -0.6347
 3170SOL    HW220973   3.076   4.583  16.144 -0.0774 -1.6060 -1.9947
 3171SOL     OW20974   1.511   4.602   8.619 -0.0176 -0.3156  0.0380
 3171SOL    HW120975   1.447   4.592   8.549 -1.1517 -0.1001  1.0334
 3171SOL    HW220976   1.455   4.644   8.684 -0.6178  0.4087 -0.9674
 3172SOL     OW20977   2.756   4.593  12.688  0.9029  0.2938  0.3482
 3172SOL    HW120978   2.810   4.539  12.629 -0.6087  0.2634 -0.9894
 3172SOL    HW220979   2.692   4.528  12.715 -0.4849  2.6353  2.5899
 3173SOL     OW20980   2.654   0.519   4.574  0.9353 -0.1400  0.7107
 3173SOL    HW120981   2.611   0.603   4.561  1.3124  0.2229  1.7841
 3173SOL    HW220982   2.740   0.546   4.608 -0.3304  5.1081 -0.3375
 3174SOL     OW20983   2.740   2.801   6.305  0.1817  0.2972 -0.0638
 3174SOL    HW120984   2.727   2.713   6.270  0.5333 -0.4560  1.6619
 3174SOL    HW220985   2.733   2.785   6.399 -2.7784 -1.4655 -0.5904
 3175SOL     OW20986   4.641   3.742   9.556  0.0159  0.7758 -0.0914
 3175SOL    HW120987   4.666   3.769   9.644 -1.5250  0.6768  0.3654
 3175SOL    HW220988   4.568   3.799   9.530  1.0361  1.5951 -1.1775
 3176SOL     OW20989   4.302   0.409   3.176  0.1736 -0.0466 -0.3534
 3176SOL    HW120990   4.231   0.434   3.234 -0.3281  0.4407 -1.1771
 3176SOL    HW220991   4.351   0.490   3.167  0.8385 -0.4858 -0.7105
 3177SOL     OW20992   0.485   2.140   6.095  0.2630 -0.5137 -0.0841
 3177SOL    HW120993   0.516   2.198   6.165  1.0997 -0.8011 -0.2161
 3177SOL    HW220994   0.507   2.060   6.142  1.3716  0.6766  1.4398
 3178SOL     OW20995   0.495   1.413   9.984 -0.3231 -0.1735  0.1306
 3178SOL    HW120996   0.507   1.505  10.007 -0.6605 -0.5941  2.0566
 3178SOL    HW220997   0.428   1.416   9.916  0.8891  1.6647 -0.9819
 3179SOL     OW20998   1.650   1.076   7.140 -0.0301  0.0177 -0.1218
 3179SOL    HW120999   1.719   1.022   7.177  0.8303  0.7133 -0.7300
 3179SOL    HW221000   1.591   1.088   7.215  0.2076  1.3400 -0.1477
 3180SOL     OW21001   1.664   2.090  16.868  0.3182 -0.1654  0.2044
 3180SOL    HW121002   1.638   2.014  16.817 -1.1930 -1.0383  2.2746
 3180SOL    HW221003   1.585   2.143  16.880 -0.2577 -0.6639 -1.4896
 3181SOL     OW21004   1.051   1.416   9.847 -0.6993  0.1145  0.1092
 3181SOL    HW121005   1.028   1.403   9.939  3.3062  0.6474  1.1925
 3181SOL    HW221006   0.991   1.485   9.818  0.4426  2.1078  2.5010
 3182SOL     OW21007   1.316   3.588  15.525 -0.1709  0.1183  0.1110
 3182SOL    HW121008   1.333   3.610  15.617  0.1504  0.4808 -0.0383
 3182SOL    HW221009   1.294   3.496  15.537 -0.3790  0.0243 -1.0023
 3183SOL     OW21010   3.108   3.859   4.307 -0.1120  0.0429 -0.5017
 3183SOL    HW121011   3.090   3.816   4.391 -1.3113 -0.7379 -1.1495
 3183SOL    HW221012   3.036   3.815   4.261  0.1489 -0.5365 -0.3590
 3184SOL     OW21013   1.344   1.853   0.975  0.6039  0.0794 -0.8377
 3184SOL    HW121014   1.324   1.932   1.026 -1.9126 -1.1733  0.0871
 3184SOL    HW221015   1.285   1.789   1.015  2.8344 -1.4081  0.0724
 3185SOL     OW21016   3.054   3.918   8.301 -0.0382 -0.3161 -0.3503
 3185SOL    HW121017   3.134   3.890   8.257 -0.1634 -0.9156 -0.1950
 3185SOL    HW221018   2.989   3.866   8.253  0.2548 -1.0634  0.0676
 3186SOL     OW21019   0.099   3.928   8.553  0.1835  0.0233  0.2510
 3186SOL    HW121020   0.097   3.979   8.634 -0.4698  2.0451 -1.0311
 3186SOL    HW221021   0.022   3.975   8.522  1.0210  0.5852 -0.9707
 3187SOL     OW21022   3.727   4.090   3.932 -0.0299  0.0172  0.8010
 3187SOL    HW121023   3.788   4.108   4.004  0.7921  0.6527 -0.0582
 3187SOL    HW221024   3.754   4.165   3.880 -0.4677  0.9026  1.8435
 3188SOL     OW21025   3.248   4.144  15.673 -0.4576  0.4503 -0.0963
 3188SOL    HW121026   3.250   4.238  15.654 -0.9982  0.0193 -2.2951
 3188SOL    HW221027   3.338   4.129  15.700 -0.8637  0.6888  1.4316
 3189SOL     OW21028   0.365   0.312   6.399 -0.1706 -0.0250  0.2178
 3189SOL    HW121029   0.356   0.403   6.371  0.7618  0.2217  0.6923
 3189SOL    HW221030   0.277   0.275   6.400  0.4151 -1.3640  2.1268
 3190SOL     OW21031   3.459   0.838   1.254  0.2510  0.2698 -0.4174
 3190SOL    HW121032   3.393   0.776   1.221 -0.1240  1.1772 -1.3761
 3190SOL    HW221033   3.533   0.812   1.199  0.8255  2.4795 -0.6717
 3191SOL     OW21034   2.534   2.286   6.818 -0.2693  0.2990 -0.4091
 3191SOL    HW121035   2.477   2.237   6.876 -0.3046  1.3181  0.4180
 3191SOL    HW221036   2.610   2.310   6.871  0.3637 -3.2893  0.3061
 3192SOL     OW21037   0.503   0.401   6.725 -0.9284  0.5271 -0.1701
 3192SOL    HW121038   0.483   0.358   6.642 -0.3319 -0.9025  0.4227
 3192SOL    HW221039   0.436   0.469   6.732 -0.5353  1.2406 -3.6821
 3193SOL     OW21040   1.944   0.274  15.736 -0.0259  0.2371  0.0603
 3193SOL    HW121041   1.897   0.335  15.793  0.4526  0.6026  0.0709
 3193SOL    HW221042   1.888   0.289  15.660  0.6678  2.0971 -0.0965
 3194SOL     OW21043   4.016   4.675   8.086  0.4541  0.4601 -0.1167
 3194SOL    HW121044   4.107   4.689   8.060  0.5777 -0.9370 -0.4513
 3194SOL    HW221045   3.991   0.048   8.105 -2.2226 -0.9602  3.0584
 3195SOL     OW21046   1.358   3.309  10.900 -0.2231 -0.5467  0.2112
 3195SOL    HW121047   1.402   3.327  10.983 -0.3471 -0.9819  0.3731
 3195SOL    HW221048   1.279   3.271  10.941 -0.7536  0.6448  0.2778
 3196SOL     OW21049   1.269   3.990   3.077 -0.0106  0.1337 -0.9962
 3196SOL    HW121050   1.306   4.025   3.158  0.3853 -0.2034 -1.0318
 3196SOL    HW221051   1.253   4.079   3.043  0.3362  0.7153  0.3818
 3197SOL     OW21052   4.147   0.142   0.445  0.4587  0.0566 -0.5615
 3197SOL    HW121053   4.202   0.064   0.446  0.9838  0.4491  1.3552
 3197SOL    HW221054   4.159   0.171   0.535 -1.8158 -2.1454  0.4348
 3198SOL     OW21055   0.545   0.870   7.177  0.5626 -0.6743  1.0284
 3198SOL    HW121056   0.555   0.793   7.120 -0.4509 -0.6495  0.8131
 3198SOL    HW221057   0.580   0.938   7.119  1.3275 -0.1166  2.1605
 3199SOL     OW21058   2.421   3.858   6.899 -0.0308  0.9087 -0.4275
 3199SOL    HW121059   2.511   3.860   6.930 -0.6562 -0.4155  1.4434
 3199SOL    HW221060   2.438   3.778   6.849 -1.3584  0.4659 -0.1681
 3200SOL     OW21061   4.290   1.119   3.412  0.2424 -0.2969 -0.4919
 3200SOL    HW121062   4.359   1.107   3.477  0.4600  2.3982 -0.2090
 3200SOL    HW221063   4.217   1.107   3.472 -1.1790  0.7091 -1.9944
 3201SOL     OW21064   1.532   3.180  11.727  0.1745  0.1344 -0.1227
 3201SOL    HW121065   1.564   3.096  11.760 -1.2568 -0.6316 -0.6798
 3201SOL    HW221066   1.611   3.228  11.700 -0.7835  1.1532 -1.1080
 3202SOL     OW21067   2.884   4.336   3.719 -0.7540 -0.0924 -0.2302
 3202SOL    HW121068   2.948   4.284   3.671 -0.8258 -1.1918  0.8891
 3202SOL    HW221069   2.810   4.341   3.658 -1.1029  1.2283  0.2865
 3203SOL     OW21070   4.068   0.909   2.192  0.1375  0.4833 -0.5402
 3203SOL    HW121071   4.037   0.844   2.129 -1.7682  1.1085 -0.2717
 3203SOL    HW221072   4.001   0.977   2.181 -3.2222 -2.5759  1.1931
 3204SOL     OW21073   3.880   4.016   5.389  0.2154 -0.2329 -0.3812
 3204SOL    HW121074   3.866   4.065   5.308  1.2224  0.5166 -0.1036
 3204SOL    HW221075   3.840   3.929   5.383 -0.9999  0.1800  1.7342
 3205SOL     OW21076   4.017   4.563   4.047  0.9204  0.0254 -0.0396
 3205SOL    HW121077   3.931   4.556   4.087  0.7568 -0.6255 -0.5149
 3205SOL    HW221078   4.074   4.585   4.121 -0.3881  0.2197  0.9077
 3206SOL     OW21079   2.892   2.545  13.408 -0.1222 -0.1782  0.0737
 3206SOL    HW121080   2.834   2.620  13.399 -0.7511 -1.0469 -3.0434
 3206SOL    HW221081   2.970   2.587  13.446 -0.2348  1.6032 -1.6595
 3207SOL     OW21082   3.792   4.350   5.699  0.4204  0.5889  0.4617
 3207SOL    HW121083   3.860   4.286   5.681 -0.9397 -0.6111 -0.4028
 3207SOL    HW221084   3.715   4.293   5.689 -0.2529  1.4983  0.4015
 3208SOL     OW21085   3.492   0.908   9.175  0.3324  0.2754 -0.0649
 3208SOL    HW121086   3.567   0.919   9.117  0.8805 -1.6688  0.2800
 3208SOL    HW221087   3.458   0.998   9.173  2.5413  1.0226 -3.1921
 3209SOL     OW21088   4.092   0.080  14.185 -0.0548  0.0174  0.4801
 3209SOL    HW121089   4.113   0.158  14.236 -0.0578  0.6638 -0.5066
 3209SOL    HW221090   4.042   0.114  14.111 -0.3332  0.6181  0.9404
 3210SOL     OW21091   4.212   3.704   6.903 -0.3383 -0.1091  0.1081
 3210SOL    HW121092   4.268   3.716   6.979  1.7164 -1.5678 -1.1775
 3210SOL    HW221093   4.236   3.616   6.873  0.9045  0.4374 -0.5019
 3211SOL     OW21094   3.536   0.885  14.837  0.1908 -0.4104  0.1725
 3211SOL    HW121095   3.618   0.935  14.839 -0.1469  0.1447 -0.0606
 3211SOL    HW221096   3.519   0.871  14.931  2.5975 -0.3873  0.6028
 3212SOL     OW21097   1.307   3.873  13.667 -0.0435 -0.3022 -0.8640
 3212SOL    HW121098   1.297   3.793  13.719 -0.0715 -0.1576 -0.6442
 3212SOL    HW221099   1.369   3.842  13.601  1.6857  1.3614 -0.0296
 3213SOL     OW21100   1.628   0.789  13.415 -0.1380  0.6084 -0.2250
 3213SOL    HW121101   1.602   0.799  13.507  1.1346 -1.4523  0.3556
 3213SOL    HW221102   1.549   0.836  13.386  0.5688  1.0119 -1.5091
 3214SOL     OW21103   2.815   0.447   8.791  0.4447 -0.1731 -0.3533
 3214SOL    HW121104   2.832   0.371   8.736  0.3530 -0.1946 -0.3520
 3214SOL    HW221105   2.723   0.436   8.815 -0.0081  1.6361 -1.2697
 3215SOL     OW21106   2.393   3.910   1.563  0.1587  0.2453  0.7572
 3215SOL    HW121107   2.446   3.853   1.506 -0.5083 -1.0676  1.4688
 3215SOL    HW221108   2.458   3.918   1.633  2.5455  0.3356 -1.4360
 3216SOL     OW21109   0.518   1.958   4.521  0.1709 -0.1020 -0.2174
 3216SOL    HW121110   0.441   2.000   4.481 -1.7314 -2.3645  1.0944
 3216SOL    HW221111   0.493   1.870   4.548  0.1767  0.0536  0.2907
 3217SOL     OW21112   2.860   1.769   6.702  0.4064  0.3831  0.7802
 3217SOL    HW121113   2.951   1.766   6.676  0.2908 -2.3526  0.6932
 3217SOL    HW221114   2.821   1.837   6.647  0.8014 -0.0306 -0.0009
 3218SOL     OW21115   2.905   3.939   5.254  0.1807 -0.2091 -0.3626
 3218SOL    HW121116   2.900   3.853   5.295  2.8069  0.2648  0.9099
 3218SOL    HW221117   2.820   3.949   5.210  0.7417  1.4521 -1.0246
 3219SOL     OW21118   3.359   3.361   3.960 -0.2133  0.4322 -0.3495
 3219SOL    HW121119   3.369   3.372   3.865  2.3182 -1.9573 -0.3465
 3219SOL    HW221120   3.402   3.276   3.974  1.6450  0.7506 -3.9677
 3220SOL     OW21121   1.622   4.064  16.355  0.0295 -0.4755 -0.0165
 3220SOL    HW121122   1.571   4.137  16.319 -2.6224 -1.4018  1.8499
 3220SOL    HW221123   1.696   4.063  16.295 -0.0493  2.2004 -0.1693
 3221SOL     OW21124   1.311   0.298   0.807 -0.5269 -0.1713  0.0226
 3221SOL    HW121125   1.230   0.257   0.778 -1.1028  0.5749  0.5530
 3221SOL    HW221126   1.368   0.221   0.804  2.2388  1.8442  0.3183
 3222SOL     OW21127   0.185   1.027  10.316  0.1933  0.1412 -1.2108
 3222SOL    HW121128   0.125   1.065  10.381  2.6245 -1.9202  2.2071
 3222SOL    HW221129   0.260   1.085  10.326  1.9022 -2.0131 -1.7374
 3223SOL     OW21130   0.732   0.545   7.359 -0.6090 -0.6663 -0.0325
 3223SOL    HW121131   0.805   0.492   7.330 -2.0488 -1.5141 -2.0795
 3223SOL    HW221132   0.761   0.633   7.334 -0.4770 -1.5677 -3.0333
 3224SOL     OW21133   3.355   4.138  16.088 -0.1176  0.0260 -0.3112
 3224SOL    HW121134   3.382   4.097  16.170  1.4181  1.2612 -0.1863
 3224SOL    HW221135   3.427   4.201  16.078 -0.0103 -0.1738 -0.8484
 3225SOL     OW21136   1.019   0.851   1.530  0.4316 -0.4222  0.4206
 3225SOL    HW121137   0.985   0.863   1.619 -2.1114  0.5023 -0.6565
 3225SOL    HW221138   1.000   0.759   1.513  0.7976 -0.2992 -0.6634
 3226SOL     OW21139   0.799   2.202   1.654  0.3111  0.1267  0.6806
 3226SOL    HW121140   0.737   2.135   1.685  1.1011 -1.0289 -0.2321
 3226SOL    HW221141   0.787   2.200   1.559 -1.1950 -2.3242  0.9087
 3227SOL     OW21142   1.566   0.455   5.299 -0.2917  0.2008 -0.2217
 3227SOL    HW121143   1.516   0.377   5.277  3.1599 -2.0997  0.1283
 3227SOL    HW221144   1.631   0.427   5.363 -1.3383  0.9739  1.1749
 3228SOL     OW21145   2.929   3.849  16.255 -0.4877 -0.1379  1.2346
 3228SOL    HW121146   2.853   3.843  16.312 -3.0282 -0.1651 -2.1696
 3228SOL    HW221147   2.890   3.820  16.172  1.1019  3.1481 -0.6616
 3229SOL     OW21148   0.044   0.564   5.416 -0.2344  0.4492  0.5958
 3229SOL    HW121149   0.076   0.612   5.492  0.3525  0.3290  0.4289
 3229SOL    HW221150   0.124   0.512   5.406 -0.9194 -0.5480  0.3156
 3230SOL     OW21151   0.878   2.873   3.189  0.4000  0.2743  0.0894
 3230SOL    HW121152   0.962   2.852   3.148  0.3143  0.0496  0.0310
 3230SOL    HW221153   0.843   2.919   3.113 -0.9715  0.0666  0.5893
 3231SOL     OW21154   4.634   0.377   5.714  0.0244 -0.3688  0.4573
 3231SOL    HW121155   4.604   0.287   5.731 -0.4294 -0.7834 -2.5140
 3231SOL    HW221156   4.584   0.428   5.778 -0.0465 -0.6769  0.6477
 3232SOL     OW21157   3.822   4.280  15.979 -0.0275  0.0194  0.0158
 3232SOL    HW121158   3.830   4.373  15.955  1.4048 -0.0554  0.1822
 3232SOL    HW221159   3.727   4.276  15.984 -0.1107 -0.8155 -2.3978
 3233SOL     OW21160   4.303   4.471   0.745 -0.3256 -0.2762 -1.4011
 3233SOL    HW121161   4.390   4.508   0.758 -0.7589  0.3758 -0.3233
 3233SOL    HW221162   4.249   4.551   0.743  0.8807  0.5579 -0.2861
 3234SOL     OW21163   2.571   2.580   4.436 -0.2025 -0.0157 -0.5529
 3234SOL    HW121164   2.650   2.586   4.490 -0.0733  0.2134 -0.7660
 3234SOL    HW221165   2.565   2.653   4.375  1.0859 -0.0905 -0.7705
 3235SOL     OW21166   1.745   4.470   2.978  0.0137  0.5361  0.5435
 3235SOL    HW121167   1.695   4.465   3.060 -1.8536  1.1687 -0.5390
 3235SOL    HW221168   1.798   4.391   2.984 -2.4877 -1.2784 -1.3847
 3236SOL     OW21169   3.050   0.411   9.025  0.0342 -0.1303 -0.6217
 3236SOL    HW121170   3.028   0.502   9.009 -0.6837 -0.0145  1.0352
 3236SOL    HW221171   3.035   0.376   8.937  0.0856  2.1063 -1.5062
 3237SOL     OW21172   2.858   1.301   4.943  0.1547  0.1758 -0.5714
 3237SOL    HW121173   2.924   1.365   4.967 -0.1865 -0.1095  1.1243
 3237SOL    HW221174   2.856   1.322   4.850 -2.9372 -0.2117 -0.6061
 3238SOL     OW21175   1.047   1.763  16.709 -0.4561 -0.3481 -0.3873
 3238SOL    HW121176   1.142   1.751  16.707 -0.4904 -0.3687 -2.0105
 3238SOL    HW221177   1.028   1.713  16.788  1.1003 -0.1698  0.1116
 3239SOL     OW21178   2.432   0.844  11.385 -0.5135 -0.5784 -0.4745
 3239SOL    HW121179   2.398   0.852  11.296  0.2943 -1.8977 -0.9017
 3239SOL    HW221180   2.413   0.750  11.388 -0.2240 -0.5943  1.1548
 3240SOL     OW21181   2.043   4.453   7.684  0.5967 -0.0696  0.3594
 3240SOL    HW121182   2.062   4.400   7.607  0.8790 -0.7108  0.8671
 3240SOL    HW221183   1.973   4.508   7.649 -0.3323 -0.1473  2.0756
 3241SOL     OW21184   4.167   1.668   6.036 -0.1049  0.9278  0.2889
 3241SOL    HW121185   4.111   1.610   6.087 -0.1931 -1.7091 -2.7430
 3241SOL    HW221186   4.220   1.706   6.105  0.8558 -1.3315  0.7916
 3242SOL     OW21187   1.267   0.503   4.000 -0.3996  0.2841 -0.3779
 3242SOL    HW121188   1.292   0.523   3.910  1.5928  0.8967  0.2976
 3242SOL    HW221189   1.348   0.530   4.043 -2.2271  0.8215  2.7079
 3243SOL     OW21190   1.390   1.555   3.307  0.5381  0.2726  0.2881
 3243SOL    HW121191   1.352   1.591   3.387  0.2397 -0.5222  0.5006
 3243SOL    HW221192   1.455   1.623   3.288  0.0590  0.5946 -0.2281
 3244SOL     OW21193   3.185   0.864   7.801 -0.1225  0.1346  0.1660
 3244SOL    HW121194   3.258   0.812   7.835 -1.0251 -2.0273 -1.1943
 3244SOL    HW221195   3.117   0.797   7.791  0.7638 -0.9918  1.7137
 3245SOL     OW21196   1.128   3.234  12.972 -0.1449 -0.5526  0.1608
 3245SOL    HW121197   1.142   3.140  12.961 -1.6154 -0.8265  0.6477
 3245SOL    HW221198   1.211   3.254  13.017  0.3267 -1.6867 -0.2109
 3246SOL     OW21199   1.868   2.981   9.200  0.4234  0.4840  0.6713
 3246SOL    HW121200   1.902   2.896   9.227  1.0649 -0.2998 -2.6262
 3246SOL    HW221201   1.773   2.970   9.199  0.4748 -0.0598  1.5800
 3247SOL     OW21202   2.589   1.029  16.041 -0.1324 -0.0628 -0.1525
 3247SOL    HW121203   2.575   1.017  15.947  3.1529 -3.0681 -0.2746
 3247SOL    HW221204   2.526   1.096  16.064 -0.9640 -0.5375 -1.0603
 3248SOL     OW21205   3.007   1.948   8.444  0.0463 -0.0559  0.3507
 3248SOL    HW121206   2.931   1.993   8.480 -1.6852 -1.9218 -1.0051
 3248SOL    HW221207   3.019   2.011   8.373  0.4761 -0.8958 -0.3341
 3249SOL     OW21208   2.588   4.158  14.040  0.6361  0.8527  0.3984
 3249SOL    HW121209   2.586   4.183  14.132 -1.8736  1.6425  0.1404
 3249SOL    HW221210   2.661   4.210  14.007  0.6978  0.6852  0.2711
 3250SOL     OW21211   1.321   4.380   8.051 -0.0504 -0.1154  0.0251
 3250SOL    HW121212   1.391   4.438   8.079 -1.2105  0.6361  1.4102
 3250SOL    HW221213   1.268   4.358   8.128  0.1455 -0.0206  0.1889
 3251SOL     OW21214   1.169   4.333   2.625 -0.0518 -0.2354  0.0996
 3251SOL    HW121215   1.238   4.291   2.678  1.8170  0.5199 -1.7313
 3251SOL    HW221216   1.111   4.258   2.610 -1.9156  1.1867  0.3352
 3252SOL     OW21217   4.497   0.659   8.395  0.1428 -0.0479 -0.1035
 3252SOL    HW121218   4.459   0.742   8.368 -1.4387 -1.5503 -2.4863
 3252SOL    HW221219   4.583   0.665   8.354  0.2755  0.4690  0.2566
 3253SOL     OW21220   0.505   3.218   1.554 -0.7144 -0.2961 -0.4001
 3253SOL    HW121221   0.591   3.217   1.513 -1.0052  1.3858 -1.0257
 3253SOL    HW221222   0.451   3.187   1.481 -0.2235 -1.8814 -0.1044
 3254SOL     OW21223   0.656   3.350   3.228  0.0668  0.5688 -0.1363
 3254SOL    HW121224   0.603   3.270   3.231  1.7319 -0.4809  0.9664
 3254SOL    HW221225   0.674   3.344   3.134 -0.5955  0.4478 -0.2574
 3255SOL     OW21226   1.649   2.352   7.401 -0.3701 -0.1054  0.2615
 3255SOL    HW121227   1.629   2.443   7.425  0.6223 -0.0047  0.7330
 3255SOL    HW221228   1.600   2.345   7.320 -1.0699 -2.2092  0.8656
 3256SOL     OW21229   1.047   0.139  16.097 -0.3883 -0.2003 -0.9861
 3256SOL    HW121230   0.973   0.189  16.131 -0.7226 -0.0281 -1.9552
 3256SOL    HW221231   1.015   0.053  16.125  2.2830 -1.1031 -0.6580
 3257SOL     OW21232   0.293   2.401   4.345  0.2208 -0.2131 -0.1167
 3257SOL    HW121233   0.377   2.426   4.382 -0.0172 -1.6412  1.4029
 3257SOL    HW221234   0.297   2.452   4.264 -0.8449  1.8413  1.0994
 3258SOL     OW21235   1.173   0.171   0.416 -0.2792 -0.6128 -0.4330
 3258SOL    HW121236   1.268   0.183   0.413 -0.2794 -0.4679  0.0459
 3258SOL    HW221237   1.148   0.258   0.385  3.0412  0.5980  0.2441
 3259SOL     OW21238   3.588   0.699   1.926  0.3501 -0.7212 -0.1045
 3259SOL    HW121239   3.560   0.675   2.015  0.1330  0.7216  0.2159
 3259SOL    HW221240   3.637   0.777   1.953  0.9011  0.4615 -4.5752
 3260SOL     OW21241   1.585   0.529  15.636 -0.7171 -0.0894 -0.0261
 3260SOL    HW121242   1.525   0.528  15.711  2.4016  2.5566  2.5127
 3260SOL    HW221243   1.621   0.617  15.643  3.7749 -1.9724  0.5141
 3261SOL     OW21244   3.325   3.795   9.466 -0.1187  0.1607 -0.2371
 3261SOL    HW121245   3.308   3.706   9.435  0.6838 -0.5558  1.3698
 3261SOL    HW221246   3.342   3.771   9.557  0.8133  3.4086  0.4396
 3262SOL     OW21247   0.603   1.939  16.574 -0.2965  0.5566  0.0904
 3262SOL    HW121248   0.572   1.980  16.493  1.3926 -0.5835 -1.1302
 3262SOL    HW221249   0.664   2.000  16.615 -1.2048  1.6398 -0.1607
 3263SOL     OW21250   1.352   1.243   2.638  0.3668 -0.2757 -0.3537
 3263SOL    HW121251   1.398   1.166   2.674  0.7570  1.1616  2.2524
 3263SOL    HW221252   1.285   1.249   2.707  0.6021 -1.1836 -0.0311
 3264SOL     OW21253   3.924   1.122   1.520  0.0970 -0.3379 -0.5025
 3264SOL    HW121254   3.830   1.106   1.511 -0.3535  2.0655 -0.1029
 3264SOL    HW221255   3.928   1.145   1.613 -0.2916  0.4020 -0.6642
 3265SOL     OW21256   1.401   3.322   3.207  0.1092 -0.7099 -0.2145
 3265SOL    HW121257   1.416   3.348   3.116  0.5553  0.8696  0.3046
 3265SOL    HW221258   1.316   3.365   3.220 -0.7161 -2.6076  0.6430
 3266SOL     OW21259   0.690   3.633  13.782 -0.0955 -0.5580 -0.4480
 3266SOL    HW121260   0.666   3.588  13.702  0.4422 -1.3718 -0.1475
 3266SOL    HW221261   0.762   3.686  13.748 -1.8092  1.1421 -1.4448
 3267SOL     OW21262   1.397   4.016  16.871 -0.0156 -0.1146 -0.3330
 3267SOL    HW121263   1.339   4.091  16.886  0.9991  0.4481  0.8195
 3267SOL    HW221264   1.477   4.065  16.886  0.7495 -0.8237 -2.1279
 3268SOL     OW21265   2.711   1.465   6.960 -0.6469 -0.2746 -0.2541
 3268SOL    HW121266   2.788   1.429   6.917 -1.6430 -1.4993 -1.0001
 3268SOL    HW221267   2.679   1.522   6.890  0.5962 -0.7856 -1.2142
 3269SOL     OW21268   1.254   2.595   2.245  0.4885  0.0249  0.1160
 3269SOL    HW121269   1.296   2.646   2.315 -0.5439  0.7838  0.1829
 3269SOL    HW221270   1.240   2.653   2.170 -1.0931  0.6271  0.8647
 3270SOL     OW21271   3.264   3.625  11.258  0.0611 -0.1659 -0.0955
 3270SOL    HW121272   3.318   3.624  11.178 -0.6502  0.7897 -0.5864
 3270SOL    HW221273   3.310   3.680  11.321 -2.1422 -0.1664  1.4830
 3271SOL     OW21274   1.018   3.034   4.309  0.3176  0.2334 -0.2095
 3271SOL    HW121275   0.989   3.077   4.228 -2.0897 -1.4034 -0.2238
 3271SOL    HW221276   1.047   2.953   4.268 -2.2140 -0.2620 -1.0327
 3272SOL     OW21277   2.842   4.500  12.439  0.0742  0.4050 -0.2411
 3272SOL    HW121278   2.762   4.449  12.426  1.9082 -3.2504  2.8555
 3272SOL    HW221279   2.906   4.429  12.435  1.3096  1.2078  4.2004
 3273SOL     OW21280   0.567   4.524   7.363 -0.5952 -0.0369  0.2042
 3273SOL    HW121281   0.540   4.575   7.440  0.5207  3.5614 -1.7507
 3273SOL    HW221282   0.499   4.457   7.358  0.2025 -1.0682  3.0320
 3274SOL     OW21283   1.174   2.057  15.025  0.9241  0.2346 -0.2523
 3274SOL    HW121284   1.154   2.109  14.948  0.4833  1.2587  0.5609
 3274SOL    HW221285   1.126   1.975  15.013  1.7894  0.2038 -3.4133
 3275SOL     OW21286   3.751   0.441   5.055  0.2196 -0.1273  0.0784
 3275SOL    HW121287   3.754   0.537   5.052  0.3246 -0.0950  1.2365
 3275SOL    HW221288   3.663   0.426   5.089  0.7775 -0.4145  1.4152
 3276SOL     OW21289   1.683   0.126  12.006 -0.6292  0.1709  0.2620
 3276SOL    HW121290   1.666   0.047  12.058  2.4101  0.4390  1.6203
 3276SOL    HW221291   1.595   0.147  11.973 -0.5878  2.0362  1.3570
 3277SOL     OW21292   0.162   3.979   6.216  0.6000  0.5422  0.1908
 3277SOL    HW121293   0.073   4.011   6.232  1.6364  4.4651 -1.9532
 3277SOL    HW221294   0.203   3.949   6.297  1.7076  1.1080 -0.1569
 3278SOL     OW21295   0.071   3.389   9.809  0.3413 -0.1794 -0.6596
 3278SOL    HW121296   0.055   3.302   9.845 -0.2921  1.0009  1.9552
 3278SOL    HW221297   0.040   3.442   9.883  1.5860  0.2454 -0.4513
 3279SOL     OW21298   0.395   2.636   2.555 -0.6189 -0.3050  0.0424
 3279SOL    HW121299   0.389   2.561   2.495  0.3687  0.0818 -0.5453
 3279SOL    HW221300   0.348   2.700   2.502  0.0231 -0.1922 -0.3829
 3280SOL     OW21301   0.246   3.877   5.711 -0.1101  0.1536 -0.4882
 3280SOL    HW121302   0.206   3.921   5.786 -1.6272  0.7268 -1.6492
 3280SOL    HW221303   0.333   3.915   5.697  0.5593 -1.5088 -0.8569
 3281SOL     OW21304   3.270   2.017  11.483  0.1674  0.0392  0.7822
 3281SOL    HW121305   3.256   2.088  11.421 -1.6348 -1.4707 -0.5570
 3281SOL    HW221306   3.356   1.987  11.453  0.3507  1.7150 -0.3392
 3282SOL     OW21307   1.896   4.614   0.396 -0.8492  0.0587  0.5912
 3282SOL    HW121308   1.871   4.654   0.313  1.0791  2.2429  1.0548
 3282SOL    HW221309   1.852   4.682   0.447  0.0660  0.7940  0.4069
 3283SOL     OW21310   2.776   3.591   3.541  1.0285 -0.6407 -0.2710
 3283SOL    HW121311   2.698   3.539   3.561 -0.0545  1.9580  2.2588
 3283SOL    HW221312   2.844   3.523   3.545  2.7784  1.2182  1.4837
 3284SOL     OW21313   0.831   0.255  16.211 -0.4297  0.1235  0.2726
 3284SOL    HW121314   0.782   0.337  16.202 -0.9810 -0.2815 -0.4554
 3284SOL    HW221315   0.756   0.200  16.232 -1.4924  1.5119  0.1065
 3285SOL     OW21316   4.174   0.781   5.676  0.5255  0.2107  0.3181
 3285SOL    HW121317   4.190   0.710   5.614  2.5223  1.3561 -0.4983
 3285SOL    HW221318   4.246   0.840   5.653  0.6427  0.6788  1.9010
 3286SOL     OW21319   1.395   0.360   0.039 -0.4230 -0.4172 -0.1178
 3286SOL    HW121320   1.326   0.300   0.009 -1.1152  0.3354 -0.0500
 3286SOL    HW221321   1.337   0.434   0.058  0.7694  0.9910 -1.8917
 3287SOL     OW21322   2.367   2.326   6.069  0.1749 -0.0768 -0.7281
 3287SOL    HW121323   2.404   2.247   6.109  1.0229  0.9470  0.4877
 3287SOL    HW221324   2.437   2.388   6.049 -1.4546  1.6298 -1.1420
 3288SOL     OW21325   2.146   0.240  15.496  0.4212 -0.3326  0.5116
 3288SOL    HW121326   2.136   0.330  15.465 -0.7379 -0.9130 -0.7879
 3288SOL    HW221327   2.060   0.203  15.478  0.7461 -0.7377 -0.2375
 3289SOL     OW21328   2.347   4.668   8.161  0.0091  0.2675  0.1335
 3289SOL    HW121329   2.313   0.004   8.090  0.3350 -1.3296 -1.2298
 3289SOL    HW221330   2.385   4.590   8.121 -0.3129  1.7479 -2.9861
 3290SOL     OW21331   0.173   4.695   4.768  0.0598 -0.4200 -0.3301
 3290SOL    HW121332   0.155   4.608   4.733  0.0977 -0.7093  0.3687
 3290SOL    HW221333   0.169   4.684   4.863  0.8656 -1.5714 -0.4202
 3291SOL     OW21334   1.957   0.011  12.430  0.1624  0.6357  0.1321
 3291SOL    HW121335   1.900   4.656  12.454 -0.4245  0.2234 -2.5122
 3291SOL    HW221336   2.009   4.678  12.367  0.1787  1.3956 -0.4670
 3292SOL     OW21337   2.489   2.115   9.019 -0.6986 -0.0916  0.0130
 3292SOL    HW121338   2.413   2.062   8.996 -1.4305  0.3786  1.3812
 3292SOL    HW221339   2.562   2.071   8.975  0.3023 -0.2529  1.8330
 3293SOL     OW21340   2.978   4.232  13.169 -0.0743 -0.1818 -0.2009
 3293SOL    HW121341   2.965   4.283  13.089 -0.9384 -1.2125 -0.7302
 3293SOL    HW221342   2.895   4.184  13.173  0.0626 -0.3403  0.7956
 3294SOL     OW21343   4.530   3.536   8.347  0.1364  0.4017 -0.2602
 3294SOL    HW121344   4.504   3.445   8.335 -0.1823  0.7009 -1.8063
 3294SOL    HW221345   4.594   3.523   8.417  0.3384 -0.1017 -0.5425
 3295SOL     OW21346   3.521   0.860   8.361 -0.2085  0.1692 -0.2067
 3295SOL    HW121347   3.574   0.789   8.324  2.9951  1.3216  2.2268
 3295SOL    HW221348   3.469   0.812   8.426 -0.6947  0.6283 -0.2581
 3296SOL     OW21349   0.647   2.600   6.905 -0.3537  0.3796 -0.1603
 3296SOL    HW121350   0.553   2.597   6.885  0.1393  0.2545 -2.3545
 3296SOL    HW221351   0.695   2.557   6.835  1.4161 -0.0803  1.3364
 3297SOL     OW21352   1.838   4.440   0.048 -0.4745 -0.6557  0.1292
 3297SOL    HW121353   1.914   4.455   0.105  0.0354 -1.9138 -0.2360
 3297SOL    HW221354   1.882   4.442  17.638 -1.6263 -0.5557 -0.4725
 3298SOL     OW21355   0.881   0.128   6.378 -0.3311  0.0671  0.3137
 3298SOL    HW121356   0.794   0.166   6.380 -0.2469  0.2015  1.9476
 3298SOL    HW221357   0.862   0.055   6.320  0.1090  1.1965 -1.2380
 3299SOL     OW21358   2.805   0.879   1.206 -0.1435 -0.4052 -0.1637
 3299SOL    HW121359   2.826   0.967   1.236  2.6573 -1.6421  1.4618
 3299SOL    HW221360   2.740   0.906   1.141 -1.6476 -0.1487  1.4544
 3300SOL     OW21361   1.744   4.099   4.980 -0.7669  0.0678  0.0868
 3300SOL    HW121362   1.782   4.123   4.895 -0.2332 -1.7353 -0.1758
 3300SOL    HW221363   1.792   4.023   5.013 -0.8020 -0.0230 -0.0716
 3301SOL     OW21364   1.163   0.491   5.787  0.0378  0.0067  0.4524
 3301SOL    HW121365   1.198   0.453   5.868  0.7334 -0.8249 -0.2370
 3301SOL    HW221366   1.079   0.526   5.818 -1.0523  0.2020 -2.7403
 3302SOL     OW21367   4.374   1.735   8.966  0.0676  0.0489  0.0629
 3302SOL    HW121368   4.403   1.824   8.985 -0.2745 -0.1651  1.6391
 3302SOL    HW221369   4.426   1.720   8.888 -0.3835  1.3399 -0.4908
 3303SOL     OW21370   2.259   1.813   8.155  0.4014  0.2388  0.3062
 3303SOL    HW121371   2.168   1.805   8.184  0.0146 -1.6163 -1.3805
 3303SOL    HW221372   2.306   1.747   8.207 -1.7804 -1.4625  0.1175
 3304SOL     OW21373   4.124   0.137  10.501  0.0602 -0.5231 -0.3247
 3304SOL    HW121374   4.087   0.206  10.557  0.6213 -0.0528 -0.5345
 3304SOL    HW221375   4.073   0.158  10.423  1.5824  0.1810 -1.1294
 3305SOL     OW21376   1.915   0.375   2.990  0.1735 -0.3467 -0.3011
 3305SOL    HW121377   1.883   0.428   2.918 -2.4406 -0.4168  0.8068
 3305SOL    HW221378   1.923   0.441   3.059 -0.2978 -2.6542  1.9815
 3306SOL     OW21379   4.338   2.507   3.042 -0.3978 -0.3600  0.1957
 3306SOL    HW121380   4.407   2.566   3.012 -1.6028  1.1562  0.3908
 3306SOL    HW221381   4.343   2.443   2.972 -1.0102 -1.0446  0.7878
 3307SOL     OW21382   2.366   3.499   4.907 -0.1280  0.3781  0.3406
 3307SOL    HW121383   2.430   3.557   4.949  1.3189  0.0130 -1.3323
 3307SOL    HW221384   2.331   3.558   4.840 -0.6074  1.2090  1.3282
 3308SOL     OW21385   1.088   4.429   7.271  0.8265 -0.1045  0.6400
 3308SOL    HW121386   1.051   4.348   7.234  2.2084 -0.4049 -0.1004
 3308SOL    HW221387   1.015   4.457   7.326  0.8319 -0.2318  0.7122
 3309SOL     OW21388   4.389   0.892   8.319  0.5352 -0.0032 -0.2185
 3309SOL    HW121389   4.300   0.891   8.353 -0.2091 -0.5407 -2.1962
 3309SOL    HW221390   4.365   0.912   8.229 -0.2517 -0.3567 -0.0818
 3310SOL     OW21391   4.656   4.223   8.222 -0.6468 -0.5370  0.0753
 3310SOL    HW121392   4.591   4.238   8.291 -1.1122  1.2199 -0.7518
 3310SOL    HW221393   4.604   4.237   8.143 -1.7876 -2.0376  0.5677
 3311SOL     OW21394   2.191   0.203   4.107 -0.4282  0.0699 -0.2782
 3311SOL    HW121395   2.259   0.184   4.043  0.0540  0.2899  0.1709
 3311SOL    HW221396   2.236   0.242   4.182  2.1346 -1.2065 -1.1615
 3312SOL     OW21397   1.588   4.253   0.608  0.8991 -0.0601  0.3957
 3312SOL    HW121398   1.646   4.266   0.532 -0.1882  1.5562 -0.1407
 3312SOL    HW221399   1.555   4.342   0.618 -1.0549 -0.6900 -0.5291
 3313SOL     OW21400   0.760   1.157   2.690  0.1452  0.0053  0.3480
 3313SOL    HW121401   0.804   1.073   2.672  1.7319  0.6108  1.4150
 3313SOL    HW221402   0.830   1.200   2.740  0.2994  0.4881 -0.2924
 3314SOL     OW21403   0.884   1.064  10.025  0.7808 -0.9204  0.1759
 3314SOL    HW121404   0.852   1.147   9.989  0.7713 -0.8160  0.4307
 3314SOL    HW221405   0.831   0.997   9.981  1.7433 -0.8229 -1.1366
 3315SOL     OW21406   1.803   0.706   4.983 -0.3528  0.1739 -0.8204
 3315SOL    HW121407   1.841   0.684   5.068  0.3153 -0.7986 -1.3774
 3315SOL    HW221408   1.882   0.683   4.933  0.2803 -1.0354  0.7370
 3316SOL     OW21409   0.427   0.923   5.689  0.7479 -0.2238  0.3150
 3316SOL    HW121410   0.457   0.841   5.728  0.2652 -1.2399 -1.4493
 3316SOL    HW221411   0.450   0.976   5.765  3.0842 -0.1175 -0.4653
 3317SOL     OW21412   3.727   0.663   9.354  0.2653 -0.1862  0.2294
 3317SOL    HW121413   3.697   0.746   9.392 -2.9602 -1.5841  0.7581
 3317SOL    HW221414   3.643   0.641   9.312 -0.8937 -0.1843  2.5536
 3318SOL     OW21415   2.233   0.857   3.919 -0.1167 -0.1421 -0.0361
 3318SOL    HW121416   2.300   0.788   3.930  0.1257  0.0242 -0.4563
 3318SOL    HW221417   2.272   0.931   3.966 -1.4340 -0.9929  2.3918
 3319SOL     OW21418   1.606   4.216  15.446  0.6705  0.3243  0.1503
 3319SOL    HW121419   1.564   4.294  15.412  1.7282  0.0841 -1.6671
 3319SOL    HW221420   1.540   4.186  15.509  0.7563 -1.4317 -0.5921
 3320SOL     OW21421   3.235   0.210   7.645 -0.5196  0.6595  0.3145
 3320SOL    HW121422   3.312   0.154   7.657  1.7293  3.5612 -0.6578
 3320SOL    HW221423   3.197   0.190   7.730  0.2505 -1.0083  0.2862
 3321SOL     OW21424   0.313   1.248  16.837 -0.3033 -0.0944  0.1029
 3321SOL    HW121425   0.258   1.173  16.817  0.2184 -0.8898  1.6080
 3321SOL    HW221426   0.270   1.323  16.795 -0.4253 -0.5930 -0.6465
 3322SOL     OW21427   0.762   3.611  16.486 -0.3508  0.2217  0.5005
 3322SOL    HW121428   0.846   3.594  16.444 -1.6736 -0.2086 -1.9641
 3322SOL    HW221429   0.739   3.697  16.451 -3.4487 -0.6294  0.4100
 3323SOL     OW21430   0.252   1.042   6.953  0.3566 -0.6700  0.2784
 3323SOL    HW121431   0.234   1.037   7.047 -0.9249  2.2948  0.2126
 3323SOL    HW221432   0.324   0.981   6.939 -0.6114 -1.6242 -0.5355
 3324SOL     OW21433   0.949   0.251  15.027  0.1308  0.1395 -0.0281
 3324SOL    HW121434   0.945   0.272  14.933 -1.1830 -1.0992 -0.2575
 3324SOL    HW221435   0.997   0.169  15.032 -1.4297 -0.7999 -0.3841
 3325SOL     OW21436   3.197   2.623  13.707 -0.4974  0.0458 -0.1760
 3325SOL    HW121437   3.160   2.581  13.785 -0.8987  1.4475  0.3817
 3325SOL    HW221438   3.268   2.670  13.750  2.1860 -1.8115 -2.5558
 3326SOL     OW21439   4.234   0.974   7.183 -0.1519 -0.0615  0.0430
 3326SOL    HW121440   4.239   1.058   7.228  3.0800 -0.6220  0.7919
 3326SOL    HW221441   4.326   0.957   7.164 -0.0271 -0.8851  1.2988
 3327SOL     OW21442   1.200   0.758   3.297 -0.3110  0.0412 -0.2132
 3327SOL    HW121443   1.203   0.852   3.315 -2.7859 -0.0290  0.4961
 3327SOL    HW221444   1.173   0.727   3.383  0.8932  0.5948  0.3733
 3328SOL     OW21445   2.747   2.587  14.291 -0.3744  0.5478  0.1886
 3328SOL    HW121446   2.697   2.591  14.210  1.5639  1.4894 -0.9462
 3328SOL    HW221447   2.823   2.532  14.268 -0.3909 -1.1013  3.9749
 3329SOL     OW21448   1.015   4.399   1.986  0.1583  0.0158  0.3612
 3329SOL    HW121449   0.987   4.375   1.898 -0.0085 -0.8169  0.6365
 3329SOL    HW221450   1.021   4.494   1.982 -0.1894 -0.0926 -2.7943
 3330SOL     OW21451   2.539   1.006  12.511  0.0134  0.2803 -0.3410
 3330SOL    HW121452   2.549   1.029  12.419  1.6068 -2.6346 -0.9186
 3330SOL    HW221453   2.488   0.925  12.513  0.0622  0.2623  0.3138
 3331SOL     OW21454   2.424   4.270   5.257 -0.0501 -1.0343 -0.3203
 3331SOL    HW121455   2.344   4.315   5.285  0.7384 -0.5142  1.1146
 3331SOL    HW221456   2.466   4.340   5.206 -0.4618 -1.7328 -1.6001
 3332SOL     OW21457   4.118   2.503   3.217  0.3088 -0.2343  0.1941
 3332SOL    HW121458   4.178   2.530   3.286 -0.4556 -0.4338  0.9288
 3332SOL    HW221459   4.178   2.495   3.142  0.0035 -0.4263 -0.0309
 3333SOL     OW21460   1.202   0.172  16.498 -0.4742  0.2617 -0.1671
 3333SOL    HW121461   1.161   0.092  16.466 -2.0203 -0.1169  2.7264
 3333SOL    HW221462   1.130   0.235  16.494 -1.9176 -1.2776  1.6867
 3334SOL     OW21463   3.270   1.267   5.195 -0.0886  0.3303  0.4145
 3334SOL    HW121464   3.283   1.174   5.214  0.5119  0.1975 -0.6111
 3334SOL    HW221465   3.197   1.297   5.250  0.0857  1.8838 -0.2057
 3335SOL     OW21466   1.196   3.379   9.415 -0.3670 -0.1652 -0.2771
 3335SOL    HW121467   1.128   3.315   9.437 -0.8842  0.4465 -0.0966
 3335SOL    HW221468   1.143   3.459   9.420 -0.3407  0.0105 -2.8849
 3336SOL     OW21469   0.447   2.926   9.830  0.6809 -0.1461  0.0172
 3336SOL    HW121470   0.361   2.886   9.817  0.2028  0.9044 -0.0470
 3336SOL    HW221471   0.434   3.014   9.865  1.5267 -0.0178  0.0079
 3337SOL     OW21472   3.311   2.773   8.960  0.4763 -0.6349 -0.3965
 3337SOL    HW121473   3.297   2.868   8.967 -2.2213 -1.1091  0.3713
 3337SOL    HW221474   3.406   2.762   8.970  0.7423  0.6614 -1.5411
 3338SOL     OW21475   1.370   1.908   3.789  0.6154  0.3954 -0.3196
 3338SOL    HW121476   1.311   1.949   3.726 -1.2566 -0.3526  0.9652
 3338SOL    HW221477   1.425   1.985   3.807 -0.2045  0.6827  0.9003
 3339SOL     OW21478   4.160   4.709   7.510  0.0941  0.1707 -0.0376
 3339SOL    HW121479   4.146   4.638   7.448  2.0705  1.2152 -1.6995
 3339SOL    HW221480   4.251   0.014   7.489  0.1937 -0.3029 -0.1104
 3340SOL     OW21481   1.349   1.016   3.307 -0.1538  0.5637  0.3182
 3340SOL    HW121482   1.424   1.009   3.367 -0.2589  2.7296  0.7163
 3340SOL    HW221483   1.336   1.110   3.300  2.4295  0.8139 -1.0698
 3341SOL     OW21484   2.852   1.162   3.037 -0.2407 -0.1649 -0.0259
 3341SOL    HW121485   2.881   1.232   2.979  2.1585 -2.0177 -1.0536
 3341SOL    HW221486   2.845   1.092   2.972 -0.6664 -0.9967  0.9254
 3342SOL     OW21487   2.026   2.266   3.553  0.2753  0.3101 -0.7694
 3342SOL    HW121488   2.063   2.237   3.636 -0.2366  3.7433  0.6621
 3342SOL    HW221489   2.055   2.200   3.490 -1.9533 -0.7771 -0.6442
 3343SOL     OW21490   0.985   1.837   7.123  0.0167  0.7500 -0.2083
 3343SOL    HW121491   0.940   1.759   7.155  0.3529  0.8190  0.4127
 3343SOL    HW221492   1.035   1.862   7.200 -0.3648  1.7189 -0.2782
 3344SOL     OW21493   1.514   1.641   2.317 -0.1057 -0.1574  0.0211
 3344SOL    HW121494   1.440   1.689   2.279  1.5699  0.3259 -2.6617
 3344SOL    HW221495   1.496   1.548   2.320  0.7645 -0.3947 -1.9663
 3345SOL     OW21496   4.281   1.417   3.610  0.0478  0.1438 -0.6936
 3345SOL    HW121497   4.208   1.372   3.569  0.2086 -0.8307  0.0891
 3345SOL    HW221498   4.320   1.334   3.638 -1.2116 -0.5579 -1.0233
 3346SOL     OW21499   2.327   1.138  11.733  0.5772  0.0968  0.8291
 3346SOL    HW121500   2.398   1.074  11.738  2.8870  2.6799  0.6846
 3346SOL    HW221501   2.269   1.127  11.808 -0.4974 -0.2977 -0.0499
 3347SOL     OW21502   2.966   0.111  12.493  0.1847 -0.5736 -0.3362
 3347SOL    HW121503   3.008   0.048  12.550 -0.5316 -0.3363  0.4591
 3347SOL    HW221504   2.950   0.054  12.418 -2.5318 -0.8402  0.4261
 3348SOL     OW21505   0.916   4.063   6.394  0.0770 -0.5772 -0.0419
 3348SOL    HW121506   1.008   4.036   6.395 -0.2732 -1.7970 -2.7790
 3348SOL    HW221507   0.908   4.091   6.303  1.5592 -0.0184 -0.0055
 3349SOL     OW21508   4.632   4.552   6.674  0.5109 -0.5157  0.4603
 3349SOL    HW121509   4.581   4.506   6.741  0.2508  0.2229  0.7587
 3349SOL    HW221510   4.588   4.524   6.593 -0.7785 -0.1418  1.0365
 3350SOL     OW21511   3.493   0.499   7.394 -0.0034 -0.2528  0.0597
 3350SOL    HW121512   3.499   0.579   7.445  3.0850  0.7194 -1.7969
 3350SOL    HW221513   3.448   0.531   7.316  1.7569  0.1894 -0.7952
 3351SOL     OW21514   1.299   2.552   9.604  0.5319  0.0108 -0.1992
 3351SOL    HW121515   1.338   2.624   9.556 -3.4120  2.7658  0.7121
 3351SOL    HW221516   1.271   2.491   9.535 -1.8235 -1.8824  2.3841
 3352SOL     OW21517   1.083   4.169   1.158 -0.1661 -0.0975 -0.2978
 3352SOL    HW121518   1.156   4.112   1.185  0.8458 -0.3770 -3.6775
 3352SOL    HW221519   1.012   4.142   1.216 -0.6122 -0.9688 -1.2583
 3353SOL     OW21520   1.931   4.485   8.858 -0.4130  0.4669 -0.1474
 3353SOL    HW121521   1.886   4.475   8.774 -0.2938 -0.6100 -0.0802
 3353SOL    HW221522   1.902   4.407   8.903 -1.9596 -0.5086 -2.8431
 3354SOL     OW21523   0.589   0.136   6.330 -0.6180 -0.5211  0.6917
 3354SOL    HW121524   0.564   0.052   6.368 -1.8185 -0.4466  0.0553
 3354SOL    HW221525   0.518   0.189   6.366  1.2448  3.3661 -1.3663
 3355SOL     OW21526   0.196   4.521   6.800 -0.3363 -0.4860  0.2004
 3355SOL    HW121527   0.111   4.510   6.757 -0.9316  2.4055  0.5992
 3355SOL    HW221528   0.166   4.590   6.860 -1.6246 -0.3104 -0.6353
 3356SOL     OW21529   0.430   4.088   8.398 -0.2675  0.2154 -0.2011
 3356SOL    HW121530   0.497   4.041   8.448 -1.6315  0.7778  2.1021
 3356SOL    HW221531   0.385   4.142   8.462 -0.9664 -0.6297  0.0296
 3357SOL     OW21532   2.658   1.940   8.877 -0.0817 -0.0218  0.4127
 3357SOL    HW121533   2.742   1.975   8.849  0.5617 -1.6739  0.3036
 3357SOL    HW221534   2.625   1.918   8.790 -2.4432  0.6199  1.1366
 3358SOL     OW21535   1.434   0.455   5.023  0.3156 -0.5098  0.0100
 3358SOL    HW121536   1.410   0.535   4.976  0.3859  0.3952  1.5417
 3358SOL    HW221537   1.486   0.482   5.098  1.9419 -2.2462 -0.4876
 3359SOL     OW21538   3.560   2.161  13.430  0.4147 -0.0899  0.3978
 3359SOL    HW121539   3.567   2.076  13.386  0.4430 -0.7997  1.7565
 3359SOL    HW221540   3.493   2.212  13.385  0.5545  1.6943  2.2225
 3360SOL     OW21541   0.942   4.053  16.258  0.5047  0.5925  0.1725
 3360SOL    HW121542   0.866   4.061  16.202  1.8161 -0.9468 -1.8192
 3360SOL    HW221543   0.947   4.144  16.289  0.3918  0.2276  1.2751
 3361SOL     OW21544   0.981   4.460   0.560 -0.2424 -0.1458  0.0038
 3361SOL    HW121545   0.987   4.552   0.586 -2.0879  0.0598 -0.2816
 3361SOL    HW221546   1.018   4.468   0.472 -0.1367  0.4953  0.1091
 3362SOL     OW21547   1.822   1.088  10.395  0.1598 -0.2835  0.3806
 3362SOL    HW121548   1.859   1.173  10.373 -0.7875  1.1001  4.2830
 3362SOL    HW221549   1.836   1.051  10.308 -0.4751 -0.9010  0.5415
 3363SOL     OW21550   1.291   2.583  11.698  0.3976 -0.1104  0.4844
 3363SOL    HW121551   1.275   2.529  11.620  1.3334 -0.6824  0.6897
 3363SOL    HW221552   1.384   2.599  11.688  0.0097  0.5340 -2.0651
 3364SOL     OW21553   4.149   3.629   8.240 -0.6194  0.2206  0.3217
 3364SOL    HW121554   4.206   3.702   8.264 -1.4153  0.7894  0.4777
 3364SOL    HW221555   4.068   3.665   8.275 -0.9506 -0.1210 -0.1012
 3365SOL     OW21556   4.437   4.512  11.094 -0.4838  0.2289 -0.1683
 3365SOL    HW121557   4.531   4.496  11.103 -0.4645 -0.1877 -1.0531
 3365SOL    HW221558   4.394   4.429  11.072  0.1197 -0.3543  0.8495
 3366SOL     OW21559   2.106   3.460   6.864  0.0977  0.5562  0.1505
 3366SOL    HW121560   2.038   3.523   6.890  0.6456 -0.2673  3.5388
 3366SOL    HW221561   2.154   3.510   6.798 -0.6021 -0.2671 -0.9960
 3367SOL     OW21562   1.228   1.934   3.445 -0.2370  0.6001  0.2155
 3367SOL    HW121563   1.220   1.983   3.528  0.1783 -1.1213  1.2658
 3367SOL    HW221564   1.266   1.850   3.471  0.1343  0.3882 -1.0560
 3368SOL     OW21565   4.026   4.669   0.656 -0.4386  0.0964  0.5323
 3368SOL    HW121566   4.076   0.028   0.683  0.1911  0.9779 -3.0372
 3368SOL    HW221567   4.025   4.623   0.739 -1.0619 -0.2450  0.3372
 3369SOL     OW21568   2.581   1.861   5.383  0.2716 -0.0710 -0.1354
 3369SOL    HW121569   2.564   1.874   5.290 -1.7474  0.5968  0.3490
 3369SOL    HW221570   2.500   1.896   5.420  0.3599 -0.8099  0.7802
 3370SOL     OW21571   3.001   2.952   5.258 -0.2283 -0.3141 -0.0493
 3370SOL    HW121572   2.968   2.938   5.170  2.0526  0.9533 -1.1110
 3370SOL    HW221573   3.011   2.861   5.285  4.7199  0.6541  1.3297
 3371SOL     OW21574   1.763   3.934   5.621 -0.3363 -0.4157 -0.0088
 3371SOL    HW121575   1.838   3.885   5.588  0.1036 -0.4776  1.0855
 3371SOL    HW221576   1.701   3.901   5.556 -1.1433  1.5210 -0.2224
 3372SOL     OW21577   1.641   3.562  10.568 -0.0023  0.4258 -0.4064
 3372SOL    HW121578   1.705   3.501  10.532 -2.0616 -2.2412  0.3689
 3372SOL    HW221579   1.575   3.501  10.601 -0.8877  2.2845  1.2361
 3373SOL     OW21580   2.110   2.182   9.607 -0.1180 -0.4572 -0.0531
 3373SOL    HW121581   2.202   2.187   9.583 -0.3609  2.8553 -0.2155
 3373SOL    HW221582   2.107   2.255   9.668 -2.5924 -1.9355  1.6225
 3374SOL     OW21583   3.060   0.225   4.230  0.0204  0.2108 -0.1206
 3374SOL    HW121584   3.074   0.130   4.233 -1.1612  0.0363 -0.1473
 3374SOL    HW221585   3.149   0.257   4.218  1.0150 -2.2306  0.6147
 3375SOL     OW21586   3.727   3.444   5.875  0.2436  0.4277 -0.1910
 3375SOL    HW121587   3.783   3.366   5.875  0.3989  0.5355  1.2001
 3375SOL    HW221588   3.669   3.440   5.952  2.4935  0.6482  1.5295
 3376SOL     OW21589   4.702   0.237   3.515  0.3973  0.3242  0.0238
 3376SOL    HW121590   0.043   0.163   3.503  1.5660  1.4548 -1.3513
 3376SOL    HW221591   4.680   0.254   3.423 -0.2843 -0.3553  0.0578
 3377SOL     OW21592   1.615   0.228   0.125  0.2276  0.0709 -0.3914
 3377SOL    HW121593   1.556   0.286   0.078 -0.5582 -0.7666 -0.4341
 3377SOL    HW221594   1.596   0.255   0.215  1.1330 -1.6028  0.3045
 3378SOL     OW21595   0.165   2.012   8.445 -0.2136 -0.1379 -0.0777
 3378SOL    HW121596   0.219   1.940   8.475  0.1909 -0.2712 -1.1160
 3378SOL    HW221597   0.222   2.056   8.381  0.0304  0.8106  0.7969
 3379SOL     OW21598   2.870   2.080   2.950 -0.3627 -0.3546 -0.1159
 3379SOL    HW121599   2.894   2.102   2.860 -0.7882 -0.0847 -0.1640
 3379SOL    HW221600   2.789   2.030   2.935  0.5643 -1.1198 -2.6024
 3380SOL     OW21601   1.197   2.873  15.192 -0.0152  0.1193  0.4082
 3380SOL    HW121602   1.134   2.938  15.162  0.8791  0.2909 -1.0551
 3380SOL    HW221603   1.140   2.800  15.216  1.0338 -0.2553  1.7663
 3381SOL     OW21604   2.840   1.418   7.256 -0.1215 -0.6635 -0.1393
 3381SOL    HW121605   2.787   1.397   7.333 -0.7869  0.6630 -0.2319
 3381SOL    HW221606   2.785   1.371   7.193  1.5714 -1.8387 -0.7419
 3382SOL     OW21607   0.527   2.360   3.435 -0.1622 -0.0051 -0.0036
 3382SOL    HW121608   0.508   2.352   3.528 -0.6898 -1.9967 -0.2925
 3382SOL    HW221609   0.440   2.366   3.395  0.1482 -1.5306 -0.9217
 3383SOL     OW21610   3.594   4.466   1.419  0.5627  0.4495 -0.7843
 3383SOL    HW121611   3.592   4.412   1.341  1.7651  0.5064 -0.8465
 3383SOL    HW221612   3.660   4.413   1.463 -0.0655 -0.4659 -0.9347
 3384SOL     OW21613   2.199   3.291   7.943  0.3760 -0.2353  0.0736
 3384SOL    HW121614   2.269   3.352   7.921 -0.2483  0.2180 -0.6604
 3384SOL    HW221615   2.124   3.305   7.885  0.9805  1.6746 -0.2438
 3385SOL     OW21616   0.736   3.761   6.271 -0.0555 -0.2542  0.1271
 3385SOL    HW121617   0.783   3.776   6.190 -2.7285 -1.8993 -1.7388
 3385SOL    HW221618   0.804   3.709   6.314 -0.5149  1.0712  2.4401
 3386SOL     OW21619   0.401   0.191   9.796 -0.4778  0.2911  0.1255
 3386SOL    HW121620   0.452   0.260   9.839  2.4796 -1.8169  0.0011
 3386SOL    HW221621   0.325   0.169   9.850 -1.0118  0.8213 -0.4117
 3387SOL     OW21622   3.116   2.657   5.817  1.0851 -0.6788  0.3143
 3387SOL    HW121623   3.145   2.711   5.744 -0.4643 -0.6189 -0.2590
 3387SOL    HW221624   3.185   2.675   5.881  0.4523 -0.1357  0.8343
 3388SOL     OW21625   2.058   3.472  12.920  0.6220  0.0394  0.4440
 3388SOL    HW121626   2.044   3.437  13.008 -0.0212 -0.7065  0.0433
 3388SOL    HW221627   2.020   3.405  12.863 -0.8812 -1.2864  3.0586
 3389SOL     OW21628   4.401   3.245   6.352 -0.4799 -0.4391  0.0166
 3389SOL    HW121629   4.477   3.298   6.373 -0.8723 -0.3197  1.1865
 3389SOL    HW221630   4.420   3.206   6.267  0.0656 -0.5023  0.1700
 3390SOL     OW21631   1.333   0.449   2.779 -0.7337  0.0705  0.0639
 3390SOL    HW121632   1.265   0.488   2.724  0.5584  0.3292 -1.3716
 3390SOL    HW221633   1.370   0.386   2.717  0.1829  1.6159 -0.9544
 3391SOL     OW21634   0.630   1.282   6.959  0.3810 -0.0601  0.7585
 3391SOL    HW121635   0.592   1.290   6.872 -1.9427 -1.5967  1.6289
 3391SOL    HW221636   0.698   1.350   6.963 -0.4423  0.6575  2.7640
 3392SOL     OW21637   2.636   0.477   1.839  0.0301  0.3854 -0.3201
 3392SOL    HW121638   2.691   0.436   1.772 -0.8958 -1.9858  0.3621
 3392SOL    HW221639   2.580   0.538   1.791  1.9386  1.4692 -1.1601
 3393SOL     OW21640   0.905   2.773   5.660 -0.2769  0.3168  0.4436
 3393SOL    HW121641   0.814   2.796   5.680 -0.6267 -1.7106  1.2191
 3393SOL    HW221642   0.936   2.721   5.735  1.8582  1.9739  0.6988
 3394SOL     OW21643   0.722   0.417  16.483  0.5796 -0.1834 -0.8588
 3394SOL    HW121644   0.687   0.421  16.394 -0.1070 -0.0484 -0.5784
 3394SOL    HW221645   0.776   0.494  16.468  1.1191 -0.2546  0.7204
 3395SOL     OW21646   1.863   1.367   4.720  0.2638 -0.4828 -0.3954
 3395SOL    HW121647   1.863   1.291   4.662  0.6476 -1.1776  0.5245
 3395SOL    HW221648   1.875   1.321   4.803 -1.4368  0.4578  0.3918
 3396SOL     OW21649   0.816   3.548   6.022  0.4374  0.6237 -0.2555
 3396SOL    HW121650   0.834   3.498   5.942  0.8020 -1.6943  1.2599
 3396SOL    HW221651   0.723   3.523   6.028 -0.2022  3.6701  2.4662
 3397SOL     OW21652   2.055   3.560   4.498  0.2096  0.4062 -0.5197
 3397SOL    HW121653   2.001   3.627   4.457 -1.8183  0.8500  2.8682
 3397SOL    HW221654   2.075   3.501   4.425 -0.4418 -0.9809  0.4247
 3398SOL     OW21655   3.172   0.027   3.142  0.4941 -0.2973 -0.3282
 3398SOL    HW121656   3.157   0.119   3.120  2.1518 -0.0465 -0.4332
 3398SOL    HW221657   3.200   4.711   3.056 -1.9516  0.5690 -1.4772
 3399SOL     OW21658   3.186   0.743   3.929 -0.4007 -0.6549  0.5131
 3399SOL    HW121659   3.115   0.685   3.955 -2.5678  1.1405 -1.4971
 3399SOL    HW221660   3.148   0.780   3.850 -1.1098  2.2843  2.2015
 3400SOL     OW21661   2.069   2.584   7.327  0.1039 -0.6716 -0.1821
 3400SOL    HW121662   2.130   2.649   7.292 -1.4609 -0.0369 -1.7248
 3400SOL    HW221663   2.057   2.625   7.412  0.2199 -2.0371  0.4969
 3401SOL     OW21664   0.549   1.299   3.757 -0.3444  0.0542  0.0168
 3401SOL    HW121665   0.470   1.273   3.805 -0.7682 -0.8804 -1.2125
 3401SOL    HW221666   0.562   1.225   3.698  0.3448  0.2474 -0.0727
 3402SOL     OW21667   1.540   3.902  14.007  0.7095 -0.4097  0.2100
 3402SOL    HW121668   1.560   3.980  13.954 -3.1327  1.5496  1.6711
 3402SOL    HW221669   1.528   3.942  14.093  1.3673  0.6229 -0.1677
 3403SOL     OW21670   0.371   0.083   8.778 -0.8006  0.4628 -0.3206
 3403SOL    HW121671   0.425   0.134   8.717  1.1310 -1.3244 -0.1008
 3403SOL    HW221672   0.439   0.056   8.840 -1.7476 -2.7968 -0.6775
 3404SOL     OW21673   1.032   1.937   2.037 -0.1289  0.3983  0.2902
 3404SOL    HW121674   0.972   2.001   1.998  0.1171 -1.8944 -3.9001
 3404SOL    HW221675   1.051   1.877   1.964  0.5770 -1.5879  2.1236
 3405SOL     OW21676   3.490   2.202   8.959 -0.1874 -0.7931  0.0047
 3405SOL    HW121677   3.584   2.205   8.941 -0.1124  2.6353  0.9431
 3405SOL    HW221678   3.452   2.243   8.881 -0.3643 -0.4855  0.2474
 3406SOL     OW21679   0.485   0.250   2.189 -0.3644  0.1102  0.1182
 3406SOL    HW121680   0.400   0.291   2.207 -0.2826  0.1722  0.3714
 3406SOL    HW221681   0.451   0.177   2.138  1.1109 -1.2818  1.1576
 3407SOL     OW21682   1.907   2.959   2.879 -0.3658  0.0781  0.3042
 3407SOL    HW121683   1.952   3.004   2.807  0.5541 -0.9674  0.2267
 3407SOL    HW221684   1.817   2.990   2.869 -0.0823  0.9520  0.4789
 3408SOL     OW21685   4.092   2.845   4.598 -0.2506  0.3366  0.1624
 3408SOL    HW121686   4.159   2.827   4.664 -0.2344  1.1666  0.3711
 3408SOL    HW221687   4.020   2.868   4.656 -0.8191  1.1806 -0.8670
 3409SOL     OW21688   2.631   2.908   1.594  0.1269 -0.0019 -0.5704
 3409SOL    HW121689   2.698   2.970   1.567  0.6956  0.1911  1.2823
 3409SOL    HW221690   2.656   2.849   1.524 -0.2710 -0.0853 -0.6457
 3410SOL     OW21691   1.195   2.177   4.427 -0.3977  0.0061  0.1357
 3410SOL    HW121692   1.166   2.169   4.336 -0.0599 -0.7637  0.0986
 3410SOL    HW221693   1.286   2.149   4.423 -0.4565  0.1125 -1.6185
 3411SOL     OW21694   1.580   4.182  13.542 -0.1396  0.3206 -0.0422
 3411SOL    HW121695   1.488   4.199  13.523  0.2319  0.0083 -2.0838
 3411SOL    HW221696   1.583   4.108  13.602 -1.8409 -0.7124 -1.2336
 3412SOL     OW21697   1.518   3.150  15.535 -0.2334  0.0088 -0.0133
 3412SOL    HW121698   1.516   3.074  15.594  0.1504  0.6229  0.7748
 3412SOL    HW221699   1.548   3.209  15.604 -0.5105 -0.7361  0.7576
 3413SOL     OW21700   0.146   1.299  17.608  0.5595 -0.1789  0.0090
 3413SOL    HW121701   0.095   1.363  17.559  1.4283  1.2576  0.9754
 3413SOL    HW221702   0.097   1.293   0.015  1.3203  3.1406  0.7197
 3414SOL     OW21703   0.371   4.461   3.461 -0.2278 -0.2226  0.1982
 3414SOL    HW121704   0.432   4.503   3.521  0.5552 -1.4001  0.2434
 3414SOL    HW221705   0.293   4.447   3.515 -0.6566 -1.4032 -0.7242
 3415SOL     OW21706   1.224   3.567   8.305 -0.5387  0.1817  0.3764
 3415SOL    HW121707   1.252   3.529   8.222 -0.0971 -1.7830  1.4036
 3415SOL    HW221708   1.306   3.603   8.338 -0.4593  1.0135 -0.7617
 3416SOL     OW21709   0.980   2.191  12.554  0.1111 -0.1888  0.0552
 3416SOL    HW121710   0.908   2.253  12.541  1.0559  0.6627 -1.0625
 3416SOL    HW221711   0.928   2.111  12.561  2.3015 -1.4620  1.8648
 3417SOL     OW21712   3.999   2.595   7.940  0.1755  0.0777  0.2874
 3417SOL    HW121713   3.999   2.688   7.962  0.0945  0.1011  0.1884
 3417SOL    HW221714   3.922   2.565   7.988  1.1618 -0.4757  1.5437
 3418SOL     OW21715   4.561   0.019   6.065 -0.1652 -0.1511  0.1157
 3418SOL    HW121716   4.574   4.677   6.139 -0.3799  0.1751  0.4151
 3418SOL    HW221717   4.518   4.670   6.011  0.2677  0.3577 -0.8597
 3419SOL     OW21718   1.592   0.484   8.499 -0.7154  0.0965 -0.1884
 3419SOL    HW121719   1.685   0.468   8.483  0.0774  3.2936  1.1798
 3419SOL    HW221720   1.574   0.433   8.578 -0.3769  0.7025  0.2838
 3420SOL     OW21721   2.968   3.524   6.204  0.3542  0.0930  0.0162
 3420SOL    HW121722   2.873   3.521   6.216  0.5761 -0.5239  1.6784
 3420SOL    HW221723   2.996   3.554   6.291  0.4630 -2.1455  0.7629
 3421SOL     OW21724   2.856   0.819  17.579 -0.3341  0.2777 -0.2716
 3421SOL    HW121725   2.864   0.859  17.666  0.4691  0.7726 -0.5683
 3421SOL    HW221726   2.772   0.778  17.561 -1.9222  3.6397 -0.5370
 3422SOL     OW21727   3.600   0.749   6.577  0.0542  0.1979 -0.3430
 3422SOL    HW121728   3.590   0.654   6.592  1.9916  0.1115  0.3841
 3422SOL    HW221729   3.509   0.773   6.562  0.4218  0.2091 -2.4735
 3423SOL     OW21730   0.872   4.529   7.818  0.5124  0.0399  0.2120
 3423SOL    HW121731   0.916   4.538   7.903  0.3768  0.0383  0.2822
 3423SOL    HW221732   0.858   4.435   7.802  1.1528  0.1425 -0.9405
 3424SOL     OW21733   2.212   4.679  16.311  0.3909  0.3116 -0.0819
 3424SOL    HW121734   2.128   4.655  16.271  0.7148 -0.7759 -0.1091
 3424SOL    HW221735   2.279   4.656  16.247  0.6490 -0.0414  0.3193
 3425SOL     OW21736   3.564   3.342  14.412 -0.4293 -0.6503  0.4144
 3425SOL    HW121737   3.507   3.402  14.459 -1.8200 -2.0415  0.5094
 3425SOL    HW221738   3.500   3.306  14.351  0.3900 -1.8969  0.2747
 3426SOL     OW21739   0.219   0.202  16.329 -0.6983 -0.2361  0.1484
 3426SOL    HW121740   0.242   0.110  16.343 -0.9354 -0.3860 -0.4410
 3426SOL    HW221741   0.283   0.231  16.393  0.6802 -1.5605 -0.6300
 3427SOL     OW21742   3.372   3.689   8.759  0.2576 -0.2874 -0.1117
 3427SOL    HW121743   3.424   3.657   8.833  2.6518 -1.5194 -2.3216
 3427SOL    HW221744   3.429   3.665   8.686 -0.1977 -0.3595 -0.4439
 3428SOL     OW21745   1.630   4.538   2.027 -0.0998 -0.1544 -0.0755
 3428SOL    HW121746   1.589   4.622   2.007 -0.4503 -0.3827 -0.3372
 3428SOL    HW221747   1.714   4.578   2.048 -0.9126  1.1628  0.6309
 3429SOL     OW21748   4.617   1.486   3.906  0.2536  0.0135 -0.5301
 3429SOL    HW121749   4.611   1.392   3.887 -2.1334  0.2604 -0.9725
 3429SOL    HW221750   4.688   1.493   3.970 -2.0343  2.0358  1.8301
 3430SOL     OW21751   2.698   1.780  15.419 -0.5130 -0.3951 -0.0877
 3430SOL    HW121752   2.703   1.799  15.325 -0.5144  2.0348  0.3977
 3430SOL    HW221753   2.627   1.715  15.414 -1.5533  0.5714  2.2554
 3431SOL     OW21754   1.780   2.238   5.801  0.1923 -0.8867 -0.2822
 3431SOL    HW121755   1.819   2.324   5.820 -1.3758 -0.1179 -0.4979
 3431SOL    HW221756   1.856   2.184   5.781  1.1997  0.4022  0.0562
 3432SOL     OW21757   1.030   1.208   6.434 -0.1313  0.5568  0.4130
 3432SOL    HW121758   0.993   1.196   6.522  0.0702  0.3424  0.4703
 3432SOL    HW221759   1.022   1.117   6.405  0.5824 -0.1658  2.4839
 3433SOL     OW21760   1.935   2.998  14.294  0.1485  0.5376  0.0718
 3433SOL    HW121761   1.860   3.043  14.254 -0.2365 -2.1915 -2.2606
 3433SOL    HW221762   1.975   2.962  14.215  3.0044 -0.2634  1.8948
 3434SOL     OW21763   2.238   0.142  12.993  0.2771 -0.1363  0.1926
 3434SOL    HW121764   2.314   0.099  12.955  0.7000 -0.3036  1.2258
 3434SOL    HW221765   2.226   0.219  12.938 -0.6690 -1.0077 -0.8403
 3435SOL     OW21766   0.800   0.246  10.610  0.3020  0.1723 -0.3767
 3435SOL    HW121767   0.874   0.297  10.579  0.9590 -1.5564 -1.6990
 3435SOL    HW221768   0.787   0.182  10.539  0.5189 -1.3539  0.9591
 3436SOL     OW21769   1.675   4.213   0.097  0.1820 -0.0510  0.4710
 3436SOL    HW121770   1.732   4.289   0.090 -0.3891  0.2591 -0.7879
 3436SOL    HW221771   1.724   4.136   0.066  0.5838  0.3458  0.1317
 3437SOL     OW21772   3.802   2.900   4.426  0.3273  0.0540  0.1661
 3437SOL    HW121773   3.877   2.958   4.439 -0.1402  0.1755  2.2726
 3437SOL    HW221774   3.768   2.935   4.343 -0.7212  0.0649  0.5957
 3438SOL     OW21775   2.537   3.244  14.386 -0.2933 -0.4465  0.1796
 3438SOL    HW121776   2.536   3.254  14.481  0.6560  0.0564  0.1306
 3438SOL    HW221777   2.569   3.154  14.389 -2.1406 -1.1014  0.2249
 3439SOL     OW21778   4.224   2.563   2.718  0.0044 -0.2749  0.3936
 3439SOL    HW121779   4.232   2.486   2.774  2.0289  0.0647  0.5888
 3439SOL    HW221780   4.219   2.524   2.630 -1.7873 -1.2167  0.9351
 3440SOL     OW21781   0.575   1.032   2.898  0.1428  0.0685  0.3152
 3440SOL    HW121782   0.615   1.099   2.843  0.8659  0.9950  1.9680
 3440SOL    HW221783   0.492   1.075   2.915 -0.1317  0.2079 -1.3860
 3441SOL     OW21784   1.580   3.573   7.852 -0.1642  0.1825  0.7396
 3441SOL    HW121785   1.645   3.605   7.914  1.1291  0.7858 -0.9375
 3441SOL    HW221786   1.507   3.623   7.888  0.7797  0.3498  2.4287
 3442SOL     OW21787   2.406   3.425   7.855  0.4880 -0.2128  0.3991
 3442SOL    HW121788   2.405   3.455   7.764 -1.3133 -1.1879  0.1021
 3442SOL    HW221789   2.459   3.496   7.891 -1.6565 -0.4921  4.1390
 3443SOL     OW21790   1.556   3.895   5.894  0.1948 -0.2703 -0.1796
 3443SOL    HW121791   1.550   3.847   5.812 -0.5287 -0.8704  0.2241
 3443SOL    HW221792   1.641   3.873   5.932 -1.3466 -2.4085  2.0063
 3444SOL     OW21793   1.364   0.891   6.673  0.4544  0.2132 -0.3353
 3444SOL    HW121794   1.390   0.844   6.594  0.5639 -0.3543  0.0435
 3444SOL    HW221795   1.411   0.855   6.748 -0.8692 -0.5168  0.1394
 3445SOL     OW21796   3.821   4.663   8.877 -0.5747 -0.1783  0.0503
 3445SOL    HW121797   3.896   4.650   8.935 -1.2950 -0.9363  0.7947
 3445SOL    HW221798   3.852   4.629   8.793  1.4008 -0.1134  0.7470
 3446SOL     OW21799   2.635   2.365  15.850 -0.5615 -0.2445 -0.4645
 3446SOL    HW121800   2.557   2.363  15.905 -0.1008 -2.3307  0.1076
 3446SOL    HW221801   2.663   2.274  15.863 -0.3691  0.0382  1.0686
 3447SOL     OW21802   1.909   3.994   3.575 -0.2264  0.5561 -0.2192
 3447SOL    HW121803   1.968   4.000   3.500 -1.4462 -0.5986 -1.2695
 3447SOL    HW221804   1.975   3.980   3.644 -0.5930 -1.9275 -0.3816
 3448SOL     OW21805   0.008   2.634   6.860 -0.1959  0.4393  1.1077
 3448SOL    HW121806   4.700   2.727   6.863  0.5066  0.7587 -2.7305
 3448SOL    HW221807   0.086   2.645   6.805 -1.5067 -1.3756 -1.0721
 3449SOL     OW21808   2.454   3.624   8.464 -0.0132 -0.0246 -0.0406
 3449SOL    HW121809   2.368   3.648   8.499  0.0680 -0.9767  0.8211
 3449SOL    HW221810   2.440   3.537   8.428 -1.1949 -0.3876  1.2555
 3450SOL     OW21811   3.040   3.084   9.003 -0.1060  0.5016 -0.3234
 3450SOL    HW121812   3.087   3.125   8.931  0.3797 -1.1815 -0.9688
 3450SOL    HW221813   2.981   3.159   9.012 -1.6492 -0.6995 -0.4328
 3451SOL     OW21814   4.637   4.510   8.916  0.5890 -0.4550  0.3518
 3451SOL    HW121815   4.694   4.583   8.938  1.2464 -0.7714 -0.2880
 3451SOL    HW221816   4.551   4.550   8.910 -0.4205 -2.4764  1.1240
 3452SOL     OW21817   4.363   1.360   1.529 -0.1840  0.4275  1.1004
 3452SOL    HW121818   4.273   1.377   1.556 -0.2497 -0.5010  1.4649
 3452SOL    HW221819   4.405   1.445   1.547 -0.0986  1.2198 -2.9299
 3453SOL     OW21820   0.783   3.451   7.265  0.5488  0.0860  1.3265
 3453SOL    HW121821   0.873   3.475   7.289  1.1238 -0.3488 -0.3670
 3453SOL    HW221822   0.796   3.371   7.213  0.3816  0.0816  1.2917
 3454SOL     OW21823   2.405   3.617   9.318  0.3061 -0.0698 -0.1080
 3454SOL    HW121824   2.484   3.648   9.274 -0.1169  2.9531  1.2243
 3454SOL    HW221825   2.424   3.523   9.311  0.2047 -0.1469  0.5808
 3455SOL     OW21826   4.546   3.763   5.640  0.3170  0.2202 -0.0229
 3455SOL    HW121827   4.565   3.784   5.731  1.3077 -2.1294  0.2943
 3455SOL    HW221828   4.549   3.845   5.589  0.0819  0.7839  0.8653
 3456SOL     OW21829   2.675   2.818   7.812  0.1306 -0.6402  0.2965
 3456SOL    HW121830   2.660   2.782   7.725  0.8474 -0.7900  0.2359
 3456SOL    HW221831   2.701   2.906   7.786 -1.1590 -0.1519  0.6620
 3457SOL     OW21832   4.602   1.637   9.978  0.6226 -0.0834 -0.1140
 3457SOL    HW121833   4.657   1.710   9.950  1.9442 -1.4646 -1.1334
 3457SOL    HW221834   4.666   1.576  10.014  0.1686 -0.2625  0.4057
 3458SOL     OW21835   2.676   1.691  13.156  0.2008  0.0175 -0.1478
 3458SOL    HW121836   2.638   1.776  13.176  1.6989  0.5464  0.4620
 3458SOL    HW221837   2.650   1.679  13.064 -0.2932 -0.2077  0.0235
 3459SOL     OW21838   0.142   2.827  11.501  0.2754  0.3540 -0.2693
 3459SOL    HW121839   0.158   2.889  11.430  0.6590  0.7178  0.1364
 3459SOL    HW221840   0.215   2.766  11.497 -0.0390  0.0254 -0.9965
 3460SOL     OW21841   1.058   2.025  10.750  0.0501 -0.5903  0.0402
 3460SOL    HW121842   1.153   2.018  10.744  0.0119  0.5905 -1.7810
 3460SOL    HW221843   1.040   2.054  10.840  1.4099  3.1697 -0.8790
 3461SOL     OW21844   1.413   4.704   5.112  0.2159  0.2001 -0.4815
 3461SOL    HW121845   1.499   4.670   5.087  0.9922  1.6723  0.1281
 3461SOL    HW221846   1.358   4.637   5.073 -0.9906 -0.0849  1.7214
 3462SOL     OW21847   1.361   0.447  11.831 -0.3681 -0.4890  0.1508
 3462SOL    HW121848   1.407   0.531  11.835  0.4416 -0.9320  0.1060
 3462SOL    HW221849   1.327   0.459  11.743  0.4217 -0.0979 -0.1016
 3463SOL     OW21850   3.243   2.518   6.547  0.3742  0.4536 -0.1885
 3463SOL    HW121851   3.149   2.514   6.532  0.4162  0.7541 -0.5276
 3463SOL    HW221852   3.260   2.428   6.576 -2.2061  0.2694  0.7972
 3464SOL     OW21853   1.433   1.521   8.997  0.6360 -0.0211  0.1027
 3464SOL    HW121854   1.371   1.468   9.046 -1.1755  1.2281 -0.8309
 3464SOL    HW221855   1.493   1.555   9.064  3.3710  0.4888 -2.5880
 3465SOL     OW21856   4.516   1.190   7.479 -0.2122  0.0076 -0.2781
 3465SOL    HW121857   4.442   1.222   7.427 -0.8204  0.6021  0.9587
 3465SOL    HW221858   4.492   1.099   7.493 -0.2688 -0.4278 -3.1151
 3466SOL     OW21859   0.917   3.659  11.864  0.4458 -0.2574  0.4032
 3466SOL    HW121860   0.968   3.739  11.877 -0.7073  0.5441 -0.0235
 3466SOL    HW221861   0.879   3.644  11.951 -1.1244  1.7997  0.0454
 3467SOL     OW21862   0.309   1.691   0.347 -0.3159  0.0979  0.0891
 3467SOL    HW121863   0.241   1.740   0.300  0.1277  1.5695  0.9813
 3467SOL    HW221864   0.320   1.622   0.281 -1.0846 -0.3640  0.4325
 3468SOL     OW21865   1.115   3.013  17.577 -0.6316 -0.0378  0.4615
 3468SOL    HW121866   1.053   3.007  17.649 -0.7763  1.3115  0.4450
 3468SOL    HW221867   1.190   2.974  17.622  0.5169  0.5514 -0.9257
 3469SOL     OW21868   1.480   2.146   8.052  0.1564  0.2895  0.5333
 3469SOL    HW121869   1.491   2.153   7.958 -1.1978  1.2088  0.4476
 3469SOL    HW221870   1.509   2.236   8.066 -1.4247  1.0711 -1.3889
 3470SOL     OW21871   3.734   4.591  12.208  0.1340  0.0901  0.2980
 3470SOL    HW121872   3.659   4.535  12.230 -0.5049  0.1710 -1.6792
 3470SOL    HW221873   3.689   4.676  12.219 -0.2244  0.0507 -0.9276
 3471SOL     OW21874   3.246   4.008   6.027  0.3328 -0.0357 -0.7138
 3471SOL    HW121875   3.167   4.014   6.081  1.1208 -0.3347  0.4489
 3471SOL    HW221876   3.282   3.921   6.045 -1.2520 -0.1519  1.9417
 3472SOL     OW21877   2.570   3.195   5.479 -0.2732  0.0276 -0.1058
 3472SOL    HW121878   2.660   3.167   5.464  0.1369  1.4201 -0.2359
 3472SOL    HW221879   2.552   3.179   5.387 -0.3208 -2.0311  0.2731
 3473SOL     OW21880   3.443   2.303   2.272  0.7286 -0.7357  0.3027
 3473SOL    HW121881   3.493   2.305   2.190 -0.4794 -2.4238 -0.4848
 3473SOL    HW221882   3.370   2.244   2.253 -1.0606  1.8911 -0.9929
 3474SOL     OW21883   2.880   4.589   5.211  0.0084  0.1937 -0.1626
 3474SOL    HW121884   2.894   4.678   5.245 -0.2565 -0.0315  0.5352
 3474SOL    HW221885   2.923   4.596   5.127 -0.2785  0.4806 -0.2877
 3475SOL     OW21886   0.068   1.711   4.486  0.1695  0.2342 -0.3380
 3475SOL    HW121887   0.043   1.803   4.473  2.0721  0.8342  0.2979
 3475SOL    HW221888   0.012   1.672   4.420  0.7151 -0.4000 -0.4199
 3476SOL     OW21889   4.157   4.484   7.347  0.0360  0.1809  0.2646
 3476SOL    HW121890   4.128   4.395   7.369  2.1200  0.1310  2.9352
 3476SOL    HW221891   4.103   4.487   7.268  1.1010  0.2176 -0.4604
 3477SOL     OW21892   3.780   0.548   3.533  0.2702 -0.3299 -0.3479
 3477SOL    HW121893   3.823   0.536   3.618  2.4523  0.2793 -1.3611
 3477SOL    HW221894   3.851   0.512   3.479  0.1161 -0.0434 -0.7475
 3478SOL     OW21895   0.879   2.391  11.879  0.7901  0.0609 -0.2001
 3478SOL    HW121896   0.889   2.444  11.800  0.5259  1.6023  0.8071
 3478SOL    HW221897   0.825   2.446  11.936  0.8542  0.5720 -0.6334
 3479SOL     OW21898   3.674   0.099   3.429  0.0281  0.4514  0.4746
 3479SOL    HW121899   3.729   0.163   3.386  0.0355  1.5569  2.1537
 3479SOL    HW221900   3.593   0.107   3.378 -0.5516  2.2667  1.7021
 3480SOL     OW21901   3.710   2.793   5.542  0.2709  0.0650  0.2897
 3480SOL    HW121902   3.754   2.808   5.626  0.0375  0.1453  0.3995
 3480SOL    HW221903   3.740   2.869   5.492  0.1479  0.6661  1.1091
 3481SOL     OW21904   1.058   0.932   6.360 -0.0427  0.4105 -0.6089
 3481SOL    HW121905   1.128   0.931   6.295  1.0754  1.2074  0.5765
 3481SOL    HW221906   1.039   0.839   6.375  0.7414  0.4710  0.8028
 3482SOL     OW21907   3.977   3.758   4.994  0.2518 -0.4462  0.1084
 3482SOL    HW121908   3.981   3.758   5.090 -2.5466 -0.8385  0.2377
 3482SOL    HW221909   4.059   3.710   4.979  1.0882  2.0352 -3.1523
 3483SOL     OW21910   2.556   0.280   8.967  0.1091  0.0128 -0.2054
 3483SOL    HW121911   2.479   0.319   8.926  0.3843 -0.1699 -0.9013
 3483SOL    HW221912   2.548   0.189   8.939  0.2885 -0.3353  0.8895
 3484SOL     OW21913   0.221   4.710  12.960  0.0118  0.4062  0.1651
 3484SOL    HW121914   0.251   4.688  13.048  1.5353  1.6074 -0.0501
 3484SOL    HW221915   0.207   4.624  12.921 -1.7733  0.9457 -0.4021
 3485SOL     OW21916   1.328   0.693  12.035  0.1736  0.0290 -0.0532
 3485SOL    HW121917   1.244   0.664  12.001 -0.1289  0.2284  0.5270
 3485SOL    HW221918   1.386   0.672  11.962 -0.7058  2.2190 -1.3663
 3486SOL     OW21919   3.478   0.340   0.605 -0.0999 -0.1340 -0.3536
 3486SOL    HW121920   3.567   0.329   0.638 -0.5211  0.1787  0.8771
 3486SOL    HW221921   3.501   0.324   0.513 -0.9463  0.0210 -0.6006
 3487SOL     OW21922   3.006   0.843   7.427  0.2564 -0.0482 -0.2246
 3487SOL    HW121923   2.947   0.820   7.354 -0.7732 -0.4514  0.7332
 3487SOL    HW221924   2.958   0.797   7.496  1.2280 -1.7568 -0.6803
 3488SOL     OW21925   0.604   4.003   8.597 -0.2573 -0.0880 -0.0096
 3488SOL    HW121926   0.543   4.057   8.648 -0.0231  0.1485  0.0234
 3488SOL    HW221927   0.670   4.068   8.574 -0.6823  0.5232  0.4787
 3489SOL     OW21928   2.384   0.135   4.892  0.5973 -0.2475  0.7477
 3489SOL    HW121929   2.379   0.137   4.988  3.8253 -0.6348  0.9003
 3489SOL    HW221930   2.378   0.041   4.878 -2.5223  0.2684 -1.3330
 3490SOL     OW21931   2.723   2.357   5.123  0.2694  0.0538  0.2148
 3490SOL    HW121932   2.628   2.352   5.130  0.2949 -0.0566  0.4578
 3490SOL    HW221933   2.730   2.448   5.094  1.2458 -0.1803 -0.3037
 3491SOL     OW21934   2.890   0.919   3.999 -0.6062  0.3237  0.4769
 3491SOL    HW121935   2.968   0.955   4.042 -0.8515 -0.3550  1.4845
 3491SOL    HW221936   2.918   0.902   3.909  0.9236 -0.1105  1.0176
 3492SOL     OW21937   4.038   3.267   2.484  0.4398  0.3376  0.4193
 3492SOL    HW121938   4.064   3.212   2.558 -0.9364 -1.7301 -0.6203
 3492SOL    HW221939   4.055   3.353   2.523 -1.6307  1.0602 -0.2758
 3493SOL     OW21940   1.312   0.632   6.541  0.2800 -0.1891  0.2206
 3493SOL    HW121941   1.404   0.658   6.543  1.1341 -3.2206  0.9092
 3493SOL    HW221942   1.308   0.584   6.458 -1.4466 -1.1784  0.8582
 3494SOL     OW21943   3.999   0.574   0.719  0.3889 -0.4048  0.3246
 3494SOL    HW121944   4.002   0.583   0.814 -1.7072  0.7927  0.2845
 3494SOL    HW221945   3.918   0.621   0.696  1.5557  1.7836  0.7183
 3495SOL     OW21946   3.981   2.432  10.765  0.0260 -0.0630  0.5880
 3495SOL    HW121947   4.027   2.436  10.849  0.4542  0.3473  0.3295
 3495SOL    HW221948   4.057   2.456  10.712 -1.7827 -2.2930 -3.0478
 3496SOL     OW21949   1.688   2.779  14.074  0.0463  0.8414 -0.0145
 3496SOL    HW121950   1.722   2.753  14.160 -3.4038  1.7751  1.6129
 3496SOL    HW221951   1.610   2.725  14.066  0.9297 -0.8109  2.4068
 3497SOL     OW21952   0.224   3.531   9.630  0.3446  0.5451 -0.1018
 3497SOL    HW121953   0.179   3.493   9.705 -0.0920  1.9207  0.3362
 3497SOL    HW221954   0.233   3.454   9.573  1.5332  0.3891  0.3052
 3498SOL     OW21955   1.196   3.362   7.898  0.1255 -0.5610  0.1455
 3498SOL    HW121956   1.157   3.447   7.917 -2.4453 -1.9406  0.9960
 3498SOL    HW221957   1.173   3.307   7.972  0.9404 -0.5970  0.3660
 3499SOL     OW21958   4.203   2.383   2.086  0.1503  0.7619  0.5694
 3499SOL    HW121959   4.164   2.467   2.109 -1.1644  0.0688  0.8495
 3499SOL    HW221960   4.269   2.366   2.153  1.5018 -2.8830 -1.7011
 3500SOL     OW21961   0.597   0.066   5.195 -0.1867 -0.7264  0.0321
 3500SOL    HW121962   0.601   0.146   5.142  2.0928 -0.4927  0.5670
 3500SOL    HW221963   0.518   0.080   5.247 -0.9804 -1.3092 -1.0013
 3501SOL     OW21964   3.578   1.104  15.262 -0.0638  0.1612 -0.3159
 3501SOL    HW121965   3.544   1.015  15.272  0.1336  0.2210  0.9304
 3501SOL    HW221966   3.505   1.145  15.216  0.7194  0.7312 -1.0396
 3502SOL     OW21967   0.789   3.284   1.580 -0.1344 -0.0881 -0.2920
 3502SOL    HW121968   0.848   3.289   1.504  0.9112  0.9813  0.5939
 3502SOL    HW221969   0.737   3.365   1.573 -1.1784 -0.6835  0.5331
 3503SOL     OW21970   4.283   3.927  12.639 -0.0799  0.6219  0.2945
 3503SOL    HW121971   4.243   4.013  12.649  0.7537  1.0503 -0.1284
 3503SOL    HW221972   4.207   3.879  12.675 -1.4763  1.0262 -2.1475
 3504SOL     OW21973   3.320   2.128   2.963 -0.4672  0.9003 -0.3980
 3504SOL    HW121974   3.290   2.175   2.886  1.3977  1.2009 -0.9496
 3504SOL    HW221975   3.236   2.141   3.007 -1.2799  0.6101 -1.8999
 3505SOL     OW21976   3.742   4.422   6.262 -0.0639 -0.3631 -0.5438
 3505SOL    HW121977   3.718   4.333   6.287  0.1699  0.8564  4.0555
 3505SOL    HW221978   3.803   4.411   6.189  0.3348 -0.3310 -0.2127
 3506SOL     OW21979   1.901   2.490  12.115  0.3574  0.4230 -0.4978
 3506SOL    HW121980   1.943   2.505  12.199  0.9724  0.7061 -0.8582
 3506SOL    HW221981   1.827   2.432  12.133 -0.3195  1.0563 -1.2288
 3507SOL     OW21982   3.264   3.015   8.187  0.0959 -0.1420  0.6366
 3507SOL    HW121983   3.264   2.921   8.205  0.0699  0.0007  1.3749
 3507SOL    HW221984   3.355   3.043   8.179  0.1444 -1.0988 -2.1560
 3508SOL     OW21985   1.642   0.215   4.191 -0.0027 -0.5832 -0.3733
 3508SOL    HW121986   1.565   0.267   4.214 -0.6857 -1.2299 -1.2010
 3508SOL    HW221987   1.660   0.151   4.260 -1.5263 -0.4898  0.1023
 3509SOL     OW21988   2.386   0.046   7.220 -0.0519 -0.4084 -0.5308
 3509SOL    HW121989   2.471   0.003   7.226 -1.7887 -3.4409  1.7367
 3509SOL    HW221990   2.375   0.045   7.125 -0.9707 -0.5350 -0.4168
 3510SOL     OW21991   3.363   3.037   8.973 -0.2183 -0.4380 -0.0514
 3510SOL    HW121992   3.449   3.027   8.933  0.6800 -0.4811  1.9132
 3510SOL    HW221993   3.329   3.116   8.931  1.1315  0.2555  0.1918
 3511SOL     OW21994   4.625   2.071   5.253  0.1796 -0.0676 -0.8524
 3511SOL    HW121995   4.651   2.013   5.182  0.4041 -0.4741 -0.4396
 3511SOL    HW221996   4.693   2.138   5.253 -0.5743  0.7073 -1.7096
 3512SOL     OW21997   0.148   3.356   7.833  0.1847  0.6807  0.4055
 3512SOL    HW121998   0.123   3.357   7.925  0.6679  0.4813  0.5381
 3512SOL    HW221999   0.059   3.343   7.800  0.4582  1.6730 -0.7501
 3513SOL     OW22000   1.633   1.267  10.587 -0.2536  0.5997  0.1528
 3513SOL    HW122001   1.614   1.279  10.680 -0.0612  1.3717  0.0946
 3513SOL    HW222002   1.642   1.360  10.566 -0.2150  0.9371  1.6739
 3514SOL     OW22003   2.635   4.515   5.288 -0.3438 -0.7180  0.4307
 3514SOL    HW122004   2.654   4.534   5.380 -3.5429 -1.9988  1.3429
 3514SOL    HW222005   2.722   4.530   5.251 -0.2988  0.0469  0.8333
 3515SOL     OW22006   3.633   3.123   0.841 -0.0947 -0.2834 -0.1202
 3515SOL    HW122007   3.646   3.119   0.936 -1.4700 -1.1001  0.0420
 3515SOL    HW222008   3.633   3.030   0.819  0.4815 -0.5523  0.9806
 3516SOL     OW22009   4.581   1.382   6.479 -0.4703  1.0412 -0.0960
 3516SOL    HW122010   4.491   1.403   6.504 -0.5864  0.1829  0.2025
 3516SOL    HW222011   4.588   1.289   6.498  0.3383  1.0640 -0.3028
 3517SOL     OW22012   2.379   3.907  15.170 -0.4509  0.4401  0.3269
 3517SOL    HW122013   2.402   3.820  15.202  0.7949  0.9340  0.7680
 3517SOL    HW222014   2.425   3.966  15.230 -0.7416  0.2938  0.6896
 3518SOL     OW22015   0.911   4.697   3.914 -0.3727 -0.6354  0.4389
 3518SOL    HW122016   0.877   4.651   3.837 -2.5725 -0.7582  1.4929
 3518SOL    HW222017   0.917   0.069   3.882  0.2319 -1.0521 -0.6348
 3519SOL     OW22018   4.168   0.403  15.441 -0.0437 -0.1039 -0.6318
 3519SOL    HW122019   4.192   0.325  15.492  3.1503  0.0673 -1.9056
 3519SOL    HW222020   4.088   0.379  15.395  0.3290  0.4409 -1.5380
 3520SOL     OW22021   0.027   3.003  11.643  0.0126  0.3019 -0.8153
 3520SOL    HW122022   0.056   2.962  11.725 -0.6909 -0.6914 -1.0667
 3520SOL    HW222023   0.074   2.939  11.588  1.1668  1.3588 -1.0556
 3521SOL     OW22024   0.672   0.313   1.592  0.5379  0.3772  0.1888
 3521SOL    HW122025   0.651   0.295   1.501 -0.2146  0.6383  0.3088
 3521SOL    HW222026   0.583   0.301   1.625  0.0688  3.2254 -0.0727
 3522SOL     OW22027   0.283   3.374   6.958  0.1829  0.2206  0.3737
 3522SOL    HW122028   0.321   3.366   6.871  0.0691  1.8784  0.1754
 3522SOL    HW222029   0.300   3.467   6.973 -0.0318  0.7808 -2.9007
 3523SOL     OW22030   0.336   1.534  16.518 -0.0920 -0.2652  0.3920
 3523SOL    HW122031   0.396   1.463  16.494 -0.0312  0.6300 -2.0334
 3523SOL    HW222032   0.318   1.587  16.441  0.6709  2.3749  2.0444
 3524SOL     OW22033   2.255   0.777  14.682  0.0509  0.1997 -0.2607
 3524SOL    HW122034   2.263   0.738  14.595  1.6595 -1.4123  0.6153
 3524SOL    HW222035   2.337   0.752  14.725 -0.6114 -1.6396 -0.0606
 3525SOL     OW22036   1.272   0.486   2.134  0.0481 -0.5733 -0.7107
 3525SOL    HW122037   1.206   0.460   2.069 -1.4362  0.7583  0.2764
 3525SOL    HW222038   1.255   0.580   2.129  0.2472 -0.4472  1.1518
 3526SOL     OW22039   2.763   4.204   1.824  0.0212 -0.2624 -0.2681
 3526SOL    HW122040   2.734   4.160   1.744  1.0355  1.4004 -1.5382
 3526SOL    HW222041   2.702   4.275   1.844  2.6974  2.1145 -0.4942
 3527SOL     OW22042   1.602   1.515   8.519  1.0972 -0.0353 -0.3567
 3527SOL    HW122043   1.693   1.524   8.491  0.8687  0.8184 -0.8461
 3527SOL    HW222044   1.616   1.430   8.560 -3.2474  0.0195  1.2630
 3528SOL     OW22045   2.705   3.945   5.702  0.1279 -0.2095  0.7051
 3528SOL    HW122046   2.611   3.923   5.703  0.2461 -0.7396 -0.9953
 3528SOL    HW222047   2.735   3.918   5.616 -0.4908 -1.8851  0.9980
 3529SOL     OW22048   1.744   1.184   1.952  0.0655 -0.1120  0.4706
 3529SOL    HW122049   1.706   1.272   1.953  1.1846  0.3821 -0.3759
 3529SOL    HW222050   1.832   1.210   1.979  0.9262 -1.5053 -0.9670
 3530SOL     OW22051   2.558   4.287   8.900 -0.1391  0.1362  0.2715
 3530SOL    HW122052   2.516   4.212   8.859  0.1938 -1.1107  2.2322
 3530SOL    HW222053   2.649   4.259   8.911  0.0978  0.7871 -0.0361
 3531SOL     OW22054   2.913   2.740  15.303 -0.3565  0.3495 -0.0854
 3531SOL    HW122055   2.982   2.746  15.369 -1.3627  1.9861  0.8394
 3531SOL    HW222056   2.961   2.751  15.221 -0.5848  3.5206  0.2138
 3532SOL     OW22057   0.257   3.113  12.061 -0.3368  0.1556 -0.2081
 3532SOL    HW122058   0.316   3.170  12.012  1.2933 -0.0276  1.5484
 3532SOL    HW222059   0.266   3.146  12.150 -0.7270 -0.7821  0.1784
 3533SOL     OW22060   4.230   0.528  12.012  0.2716 -0.1865 -0.2438
 3533SOL    HW122061   4.284   0.472  11.956 -1.2177 -1.5079 -0.3767
 3533SOL    HW222062   4.185   0.579  11.944 -2.3952 -2.1208  0.0568
 3534SOL     OW22063   0.552   0.211   4.963 -0.2561 -0.0330  0.4611
 3534SOL    HW122064   0.642   0.220   4.932 -0.0169  0.8002  1.4230
 3534SOL    HW222065   0.497   0.196   4.886  1.4451 -1.1190 -0.5345
 3535SOL     OW22066   0.536   4.150   2.743  0.0693 -0.4418 -0.0192
 3535SOL    HW122067   0.545   4.197   2.826 -2.6512 -2.9019  1.6451
 3535SOL    HW222068   0.611   4.091   2.745 -0.7601 -1.4981 -0.1110
 3536SOL     OW22069   2.653   0.076   7.671  0.2094 -0.0568  0.0622
 3536SOL    HW122070   2.571   0.045   7.633  0.6259 -0.4455 -0.5333
 3536SOL    HW222071   2.616   0.138   7.733  0.9544  0.2664  0.1855
 3537SOL     OW22072   3.601   2.823  15.689 -0.1656 -0.1655 -0.2036
 3537SOL    HW122073   3.546   2.888  15.646 -1.8181  0.1848  2.3939
 3537SOL    HW222074   3.600   2.864  15.776  0.2719  0.8207 -0.6597
 3538SOL     OW22075   0.091   0.938  13.694 -0.1350 -0.4304 -0.2413
 3538SOL    HW122076   0.102   0.952  13.600 -1.6901 -3.3602 -0.8615
 3538SOL    HW222077   0.173   0.892  13.710 -0.8684 -1.4035  0.7238
 3539SOL     OW22078   2.653   0.264   0.007 -0.0206  0.2769 -0.9351
 3539SOL    HW122079   2.702   0.191   0.046 -1.3768  1.0983  2.3019
 3539SOL    HW222080   2.589   0.205  17.641 -1.0828  0.8218 -0.0449
 3540SOL     OW22081   0.328   2.192   7.800 -0.2387 -0.1569 -0.1494
 3540SOL    HW122082   0.237   2.171   7.823  0.4135 -4.0331 -1.1048
 3540SOL    HW222083   0.315   2.286   7.793 -0.7381 -0.0417  2.1778
 3541SOL     OW22084   3.842   4.695   2.519  0.5490 -0.1688  0.0726
 3541SOL    HW122085   3.819   4.672   2.428  0.7540 -2.6479  0.6283
 3541SOL    HW222086   3.759   4.667   2.557  0.6230 -1.0442 -0.3917
 3542SOL     OW22087   1.715   0.039  15.058 -0.6913 -0.4846  0.5891
 3542SOL    HW122088   1.739   4.664  15.052 -0.3626 -0.2863 -1.1580
 3542SOL    HW222089   1.771   0.078  15.125 -3.0452  2.0263  1.0557
 3543SOL     OW22090   0.006   3.666   9.923  0.0338 -0.5545 -0.4352
 3543SOL    HW122091   4.710   3.743   9.978 -1.9706  0.1087 -1.8250
 3543SOL    HW222092   4.659   3.610   9.967 -0.4480  0.2508 -0.1157
 3544SOL     OW22093   1.867   4.034  17.143  0.0417  0.1431 -0.1414
 3544SOL    HW122094   1.907   3.970  17.083  2.6405  0.0615  1.6501
 3544SOL    HW222095   1.793   3.984  17.177  1.9048 -3.1977 -0.9265
 3545SOL     OW22096   4.418   1.043   5.114  0.1920  0.2677  0.2564
 3545SOL    HW122097   4.432   0.999   5.198  0.0865 -0.7952 -0.2958
 3545SOL    HW222098   4.510   1.060   5.093 -0.2145  0.7751 -1.1346
 3546SOL     OW22099   3.129   1.326  14.809  0.2735 -0.0108 -0.0735
 3546SOL    HW122100   3.042   1.299  14.780  0.1216 -0.2620  0.6337
 3546SOL    HW222101   3.103   1.396  14.869 -0.4692 -0.2251 -0.1472
 3547SOL     OW22102   3.370   3.329   9.096  0.0617 -0.2145  0.6144
 3547SOL    HW122103   3.434   3.342   9.165 -1.5018  3.0359  1.4737
 3547SOL    HW222104   3.344   3.241   9.125  0.9840 -1.3018 -1.8488
 3548SOL     OW22105   0.406   2.674   6.474 -0.2058  0.2234 -0.6078
 3548SOL    HW122106   0.348   2.627   6.415 -0.4543  0.6997 -0.7430
 3548SOL    HW222107   0.362   2.667   6.559 -0.1371  0.9217 -0.5128
 3549SOL     OW22108   3.896   0.100   1.470 -0.0815 -0.9601 -0.2696
 3549SOL    HW122109   3.873   0.134   1.383 -0.2633 -0.6237 -0.0885
 3549SOL    HW222110   3.929   0.179   1.512 -0.3644 -1.2783  0.5502
 3550SOL     OW22111   0.959   3.449   2.992  0.7011 -0.2223  0.5536
 3550SOL    HW122112   0.975   3.455   2.898 -2.3975  0.7924  0.1197
 3550SOL    HW222113   0.870   3.414   2.994  0.9609 -0.8939  0.4091
 3551SOL     OW22114   1.335   2.332  14.606 -0.4872  0.6641 -0.3484
 3551SOL    HW122115   1.412   2.324  14.663  0.0042 -0.3909 -1.1579
 3551SOL    HW222116   1.317   2.425  14.621  1.9051  0.9058  1.1031
 3552SOL     OW22117   0.959   0.397   7.312  0.1658  0.0478  0.1254
 3552SOL    HW122118   1.034   0.347   7.278 -0.2568 -0.0981 -0.5858
 3552SOL    HW222119   0.990   0.446   7.388 -1.1034  1.6866 -0.4086
 3553SOL     OW22120   4.327   1.995   1.608 -0.6408  0.6507 -0.2369
 3553SOL    HW122121   4.268   1.976   1.681  0.8228 -0.8105  0.5962
 3553SOL    HW222122   4.382   2.065   1.642 -0.1113  1.8452 -3.5963
 3554SOL     OW22123   2.177   1.501   8.977 -0.2807  0.2518 -0.3286
 3554SOL    HW122124   2.221   1.581   9.005 -0.1708  0.8005 -2.0627
 3554SOL    HW222125   2.099   1.533   8.932 -0.0048 -0.9225 -1.6177
 3555SOL     OW22126   3.465   3.071   7.628 -0.5549 -0.0582  0.7328
 3555SOL    HW122127   3.487   3.115   7.546 -0.2920 -1.1320  0.2261
 3555SOL    HW222128   3.515   3.123   7.690 -3.0429  0.6536  2.1455
 3556SOL     OW22129   0.648   0.397   2.913  0.0262  0.4285  0.6501
 3556SOL    HW122130   0.605   0.361   2.836  1.4369  1.8657 -0.8167
 3556SOL    HW222131   0.736   0.405   2.877  0.3009 -3.6226  0.5280
 3557SOL     OW22132   2.944   1.050   4.522  0.0726 -0.4508 -0.6423
 3557SOL    HW122133   2.877   1.009   4.467 -1.5091 -1.3693  1.9259
 3557SOL    HW222134   2.900   1.090   4.597 -1.5742 -1.2237 -1.1745
 3558SOL     OW22135   2.340   2.509  12.697  0.0849  0.0051 -0.1809
 3558SOL    HW122136   2.320   2.548  12.612  0.3513  0.3687 -0.0767
 3558SOL    HW222137   2.389   2.584  12.731  0.1002  0.2434 -0.7297
 3559SOL     OW22138   1.525   3.090   6.732 -0.2285  0.4134 -0.0809
 3559SOL    HW122139   1.512   3.166   6.788 -0.9426  0.3505 -0.1593
 3559SOL    HW222140   1.447   3.040   6.757 -0.6354  0.1678 -1.8315
 3560SOL     OW22141   2.545   3.915   9.806  0.2808  0.0714  0.1990
 3560SOL    HW122142   2.451   3.932   9.814  0.7813  3.1949 -0.6306
 3560SOL    HW222143   2.570   4.006   9.796  0.4034 -0.0887 -0.9900
 3561SOL     OW22144   0.052   3.790  10.355 -0.5678  0.4420  0.2940
 3561SOL    HW122145   0.007   3.707  10.367  1.7350 -0.9736 -0.9913
 3561SOL    HW222146   0.003   3.820  10.279 -1.8230  0.3243  1.0498
 3562SOL     OW22147   0.051   2.247  17.061 -0.6002 -0.1248  0.1353
 3562SOL    HW122148   4.678   2.219  17.053 -1.3777  2.5315 -0.3110
 3562SOL    HW222149   0.034   2.340  17.074 -1.7376 -0.6195  2.1285
 3563SOL     OW22150   2.648   4.206   2.176 -0.4190  0.2384  0.0529
 3563SOL    HW122151   2.601   4.160   2.107  1.5701  1.1753 -1.9152
 3563SOL    HW222152   2.739   4.194   2.149  0.0187  0.9823  1.1939
 3564SOL     OW22153   0.057   0.684  16.217 -0.1341 -0.4034  0.1054
 3564SOL    HW122154   0.141   0.713  16.252 -0.7789  1.7271 -0.0996
 3564SOL    HW222155   4.714   0.703  16.288 -0.4355 -0.7303 -0.0670
 3565SOL     OW22156   1.955   1.317   2.804 -0.3221  0.1753 -0.0132
 3565SOL    HW122157   1.890   1.382   2.829  0.2988  0.3242  1.2337
 3565SOL    HW222158   1.963   1.267   2.885 -0.1176  0.0066 -0.1371
 3566SOL     OW22159   2.882   0.725   2.715  0.3779 -0.1612  0.4582
 3566SOL    HW122160   2.974   0.751   2.710 -0.0280  1.0771 -0.5242
 3566SOL    HW222161   2.878   0.639   2.757 -2.1002 -0.2211  0.0977
 3567SOL     OW22162   4.269   1.266   2.945 -0.0721  0.0883 -0.1768
 3567SOL    HW122163   4.229   1.281   3.031 -0.5835 -0.6617 -0.2805
 3567SOL    HW222164   4.276   1.349   2.900  0.6902  0.8177  1.2933
 3568SOL     OW22165   0.056   0.884  14.535  0.3014  0.1275  0.2034
 3568SOL    HW122166   4.680   0.905  14.534  0.2153 -0.3065 -2.7922
 3568SOL    HW222167   0.081   0.847  14.620  0.8573 -2.1814 -0.9635
 3569SOL     OW22168   1.887   1.064   0.732  0.0082 -0.0816 -0.3411
 3569SOL    HW122169   1.828   0.996   0.765  2.5746 -1.5482  1.2753
 3569SOL    HW222170   1.972   1.021   0.735 -1.1427 -2.4225 -1.1609
 3570SOL     OW22171   0.158   1.399   6.460 -0.1562 -0.1575  0.6591
 3570SOL    HW122172   0.068   1.375   6.436 -0.2739  0.2991  0.6448
 3570SOL    HW222173   0.207   1.349   6.395  0.0024  0.1576  0.5332
 3571SOL     OW22174   3.217   2.792  10.677 -0.1286 -0.3270 -0.0126
 3571SOL    HW122175   3.305   2.812  10.710 -0.2834 -1.3446  1.0256
 3571SOL    HW222176   3.156   2.813  10.747 -2.6485 -1.3937 -1.8519
 3572SOL     OW22177   3.477   3.768   3.378  0.5402 -0.3737  0.1374
 3572SOL    HW122178   3.394   3.771   3.427  1.0166 -3.2149  1.0814
 3572SOL    HW222179   3.485   3.674   3.365 -0.9968 -0.3952 -0.6070
 3573SOL     OW22180   4.629   0.755   2.710  0.5094 -0.8337  0.1509
 3573SOL    HW122181   4.580   0.692   2.763  0.6005  0.7022  2.0916
 3573SOL    HW222182   4.662   0.701   2.639 -0.1987 -1.8605  0.6045
 3574SOL     OW22183   1.263   4.290   0.959 -0.0612 -0.7678  0.4449
 3574SOL    HW122184   1.218   4.223   1.012 -1.1322 -1.2269 -1.0382
 3574SOL    HW222185   1.184   4.335   0.931 -0.5493 -3.4205 -2.5014
 3575SOL     OW22186   4.339   2.387   7.049 -0.6442  0.7208  0.0430
 3575SOL    HW122187   4.327   2.292   7.046 -0.2466  0.6247  1.7828
 3575SOL    HW222188   4.250   2.419   7.040 -0.8078  0.4125  0.5657
 3576SOL     OW22189   4.650   1.385   6.803 -0.0603  0.2011  0.0500
 3576SOL    HW122190   4.642   1.430   6.719  0.1264  0.2649  0.0661
 3576SOL    HW222191   0.011   1.421   6.844  1.2748 -1.9537 -0.5783
 3577SOL     OW22192   1.907   1.047   5.941  0.1514  0.0293 -0.0119
 3577SOL    HW122193   1.854   0.972   5.914  1.2766 -0.2154 -1.5331
 3577SOL    HW222194   1.869   1.065   6.027 -0.4499  0.2964 -0.3373
 3578SOL     OW22195   2.140   0.921   2.571 -0.5551  0.0255 -0.5271
 3578SOL    HW122196   2.204   0.985   2.604  1.1795 -1.8679 -0.2355
 3578SOL    HW222197   2.186   0.839   2.590 -0.8289 -0.3091 -1.3125
 3579SOL     OW22198   1.411   2.951   7.699  0.0308  0.4214  0.6356
 3579SOL    HW122199   1.417   2.862   7.732 -1.4757  0.7550  1.8302
 3579SOL    HW222200   1.317   2.969   7.706  0.4071  1.1852  3.5253
 3580SOL     OW22201   0.944   0.984  14.456  0.3042  0.3331 -0.2068
 3580SOL    HW122202   0.959   0.944  14.371 -0.2605 -1.3603  0.4885
 3580SOL    HW222203   0.899   1.063  14.427  0.1852  0.3628  0.0534
 3581SOL     OW22204   2.980   3.990   6.133 -0.3271  0.4999 -0.1083
 3581SOL    HW122205   2.923   3.989   6.056 -0.0709  2.0117 -0.3337
 3581SOL    HW222206   2.936   3.925   6.186 -2.1658  1.6512 -0.2106
 3582SOL     OW22207   1.652   4.154   6.072 -0.3131  0.3599  0.0178
 3582SOL    HW122208   1.736   4.199   6.085  0.5461 -0.8131 -1.4331
 3582SOL    HW222209   1.639   4.149   5.977 -0.1095  1.0373 -0.0464
 3583SOL     OW22210   4.059   1.339  16.865 -0.7687 -0.2850 -0.4963
 3583SOL    HW122211   4.071   1.281  16.790 -0.5387  1.4342 -1.7920
 3583SOL    HW222212   4.007   1.406  16.820 -1.1356 -1.9365 -2.5294
 3584SOL     OW22213   1.908   2.390  16.727 -0.3891 -1.1240 -0.7812
 3584SOL    HW122214   1.994   2.388  16.769 -1.4635 -0.6037  1.4047
 3584SOL    HW222215   1.901   2.485  16.737 -0.5980 -1.2128 -0.0889
 3585SOL     OW22216   1.094   3.693  12.355  0.4949  0.0266 -0.4788
 3585SOL    HW122217   1.000   3.703  12.339  0.1378 -0.6520  1.2039
 3585SOL    HW222218   1.124   3.641  12.280 -0.0941  1.5825 -1.7856
 3586SOL     OW22219   3.881   1.343   6.008 -0.0642  0.7127 -0.1628
 3586SOL    HW122220   3.801   1.360   5.958  0.9980  0.0116 -2.1044
 3586SOL    HW222221   3.926   1.284   5.948 -1.9186  0.5471 -1.3694
 3587SOL     OW22222   4.162   3.775   6.640  0.3558  0.0490 -0.2058
 3587SOL    HW122223   4.187   3.772   6.732  0.1842 -0.5854 -0.1802
 3587SOL    HW222224   4.148   3.682   6.620 -0.7395  0.2729 -0.4828
 3588SOL     OW22225   4.436   2.691  12.521  0.1164  0.0262  0.4993
 3588SOL    HW122226   4.455   2.735  12.603  0.5883 -1.2049  1.0426
 3588SOL    HW222227   4.437   2.597  12.539  1.5315  0.2967  1.7636
 3589SOL     OW22228   3.437   1.204   4.990  0.1488  0.1934 -0.1637
 3589SOL    HW122229   3.490   1.216   5.069 -3.3890  0.6871  2.1817
 3589SOL    HW222230   3.351   1.207   5.033  0.5884 -1.9349  0.9003
 3590SOL     OW22231   2.261   4.381  10.904  0.4257 -0.0450 -0.0006
 3590SOL    HW122232   2.226   4.341  10.984  1.1331 -1.2372 -0.2984
 3590SOL    HW222233   2.304   4.461  10.935  0.2251  0.1202 -0.1408
 3591SOL     OW22234   3.973   3.991   6.598  0.0399  0.3172 -0.0192
 3591SOL    HW122235   3.877   3.990   6.597  0.0495 -1.6730  0.1303
 3591SOL    HW222236   4.004   3.907   6.633 -2.0062  1.0114  3.4620
 3592SOL     OW22237   1.618   0.339  14.357 -0.4993 -0.5287 -0.6123
 3592SOL    HW122238   1.568   0.282  14.298 -1.8928 -1.0113  1.0373
 3592SOL    HW222239   1.689   0.283  14.388  0.8666 -0.0716 -2.9325
 3593SOL     OW22240   4.705   3.522  15.851  0.3730 -0.6345 -0.3286
 3593SOL    HW122241   4.614   3.524  15.819 -1.1015  1.7631  3.9127
 3593SOL    HW222242   4.686   3.537  15.944  1.8366 -2.1431  0.2202
 3594SOL     OW22243   1.324   0.557   3.034  0.2276 -0.2898 -0.0247
 3594SOL    HW122244   1.294   0.476   3.075  0.8998 -0.2054  0.6519
 3594SOL    HW222245   1.331   0.531   2.942  1.1803  2.1683 -0.6688
 3595SOL     OW22246   4.544   2.729   5.226  0.5401  0.3003 -0.1113
 3595SOL    HW122247   4.626   2.727   5.177 -0.1280  1.4726 -1.2950
 3595SOL    HW222248   4.530   2.639   5.254 -2.6080 -0.1963 -3.2815
 3596SOL     OW22249   2.658   1.672  12.883 -0.2150  0.2685  0.2301
 3596SOL    HW122250   2.634   1.764  12.882  0.6286  0.4921  1.0683
 3596SOL    HW222251   2.751   1.672  12.862 -0.6346 -1.5239 -1.7214
 3597SOL     OW22252   2.807   0.962  12.560 -0.6892  0.0500 -0.7115
 3597SOL    HW122253   2.804   0.931  12.651  3.1966 -0.7087 -0.8384
 3597SOL    HW222254   2.717   0.995  12.564 -0.1088  1.5126  0.0508
 3598SOL     OW22255   3.865   0.134   8.495 -0.0156  0.0805  0.3777
 3598SOL    HW122256   3.810   0.197   8.542 -1.1632 -1.1015  0.6225
 3598SOL    HW222257   3.792   0.076   8.473  0.8507 -0.1604 -1.9347
 3599SOL     OW22258   4.128   0.406  12.890  0.6120  0.1884  0.0609
 3599SOL    HW122259   4.188   0.481  12.900 -0.6485  0.8643  2.4353
 3599SOL    HW222260   4.192   0.335  12.898  1.5223  0.8256 -1.5000
 3600SOL     OW22261   3.673   4.411   3.370 -0.2241 -0.0001 -0.0878
 3600SOL    HW122262   3.762   4.420   3.336  0.9536 -2.3742  2.3224
 3600SOL    HW222263   3.671   4.453   3.456 -1.1354 -1.5580  0.6615
 3601SOL     OW22264   4.563   2.883   4.957 -0.3833  0.4093  0.6796
 3601SOL    HW122265   4.609   2.895   5.040  0.8209 -2.7893  0.4867
 3601SOL    HW222266   4.566   2.788   4.944 -0.4794  0.9343 -3.1749
 3602SOL     OW22267   1.819   3.386   6.581 -0.2472 -0.4324  0.2133
 3602SOL    HW122268   1.724   3.376   6.586 -0.4406  1.0005 -0.5585
 3602SOL    HW222269   1.832   3.387   6.486 -1.1330  1.6593  0.1028
 3603SOL     OW22270   2.298   4.464   2.719 -0.5434 -0.1885 -0.3609
 3603SOL    HW122271   2.353   4.541   2.731  0.5445 -0.6293 -2.5890
 3603SOL    HW222272   2.309   4.465   2.624  1.0606  1.6279 -0.1595
 3604SOL     OW22273   3.257   4.617   2.885  0.3635 -0.1188  0.1798
 3604SOL    HW122274   3.265   4.539   2.830 -0.4865 -0.6862  0.8547
 3604SOL    HW222275   3.172   4.651   2.858 -0.1321 -0.5603  1.1751
 3605SOL     OW22276   2.250   4.341   8.970  0.3940  0.2326 -0.4905
 3605SOL    HW122277   2.304   4.319   9.046 -1.0580  0.1332  0.5166
 3605SOL    HW222278   2.202   4.259   8.962 -0.5027  0.5998  1.1764
 3606SOL     OW22279   3.819   0.769   6.371 -0.1187 -0.2883 -0.1286
 3606SOL    HW122280   3.761   0.749   6.445 -2.3216 -0.8120 -2.0137
 3606SOL    HW222281   3.854   0.851   6.407  0.3690  0.6454 -2.7698
 3607SOL     OW22282   3.402   2.092  13.071  0.0670  0.3363 -0.0977
 3607SOL    HW122283   3.324   2.059  13.115  0.3084  0.4628  0.4217
 3607SOL    HW222284   3.440   2.018  13.023  1.1061 -0.5899  2.1699
 3608SOL     OW22285   2.462   2.843   9.672  0.3273  0.4175 -1.0637
 3608SOL    HW122286   2.450   2.937   9.682  2.0659  0.7215 -1.8560
 3608SOL    HW222287   2.528   2.851   9.603 -0.3962 -0.1709 -1.8264
 3609SOL     OW22288   3.665   0.655   3.918 -0.4488  0.5912  0.2092
 3609SOL    HW122289   3.652   0.697   4.003 -0.1135 -1.0922  1.0822
 3609SOL    HW222290   3.578   0.617   3.904 -1.1609  2.9361 -1.6752
 3610SOL     OW22291   2.752   1.789   4.075 -0.0956  0.4056 -0.2821
 3610SOL    HW122292   2.757   1.831   3.990  0.3498  0.1317 -0.3914
 3610SOL    HW222293   2.690   1.840   4.127  1.1315 -0.8835  2.4599
 3611SOL     OW22294   0.184   1.274  15.975 -0.0831 -0.5122  0.1723
 3611SOL    HW122295   0.102   1.294  16.021 -0.7853  0.1977 -1.3903
 3611SOL    HW222296   0.164   1.302  15.885 -2.3135 -0.5516  0.6439
 3612SOL     OW22297   4.197   2.995   2.914 -0.6547 -0.2379 -0.0916
 3612SOL    HW122298   4.245   3.022   2.992 -2.3034  0.5929  0.6281
 3612SOL    HW222299   4.254   2.924   2.886 -0.6686  0.2213 -1.2761
 3613SOL     OW22300   1.545   1.059   3.500 -0.2872  0.0298 -0.1454
 3613SOL    HW122301   1.482   1.038   3.569 -0.5308  0.2734 -0.2935
 3613SOL    HW222302   1.614   1.079   3.563  0.5885  1.4798 -1.5552
 3614SOL     OW22303   2.153   4.587  12.228 -0.4001 -0.1237  0.0498
 3614SOL    HW122304   2.238   4.630  12.240 -0.9376  0.7844  0.6045
 3614SOL    HW222305   2.109   4.634  12.156  0.7753  0.3145 -0.3869
 3615SOL     OW22306   3.297   3.363  16.070  0.1730 -0.0911 -0.0805
 3615SOL    HW122307   3.267   3.437  16.122  0.5871 -0.7259  1.0686
 3615SOL    HW222308   3.232   3.370  16.000  1.8890 -1.1844 -1.7942
 3616SOL     OW22309   4.599   3.062   2.838  0.3273  0.0591  0.0869
 3616SOL    HW122310   4.689   3.077   2.868  0.8301 -0.0009 -1.3779
 3616SOL    HW222311   4.576   2.983   2.887 -0.4955  0.5503  0.4891
 3617SOL     OW22312   1.522   0.121   2.662  0.2162 -0.2786 -0.4098
 3617SOL    HW122313   1.578   0.066   2.717  0.1272 -0.5543 -0.5971
 3617SOL    HW222314   1.580   0.193   2.640 -0.3692  0.5520  0.7299
 3618SOL     OW22315   1.059   3.807   1.365  0.5693 -0.2059 -0.5657
 3618SOL    HW122316   1.119   3.839   1.432  0.2063  0.7900 -0.7265
 3618SOL    HW222317   1.125   3.778   1.302 -0.6191 -0.5756 -1.6336
 3619SOL     OW22318   2.933   4.125   3.026  0.5684  0.0162 -0.2477
 3619SOL    HW122319   2.903   4.214   3.044 -0.2635 -0.1471 -0.8510
 3619SOL    HW222320   3.022   4.126   3.063  1.0662 -0.9586 -1.4420
 3620SOL     OW22321   4.509   2.114   8.764  0.1369 -0.2205  0.3205
 3620SOL    HW122322   4.561   2.046   8.720 -0.1186 -0.5748  0.5627
 3620SOL    HW222323   4.537   2.191   8.714  0.0726  0.0901  0.7679
 3621SOL     OW22324   2.876   0.442  15.395  0.0476  0.1009  0.7793
 3621SOL    HW122325   2.808   0.408  15.452 -0.8709  1.6457  0.5812
 3621SOL    HW222326   2.849   0.421  15.305 -0.3552 -0.9341  1.1361
 3622SOL     OW22327   0.424   4.184   6.970  0.4228  0.2053 -0.2268
 3622SOL    HW122328   0.360   4.119   6.999  0.1720  0.0097 -1.2395
 3622SOL    HW222329   0.446   4.137   6.890 -0.5623  1.4572 -1.2186
 3623SOL     OW22330   2.246   1.371   1.451  0.2089 -0.4564  0.2399
 3623SOL    HW122331   2.231   1.376   1.545 -0.3047  1.8876  0.0254
 3623SOL    HW222332   2.174   1.414   1.404  1.7159  1.8402  0.0140
 3624SOL     OW22333   3.599   3.791  11.059  0.3255 -0.6812  0.1638
 3624SOL    HW122334   3.674   3.811  11.002 -1.2768 -0.3517 -1.8111
 3624SOL    HW222335   3.636   3.807  11.146  0.0638 -1.7127  0.4616
 3625SOL     OW22336   4.577   1.032   4.083 -0.4952 -0.0957  0.1779
 3625SOL    HW122337   4.484   1.055   4.090 -0.7776 -0.9771 -0.5723
 3625SOL    HW222338   4.611   1.031   4.172 -1.5546  1.6241  0.6012
 3626SOL     OW22339   2.044   2.483   7.664  0.0015 -0.0977 -0.5986
 3626SOL    HW122340   2.094   2.487   7.582  0.1060  1.1215 -0.4812
 3626SOL    HW222341   1.982   2.555   7.654  1.5147  1.5295  1.8271
 3627SOL     OW22342   4.108   3.390   5.818  0.4785 -0.1041  0.4223
 3627SOL    HW122343   4.169   3.463   5.804 -1.4122  1.2918 -0.4194
 3627SOL    HW222344   4.143   3.345   5.895 -0.3557  0.3415  1.0636
 3628SOL     OW22345   0.574   1.804  13.016 -0.2098 -0.2039 -0.5317
 3628SOL    HW122346   0.583   1.787  12.923 -1.4273  1.8937 -1.0216
 3628SOL    HW222347   0.543   1.719  13.048 -0.2550 -0.1800 -0.5113
 3629SOL     OW22348   4.679   4.045   4.971 -0.2758 -0.1203 -0.2723
 3629SOL    HW122349   4.632   4.078   4.895  1.0049  1.2811 -0.4599
 3629SOL    HW222350   4.704   3.955   4.948  0.9375  0.1865 -0.1855
 3630SOL     OW22351   2.294   4.694   1.542 -0.0907 -0.1136  0.4157
 3630SOL    HW122352   2.296   4.606   1.579  0.7839 -0.7788 -1.1963
 3630SOL    HW222353   2.317   0.037   1.612  0.4934 -0.1560  0.2646
 3631SOL     OW22354   0.662   2.855   2.852 -0.0483  0.1690 -0.2487
 3631SOL    HW122355   0.588   2.853   2.912 -1.1335  1.5395 -1.5526
 3631SOL    HW222356   0.639   2.781   2.796 -0.6663  0.8256 -0.8498
 3632SOL     OW22357   4.025   0.280  11.785 -0.2373 -0.3109 -0.2088
 3632SOL    HW122358   3.985   0.324  11.859  4.6167  2.4283  0.7236
 3632SOL    HW222359   4.107   0.326  11.767 -0.7873  0.9367  0.5214
 3633SOL     OW22360   3.417   0.996   0.525 -0.1636  0.1832 -0.4721
 3633SOL    HW122361   3.491   0.976   0.582  1.4529 -0.5355 -2.8352
 3633SOL    HW222362   3.457   1.032   0.445 -1.7595  0.1535 -1.2845
 3634SOL     OW22363   3.347   1.720   8.163 -0.6830 -0.2351 -0.1421
 3634SOL    HW122364   3.320   1.808   8.190 -3.8340 -0.6797 -1.8507
 3634SOL    HW222365   3.310   1.728   8.075  0.9716 -3.6941 -1.1405
 3635SOL     OW22366   2.400   2.864  13.263 -0.1447  0.1733 -0.3133
 3635SOL    HW122367   2.424   2.857  13.355  0.8463 -1.8199 -0.7289
 3635SOL    HW222368   2.470   2.916  13.225  0.2918  1.1174  1.7725
 3636SOL     OW22369   3.142   0.490  17.585  0.0622 -0.1102  0.1372
 3636SOL    HW122370   3.116   0.507  17.495 -2.0885  0.3568  0.8273
 3636SOL    HW222371   3.084   0.541  17.642  1.3664  2.0159 -0.4698
 3637SOL     OW22372   4.455   0.758  16.839 -0.4819 -0.0620  0.1582
 3637SOL    HW122373   4.362   0.778  16.828 -0.0342  1.6008 -0.6657
 3637SOL    HW222374   4.475   0.676  16.795  0.8330  0.3142  0.0761
 3638SOL     OW22375   1.939   0.948   5.250  0.1629 -0.1688 -0.1953
 3638SOL    HW122376   1.861   0.893   5.239  0.9102 -1.2474 -0.0665
 3638SOL    HW222377   1.927   1.011   5.179  0.5612  0.8149  0.6132
 3639SOL     OW22378   1.870   3.786   1.127  0.1030  0.7807  0.6392
 3639SOL    HW122379   1.821   3.704   1.121  1.7750 -0.3273  2.3813
 3639SOL    HW222380   1.883   3.807   1.034 -0.8459  1.6152  0.6906
 3640SOL     OW22381   0.262   4.129  14.414  0.2044 -0.9110  0.4727
 3640SOL    HW122382   0.218   4.113  14.497  0.2856  0.1875  0.7250
 3640SOL    HW222383   0.351   4.108  14.441  1.0276  1.8035 -0.0978
 3641SOL     OW22384   2.312   3.432  14.260 -0.1641  0.3764 -0.2166
 3641SOL    HW122385   2.379   3.376  14.299  1.6554  2.7004 -0.0107
 3641SOL    HW222386   2.246   3.364  14.248 -0.4905  0.8776 -1.2635
 3642SOL     OW22387   3.065   1.689   8.475 -0.3037  0.6609  0.0484
 3642SOL    HW122388   3.077   1.784   8.471  0.6633  0.6938  3.5125
 3642SOL    HW222389   3.158   1.669   8.482 -0.6806 -0.6166  1.3727
 3643SOL     OW22390   1.049   0.622   5.333  0.0622 -0.2974 -0.4437
 3643SOL    HW122391   1.112   0.692   5.349 -0.5633 -0.0451  0.9828
 3643SOL    HW222392   1.087   0.558   5.393  0.0714  0.7235  0.6426
 3644SOL     OW22393   0.339   4.368   7.315  0.5317  0.6199 -0.5762
 3644SOL    HW122394   0.321   4.383   7.222 -0.3522 -1.2698 -0.7296
 3644SOL    HW222395   0.305   4.281   7.336  0.0728  0.7494 -0.7652
 3645SOL     OW22396   0.574   1.456   4.836  0.2036 -0.8582 -0.0429
 3645SOL    HW122397   0.532   1.436   4.919 -1.4522  2.0212 -0.1754
 3645SOL    HW222398   0.583   1.366   4.804 -1.9534 -0.1148 -2.8146
 3646SOL     OW22399   3.136   2.822   2.765  0.3677  0.9210 -0.1648
 3646SOL    HW122400   3.182   2.769   2.830 -0.4171  0.6758  0.2006
 3646SOL    HW222401   3.109   2.749   2.710 -1.0341  0.5643  0.9879
 3647SOL     OW22402   2.832   3.237   8.191  0.0737  0.4719 -0.2084
 3647SOL    HW122403   2.848   3.287   8.111  1.5435  0.1925 -0.0872
 3647SOL    HW222404   2.743   3.201   8.194 -0.0198  0.6207 -1.2156
 3648SOL     OW22405   1.000   1.189   8.109  0.3277 -0.1565  0.3022
 3648SOL    HW122406   0.911   1.154   8.121  0.2286 -0.2028 -0.5798
 3648SOL    HW222407   1.052   1.159   8.184  0.2651 -1.1191 -0.0336
 3649SOL     OW22408   0.889   2.061  13.088  0.2464 -0.8559  0.0519
 3649SOL    HW122409   0.892   2.111  13.007  0.5009  1.1795  1.3054
 3649SOL    HW222410   0.802   2.087  13.119  0.1779 -0.4018 -0.5274
 3650SOL     OW22411   3.003   2.244   7.454 -0.3751 -0.4807 -0.3439
 3650SOL    HW122412   3.019   2.208   7.367 -0.4854 -1.7063  0.1375
 3650SOL    HW222413   3.044   2.329   7.441 -2.1925  0.7690  2.0158
 3651SOL     OW22414   1.288   2.563  13.108  0.4700  0.9934  0.0381
 3651SOL    HW122415   1.284   2.647  13.062 -0.7050  0.5801 -0.6313
 3651SOL    HW222416   1.343   2.519  13.044 -0.7577  0.8745 -0.9358
 3652SOL     OW22417   1.826   3.841   0.306 -0.3676 -0.0610  0.9219
 3652SOL    HW122418   1.870   3.900   0.245 -1.9307 -0.6941 -0.7964
 3652SOL    HW222419   1.741   3.879   0.327 -0.8438 -0.7949  0.3255
 3653SOL     OW22420   2.036   1.159   1.688 -0.1949 -0.3483  0.1168
 3653SOL    HW122421   2.020   1.250   1.665  0.0838 -0.0406  1.1473
 3653SOL    HW222422   2.094   1.150   1.763  0.4054 -3.5277 -0.6967
 3654SOL     OW22423   0.821   1.409   2.073  0.0516 -0.1390 -0.0030
 3654SOL    HW122424   0.864   1.359   2.143  0.4501  1.2169  0.7109
 3654SOL    HW222425   0.774   1.475   2.124 -0.3554  1.8435 -3.0020
 3655SOL     OW22426   1.233   2.661   5.567 -0.4341 -0.6085  0.0350
 3655SOL    HW122427   1.187   2.596   5.512 -1.1879  0.9519 -1.1779
 3655SOL    HW222428   1.169   2.669   5.637 -0.0009 -1.4987  0.5337
 3656SOL     OW22429   0.764   2.550   7.276 -0.4403 -0.7974  0.0145
 3656SOL    HW122430   0.718   2.525   7.356 -1.3967  0.5815 -0.1234
 3656SOL    HW222431   0.747   2.475   7.219  0.5748  1.2685 -3.0011
 3657SOL     OW22432   4.551   2.131  11.623  0.4045 -0.0194  0.0983
 3657SOL    HW122433   4.561   2.221  11.593 -1.4604  1.2238  3.2547
 3657SOL    HW222434   4.504   2.148  11.705  1.6290 -2.0219  1.2182
 3658SOL     OW22435   1.383   1.807   8.639 -0.2539  0.3211  0.3209
 3658SOL    HW122436   1.371   1.816   8.544 -0.7199 -1.1639  0.2502
 3658SOL    HW222437   1.466   1.856   8.641 -0.0123 -0.1349  1.2260
 3659SOL     OW22438   2.226   1.942   0.017  0.2661 -0.0146  0.3932
 3659SOL    HW122439   2.286   1.995  17.638  0.1774  1.1530  1.4622
 3659SOL    HW222440   2.211   1.870  17.630 -0.1186 -0.8441  1.4756
 3660SOL     OW22441   2.692   0.214   2.690  0.2392 -0.3362  0.4456
 3660SOL    HW122442   2.712   0.134   2.641  2.5782 -0.4445  1.5737
 3660SOL    HW222443   2.703   0.280   2.622  1.5053 -1.3658 -0.3362
 3661SOL     OW22444   2.958   0.379  12.437  0.3655  0.0163 -0.1131
 3661SOL    HW122445   3.042   0.407  12.473  0.4810  0.9946 -1.1344
 3661SOL    HW222446   2.945   0.286  12.455  0.8842 -0.1652 -0.6717
 3662SOL     OW22447   2.641   3.107  11.776  0.1818 -0.3910  0.1410
 3662SOL    HW122448   2.608   3.121  11.687  0.0904 -1.6207 -0.0186
 3662SOL    HW222449   2.614   3.016  11.784 -0.8547 -0.1876 -0.8459
 3663SOL     OW22450   1.577   2.414   8.276  0.3323  0.1190 -0.3255
 3663SOL    HW122451   1.671   2.424   8.261  0.8866 -3.2526  1.1371
 3663SOL    HW222452   1.554   2.487   8.334  0.6755 -0.4453  0.5048
 3664SOL     OW22453   1.568   2.276  13.159  0.3095 -0.5255  0.0068
 3664SOL    HW122454   1.591   2.251  13.069  0.7545 -0.3062  0.0561
 3664SOL    HW222455   1.652   2.258  13.202  0.7235 -0.9922 -0.9969
 3665SOL     OW22456   4.524   4.500  12.998 -0.8427  0.5086  0.2273
 3665SOL    HW122457   4.574   4.431  12.953 -1.8665 -0.0017 -0.1482
 3665SOL    HW222458   4.592   4.554  13.037  0.2093 -1.4592  1.1350
 3666SOL     OW22459   2.401   2.458   9.818  1.0683 -0.0546  0.3099
 3666SOL    HW122460   2.469   2.424   9.876  0.6224 -1.1701  0.1916
 3666SOL    HW222461   2.386   2.539   9.866  1.0781  0.1816 -0.0908
 3667SOL     OW22462   4.338   0.995   2.262 -0.5698  0.0307 -0.1295
 3667SOL    HW122463   4.378   0.932   2.322 -1.9773  0.5394  1.3358
 3667SOL    HW222464   4.263   0.946   2.229 -1.2005  1.3409 -0.6540
 3668SOL     OW22465   4.149   3.765   9.204 -0.5175 -0.3974  0.1686
 3668SOL    HW122466   4.194   3.684   9.182  0.3171 -1.0302  4.0963
 3668SOL    HW222467   4.057   3.743   9.189 -0.3393 -0.0099 -1.4282
 3669SOL     OW22468   4.553   1.316   4.447  0.0790 -0.6808 -0.1866
 3669SOL    HW122469   4.606   1.371   4.389 -2.4014 -0.0692 -1.8405
 3669SOL    HW222470   4.468   1.321   4.404 -0.8229  1.1418  1.8315
 3670SOL     OW22471   2.987   1.100  16.976 -0.3548 -0.2481  0.1756
 3670SOL    HW122472   3.081   1.085  16.981 -0.1473  0.3603 -1.7786
 3670SOL    HW222473   2.975   1.158  17.052 -0.1307  1.9610 -1.4793
 3671SOL     OW22474   2.309   3.789  14.922 -0.4195 -0.0166  0.0632
 3671SOL    HW122475   2.294   3.855  14.990  0.8665 -0.0728  0.4002
 3671SOL    HW222476   2.393   3.757  14.954 -0.1118 -0.6446 -1.3500
 3672SOL     OW22477   1.237   3.220   5.635  0.2799  0.5116 -0.0589
 3672SOL    HW122478   1.301   3.153   5.658 -1.1256 -0.7542  0.1875
 3672SOL    HW222479   1.284   3.283   5.580 -1.2970  1.7222 -0.0176
 3673SOL     OW22480   1.212   0.802   3.040  0.2473 -0.3891 -0.5467
 3673SOL    HW122481   1.265   0.725   3.021  0.4872 -1.0858  2.8468
 3673SOL    HW222482   1.190   0.781   3.131  2.1306 -0.1822 -0.0460
 3674SOL     OW22483   2.029   2.053   8.878  0.6462 -0.2089  0.1090
 3674SOL    HW122484   1.960   2.064   8.944 -2.2351  0.3337 -3.0399
 3674SOL    HW222485   2.020   1.958   8.870 -0.9941 -0.0851  0.4667
 3675SOL     OW22486   0.216   3.428  14.637  0.0097  0.4541 -0.6193
 3675SOL    HW122487   0.172   3.359  14.588 -1.2884 -0.1157  1.3682
 3675SOL    HW222488   0.264   3.460  14.561 -1.2981  0.8822 -1.2624
 3676SOL     OW22489   2.615   0.489  10.168  0.2004  0.0658 -0.6122
 3676SOL    HW122490   2.707   0.514  10.162  0.3396 -0.1632  0.5603
 3676SOL    HW222491   2.578   0.558  10.113  0.1925 -0.6150 -1.4533
 3677SOL     OW22492   2.134   3.747  16.679 -0.1389  0.3237 -0.4674
 3677SOL    HW122493   2.154   3.653  16.670  1.5030  0.8192 -2.1448
 3677SOL    HW222494   2.144   3.779  16.590  1.8877  6.4317  1.9742
 3678SOL     OW22495   4.622   1.500   1.701  0.8491 -0.9433  0.6428
 3678SOL    HW122496   4.542   1.517   1.751 -1.0274 -1.3784 -2.2471
 3678SOL    HW222497   4.665   1.443   1.765 -1.1001 -2.0187  0.9835
 3679SOL     OW22498   1.773   4.527  12.416  0.1528 -0.2888  0.0900
 3679SOL    HW122499   1.687   4.556  12.448 -0.1674 -2.1679  0.9256
 3679SOL    HW222500   1.766   4.432  12.429 -0.1231 -0.3140 -0.2230
 3680SOL     OW22501   2.584   0.742  17.671 -0.0468  0.1940 -0.5225
 3680SOL    HW122502   2.603   0.711  17.582  2.8689 -0.8594  0.5016
 3680SOL    HW222503   2.631   0.679   0.052 -0.1834 -0.3493 -1.0225
 3681SOL     OW22504   4.289   2.813   3.725  1.0629 -0.6666  0.7084
 3681SOL    HW122505   4.257   2.827   3.635 -0.1683 -0.6332  1.1515
 3681SOL    HW222506   4.382   2.832   3.713  1.0379 -1.3890 -0.7162
 3682SOL     OW22507   0.102   1.204   3.649  0.1012 -0.2301 -0.9019
 3682SOL    HW122508   0.055   1.141   3.595 -0.6371 -0.3105 -0.1736
 3682SOL    HW222509   0.154   1.228   3.573 -1.3519  2.3065 -1.1307
 3683SOL     OW22510   1.246   2.955  15.591  0.6562 -0.2294 -0.0414
 3683SOL    HW122511   1.242   2.928  15.683 -0.7247  1.8151  0.5071
 3683SOL    HW222512   1.287   2.883  15.544  2.9286  1.3346 -0.4577
 3684SOL     OW22513   3.843   1.831   5.864  0.3629  0.5840 -0.8316
 3684SOL    HW122514   3.827   1.740   5.839  0.9250  0.6619 -1.4923
 3684SOL    HW222515   3.760   1.875   5.845 -1.5377 -1.8918  1.7232
 3685SOL     OW22516   0.971   3.222   3.384  0.3112  0.4921  0.5179
 3685SOL    HW122517   0.883   3.184   3.380 -0.0665  1.5896 -1.7879
 3685SOL    HW222518   1.009   3.155   3.440  1.2239  1.2182  0.7675
 3686SOL     OW22519   1.877   4.582   7.520  0.8200  0.3654 -0.2834
 3686SOL    HW122520   1.865   4.498   7.478  1.2919  1.0920 -1.8586
 3686SOL    HW222521   1.928   4.632   7.456  0.8546  0.6399 -0.0429
 3687SOL     OW22522   4.474   1.990   3.094 -0.3232 -0.4011  0.0851
 3687SOL    HW122523   4.544   1.937   3.133 -0.5675 -2.3406 -2.1668
 3687SOL    HW222524   4.461   2.063   3.155  0.5783 -0.5588  0.4733
 3688SOL     OW22525   3.913   0.483   7.238 -0.4274  0.2932 -0.3874
 3688SOL    HW122526   3.864   0.504   7.159 -3.5008 -0.7938  1.2287
 3688SOL    HW222527   3.873   0.546   7.297 -0.1669 -1.6224  1.8342
 3689SOL     OW22528   4.000   1.625  17.609  0.3155  0.1753 -0.1554
 3689SOL    HW122529   4.055   1.551  17.583 -0.0810 -0.5940  1.1562
 3689SOL    HW222530   4.060   1.698  17.620  1.9081 -0.9500 -1.3658
 3690SOL     OW22531   3.119   4.413  16.859 -0.0731 -0.3935  0.1715
 3690SOL    HW122532   3.105   4.344  16.795  2.1455 -0.7678  0.0822
 3690SOL    HW222533   3.171   4.368  16.926  0.3927  0.5491  0.4455
 3691SOL     OW22534   0.377   2.731   7.849 -0.2730 -0.0971  0.5326
 3691SOL    HW122535   0.412   2.819   7.860 -1.0963  0.2265  0.5794
 3691SOL    HW222536   0.331   2.730   7.933 -0.9162 -1.9992  0.1667
 3692SOL     OW22537   3.347   4.186   4.910  0.0565  0.1392  0.5575
 3692SOL    HW122538   3.279   4.155   4.849 -0.4563 -1.2834  1.8561
 3692SOL    HW222539   3.421   4.196   4.849 -0.1266  1.4170  0.5458
 3693SOL     OW22540   1.201   0.177  17.628 -0.5386  0.6486 -0.2493
 3693SOL    HW122541   1.217   0.185  17.534 -0.4661  1.5151 -0.1686
 3693SOL    HW222542   1.143   0.102  17.615  0.1351  0.2705 -1.0109
 3694SOL     OW22543   0.614   1.698   6.522  0.2724  0.4582  0.0612
 3694SOL    HW122544   0.542   1.761   6.526 -1.9997 -2.0258 -2.6334
 3694SOL    HW222545   0.678   1.731   6.585  1.1530  0.1390 -0.6643
 3695SOL     OW22546   0.691   2.779   7.911 -0.0311 -0.1536 -0.1017
 3695SOL    HW122547   0.741   2.860   7.902 -0.8496  0.3297 -0.2816
 3695SOL    HW222548   0.620   2.796   7.973 -0.2089  0.9599 -0.6233
 3696SOL     OW22549   0.714   0.612   4.394  0.3264  0.0257  0.2545
 3696SOL    HW122550   0.631   0.594   4.437  0.1260  0.7802  0.1865
 3696SOL    HW222551   0.691   0.621   4.301 -1.5737  0.2735  0.7452
 3697SOL     OW22552   4.179   3.024   8.206  0.1641 -0.2489  0.4072
 3697SOL    HW122553   4.216   3.089   8.267 -1.5821  1.3706 -0.2938
 3697SOL    HW222554   4.145   2.952   8.260 -1.3759  0.0255 -0.2048
 3698SOL     OW22555   1.317   3.350   3.725  0.1790 -0.3444 -0.0444
 3698SOL    HW122556   1.397   3.299   3.737  0.8569  0.5607 -0.7718
 3698SOL    HW222557   1.306   3.370   3.632  1.0512 -1.3837 -0.3685
 3699SOL     OW22558   4.254   0.550   5.010 -0.4439  0.0108  0.8324
 3699SOL    HW122559   4.284   0.639   4.992 -0.6476  0.0080  0.4941
 3699SOL    HW222560   4.284   0.491   4.941  0.4482  1.0669  0.3250
 3700SOL     OW22561   0.378   2.681  15.128 -0.3727  0.0651  0.1490
 3700SOL    HW122562   0.430   2.692  15.208  2.8730 -1.2803 -1.7870
 3700SOL    HW222563   0.308   2.624  15.160  0.9061 -1.1961  0.6711
 3701SOL     OW22564   3.418   4.135   6.741  0.4901 -0.4058 -0.8485
 3701SOL    HW122565   3.414   4.142   6.645  2.4124  0.1956 -0.8735
 3701SOL    HW222566   3.340   4.186   6.765  0.9911 -0.0794  0.0680
 3702SOL     OW22567   4.514   3.960   9.182  0.1469 -0.4295  0.3457
 3702SOL    HW122568   4.599   3.986   9.218  0.4420 -2.6925  1.2309
 3702SOL    HW222569   4.541   3.887   9.127 -1.0750 -1.5256  1.2177
 3703SOL     OW22570   0.809   0.667   5.008 -0.6352  0.0056 -0.9055
 3703SOL    HW122571   0.735   0.692   4.952 -1.4319  0.4675  0.3492
 3703SOL    HW222572   0.873   0.718   4.959 -0.4625  2.0729  1.4915
 3704SOL     OW22573   4.272   4.503   6.992  0.2356 -0.3684  0.1633
 3704SOL    HW122574   4.287   4.414   7.022 -1.5983 -0.9034 -0.4487
 3704SOL    HW222575   4.362   4.533   7.002  0.4168 -0.9468  0.2494
 3705SOL     OW22576   3.298   3.892   2.795  0.5222  0.2289 -0.3462
 3705SOL    HW122577   3.228   3.841   2.754 -0.7550  0.9796  0.8694
 3705SOL    HW222578   3.262   3.979   2.810  0.6686  0.4623 -1.3584
 3706SOL     OW22579   2.416   4.165   9.791  0.1659  0.4913 -0.1018
 3706SOL    HW122580   2.347   4.170   9.857 -1.4613  4.3070 -2.0425
 3706SOL    HW222581   2.367   4.201   9.717 -1.9820 -0.8734  0.6480
 3707SOL     OW22582   1.235   4.248   0.420 -0.7901 -0.4223  0.1725
 3707SOL    HW122583   1.192   4.296   0.350  0.3797  2.6411  1.5525
 3707SOL    HW222584   1.309   4.220   0.366 -1.6088  0.6038 -1.4701
 3708SOL     OW22585   1.454   2.047   4.242 -0.0850 -0.6899 -0.1632
 3708SOL    HW122586   1.451   1.952   4.226 -0.0843 -1.0407  1.8927
 3708SOL    HW222587   1.490   2.043   4.331  0.7470 -1.5034 -0.5331
 3709SOL     OW22588   4.538   2.119  14.551 -0.0192  0.1972 -0.5734
 3709SOL    HW122589   4.631   2.137  14.535  0.3275 -0.8658  0.2523
 3709SOL    HW222590   4.500   2.200  14.585  1.0855 -0.4177  2.0752
 3710SOL     OW22591   3.618   4.150   5.650  0.2356  0.9272 -0.0143
 3710SOL    HW122592   3.545   4.096   5.681  2.0281 -0.9075  1.0277
 3710SOL    HW222593   3.590   4.171   5.561  1.8789 -0.2858 -0.8087
 3711SOL     OW22594   3.651   0.556   3.116  0.1980 -0.1509  0.6815
 3711SOL    HW122595   3.612   0.623   3.172  0.3472  0.3460  0.1893
 3711SOL    HW222596   3.745   0.573   3.113  0.4472 -1.7215 -0.0769
 3712SOL     OW22597   0.873   3.621   1.999  0.2316 -0.6512 -0.0982
 3712SOL    HW122598   0.808   3.616   1.928 -0.8517 -2.8630  1.0470
 3712SOL    HW222599   0.926   3.541   1.994  0.2182 -0.6452 -0.3556
 3713SOL     OW22600   2.066   0.465   3.521 -0.4086 -0.3410  0.2612
 3713SOL    HW122601   2.078   0.560   3.518 -0.3145 -0.3802 -0.7544
 3713SOL    HW222602   2.141   0.439   3.574 -1.3585  0.1538  1.8329
 3714SOL     OW22603   1.651   1.954   5.803 -0.2913  0.0357  0.6542
 3714SOL    HW122604   1.739   1.967   5.768  0.2017 -3.1412  0.7222
 3714SOL    HW222605   1.639   2.037   5.850  0.9450  0.4770  0.2011
 3715SOL     OW22606   0.301   0.673   7.182  0.3785  0.1452  0.3579
 3715SOL    HW122607   0.390   0.662   7.149  0.2648 -1.8886  0.7487
 3715SOL    HW222608   0.306   0.665   7.278 -2.8386  0.3091  0.5606
 3716SOL     OW22609   2.978   1.898   5.961 -0.3636  0.0946  0.4794
 3716SOL    HW122610   2.978   1.804   5.980  3.3044 -0.2565 -1.1079
 3716SOL    HW222611   2.961   1.898   5.866 -1.4680  0.1787  0.6839
 3717SOL     OW22612   1.975   3.905  11.474  0.2420 -0.2711 -0.8134
 3717SOL    HW122613   2.003   3.898  11.566 -2.3821  0.4978  0.0516
 3717SOL    HW222614   1.923   3.984  11.486  1.1355  0.4093 -1.4274
 3718SOL     OW22615   3.565   3.573   6.962 -0.1528  0.6808 -0.3630
 3718SOL    HW122616   3.513   3.519   7.021  2.2173 -0.7898  0.3750
 3718SOL    HW222617   3.652   3.581   7.001 -0.5327 -2.1800  1.0690
 3719SOL     OW22618   1.390   3.500  14.857 -0.1065 -0.8426 -0.1165
 3719SOL    HW122619   1.400   3.405  14.863  0.3728 -0.7957 -0.1622
 3719SOL    HW222620   1.325   3.513  14.788 -0.4991  2.3026  0.8345
 3720SOL     OW22621   3.664   4.414  13.081 -0.4323  0.4248 -0.2019
 3720SOL    HW122622   3.726   4.342  13.090 -1.4860 -0.3413  0.8802
 3720SOL    HW222623   3.610   4.400  13.159 -2.2210 -0.5920 -1.6218
 3721SOL     OW22624   4.688   0.722   5.811  0.3349  0.2972 -0.5682
 3721SOL    HW122625   4.635   0.644   5.828 -0.7116  1.5406  2.0110
 3721SOL    HW222626   4.662   0.773   5.888 -1.5575 -0.7703 -0.4869
 3722SOL     OW22627   1.705   2.201   3.586  0.3457  0.1126 -0.0802
 3722SOL    HW122628   1.765   2.266   3.551  1.6684 -1.3081 -0.4651
 3722SOL    HW222629   1.707   2.140   3.512 -0.8496 -0.6286  0.4947
 3723SOL     OW22630   4.261   3.593   2.336 -0.0172  0.5699 -0.2159
 3723SOL    HW122631   4.287   3.683   2.353  1.9381  0.2791 -1.6737
 3723SOL    HW222632   4.349   3.558   2.323 -0.1369  0.3426 -0.4141
 3724SOL     OW22633   0.103   1.021   6.722 -0.2851  0.4238  0.4520
 3724SOL    HW122634   0.147   1.050   6.802  1.8075  0.4928 -0.7235
 3724SOL    HW222635   0.172   0.973   6.676 -0.5892  0.0647  0.3687
 3725SOL     OW22636   3.994   1.474   1.413  0.2814 -0.8619 -0.1658
 3725SOL    HW122637   4.041   1.435   1.487  4.2346  2.0666 -1.0965
 3725SOL    HW222638   4.035   1.560   1.405 -0.6497 -0.3478  0.6762
 3726SOL     OW22639   1.145   0.996   2.294 -0.2048  0.1540 -0.2703
 3726SOL    HW122640   1.141   1.020   2.202  0.2228  0.3367 -0.2386
 3726SOL    HW222641   1.219   1.053   2.314 -0.6131  0.2624  0.9547
 3727SOL     OW22642   2.412   3.848   6.153  0.2897 -0.4614 -0.2915
 3727SOL    HW122643   2.378   3.801   6.229  2.3673 -1.3465  0.1149
 3727SOL    HW222644   2.339   3.841   6.093  1.8922  1.7409 -2.5085
 3728SOL     OW22645   0.992   1.810   9.438 -0.1983  0.9353 -0.0746
 3728SOL    HW122646   0.973   1.881   9.499 -2.3140  1.3247 -1.1664
 3728SOL    HW222647   0.992   1.851   9.351  0.1193  0.8398 -0.1206
 3729SOL     OW22648   0.272   1.834   5.352 -0.0376 -0.1087 -0.4084
 3729SOL    HW122649   0.364   1.809   5.364 -0.1803  0.4291  1.7941
 3729SOL    HW222650   0.235   1.747   5.338 -0.2627 -0.4098  1.9781
 3730SOL     OW22651   3.626   3.950   4.183 -0.0653  0.6177 -0.2477
 3730SOL    HW122652   3.568   3.901   4.241  0.2633 -0.0267 -0.4645
 3730SOL    HW222653   3.570   3.993   4.118 -0.1446  0.3576 -0.3501
 3731SOL     OW22654   2.198   2.249   3.882 -0.3290 -0.1671  0.0432
 3731SOL    HW122655   2.220   2.160   3.909  1.8832  0.8327  1.4770
 3731SOL    HW222656   2.125   2.227   3.824  0.9594 -3.1019 -0.4369
 3732SOL     OW22657   0.474   1.545   9.086  0.3792 -0.1208  0.3538
 3732SOL    HW122658   0.429   1.464   9.110  0.6699  0.2467  2.2182
 3732SOL    HW222659   0.480   1.599   9.166 -1.6721  0.2267  0.2772
 3733SOL     OW22660   3.078   2.656  10.493 -0.4347 -0.3772  0.0167
 3733SOL    HW122661   3.125   2.715  10.552 -0.5940 -1.3687  1.1272
 3733SOL    HW222662   3.044   2.590  10.553 -0.2388  0.4230  1.0181
 3734SOL     OW22663   1.638   3.788   7.102 -0.3050  0.4199  0.2669
 3734SOL    HW122664   1.557   3.827   7.069  0.1353 -0.4293 -1.8369
 3734SOL    HW222665   1.604   3.731   7.171 -1.9286  1.6243  0.4493
 3735SOL     OW22666   2.395   1.034   2.069 -0.6286 -0.3535 -0.3617
 3735SOL    HW122667   2.409   0.958   2.125 -1.4131  0.1973  0.5634
 3735SOL    HW222668   2.478   1.081   2.084 -0.3066 -0.9470 -0.2916
 3736SOL     OW22669   1.596   0.360   7.242 -0.3581  0.6885 -0.0832
 3736SOL    HW122670   1.546   0.390   7.165  0.0652 -0.2775 -0.7368
 3736SOL    HW222671   1.545   0.407   7.308  0.7060 -1.6073  2.3585
 3737SOL     OW22672   0.761   2.826  17.196 -0.4242  1.0364 -0.4923
 3737SOL    HW122673   0.807   2.823  17.280 -1.2173 -2.0171 -0.1412
 3737SOL    HW222674   0.669   2.821  17.222 -0.0917 -0.0346  0.4766
 3738SOL     OW22675   0.612   4.103  10.457 -0.3193 -1.5665 -0.0875
 3738SOL    HW122676   0.583   4.119  10.547 -0.2029 -1.7345 -0.0230
 3738SOL    HW222677   0.703   4.082  10.475  0.4131  0.2531 -1.6050
 3739SOL     OW22678   1.865   3.416   8.490  0.8203 -0.3241  0.5203
 3739SOL    HW122679   1.922   3.421   8.567  0.4210  0.5924  0.7533
 3739SOL    HW222680   1.796   3.356   8.518  0.3262  0.7775  1.6555
 3740SOL     OW22681   1.377   3.556  14.415 -0.0301  0.6077  0.0324
 3740SOL    HW122682   1.298   3.545  14.363  0.8762  0.6778 -1.3435
 3740SOL    HW222683   1.354   3.644  14.447 -0.7006  0.9567 -1.4304
 3741SOL     OW22684   0.326   1.407   7.324 -0.1987 -0.7049 -0.1278
 3741SOL    HW122685   0.363   1.325   7.291  3.7676  1.4034 -0.8390
 3741SOL    HW222686   0.383   1.476   7.290 -2.0441  0.2750 -1.2272
 3742SOL     OW22687   4.078   2.441   8.593  0.1894  0.2146  0.2559
 3742SOL    HW122688   4.118   2.526   8.576  1.2718 -0.6836 -1.7379
 3742SOL    HW222689   4.144   2.404   8.652  1.0005 -1.5607 -1.7646
 3743SOL     OW22690   2.581   1.303  17.131  0.8661 -0.3084  0.6567
 3743SOL    HW122691   2.652   1.338  17.077 -1.5623  1.9102 -1.0823
 3743SOL    HW222692   2.582   1.212  17.104 -0.6900  0.0655 -0.6960
 3744SOL     OW22693   0.773   0.470   6.108 -0.7730 -0.0025  0.5271
 3744SOL    HW122694   0.815   0.409   6.169 -0.1212 -0.0686  0.0105
 3744SOL    HW222695   0.702   0.506   6.161 -1.7661 -0.3080 -0.5866
 3745SOL     OW22696   1.956   0.195   1.970  0.0815 -0.8792  0.3348
 3745SOL    HW122697   1.885   0.141   2.007  0.9974 -1.0824  1.8292
 3745SOL    HW222698   1.927   0.277   2.010 -0.9149 -1.2879  0.4587
 3746SOL     OW22699   1.758   2.053   9.923  0.4746 -0.1781  0.2631
 3746SOL    HW122700   1.757   1.961   9.896 -0.6875  0.3420 -1.4981
 3746SOL    HW222701   1.669   2.061   9.956  0.5857 -0.2845  0.5835
 3747SOL     OW22702   2.692   2.811   6.570 -0.2745 -0.0056  0.3861
 3747SOL    HW122703   2.650   2.882   6.619  1.4471 -0.2149  2.1337
 3747SOL    HW222704   2.779   2.814   6.610  0.7362  1.6278 -1.9035
 3748SOL     OW22705   2.747   3.502  16.294 -0.1768  0.0715 -0.3647
 3748SOL    HW122706   2.717   3.529  16.207 -1.5079 -3.1632 -0.9026
 3748SOL    HW222707   2.839   3.492  16.271  0.6273  0.7837  2.4851
 3749SOL     OW22708   3.937   1.136  11.776 -0.7989 -0.3812 -0.1526
 3749SOL    HW122709   3.994   1.201  11.736  0.2460 -1.2978 -0.1272
 3749SOL    HW222710   3.904   1.174  11.858  2.0142  2.3974 -0.3371
 3750SOL     OW22711   2.157   3.521   0.625  0.2402  0.0668  0.6935
 3750SOL    HW122712   2.148   3.483   0.537 -3.6884 -1.2077  1.6832
 3750SOL    HW222713   2.167   3.613   0.604 -0.3148  0.1518  0.8263
 3751SOL     OW22714   0.738   3.204   6.479 -0.0275 -0.3116 -0.3069
 3751SOL    HW122715   0.762   3.287   6.520 -1.5042  0.7362 -1.5814
 3751SOL    HW222716   0.659   3.179   6.526 -2.4148  2.7807 -2.6927
 3752SOL     OW22717   0.669   3.897   7.366  0.3747  0.4526 -0.2635
 3752SOL    HW122718   0.645   3.851   7.286  0.7216 -0.7909  0.3448
 3752SOL    HW222719   0.603   3.966   7.368 -0.8036 -0.5890 -4.4399
 3753SOL     OW22720   1.365   4.156   7.556 -0.7762  0.4924 -0.2377
 3753SOL    HW122721   1.289   4.119   7.511 -2.4242  0.6263  2.4600
 3753SOL    HW222722   1.331   4.224   7.614  0.7242 -0.1721  1.4305
 3754SOL     OW22723   3.392   1.737   8.823  0.2696  0.0228  0.1020
 3754SOL    HW122724   3.361   1.703   8.739 -0.0255  0.1509  0.1580
 3754SOL    HW222725   3.467   1.791   8.800 -1.0841  1.2460 -1.4552
 3755SOL     OW22726   0.658   4.677  14.063  0.2766 -0.0541 -0.1474
 3755SOL    HW122727   0.627   4.594  14.028  1.3466 -1.1879  1.6374
 3755SOL    HW222728   0.586   0.021  14.045  0.3578  0.2083  0.4493
 3756SOL     OW22729   2.455   1.353   7.236 -0.5787  0.4185  0.5446
 3756SOL    HW122730   2.449   1.437   7.191 -0.2281  0.7018  1.0331
 3756SOL    HW222731   2.397   1.362   7.312 -2.6324 -0.0786 -0.9505
 3757SOL     OW22732   2.232   1.606   3.894  0.1504 -0.0022  0.0540
 3757SOL    HW122733   2.291   1.676   3.919 -1.0343  1.8868 -2.4014
 3757SOL    HW222734   2.253   1.537   3.957  3.1750  0.4960 -0.4121
 3758SOL     OW22735   0.560   0.995   8.055  0.3324  0.0051  0.1214
 3758SOL    HW122736   0.543   0.904   8.080 -1.3445  0.8067  1.8869
 3758SOL    HW222737   0.612   1.036   8.124  0.4446 -2.2756  1.3935
 3759SOL     OW22738   3.673   0.339  12.824  0.4860  0.3518  0.4537
 3759SOL    HW122739   3.738   0.340  12.753  0.7049  1.9688  0.6766
 3759SOL    HW222740   3.729   0.379  12.891 -0.2390 -1.0648  1.9073
 3760SOL     OW22741   3.913   1.339   3.137 -0.0842 -0.2557  0.5672
 3760SOL    HW122742   3.900   1.295   3.053 -0.1567  0.9997 -0.0796
 3760SOL    HW222743   3.997   1.298   3.156  0.1804  0.3659  0.7517
 3761SOL     OW22744   1.478   1.709   4.319  0.8608 -0.0507 -0.4147
 3761SOL    HW122745   1.506   1.654   4.247  2.2263  0.1169 -0.0135
 3761SOL    HW222746   1.419   1.651   4.367  0.0392  1.2033  0.1235
 3762SOL     OW22747   2.269   0.691   9.841  0.1536 -0.8068 -0.0668
 3762SOL    HW122748   2.181   0.660   9.862 -1.4632  3.2786 -0.7770
 3762SOL    HW222749   2.278   0.745   9.920  0.8967  1.0036 -1.3898
 3763SOL     OW22750   2.316   3.844   3.612  0.2318 -0.6675 -0.3007
 3763SOL    HW122751   2.387   3.800   3.565  0.6960  0.1053 -0.3263
 3763SOL    HW222752   2.312   3.928   3.566 -1.8151 -2.4360 -3.2834
 3764SOL     OW22753   4.207   2.326  10.582  0.1699 -0.3471  0.0564
 3764SOL    HW122754   4.287   2.273  10.578 -0.8250 -1.6491 -2.7730
 3764SOL    HW222755   4.243   2.401  10.628  1.3407 -0.7857 -0.1521
 3765SOL     OW22756   3.170   3.110   0.416  0.4066 -0.5728  0.2795
 3765SOL    HW122757   3.168   3.037   0.478 -0.8140  1.4643  2.6310
 3765SOL    HW222758   3.107   3.172   0.452  0.9182 -0.0108  0.1953
 3766SOL     OW22759   1.504   4.011  15.259 -0.0727 -0.2270  0.3485
 3766SOL    HW122760   1.507   3.922  15.292 -1.2140  0.1651  1.4971
 3766SOL    HW222761   1.591   4.045  15.280  0.9404 -1.4506 -1.8978
 3767SOL     OW22762   3.694   2.360   5.683 -0.0274 -0.7884 -0.8679
 3767SOL    HW122763   3.754   2.299   5.641  0.7603 -1.4728  1.2546
 3767SOL    HW222764   3.629   2.385   5.617 -0.5562 -0.9095 -0.3912
 3768SOL     OW22765   0.735   3.771  16.095 -0.4359 -0.0057 -0.4197
 3768SOL    HW122766   0.811   3.728  16.057  0.6611  1.5244  0.0604
 3768SOL    HW222767   0.694   3.697  16.139  0.8311 -1.0140 -0.9507
 3769SOL     OW22768   3.235   4.103   4.644  0.6239  0.1931  0.2769
 3769SOL    HW122769   3.191   4.186   4.626 -0.1157 -0.7187 -2.1004
 3769SOL    HW222770   3.230   4.063   4.557 -0.4733  1.4906 -0.2385
 3770SOL     OW22771   3.354   3.416  16.420  0.0436 -0.4271  0.9001
 3770SOL    HW122772   3.267   3.444  16.450 -0.2555  0.1033 -0.4348
 3770SOL    HW222773   3.416   3.469  16.470 -1.1294  1.2810  0.5588
 3771SOL     OW22774   0.987   0.450   8.293  0.2846 -0.1520  0.0868
 3771SOL    HW122775   1.047   0.454   8.368  0.4990  2.8805 -0.2418
 3771SOL    HW222776   0.904   0.419   8.328  0.9398 -0.3534  1.4568
 3772SOL     OW22777   0.229   2.223  13.770  0.2063  0.6953  0.0221
 3772SOL    HW122778   0.264   2.311  13.754  0.8720  0.4459  0.1153
 3772SOL    HW222779   0.173   2.227  13.693  0.2279 -0.9853 -0.0704
 3773SOL     OW22780   2.123   3.931   2.155  0.6153  0.5886  0.1422
 3773SOL    HW122781   2.142   3.893   2.069 -0.2766 -1.0163  0.6628
 3773SOL    HW222782   2.171   4.013   2.141  0.1758  0.6192 -1.2412
 3774SOL     OW22783   4.534   0.898   7.906  0.0926 -0.1006 -0.3128
 3774SOL    HW122784   4.617   0.854   7.926 -1.5371 -2.6825  0.6108
 3774SOL    HW222785   4.551   0.946   7.825  1.3305 -1.1335 -0.6669
 3775SOL     OW22786   0.894   2.898   0.026  0.4263  0.1266  0.5402
 3775SOL    HW122787   0.913   2.965   0.091 -3.0257 -1.0179  2.7596
 3775SOL    HW222788   0.801   2.916   0.011  0.5164 -1.6408 -2.0397
 3776SOL     OW22789   2.195   3.838   5.390 -0.2609 -0.1005  0.9690
 3776SOL    HW122790   2.129   3.908   5.390  1.5841  1.6575  1.1332
 3776SOL    HW222791   2.246   3.869   5.316 -0.3557 -4.1790 -0.7842
 3777SOL     OW22792   3.804   4.346   3.824  0.4432  0.1695 -0.3308
 3777SOL    HW122793   3.863   4.397   3.768  0.2953 -0.2565 -0.8645
 3777SOL    HW222794   3.801   4.391   3.909 -1.1362 -1.4535  0.4740
 3778SOL     OW22795   3.923   2.963   6.106  0.8027 -0.2041  0.0319
 3778SOL    HW122796   3.926   2.867   6.095 -0.0014 -0.5551  3.0083
 3778SOL    HW222797   3.856   2.974   6.173 -1.5592  0.1786 -2.3748
 3779SOL     OW22798   2.505   2.122   9.678 -0.2858 -0.4359 -0.0295
 3779SOL    HW122799   2.438   2.113   9.745  0.1686 -0.4423  0.4216
 3779SOL    HW222800   2.577   2.168   9.721 -0.2102  0.0913 -0.7115
 3780SOL     OW22801   1.189   0.072  14.225 -0.1091  0.4182 -0.0197
 3780SOL    HW122802   1.096   0.091  14.228 -0.8890 -3.3404 -0.1826
 3780SOL    HW222803   1.199   0.018  14.304  2.1301 -0.4133 -0.8631
 3781SOL     OW22804   2.908   4.675   7.618  0.2286 -0.3670 -0.1911
 3781SOL    HW122805   2.921   4.677   7.523  1.1033 -1.2801 -0.0877
 3781SOL    HW222806   2.824   0.003   7.625  1.0023  0.9860  0.3266
 3782SOL     OW22807   3.039   4.388  16.169 -0.2862  0.4112  0.3626
 3782SOL    HW122808   3.074   4.313  16.121 -1.9727  1.0366 -1.8662
 3782SOL    HW222809   2.985   4.345  16.235 -1.6846 -1.0362 -1.7094
 3783SOL     OW22810   1.847   2.068   8.647 -0.0895 -0.0286  0.1436
 3783SOL    HW122811   1.903   2.017   8.589  0.8393  0.3894  0.6693
 3783SOL    HW222812   1.875   2.159   8.636 -0.9548  0.5503  2.6309
 3784SOL     OW22813   2.127   0.822  12.499 -0.1163  0.4600  0.4475
 3784SOL    HW122814   2.041   0.789  12.524 -0.1402 -0.7761 -1.2592
 3784SOL    HW222815   2.114   0.914  12.521 -1.0061  0.1256  1.3173
 3785SOL     OW22816   3.033   4.319   6.252 -0.3022 -0.5776  0.1632
 3785SOL    HW122817   3.021   4.237   6.204 -0.1364  0.2145 -1.2136
 3785SOL    HW222818   2.989   4.376   6.189  1.9955 -1.5106 -2.2443
 3786SOL     OW22819   4.564   0.794   6.561 -0.0073 -0.5123 -0.2553
 3786SOL    HW122820   4.567   0.767   6.652  1.8358  3.3220  0.8280
 3786SOL    HW222821   4.643   0.747   6.532  1.4132  1.2339  0.8491
 3787SOL     OW22822   0.125   3.746   6.668 -0.5921 -0.3478 -0.1961
 3787SOL    HW122823   0.219   3.726   6.671 -0.8309 -1.5643 -0.8605
 3787SOL    HW222824   0.090   3.657   6.661  1.5559 -1.0568 -2.1383
 3788SOL     OW22825   2.390   0.584   4.450  0.3772 -0.7787 -0.0321
 3788SOL    HW122826   2.295   0.582   4.438  0.1619 -1.3518  1.7495
 3788SOL    HW222827   2.425   0.570   4.362  0.0771 -1.9908  0.0322
 3789SOL     OW22828   3.925   3.681  11.581  0.1439 -0.6668 -0.6359
 3789SOL    HW122829   3.939   3.754  11.521 -0.0525 -1.8744 -2.1418
 3789SOL    HW222830   3.868   3.722  11.646  0.5466  0.0326 -0.7208
 3790SOL     OW22831   0.004   3.379  17.328 -0.1225  1.0036  0.0072
 3790SOL    HW122832   0.044   3.400  17.412  0.1408 -0.9707  0.3766
 3790SOL    HW222833   0.012   3.457  17.272  0.7781  1.2572  0.4790
 3791SOL     OW22834   2.395   0.567  11.317 -1.4886  0.4130  0.2650
 3791SOL    HW122835   2.385   0.477  11.351 -0.9503  0.2890  0.0921
 3791SOL    HW222836   2.430   0.556  11.229 -1.5789  2.2914 -0.0031
 3792SOL     OW22837   2.783   4.081  16.505  1.0659  0.3268  0.1673
 3792SOL    HW122838   2.856   4.042  16.553 -0.0889 -1.0588  0.7811
 3792SOL    HW222839   2.797   4.173  16.526 -1.3069  0.6594  0.2369
 3793SOL     OW22840   3.563   0.775   0.433 -0.3336 -0.2789  0.2225
 3793SOL    HW122841   3.513   0.797   0.354 -2.0440 -1.0012  1.1093
 3793SOL    HW222842   3.553   0.681   0.422  2.4292 -0.8272  2.3264
 3794SOL     OW22843   2.409   4.129   6.728 -0.1895  0.5701  0.1611
 3794SOL    HW122844   2.429   4.095   6.641 -0.5298 -0.0043  0.3116
 3794SOL    HW222845   2.417   4.048   6.778  3.0146  1.4804  1.1591
 3795SOL     OW22846   4.253   1.397  12.696 -0.1871 -0.2234  0.0193
 3795SOL    HW122847   4.214   1.340  12.762 -0.2244 -3.0761 -2.4248
 3795SOL    HW222848   4.247   1.485  12.732 -1.6978 -0.7439  1.0536
 3796SOL     OW22849   3.929   4.475   4.902 -0.3833 -0.2916  0.2469
 3796SOL    HW122850   3.851   4.492   4.851  0.5007 -1.2017 -1.3956
 3796SOL    HW222851   3.898   4.486   4.992  0.0615  1.0745  0.2364
 3797SOL     OW22852   4.103   2.251  16.809 -0.0699  0.4191  0.1167
 3797SOL    HW122853   4.084   2.313  16.738  0.3867  2.5831  1.9006
 3797SOL    HW222854   4.015   2.227  16.837 -0.2237  1.4060  0.4641
 3798SOL     OW22855   1.130   4.536   8.861 -0.0703  0.3371 -0.1860
 3798SOL    HW122856   1.200   4.584   8.905  0.9232 -0.5178 -0.8570
 3798SOL    HW222857   1.183   4.484   8.802 -1.7635 -0.6712 -0.7895
 3799SOL     OW22858   1.389   2.421  12.919 -0.6866 -0.0952  0.5721
 3799SOL    HW122859   1.378   2.365  12.842  1.0638 -1.2105  1.1435
 3799SOL    HW222860   1.484   2.413  12.927 -0.7123 -1.7582 -0.8172
 3800SOL     OW22861   0.417   4.468   3.754  0.4670 -0.2159  0.0426
 3800SOL    HW122862   0.419   4.559   3.783  0.1489 -0.5277  1.0301
 3800SOL    HW222863   0.362   4.430   3.822 -1.1051  1.1828 -0.4378
 3801SOL     OW22864   2.144   0.270  12.247 -0.1318  0.2676 -0.6137
 3801SOL    HW122865   2.060   0.228  12.230  0.2874 -1.7479  2.1459
 3801SOL    HW222866   2.114   0.334  12.313  0.8154 -0.9961  1.0459
 3802SOL     OW22867   1.456   3.589   8.665  0.1571  0.0980  0.1455
 3802SOL    HW122868   1.541   3.606   8.706 -0.1948 -0.5201  1.1488
 3802SOL    HW222869   1.401   3.616   8.739 -1.0620  0.7258 -1.0127
 3803SOL     OW22870   4.692   2.749  14.431  0.4203  0.0785 -0.6704
 3803SOL    HW122871   4.646   2.696  14.366 -2.0842  1.3344  0.0471
 3803SOL    HW222872   4.676   2.695  14.508  2.8237  0.3566  0.0269
 3804SOL     OW22873   3.431   1.160   7.133 -0.0922 -0.5406 -0.2902
 3804SOL    HW122874   3.418   1.163   7.228  1.8925 -0.0515 -0.0295
 3804SOL    HW222875   3.338   1.156   7.108 -0.7943 -3.0941  2.6937
 3805SOL     OW22876   3.413   1.524   5.113 -0.4367  0.4255  0.2746
 3805SOL    HW122877   3.508   1.529   5.108 -0.5890  0.1546 -3.1298
 3805SOL    HW222878   3.404   1.504   5.020  0.7324  0.4841  0.1528
 3806SOL     OW22879   4.149   3.332   7.959  0.3463 -0.0405 -0.2375
 3806SOL    HW122880   4.195   3.347   8.042 -0.6552  0.1519  0.2845
 3806SOL    HW222881   4.105   3.417   7.954 -0.9016 -0.7041 -0.2538
 3807SOL     OW22882   2.107   4.021   0.968  0.1764  0.5654  1.0298
 3807SOL    HW122883   2.114   4.021   1.063  1.5322  0.4715  0.9224
 3807SOL    HW222884   2.132   3.934   0.940 -0.1797  0.5641  0.7087
 3808SOL     OW22885   3.134   0.893   6.152  0.2205  0.3453  0.3631
 3808SOL    HW122886   3.096   0.963   6.099  1.0089 -0.2678 -1.0132
 3808SOL    HW222887   3.169   0.834   6.085  1.4049  1.6693 -0.1676
 3809SOL     OW22888   2.917   1.956   3.372 -0.1121  0.0040 -0.3948
 3809SOL    HW122889   2.924   2.011   3.450  0.8523 -0.8216  0.1114
 3809SOL    HW222890   2.824   1.944   3.355 -0.2080  0.2756 -0.0501
 3810SOL     OW22891   0.178   1.106   5.950  0.0142 -0.2172 -0.3124
 3810SOL    HW122892   0.113   1.166   5.914  0.0089  0.6820  1.1894
 3810SOL    HW222893   0.168   1.091   6.044 -0.0005 -0.1463 -0.3028
 3811SOL     OW22894   1.274   3.825   6.425 -0.0278  0.4421 -0.0679
 3811SOL    HW122895   1.290   3.733   6.407 -0.6495  0.4858 -0.8361
 3811SOL    HW222896   1.232   3.845   6.342  0.2900  3.4471  0.4782
 3812SOL     OW22897   0.527   2.075   4.230 -0.2307 -0.3129  0.1662
 3812SOL    HW122898   0.577   1.995   4.241  0.0141  0.0904  1.9978
 3812SOL    HW222899   0.451   2.053   4.283  2.3725 -1.5198  3.3867
 3813SOL     OW22900   4.069   4.461   1.429 -0.0268  0.4645 -0.0033
 3813SOL    HW122901   4.122   4.478   1.351  1.7387 -0.0464  1.0786
 3813SOL    HW222902   3.990   4.420   1.394 -1.8433  3.8912  0.0665
 3814SOL     OW22903   1.984   3.892   4.082  0.2228 -0.2815  0.1285
 3814SOL    HW122904   1.974   3.939   4.164 -1.3634 -0.9532  0.3215
 3814SOL    HW222905   2.078   3.896   4.067  0.4328  3.6095  2.5565
 3815SOL     OW22906   2.654   3.918   2.440 -0.1420 -0.1709 -0.2430
 3815SOL    HW122907   2.742   3.945   2.415  0.1390 -0.2301  0.6688
 3815SOL    HW222908   2.655   3.824   2.423  0.8985  0.0115 -1.1825
 3816SOL     OW22909   4.667   3.879   5.407 -0.2355 -0.4293  0.3490
 3816SOL    HW122910   0.041   3.853   5.415 -0.4289 -0.9149  0.9473
 3816SOL    HW222911   4.683   3.972   5.396 -2.2133  0.0323  1.2453
 3817SOL     OW22912   2.633   3.099   3.688 -0.0510  0.0316 -0.2265
 3817SOL    HW122913   2.638   3.141   3.603  0.6034 -0.2451 -0.3222
 3817SOL    HW222914   2.542   3.068   3.681  0.5092 -1.7999  0.6936
 3818SOL     OW22915   4.261   3.470   3.965  0.4412 -0.2244  0.4320
 3818SOL    HW122916   4.194   3.447   4.029  0.9880  0.2738  1.1779
 3818SOL    HW222917   4.342   3.464   4.015  0.4365  0.8029  0.5685
 3819SOL     OW22918   1.645   1.269   8.636 -0.3046 -0.0076  0.6635
 3819SOL    HW122919   1.711   1.200   8.624 -0.9924 -0.0975 -2.6361
 3819SOL    HW222920   1.669   1.296   8.725 -1.0304  2.0434  0.2284
 3820SOL     OW22921   2.133   0.137   2.189 -1.2993  0.4770 -0.5244
 3820SOL    HW122922   2.049   0.161   2.149 -2.0634 -0.8590  0.2931
 3820SOL    HW222923   2.173   0.090   2.115  0.5743  0.3830  0.5515
 3821SOL     OW22924   3.096   4.359   3.069  0.4556 -0.1126 -0.1846
 3821SOL    HW122925   3.075   4.426   3.003 -1.7852 -1.4824 -0.8829
 3821SOL    HW222926   3.129   4.411   3.142 -2.1163  0.2762  0.7151
 3822SOL     OW22927   0.788   3.040  10.141  0.0862  0.2248  0.0322
 3822SOL    HW122928   0.864   3.079  10.184 -1.2616  0.2815  2.3376
 3822SOL    HW222929   0.827   3.042  10.054 -0.3162  0.1601 -0.1499
 3823SOL     OW22930   3.416   4.337   0.271  0.0898 -0.7136 -0.2305
 3823SOL    HW122931   3.477   4.350   0.343 -0.3386 -4.2640  0.7517
 3823SOL    HW222932   3.356   4.278   0.316  1.5524  0.5236  3.3190
 3824SOL     OW22933   3.690   0.192   6.773  0.0735 -0.4479  0.0914
 3824SOL    HW122934   3.604   0.169   6.737 -0.0257  0.0851 -0.0193
 3824SOL    HW222935   3.716   0.126   6.837 -1.9916 -0.3589  1.0198
 3825SOL     OW22936   1.007   0.812   4.889 -0.3269 -0.4191  0.4710
 3825SOL    HW122937   1.089   0.772   4.921 -0.5796 -0.1644  1.4276
 3825SOL    HW222938   1.028   0.898   4.852  0.9393 -0.8291  0.2236
 3826SOL     OW22939   1.125   2.158   8.341  0.3165  0.2421  0.0718
 3826SOL    HW122940   1.113   2.180   8.433 -2.1690 -0.6810 -0.0361
 3826SOL    HW222941   1.034   2.156   8.310 -0.0099  0.2905  1.0085
 3827SOL     OW22942   2.376   1.962   7.526 -0.4873  0.1929  0.2422
 3827SOL    HW122943   2.383   1.889   7.588 -1.9480 -0.7889 -0.7471
 3827SOL    HW222944   2.415   1.924   7.447 -0.2714  0.4251  0.2394
 3828SOL     OW22945   4.609   2.795   6.658  0.0874  0.3250  0.1770
 3828SOL    HW122946   4.534   2.768   6.710 -0.3124  0.8527 -0.1271
 3828SOL    HW222947   4.610   2.730   6.587  2.2237  2.1443 -1.4605
 3829SOL     OW22948   2.831   3.149   6.605  0.6635 -0.3939  0.1221
 3829SOL    HW122949   2.802   3.131   6.515 -1.0179 -0.1539  0.6110
 3829SOL    HW222950   2.874   3.067   6.631  1.4315 -0.8787 -2.7249
 3830SOL     OW22951   2.009   3.215   6.639  0.4299  0.4453  0.1146
 3830SOL    HW122952   1.965   3.147   6.690 -0.5780  1.3441  0.4567
 3830SOL    HW222953   1.946   3.287   6.639 -1.3061 -1.0652 -1.5701
 3831SOL     OW22954   1.835   0.610   3.081  0.0139 -0.3543  0.1239
 3831SOL    HW122955   1.822   0.704   3.069  1.2566  0.0699  1.9392
 3831SOL    HW222956   1.801   0.595   3.170 -0.1509 -0.6556  0.0083
 3832SOL     OW22957   0.289   0.145   5.321  0.0348 -0.1724  0.3476
 3832SOL    HW122958   0.273   0.104   5.406 -0.8842  0.2456  0.3758
 3832SOL    HW222959   0.292   0.064   5.269 -2.4543 -0.0834  0.0552
 3833SOL     OW22960   0.586   3.634   3.655  0.2210  0.2925  0.2711
 3833SOL    HW122961   0.502   3.606   3.692 -0.6427 -0.1561 -2.0332
 3833SOL    HW222962   0.599   3.573   3.583  0.0291 -0.4213  0.8441
 3834SOL     OW22963   3.937   0.265  13.069  0.3723  0.5181  0.1145
 3834SOL    HW122964   3.883   0.192  13.039  1.1585  0.3104 -0.7973
 3834SOL    HW222965   3.981   0.298  12.990  2.0890 -0.5443  0.6478
 3835SOL     OW22966   4.029   4.117  15.935  0.6392  0.5907 -0.0373
 3835SOL    HW122967   3.948   4.166  15.923  0.6267  0.4733 -0.4335
 3835SOL    HW222968   3.999   4.032  15.967  0.9819 -0.2469 -1.9199
 3836SOL     OW22969   2.477   2.682  16.186 -0.5352  0.5245 -0.5043
 3836SOL    HW122970   2.449   2.753  16.244  3.4888  2.9791 -1.6276
 3836SOL    HW222971   2.516   2.730  16.114 -0.8980  0.1226 -0.9696
 3837SOL     OW22972   3.542   3.319   0.623 -0.4049 -1.0289  0.2861
 3837SOL    HW122973   3.540   3.244   0.682  2.7566 -1.2434  0.1220
 3837SOL    HW222974   3.453   3.340   0.593 -0.8258 -2.8130  0.2909
 3838SOL     OW22975   2.793   0.734   7.215  0.1602 -0.2989  0.4373
 3838SOL    HW122976   2.791   0.658   7.157  1.3521  0.1736 -0.2248
 3838SOL    HW222977   2.742   0.714   7.294 -0.8420  1.2780  0.1689
 3839SOL     OW22978   4.481   1.034   4.516  0.1816  0.0454  0.0810
 3839SOL    HW122979   4.535   1.094   4.568  0.3611  0.9991 -1.2108
 3839SOL    HW222980   4.399   1.083   4.508  1.1185  1.3655 -1.3753
 3840SOL     OW22981   0.869   1.406   5.456  0.5641  0.5268  0.5973
 3840SOL    HW122982   0.870   1.491   5.411  2.0674 -0.5963 -1.5435
 3840SOL    HW222983   0.860   1.429   5.548 -1.1563  1.5020  0.1756
 3841SOL     OW22984   0.866   1.701   5.666  0.2155  0.6369 -0.6910
 3841SOL    HW122985   0.894   1.787   5.635  2.6700 -0.0475 -0.3462
 3841SOL    HW222986   0.779   1.720   5.701  0.7576  0.2170  0.8796
 3842SOL     OW22987   4.638   0.413   0.775 -0.3168  0.7455  0.0457
 3842SOL    HW122988   4.667   0.399   0.865  2.4339  0.8114 -0.8389
 3842SOL    HW222989   4.641   0.508   0.762  0.3483  0.5899 -0.9320
 3843SOL     OW22990   1.363   3.274  15.922  0.0071  0.2627 -0.2392
 3843SOL    HW122991   1.289   3.213  15.921  0.3759 -0.2378  2.2531
 3843SOL    HW222992   1.319   3.357  15.935 -0.9633 -0.7580  2.9321
 3844SOL     OW22993   2.068   3.409   3.259  0.6386 -0.0633 -0.3088
 3844SOL    HW122994   1.975   3.427   3.246  0.3673 -0.0958  1.5600
 3844SOL    HW222995   2.096   3.491   3.301 -3.5860  1.4115 -0.3839
 3845SOL     OW22996   1.237   0.036   2.826  0.8251  0.0979  0.4632
 3845SOL    HW122997   1.160   0.090   2.806 -0.7843 -2.2601  0.2177
 3845SOL    HW222998   1.214   4.704   2.905  1.5888 -0.2036  0.4966
 3846SOL     OW22999   4.289   1.547  11.279  0.5232 -0.1760 -0.2374
 3846SOL    HW123000   4.362   1.538  11.218  0.6438 -0.2855 -0.0766
 3846SOL    HW223001   4.285   1.641  11.298  0.9208 -0.3999  0.9515
 3847SOL     OW23002   1.883   4.579  14.247  0.4753 -0.8464  0.1231
 3847SOL    HW123003   1.882   4.502  14.305  0.9733 -1.7913 -1.1162
 3847SOL    HW223004   1.790   4.597  14.234  0.7695 -0.0522 -0.8961
 3848SOL     OW23005   2.724   0.375   9.153  0.0739 -0.6616  0.0229
 3848SOL    HW123006   2.781   0.298   9.160  1.4632  0.1957 -2.0159
 3848SOL    HW223007   2.656   0.335   9.098 -0.1329 -2.5991  1.6838
 3849SOL     OW23008   3.042   2.400  12.668  0.9233  0.2916 -0.5301
 3849SOL    HW123009   3.018   2.417  12.576 -2.0381 -1.4052 -0.0735
 3849SOL    HW223010   3.032   2.305  12.672  0.4236  0.3911  0.5824
 3850SOL     OW23011   3.531   0.938   8.694 -0.0856 -0.1928  0.1793
 3850SOL    HW123012   3.581   1.000   8.641 -0.7008  1.7135  1.8268
 3850SOL    HW223013   3.591   0.932   8.768  0.1981  3.4146  0.2642
 3851SOL     OW23014   0.839   2.573   4.117  0.3443  0.4443 -0.6296
 3851SOL    HW123015   0.853   2.639   4.184 -0.8542  1.0774 -1.0141
 3851SOL    HW223016   0.822   2.497   4.173  1.5671  0.6951  0.0997
 3852SOL     OW23017   3.196   2.142   1.766 -0.4086  0.3677 -0.0694
 3852SOL    HW123018   3.258   2.202   1.807  0.1987 -1.0093  1.0155
 3852SOL    HW223019   3.169   2.204   1.699 -1.8283 -0.0074  0.1511
 3853SOL     OW23020   4.084   4.250   7.124 -0.0413 -0.1592 -0.1505
 3853SOL    HW123021   4.175   4.225   7.114 -0.5501 -2.0032 -0.1515
 3853SOL    HW223022   4.070   4.230   7.216 -0.5159  1.2047  0.0825
 3854SOL     OW23023   3.236   0.182   2.383 -0.3222 -0.5444 -0.0914
 3854SOL    HW123024   3.319   0.210   2.422  0.1419  0.3707 -1.7251
 3854SOL    HW223025   3.275   0.172   2.296 -1.1785  0.4527 -0.5902
 3855SOL     OW23026   3.762   0.823   2.330 -0.2063 -0.0713 -0.3769
 3855SOL    HW123027   3.819   0.851   2.258  0.6445  1.2754  0.8209
 3855SOL    HW223028   3.683   0.808   2.278 -0.8298 -0.0311  0.5655
 3856SOL     OW23029   4.432   2.963  10.685  0.1612 -0.5479  0.0407
 3856SOL    HW123030   4.484   2.942  10.763 -0.5370 -0.0666  0.6377
 3856SOL    HW223031   4.472   3.043  10.653  0.3169  0.1635  1.9709
 3857SOL     OW23032   3.762   3.143   5.911  0.0064  0.5943 -0.3400
 3857SOL    HW123033   3.685   3.114   5.960  0.1895  0.8096  0.0861
 3857SOL    HW223034   3.815   3.064   5.900  0.0634  0.6748 -0.6290
 3858SOL     OW23035   0.905   0.007   8.886  0.8361 -0.2046 -0.2539
 3858SOL    HW123036   0.820   4.696   8.918  1.1015 -1.7459 -0.9119
 3858SOL    HW223037   0.952   4.650   8.924  0.6723  0.3827  1.0755
 3859SOL     OW23038   1.109   2.664   6.580  0.4007  0.6382  0.4724
 3859SOL    HW123039   1.034   2.720   6.599  0.9367  1.5665 -0.1310
 3859SOL    HW223040   1.072   2.611   6.509  1.3263  0.5584  0.0535
 3860SOL     OW23041   1.659   0.987  16.576 -0.0811  0.7810  0.6924
 3860SOL    HW123042   1.688   1.062  16.627 -0.2439 -0.1852  2.1953
 3860SOL    HW223043   1.686   0.911  16.629  1.0722 -1.1326 -2.6298
 3861SOL     OW23044   2.543   4.316   3.792  0.0763 -0.2053  0.2641
 3861SOL    HW123045   2.514   4.224   3.795  1.8588 -0.7453  0.5703
 3861SOL    HW223046   2.552   4.339   3.699 -0.3541  0.9372  0.5015
 3862SOL     OW23047   1.199   3.751   1.963  0.4597  0.1496  0.1283
 3862SOL    HW123048   1.119   3.755   1.910  0.0636  1.5465  0.8336
 3862SOL    HW223049   1.200   3.661   1.997 -0.6764 -0.4667 -1.4660
 3863SOL     OW23050   0.210   3.595  12.811 -0.4860  0.0433  0.0715
 3863SOL    HW123051   0.252   3.678  12.788 -0.6454  0.8257  2.5184
 3863SOL    HW223052   0.263   3.536  12.758  1.9527  0.8770  1.5228
 3864SOL     OW23053   2.078   0.035  13.183  0.0848 -0.2751  0.3898
 3864SOL    HW123054   2.126   0.080  13.113  1.6010  0.5406  1.9436
 3864SOL    HW223055   2.032   4.689  13.128  2.0763 -1.0690 -0.3609
 3865SOL     OW23056   2.635   0.849   0.263 -0.1527 -0.5344  0.5219
 3865SOL    HW123057   2.623   0.755   0.274 -3.0252 -0.6146 -3.2377
 3865SOL    HW223058   2.664   0.875   0.350  0.0818  0.3504  0.1863
 3866SOL     OW23059   4.047   0.274   4.962 -0.2571  0.2993 -0.3210
 3866SOL    HW123060   3.979   0.224   5.008 -0.6845 -0.0321 -1.3200
 3866SOL    HW223061   4.093   0.204   4.917  0.8886  0.3065  0.8443
 3867SOL     OW23062   1.577   1.584   8.115  0.3641  0.2727  0.0629
 3867SOL    HW123063   1.584   1.678   8.097 -0.1013  0.2992  0.0344
 3867SOL    HW223064   1.519   1.597   8.190  0.2146 -2.2027  0.3709
 3868SOL     OW23065   0.545   4.101   3.371 -0.1146  0.0971 -0.3381
 3868SOL    HW123066   0.471   4.130   3.318 -0.6416 -0.3757  0.1407
 3868SOL    HW223067   0.510   4.014   3.391  0.3995 -0.6932 -2.8007
 3869SOL     OW23068   1.760   4.354   7.120  0.1530  0.1012 -0.0826
 3869SOL    HW123069   1.680   4.315   7.157  1.2707 -1.9924  0.0702
 3869SOL    HW223070   1.721   4.442   7.120  1.0493  0.5014  2.3241
 3870SOL     OW23071   1.126   2.723   0.998  0.2624  0.4124 -0.5414
 3870SOL    HW123072   1.081   2.730   1.082  0.3848 -0.0172 -0.4405
 3870SOL    HW223073   1.206   2.681   1.027  1.2250  1.6579 -1.3996
 3871SOL     OW23074   4.584   1.690   2.044 -0.1941  0.0332  0.5322
 3871SOL    HW123075   4.567   1.739   1.963 -0.7516 -0.8573  0.1176
 3871SOL    HW223076   4.675   1.671   2.022 -0.4714 -0.9518  0.2482
 3872SOL     OW23077   1.359   3.619   2.258 -0.4676 -0.1256  0.0658
 3872SOL    HW123078   1.445   3.577   2.259 -1.0143 -1.2588 -0.1995
 3872SOL    HW223079   1.317   3.559   2.195  4.4699 -2.5035 -0.9914
 3873SOL     OW23080   4.406   4.383   9.523 -0.5351  0.3982 -0.2817
 3873SOL    HW123081   4.445   4.319   9.583 -4.4393  1.3036  3.2545
 3873SOL    HW223082   4.416   4.462   9.575 -0.4113 -0.6796  1.3417
 3874SOL     OW23083   2.233   3.369   5.126  0.1080 -0.4617  0.2835
 3874SOL    HW123084   2.313   3.395   5.080  0.4822 -0.9297  0.6844
 3874SOL    HW223085   2.256   3.402   5.213 -0.5084  2.5617 -0.6892
 3875SOL     OW23086   2.603   0.216   3.401  0.1215  0.3310 -0.0304
 3875SOL    HW123087   2.508   0.212   3.408 -0.0277  1.5240 -1.4271
 3875SOL    HW223088   2.628   0.142   3.344 -1.5516 -0.0525 -0.2520
 3876SOL     OW23089   0.468   0.084   9.080  0.7506 -0.0810 -1.0731
 3876SOL    HW123090   0.395   0.052   9.133  0.3512 -0.0616 -1.6069
 3876SOL    HW223091   0.516   0.127   9.150 -0.0514  0.5440 -0.9126
 3877SOL     OW23092   0.050   1.646   8.991 -0.7160  0.2993  0.2970
 3877SOL    HW123093   4.673   1.635   9.002 -0.9027  0.5062 -1.2107
 3877SOL    HW223094   0.078   1.561   8.958 -1.1046  0.4886 -0.5129
 3878SOL     OW23095   2.805   3.337   4.895 -0.1017  0.4722 -0.3111
 3878SOL    HW123096   2.859   3.413   4.876 -0.5825  0.1051 -3.1276
 3878SOL    HW223097   2.741   3.325   4.825  1.4782  0.7079 -1.7690
 3879SOL     OW23098   4.445   2.728   8.611 -0.3748 -0.4804  0.1690
 3879SOL    HW123099   4.440   2.700   8.703 -1.6677 -1.3551 -0.1729
 3879SOL    HW223100   4.482   2.816   8.610 -2.1209  0.2664  0.9741
 3880SOL     OW23101   4.537   3.239   4.247  0.1975 -0.0684 -0.6681
 3880SOL    HW123102   4.455   3.197   4.221  0.0029 -0.6037  0.8062
 3880SOL    HW223103   4.526   3.324   4.203  0.7731 -0.1240 -0.9228
 3881SOL     OW23104   3.853   0.492   3.801 -0.1350  0.5460 -0.4421
 3881SOL    HW123105   3.890   0.457   3.881 -1.8019 -0.1891  0.0124
 3881SOL    HW223106   3.797   0.560   3.839  0.2053  0.6744 -0.1730
 3882SOL     OW23107   0.828   3.384   7.576 -0.4358  0.2991 -0.4457
 3882SOL    HW123108   0.769   3.397   7.651 -1.5432  0.7034 -1.3723
 3882SOL    HW223109   0.760   3.352   7.516  0.8384  1.8826 -2.7378
 3883SOL     OW23110   4.394   1.187   6.611 -0.4229 -0.6762  0.2367
 3883SOL    HW123111   4.473   1.139   6.588 -0.9816 -1.4007 -0.1804
 3883SOL    HW223112   4.329   1.125   6.577 -0.4952 -0.6280  0.2857
 3884SOL     OW23113   1.594   2.589   8.684 -0.2092  0.3210 -0.1902
 3884SOL    HW123114   1.512   2.560   8.725  0.0019 -0.5739 -0.4101
 3884SOL    HW223115   1.570   2.584   8.592 -2.4289  0.3290  0.3788
 3885SOL     OW23116   1.016   2.405   4.937  0.5480 -0.1038  0.1540
 3885SOL    HW123117   1.042   2.408   5.029  1.8100  1.2609 -0.2540
 3885SOL    HW223118   1.006   2.499   4.920 -2.4033 -0.1664  1.7144
 3886SOL     OW23119   3.472   1.050   3.286 -0.4418 -0.0364  0.1944
 3886SOL    HW123120   3.555   1.076   3.245 -0.2753 -0.9474 -0.0442
 3886SOL    HW223121   3.493   1.098   3.366  2.6623 -1.5662  0.2922
 3887SOL     OW23122   2.717   4.134   6.937  0.0403 -0.0493 -0.2879
 3887SOL    HW123123   2.797   4.091   6.967  1.4437  1.1209 -2.3368
 3887SOL    HW223124   2.668   4.143   7.018 -2.0413  1.3076 -1.6824
 3888SOL     OW23125   3.315   3.284   7.796  0.3608 -0.3885  0.2261
 3888SOL    HW123126   3.338   3.192   7.788 -1.0216 -0.7488  0.4018
 3888SOL    HW223127   3.352   3.313   7.880  0.2248  0.2397  0.0670
 3889SOL     OW23128   1.621   2.176   4.744  0.0903  0.2418  0.3582
 3889SOL    HW123129   1.620   2.122   4.823  1.0590  0.4910  0.5421
 3889SOL    HW223130   1.639   2.264   4.778 -0.8256  0.7137 -0.3946
 3890SOL     OW23131   2.256   0.763   3.344  0.2146  0.1905 -0.1985
 3890SOL    HW123132   2.283   0.800   3.428  1.0062  1.3589 -0.9737
 3890SOL    HW223133   2.170   0.726   3.364  0.7834 -0.4096  1.1496
 3891SOL     OW23134   2.683   0.937   5.686 -0.3588  0.4110  0.7947
 3891SOL    HW123135   2.699   0.969   5.597 -1.3970  0.1412  0.5111
 3891SOL    HW223136   2.593   0.968   5.694 -0.3021  0.6648  0.4537
 3892SOL     OW23137   2.356   0.490  15.460 -0.4618  0.0650 -0.0497
 3892SOL    HW123138   2.295   0.508  15.389  0.0214  2.4082  0.1480
 3892SOL    HW223139   2.404   0.414  15.428  1.5284  1.5652 -0.5617
 3893SOL     OW23140   4.071   1.416   6.482 -0.2841 -0.4927  0.1699
 3893SOL    HW123141   4.035   1.421   6.570  0.5676  3.4396  0.2797
 3893SOL    HW223142   4.008   1.468   6.432  0.5889  0.9268  0.5606
 3894SOL     OW23143   1.843   0.953  17.409 -0.1306 -0.4965 -0.1054
 3894SOL    HW123144   1.800   0.878  17.449 -1.5267  0.0845 -0.5435
 3894SOL    HW223145   1.772   1.017  17.408  0.8585  0.6196  0.5785
 3895SOL     OW23146   2.390   1.648   4.215 -0.4048 -0.4766 -0.2380
 3895SOL    HW123147   2.314   1.658   4.272 -0.3713  2.9856 -0.7598
 3895SOL    HW223148   2.392   1.558   4.182 -1.1603 -0.5774 -0.0043
 3896SOL     OW23149   2.197   0.730   8.286 -0.5227  0.5528 -0.1462
 3896SOL    HW123150   2.156   0.734   8.372  2.7257  0.3549  1.4186
 3896SOL    HW223151   2.279   0.775   8.306 -1.1302  1.5248  0.1164
 3897SOL     OW23152   1.585   1.472   3.093  0.2250 -1.0560  0.3981
 3897SOL    HW123153   1.563   1.384   3.062  0.8810 -1.4477  1.0622
 3897SOL    HW223154   1.557   1.469   3.185 -0.9775  0.1864  0.0688
 3898SOL     OW23155   4.014   4.554  12.020 -0.9069 -0.1123  0.2484
 3898SOL    HW123156   4.006   4.646  12.047 -1.3940  0.1215 -0.6800
 3898SOL    HW223157   4.109   4.542  12.021 -0.8018  0.7132  0.6988
 3899SOL     OW23158   2.440   4.671  12.142  0.0880 -0.1703 -0.0147
 3899SOL    HW123159   2.521   0.002  12.157 -0.5302  1.1497 -0.9846
 3899SOL    HW223160   2.401   0.010  12.075  3.3868  3.6156  1.2708
 3900SOL     OW23161   2.540   3.477   6.517 -0.3408 -0.2063 -0.7172
 3900SOL    HW123162   2.553   3.410   6.584  0.1595  0.5677 -0.0340
 3900SOL    HW223163   2.497   3.425   6.449 -2.4206  0.4812  0.0588
 3901SOL     OW23164   3.320   0.552   0.533  0.0439 -0.0916  0.0992
 3901SOL    HW123165   3.337   0.604   0.612  0.6083  0.4577 -0.3887
 3901SOL    HW223166   3.369   0.471   0.547  0.5519  0.1641 -0.2242
 3902SOL     OW23167   1.000   1.702   0.602 -0.4252 -0.0726  0.1026
 3902SOL    HW123168   0.998   1.792   0.571 -1.2883  0.4259  1.6557
 3902SOL    HW223169   1.041   1.723   0.686 -0.0418  2.9654 -0.8405
 3903SOL     OW23170   1.901   1.376   5.153  0.1154 -0.4319 -0.1520
 3903SOL    HW123171   1.894   1.472   5.149 -2.2699 -0.6329 -1.2953
 3903SOL    HW223172   1.818   1.352   5.194  1.0088 -3.2389 -0.0113
 3904SOL     OW23173   0.776   3.262  15.770  0.8457 -0.7208 -0.3589
 3904SOL    HW123174   0.857   3.252  15.819 -0.0051  0.5746  1.3197
 3904SOL    HW223175   0.802   3.327  15.705 -0.2432 -1.9068 -1.9888
 3905SOL     OW23176   2.614   3.053   8.216 -0.1365  0.2914 -0.1503
 3905SOL    HW123177   2.550   3.018   8.279  0.8245  0.9588  1.1872
 3905SOL    HW223178   2.695   3.025   8.258  0.1121  0.4996 -0.5004
 3906SOL     OW23179   3.714   2.958   8.411  0.2398  0.0304 -0.2803
 3906SOL    HW123180   3.750   3.033   8.363  2.4136 -0.1607  1.0518
 3906SOL    HW223181   3.652   3.003   8.468 -0.7058 -2.2047  0.4562
 3907SOL     OW23182   0.691   0.392  11.943 -0.4596 -0.5078 -0.2899
 3907SOL    HW123183   0.628   0.408  11.873  0.6741  2.7871 -0.5583
 3907SOL    HW223184   0.662   0.447  12.016  0.4570  0.5438 -0.7222
 3908SOL     OW23185   0.004   2.678  16.360 -0.3616  0.2866 -0.6203
 3908SOL    HW123186   4.693   2.676  16.269  1.8406  2.6614 -1.3766
 3908SOL    HW223187   0.098   2.676  16.339  0.1229 -0.1080  1.6319
 3909SOL     OW23188   4.123   1.109  12.442 -0.2899 -0.2845 -0.0057
 3909SOL    HW123189   4.195   1.057  12.406 -0.3747  0.0449 -0.6512
 3909SOL    HW223190   4.077   1.046  12.498  1.7792 -1.1567  0.7088
 3910SOL     OW23191   2.014   1.658   7.411  0.3431 -0.0736 -0.3846
 3910SOL    HW123192   1.952   1.586   7.419 -2.1463  2.1260 -0.0078
 3910SOL    HW223193   1.947   1.726   7.418  0.9784  0.9357 -3.9609
 3911SOL     OW23194   4.017   0.509   3.436 -0.0872 -0.4302 -0.1450
 3911SOL    HW123195   4.039   0.456   3.359 -0.8131  0.2492 -0.8237
 3911SOL    HW223196   4.066   0.590   3.419  1.6321 -0.9402  2.4698
 3912SOL     OW23197   3.670   3.523  16.274  0.5843 -0.2429  0.3990
 3912SOL    HW123198   3.583   3.559  16.292  0.1505 -1.9235  1.6340
 3912SOL    HW223199   3.708   3.529  16.361  0.6092  2.8086  0.1718
 3913SOL     OW23200   3.430   2.589   8.318  0.7065 -0.3623 -0.2246
 3913SOL    HW123201   3.467   2.671   8.285  1.2418 -0.2199  0.7325
 3913SOL    HW223202   3.382   2.558   8.241 -0.0581  2.1937 -0.7862
 3914SOL     OW23203   1.107   0.855   8.418 -0.9643 -0.1301 -0.3556
 3914SOL    HW123204   1.087   0.821   8.331  0.2467 -1.6927 -0.0026
 3914SOL    HW223205   1.160   0.782   8.449 -0.3511  0.1655 -0.7015
 3915SOL     OW23206   4.185   3.996   3.964  0.3169  0.0449 -0.7122
 3915SOL    HW123207   4.149   3.938   3.896  0.7889 -0.8021 -0.2405
 3915SOL    HW223208   4.107   4.032   4.005  1.1206 -0.1910  0.9901
 3916SOL     OW23209   1.016   0.502  10.942  0.2251  0.8659 -0.7546
 3916SOL    HW123210   0.945   0.440  10.955 -1.5211  3.0211  0.0142
 3916SOL    HW223211   1.063   0.477  10.863  1.3219  0.3093  0.0651
 3917SOL     OW23212   0.046   3.130   9.872  0.2631 -0.4332 -0.9144
 3917SOL    HW123213   0.105   3.083   9.932 -0.3365  0.6782  0.5454
 3917SOL    HW223214   4.698   3.063   9.855  0.9565 -0.9658 -1.5276
 3918SOL     OW23215   4.383   3.732   7.120 -0.3208 -0.7985  0.3606
 3918SOL    HW123216   4.394   3.698   7.209  0.9062  1.2834  0.9985
 3918SOL    HW223217   4.459   3.707   7.066 -0.4410  2.2738 -1.1949
 3919SOL     OW23218   1.915   0.210  12.111 -0.4354 -0.0122 -0.3019
 3919SOL    HW123219   1.957   0.141  12.059 -0.9179  0.7861 -1.7398
 3919SOL    HW223220   1.825   0.207  12.080  0.7357 -0.5532 -3.6619
 3920SOL     OW23221   3.326   2.950   4.423  0.5959 -0.2875 -0.1838
 3920SOL    HW123222   3.372   2.960   4.506 -1.7350  0.3910  1.0350
 3920SOL    HW223223   3.298   3.042   4.418 -2.3018 -1.0892  1.1313
 3921SOL     OW23224   1.186   2.008   4.814  0.7028 -0.3821 -0.5649
 3921SOL    HW123225   1.147   2.005   4.726 -0.2928  1.6537 -0.2055
 3921SOL    HW223226   1.279   2.015   4.790  0.7074  1.0231 -0.1062
 3922SOL     OW23227   1.949   3.846   6.498 -1.1825 -0.4594  0.0134
 3922SOL    HW123228   1.961   3.931   6.457  1.1819  0.0892  1.8494
 3922SOL    HW223229   1.856   3.839   6.477 -1.2501  0.2237  0.0920
 3923SOL     OW23230   3.963   0.384   4.017  0.4417  0.3042 -0.6538
 3923SOL    HW123231   3.953   0.403   4.110 -0.5592 -2.5786 -0.1698
 3923SOL    HW223232   3.994   0.294   4.026  0.4168  0.3958  0.2840
 3924SOL     OW23233   3.482   2.661   4.866  0.2662  0.1450  0.0168
 3924SOL    HW123234   3.405   2.637   4.919  1.0083  0.7160  1.3443
 3924SOL    HW223235   3.555   2.607   4.896 -0.4344 -0.6615  0.2616
 3925SOL     OW23236   1.655   1.241   7.559 -0.0834  0.4332  0.3117
 3925SOL    HW123237   1.702   1.177   7.611  1.7245  0.0361 -1.8360
 3925SOL    HW223238   1.730   1.299   7.546 -1.3693  2.1931  0.6615
 3926SOL     OW23239   1.955   1.508  14.566  0.1753 -0.2371  0.0038
 3926SOL    HW123240   2.032   1.565  14.571 -0.2787  0.3339  0.5632
 3926SOL    HW223241   1.996   1.422  14.558 -1.0555 -0.9313  1.1401
 3927SOL     OW23242   1.230   0.435   6.341 -0.1180 -0.2686 -0.2215
 3927SOL    HW123243   1.137   0.414   6.329 -0.4166 -0.4706  2.4457
 3927SOL    HW223244   1.279   0.398   6.267  0.2749  0.7039 -0.4403
 3928SOL     OW23245   3.801   3.528  16.816  0.1934  0.0357 -0.5244
 3928SOL    HW123246   3.861   3.519  16.890 -0.6888 -1.1832  0.0602
 3928SOL    HW223247   3.866   3.528  16.746  1.1208 -3.0299  0.3445
 3929SOL     OW23248   1.109   1.311   8.565 -0.2340  0.0457 -0.0992
 3929SOL    HW123249   1.121   1.367   8.642  1.3085  0.3115 -0.5433
 3929SOL    HW223250   1.188   1.258   8.578  0.4749  0.7929 -1.4116
 3930SOL     OW23251   4.544   2.407   3.297 -0.0484 -0.4426  0.0973
 3930SOL    HW123252   4.597   2.389   3.374  1.9325  2.7733 -0.4995
 3930SOL    HW223253   4.601   2.475   3.259  1.0973 -0.6608  1.4347
 3931SOL     OW23254   3.995   4.569   2.091 -0.2815  0.0157 -0.2226
 3931SOL    HW123255   3.963   4.545   2.004  1.0746  1.7026 -1.2088
 3931SOL    HW223256   3.990   4.479   2.123  4.0105  0.0912  0.6861
 3932SOL     OW23257   0.675   3.456   3.482  0.1772  0.0185  0.0366
 3932SOL    HW123258   0.703   3.409   3.403 -0.2734 -1.1332  0.5643
 3932SOL    HW223259   0.613   3.390   3.513 -0.4383  1.0918  1.0989
 3933SOL     OW23260   2.711   3.188   7.382 -0.4669  0.4172  0.3823
 3933SOL    HW123261   2.665   3.235   7.313  2.5930  1.5038 -0.9385
 3933SOL    HW223262   2.678   3.219   7.466 -0.7523  0.0662  0.4005
 3934SOL     OW23263   4.315   1.952   5.117 -0.2697  0.2927 -0.2873
 3934SOL    HW123264   4.302   1.906   5.034  1.7316 -1.3853  0.3019
 3934SOL    HW223265   4.387   2.009   5.092  1.0838 -1.3864 -0.2463
 3935SOL     OW23266   0.788   0.279  11.087  0.0459  0.5384  0.2727
 3935SOL    HW123267   0.839   0.262  11.008  0.6388 -0.6758  0.9258
 3935SOL    HW223268   0.705   0.264  11.041 -0.2117 -0.8903  1.2273
 3936SOL     OW23269   0.379   4.646   7.584 -0.7492  0.1924 -0.8110
 3936SOL    HW123270   0.396   0.020   7.565  1.0924  0.3925  1.7750
 3936SOL    HW223271   0.377   4.652   7.680 -1.0949  0.0008 -0.8031
 3937SOL     OW23272   3.886   3.637   3.946  0.0417  0.5099  0.5823
 3937SOL    HW123273   3.886   3.720   3.900  0.1392 -1.2396 -2.6030
 3937SOL    HW223274   3.801   3.635   3.989  0.1563  1.0476  0.8261
 3938SOL     OW23275   2.000   3.670  15.086  0.2212  0.2201 -0.0006
 3938SOL    HW123276   1.946   3.601  15.047 -1.6784  2.7837 -1.9603
 3938SOL    HW223277   2.026   3.718  15.008 -0.6279 -0.0733 -0.4687
 3939SOL     OW23278   2.336   3.168   0.573  0.3280 -0.0079 -0.4148
 3939SOL    HW123279   2.245   3.147   0.594  0.1454 -0.8097 -1.9494
 3939SOL    HW223280   2.316   3.261   0.562  1.3485  0.5504  2.5519
 3940SOL     OW23281   0.698   4.243   7.519  0.4169 -0.0070  0.4056
 3940SOL    HW123282   0.733   4.194   7.594  4.2935  0.6684 -0.9513
 3940SOL    HW223283   0.603   4.235   7.524  0.4394  0.2136  1.1866
 3941SOL     OW23284   0.345   2.926   4.986 -0.4194 -0.1135  0.3401
 3941SOL    HW123285   0.384   2.944   4.901  1.6961  0.2147  1.4021
 3941SOL    HW223286   0.259   2.968   4.972 -0.6233 -0.9441 -0.8840
 3942SOL     OW23287   2.526   4.067   1.981 -0.1795 -0.3966 -0.3941
 3942SOL    HW123288   2.521   4.032   1.892 -1.6003 -1.0706 -0.0432
 3942SOL    HW223289   2.439   4.049   2.016 -0.8743  2.6187 -0.5712
 3943SOL     OW23290   1.419   2.728   1.429 -0.4658  0.4123 -0.3977
 3943SOL    HW123291   1.489   2.770   1.380 -0.7668  0.5569 -0.7016
 3943SOL    HW223292   1.462   2.662   1.484 -2.5000  0.7995  1.6440
 3944SOL     OW23293   4.680   1.085   3.460  0.0311  0.0605  0.0815
 3944SOL    HW123294   0.041   1.063   3.410 -0.8500  0.0508 -1.3329
 3944SOL    HW223295   4.633   1.134   3.392  0.6673 -0.6135 -0.8389
 3945SOL     OW23296   4.606   1.799   6.831 -0.4956  0.2959 -0.0424
 3945SOL    HW123297   4.655   1.859   6.775 -1.2316 -0.1989 -1.2015
 3945SOL    HW223298   4.658   1.719   6.823 -0.9841 -0.0372  0.1518
 3946SOL     OW23299   4.410   1.901   6.542  0.2423 -0.0067 -0.3437
 3946SOL    HW123300   4.394   1.884   6.449 -0.3478  0.8835 -0.4116
 3946SOL    HW223301   4.374   1.820   6.576  1.8471 -0.3662  0.4884
 3947SOL     OW23302   2.222   3.092   2.784  0.1927  0.0971 -0.4634
 3947SOL    HW123303   2.190   3.181   2.797 -0.5292 -0.3225  0.7144
 3947SOL    HW223304   2.151   3.055   2.732 -0.0772 -0.0954  0.0448
 3948SOL     OW23305   0.977   3.981   3.034 -0.1922 -0.4699  0.4551
 3948SOL    HW123306   1.070   3.985   3.055 -0.6171  1.5585  1.9766
 3948SOL    HW223307   0.961   3.895   3.072  1.2599 -0.7892  0.3326
 3949SOL     OW23308   1.238   4.550  16.152  0.1746  0.4032  0.6012
 3949SOL    HW123309   1.232   4.476  16.211  2.4112 -2.4977 -2.8174
 3949SOL    HW223310   1.259   4.622  16.212 -1.4762  1.2632  0.1633
 3950SOL     OW23311   3.979   4.543  13.894  0.4202 -0.1657 -0.3142
 3950SOL    HW123312   4.063   4.519  13.932 -0.1019  2.4809  2.4306
 3950SOL    HW223313   3.923   4.551  13.971 -0.5697 -0.4482 -1.0019
 3951SOL     OW23314   3.502   4.393  15.713  0.6268 -0.0720 -0.0768
 3951SOL    HW123315   3.425   4.384  15.658  0.2079  0.3101  0.4494
 3951SOL    HW223316   3.575   4.375  15.653  1.2440 -0.0278  0.6591
 3952SOL     OW23317   4.640   2.201  10.137 -0.4049 -0.1586  0.0840
 3952SOL    HW123318   0.009   2.221  10.100  0.0206  1.4256  1.9445
 3952SOL    HW223319   4.648   2.117  10.180  2.8267 -0.3232 -0.8368
 3953SOL     OW23320   3.321   2.739   2.515 -0.0836 -0.0948  0.0903
 3953SOL    HW123321   3.280   2.768   2.434 -1.1085  0.9776  0.9862
 3953SOL    HW223322   3.340   2.822   2.558  0.2164 -0.2442  0.2479
 3954SOL     OW23323   1.166   0.365   3.664 -0.6063  0.1864 -0.0458
 3954SOL    HW123324   1.114   0.397   3.738 -2.7335 -2.6497 -0.2909
 3954SOL    HW223325   1.163   0.269   3.673  1.9307 -0.3615 -5.1148
 3955SOL     OW23326   1.454   3.941   0.087 -0.6191  0.2179 -0.1799
 3955SOL    HW123327   1.399   3.863   0.077 -0.5229  0.1805 -0.4381
 3955SOL    HW223328   1.463   3.968  17.669  0.7626  1.4165  0.3063
 3956SOL     OW23329   1.208   3.631  10.287 -0.2838  0.1025  0.2110
 3956SOL    HW123330   1.302   3.646  10.283 -0.5197  1.1163 -1.1682
 3956SOL    HW223331   1.197   3.556  10.229 -0.9951  0.0570  0.4062
 3957SOL     OW23332   0.758   0.140   8.684  0.2735 -0.2316  0.1918
 3957SOL    HW123333   0.691   0.088   8.639  0.3487  2.4592 -3.0907
 3957SOL    HW223334   0.758   0.087   8.763  1.5282  1.4017  1.3038
 3958SOL     OW23335   0.381   3.984   7.498 -0.4127 -0.9199 -0.1696
 3958SOL    HW123336   0.376   3.891   7.518  0.6090 -0.2941  2.9128
 3958SOL    HW223337   0.416   4.024   7.578  0.0073  1.4698 -1.5355
 3959SOL     OW23338   1.443   2.366   1.518  0.6612  0.2533 -0.4783
 3959SOL    HW123339   1.502   2.439   1.499  0.7965  0.8757  2.3718
 3959SOL    HW223340   1.493   2.325   1.588  0.1302 -0.7858 -0.6989
 3960SOL     OW23341   2.320   2.325  10.219 -0.7199  0.3880 -0.0494
 3960SOL    HW123342   2.283   2.251  10.172 -1.0330  1.2389 -1.1600
 3960SOL    HW223343   2.410   2.329  10.187 -0.5234 -0.4722  0.4060
 3961SOL     OW23344   4.119   0.387   8.253 -0.4253  0.8990 -0.0559
 3961SOL    HW123345   4.059   0.462   8.248 -3.8173 -1.8095 -0.4565
 3961SOL    HW223346   4.190   0.410   8.193 -1.6568 -1.5596 -2.4592
 3962SOL     OW23347   2.361   0.737   5.629 -0.2501 -0.3398 -0.1239
 3962SOL    HW123348   2.393   0.815   5.674 -0.8764 -0.2018  0.0753
 3962SOL    HW223349   2.293   0.781   5.578  1.0580 -0.5841 -2.0659
 3963SOL     OW23350   1.806   0.183  14.491  0.2451 -0.1411 -0.1829
 3963SOL    HW123351   1.888   0.146  14.461 -1.1678 -0.2157 -3.9516
 3963SOL    HW223352   1.828   0.234  14.569  0.6334  1.4579 -1.3530
 3964SOL     OW23353   3.311   2.552   8.593  0.2483  0.2291  0.0850
 3964SOL    HW123354   3.358   2.584   8.516 -1.7628  0.3796 -1.0976
 3964SOL    HW223355   3.253   2.485   8.558  0.4721  0.4163 -0.6397
 3965SOL     OW23356   0.491   3.301  12.311 -0.1852  0.5874 -0.0148
 3965SOL    HW123357   0.510   3.208  12.322  1.5838  0.8948 -0.6066
 3965SOL    HW223358   0.576   3.336  12.339 -1.8251  3.2337  1.6996
 3966SOL     OW23359   1.012   2.933   2.204 -0.2022 -0.1040 -0.4283
 3966SOL    HW123360   0.952   2.893   2.141  1.8173  0.8952 -3.0021
 3966SOL    HW223361   0.943   2.951   2.267 -0.2865 -2.5213  0.1844
 3967SOL     OW23362   2.937   2.958  14.791  0.3163 -1.0122 -0.1774
 3967SOL    HW123363   2.860   2.984  14.841  0.3090  0.2817 -0.8504
 3967SOL    HW223364   2.939   3.022  14.720 -0.9197  0.1753  0.8524
 3968SOL     OW23365   0.606   4.384   5.914  0.4659 -0.5646 -0.1902
 3968SOL    HW123366   0.691   4.340   5.925  0.1018 -0.8445  1.4744
 3968SOL    HW223367   0.632   4.470   5.880  0.1949 -0.6682 -0.6658
 3969SOL     OW23368   3.852   1.389   3.486 -0.3102 -0.1082  0.0011
 3969SOL    HW123369   3.760   1.365   3.482 -0.5733  1.0806 -0.9896
 3969SOL    HW223370   3.849   1.485   3.490  0.9406 -0.1323  1.5037
 3970SOL     OW23371   1.876   4.260   7.821 -0.4495 -0.0360 -0.4073
 3970SOL    HW123372   1.937   4.334   7.819 -0.9635  0.3874 -0.2027
 3970SOL    HW223373   1.824   4.291   7.747  1.1284 -0.1240 -1.5792
 3971SOL     OW23374   2.575   2.547  12.940  0.7154  0.5124  0.1277
 3971SOL    HW123375   2.622   2.504  12.868 -1.5394  0.4530 -1.2959
 3971SOL    HW223376   2.534   2.614  12.885 -0.3192 -1.3891 -1.4319
 3972SOL     OW23377   0.991   2.826   6.905  0.1590  0.1380 -0.0248
 3972SOL    HW123378   0.921   2.859   6.961 -0.2845  1.2916 -1.2660
 3972SOL    HW223379   1.064   2.850   6.962  0.9766 -2.5926  0.0541
 3973SOL     OW23380   2.438   3.083   4.908 -0.4133 -0.1106 -0.4379
 3973SOL    HW123381   2.501   3.155   4.911  0.5143 -0.8356 -2.3697
 3973SOL    HW223382   2.375   3.126   4.850  0.1770 -0.1763 -1.1359
 3974SOL     OW23383   0.208   2.262   1.837 -0.5208  0.1984 -0.1716
 3974SOL    HW123384   0.168   2.181   1.804  2.1906 -1.8906  1.7591
 3974SOL    HW223385   0.153   2.272   1.915 -0.1288 -0.4740  0.1917
 3975SOL     OW23386   3.047   1.389  13.279  0.6079 -0.0971  0.0854
 3975SOL    HW123387   2.962   1.428  13.299  0.7246 -0.0569  0.5182
 3975SOL    HW223388   3.099   1.469  13.289  0.9523 -0.4498  1.2043
 3976SOL     OW23389   1.568   2.382   4.266 -0.4409 -0.3112  0.2487
 3976SOL    HW123390   1.643   2.390   4.208  0.7146 -1.9310  1.5359
 3976SOL    HW223391   1.549   2.288   4.256  0.7338 -0.3271 -1.8776
 3977SOL     OW23392   2.619   1.344   5.065  0.5031 -0.0105  0.0306
 3977SOL    HW123393   2.691   1.299   5.020  1.3968  0.1865  1.2840
 3977SOL    HW223394   2.667   1.420   5.096  2.2766 -1.5201  1.0008
 3978SOL     OW23395   3.743   2.758  10.859  0.3644  0.0590  0.1485
 3978SOL    HW123396   3.805   2.734  10.929 -0.2189  1.1502  1.0238
 3978SOL    HW223397   3.808   2.790  10.796  0.8739 -2.0049 -0.3714
 3979SOL     OW23398   0.875   3.687   5.349  0.3870 -0.7545 -0.4207
 3979SOL    HW123399   0.948   3.739   5.314 -0.9141 -0.3211 -2.4643
 3979SOL    HW223400   0.912   3.598   5.358  2.0270 -0.1617 -1.1801
 3980SOL     OW23401   1.509   1.370   5.094  0.2181 -0.1697  0.8378
 3980SOL    HW123402   1.478   1.280   5.088  0.7735 -0.3453  0.6892
 3980SOL    HW223403   1.553   1.365   5.178 -1.0519 -0.4398  1.4946
 3981SOL     OW23404   0.513   2.321   3.723  0.5462  0.5726  0.0297
 3981SOL    HW123405   0.491   2.278   3.806  0.5569 -2.6729 -1.6596
 3981SOL    HW223406   0.500   2.412   3.749  1.1917  0.3031  1.2742
 3982SOL     OW23407   0.403   0.692  10.918 -0.0001 -0.3705  0.0913
 3982SOL    HW123408   0.489   0.651  10.932  1.1394  2.0384  0.1628
 3982SOL    HW223409   0.431   0.767  10.866  0.7831 -0.6930  0.0398
 3983SOL     OW23410   1.392   0.212   4.691  0.4339  0.6294 -0.1984
 3983SOL    HW123411   1.443   0.280   4.647 -0.5331  0.0506 -2.2092
 3983SOL    HW223412   1.318   0.261   4.728 -0.5754 -0.3430 -0.9243
 3984SOL     OW23413   1.966   0.849  17.186 -0.4026 -0.0649 -0.2206
 3984SOL    HW123414   1.968   0.882  17.276  0.1015  0.3792 -0.3918
 3984SOL    HW223415   1.886   0.889  17.152 -1.2169 -2.0056 -0.6041
 3985SOL     OW23416   4.508   2.181  17.070 -0.5285 -0.3044 -0.6398
 3985SOL    HW123417   4.439   2.219  17.016 -0.4341 -0.8311 -1.1404
 3985SOL    HW223418   4.461   2.170  17.152  0.8050 -0.3833  0.1173
 3986SOL     OW23419   1.539   1.860   8.114  0.0639  0.1285 -0.3951
 3986SOL    HW123420   1.522   1.954   8.112  0.4097  0.2591  2.0478
 3986SOL    HW223421   1.479   1.836   8.185 -0.1338  1.5325 -0.1011
 3987SOL     OW23422   1.646   2.956   3.554  0.6323  0.1801  0.2198
 3987SOL    HW123423   1.719   3.018   3.567 -0.9277  2.0412  0.1269
 3987SOL    HW223424   1.657   2.927   3.464 -0.3819 -0.4169  0.2989
 3988SOL     OW23425   1.606   2.331   6.306 -0.3692 -0.2142  0.4015
 3988SOL    HW123426   1.656   2.399   6.352  0.0649  0.2950 -0.8185
 3988SOL    HW223427   1.545   2.299   6.371  0.8722 -1.6703  0.8481
 3989SOL     OW23428   1.156   3.244   3.921  0.0211  0.0271 -0.1939
 3989SOL    HW123429   1.225   3.254   3.855  1.7084 -0.2086  1.5259
 3989SOL    HW223430   1.081   3.228   3.864 -0.3307 -1.1757  0.6156
 3990SOL     OW23431   1.486   3.655   8.405 -0.0801  0.8136 -0.5396
 3990SOL    HW123432   1.562   3.602   8.380  0.5836  0.6598  1.8206
 3990SOL    HW223433   1.468   3.635   8.497 -1.4301 -0.0163 -0.9947
 3991SOL     OW23434   3.400   0.576   3.887 -0.2958  0.1178 -0.4492
 3991SOL    HW123435   3.394   0.599   3.794 -0.2173 -1.1288 -0.7658
 3991SOL    HW223436   3.333   0.625   3.935 -0.5702  0.2865 -1.0037
 3992SOL     OW23437   0.941   2.209  15.367 -0.2809 -0.5931  0.0615
 3992SOL    HW123438   0.920   2.128  15.414 -1.3249 -0.4074 -0.0856
 3992SOL    HW223439   0.952   2.272  15.438 -0.8387 -0.9903  0.5127
 3993SOL     OW23440   3.429   0.854   6.978  0.0540  0.3789  0.1516
 3993SOL    HW123441   3.374   0.865   6.900 -2.4008 -0.7841  1.7047
 3993SOL    HW223442   3.445   0.945   7.005  2.1267 -0.0054  0.2316
 3994SOL     OW23443   3.767   2.686   4.587 -0.4611 -0.1286  0.4211
 3994SOL    HW123444   3.819   2.720   4.660 -1.3237  0.5438  0.7181
 3994SOL    HW223445   3.780   2.759   4.527  0.4790  0.5560  1.4613
 3995SOL     OW23446   3.981   0.083   3.794  0.2039 -0.5212 -0.1924
 3995SOL    HW123447   4.032   0.149   3.748 -0.0119 -1.6237 -2.0110
 3995SOL    HW223448   3.896   0.123   3.776 -0.4384 -0.7845  2.2931
 3996SOL     OW23449   1.823   2.075  16.496 -0.6334  0.0349  0.6899
 3996SOL    HW123450   1.744   2.045  16.450  0.3594 -1.5983  0.0547
 3996SOL    HW223451   1.891   2.060  16.430 -0.8036  2.8373 -0.1303
 3997SOL     OW23452   2.933   0.439   2.773  0.0565 -0.2075 -0.0918
 3997SOL    HW123453   2.876   0.393   2.711  0.1826 -1.8756  1.0486
 3997SOL    HW223454   2.976   0.366   2.817 -0.3446  0.8825  2.1060
 3998SOL     OW23455   0.667   2.343   7.126 -0.1598  0.1254 -0.1767
 3998SOL    HW123456   0.574   2.354   7.107 -0.3639 -1.4689 -0.0733
 3998SOL    HW223457   0.676   2.251   7.151 -1.4326 -0.3262 -1.3605
 3999SOL     OW23458   1.737   0.884  11.525  0.0628 -0.4893 -0.1186
 3999SOL    HW123459   1.709   0.820  11.459 -0.8938 -0.3002  0.1050
 3999SOL    HW223460   1.785   0.830  11.587 -0.0680 -0.3509  0.1039
 4000SOL     OW23461   4.060   2.973   5.334 -0.0283 -0.4901 -0.3147
 4000SOL    HW123462   4.037   2.943   5.246 -0.6328  0.3485 -0.4427
 4000SOL    HW223463   3.977   2.980   5.381  1.5598  1.3350  2.2213
 4001SOL     OW23464   2.305   3.824   8.314  0.0704  0.1239 -0.0363
 4001SOL    HW123465   2.252   3.795   8.388  1.3293 -1.3236  0.3037
 4001SOL    HW223466   2.393   3.789   8.330 -0.5690 -1.2871  0.3890
 4002SOL     OW23467   1.882   3.810  17.639 -0.0950  0.5294  0.1403
 4002SOL    HW123468   1.791   3.796  17.664  1.0907 -1.9148  3.0094
 4002SOL    HW223469   1.886   3.799  17.544  0.2253 -1.3369  0.3701
 4003SOL     OW23470   3.220   2.112  13.375 -0.6952  0.0740 -0.3944
 4003SOL    HW123471   3.224   2.018  13.390  1.4021  0.3071  0.4548
 4003SOL    HW223472   3.178   2.150  13.452 -0.0523  1.0347 -0.5220
 4004SOL     OW23473   3.212   0.340  13.292 -0.6363 -0.1762  0.1206
 4004SOL    HW123474   3.138   0.389  13.328 -1.3563 -2.0722  1.2271
 4004SOL    HW223475   3.250   0.309  13.374  0.3811 -0.6558 -0.5252
 4005SOL     OW23476   3.393   1.548   4.843  0.0750 -0.0701  0.4271
 4005SOL    HW123477   3.337   1.492   4.789  1.4874 -0.5079 -0.5795
 4005SOL    HW223478   3.453   1.579   4.776 -0.0526 -2.0757 -0.6168
 4006SOL     OW23479   1.094   0.188   8.858 -0.4383  0.1667 -0.1429
 4006SOL    HW123480   1.039   0.261   8.886 -1.5787 -0.8901  0.3612
 4006SOL    HW223481   1.025   0.124   8.873  1.3171 -2.0104 -1.3415
 4007SOL     OW23482   0.735   0.127  15.350  0.2490 -0.5122  0.6667
 4007SOL    HW123483   0.795   0.183  15.300 -0.6152 -0.2281 -0.0599
 4007SOL    HW223484   0.662   0.110  15.290  0.2259  2.6617 -0.2409
 4008SOL     OW23485   1.490   1.085  12.943  0.0631  0.5700  0.0976
 4008SOL    HW123486   1.410   1.035  12.930  0.0550  1.1018 -1.8041
 4008SOL    HW223487   1.456   1.175  12.950  0.2161  0.4701  2.1313
 4009SOL     OW23488   0.992   3.413   5.828  0.0191 -0.9063  0.2439
 4009SOL    HW123489   0.989   3.407   5.733 -0.1659  2.9724  0.0012
 4009SOL    HW223490   1.084   3.403   5.854 -0.2584 -3.9321  0.0411
 4010SOL     OW23491   2.747   3.535   1.443  0.0756  0.1718  0.3974
 4010SOL    HW123492   2.804   3.595   1.492 -0.3732  0.1922  0.8986
 4010SOL    HW223493   2.811   3.484   1.394  0.6392  1.5487 -0.3174
 4011SOL     OW23494   4.552   0.781   6.076  0.3902 -0.5710 -0.2721
 4011SOL    HW123495   4.483   0.763   6.139  0.5588 -0.6460 -0.1084
 4011SOL    HW223496   4.621   0.728   6.116  1.2717  0.8383  0.0686
 4012SOL     OW23497   0.969   3.849   9.121 -0.4312  0.5030  0.4929
 4012SOL    HW123498   0.938   3.887   9.204  0.2004  2.6037 -0.2168
 4012SOL    HW223499   0.889   3.855   9.069 -0.8026 -1.2363  0.8694
 4013SOL     OW23500   4.701   0.460   0.202  0.6266  0.7521 -0.9065
 4013SOL    HW123501   4.619   0.493   0.237 -1.4411 -5.1515 -0.1860
 4013SOL    HW223502   0.046   0.492   0.267  0.0179 -0.4841  0.2711
 4014SOL     OW23503   0.973   4.715   0.389  0.3273  0.6556 -0.1895
 4014SOL    HW123504   0.897   0.046   0.359 -0.5558 -0.7973 -0.3245
 4014SOL    HW223505   1.048   0.057   0.392 -0.5999  1.8889 -1.4871
 4015SOL     OW23506   2.681   2.533   3.335  0.0347 -0.4968  0.3286
 4015SOL    HW123507   2.647   2.447   3.357 -1.0969 -0.3377 -0.8037
 4015SOL    HW223508   2.647   2.542   3.246 -0.3255  2.6279  0.7956
 4016SOL     OW23509   2.034   2.301  14.865  0.4829  0.0599 -0.3621
 4016SOL    HW123510   2.037   2.275  14.772 -0.2363 -0.0447 -0.3587
 4016SOL    HW223511   2.034   2.216  14.910  2.0768  0.3368  0.1486
 4017SOL     OW23512   3.660   2.155  14.552  0.3363  0.1722 -0.4135
 4017SOL    HW123513   3.638   2.148  14.645 -3.6953 -0.9597 -1.4593
 4017SOL    HW223514   3.751   2.138  14.577 -0.0466 -3.0297 -1.2154
 4018SOL     OW23515   0.059   2.741   3.518 -0.1745  0.2257  0.1595
 4018SOL    HW123516   0.107   2.824   3.525  0.9048 -0.5001  1.2991
 4018SOL    HW223517   0.096   2.689   3.589  0.7660 -0.3580 -0.7616
 4019SOL     OW23518   1.055   2.795  14.888 -0.1776 -0.2558  0.4269
 4019SOL    HW123519   1.050   2.830  14.799  2.6335 -2.2476 -0.5279
 4019SOL    HW223520   1.003   2.859  14.936 -1.4041 -1.8947  1.2774
 4020SOL     OW23521   1.044   0.626  11.650  0.0427 -0.1270 -0.2647
 4020SOL    HW123522   0.991   0.704  11.635  0.3307 -0.1278 -1.2571
 4020SOL    HW223523   0.979   0.557  11.653 -0.6771  0.6142  1.0775
 4021SOL     OW23524   4.386   2.672   6.426 -0.0316  0.0836  0.2564
 4021SOL    HW123525   4.348   2.756   6.450 -1.8748 -0.5633 -0.4531
 4021SOL    HW223526   4.470   2.708   6.397  0.3273 -0.2297  0.9208
 4022SOL     OW23527   2.410   1.992   5.688  0.2920 -0.3510  0.2460
 4022SOL    HW123528   2.407   1.897   5.701  1.1940 -0.3441  0.4945
 4022SOL    HW223529   2.396   1.983   5.593  0.2597  1.5014  0.0911
 4023SOL     OW23530   4.299   3.746   8.890 -0.6347 -0.4156 -0.4354
 4023SOL    HW123531   4.251   3.794   8.957  3.1572  1.1955  1.1216
 4023SOL    HW223532   4.327   3.808   8.823  1.5995 -0.1195  0.7787
 4024SOL     OW23533   1.327   1.801   2.694 -0.7153 -0.1273  0.0365
 4024SOL    HW123534   1.286   1.732   2.643 -0.3167  1.8199 -2.9079
 4024SOL    HW223535   1.322   1.880   2.640 -1.3247  0.0457  0.3465
 4025SOL     OW23536   2.791   3.006   7.653  0.1360  0.6016 -0.1085
 4025SOL    HW123537   2.747   3.087   7.628 -1.8022 -0.7915 -1.2844
 4025SOL    HW223538   2.862   3.028   7.713 -0.4549  0.4528  0.6525
 4026SOL     OW23539   1.936   2.177   5.265 -0.2994 -0.1580 -0.0892
 4026SOL    HW123540   1.910   2.122   5.191  0.0432 -0.6490  0.1546
 4026SOL    HW223541   1.943   2.264   5.227  0.8998 -0.7049 -1.1332
 4027SOL     OW23542   3.649   1.427   0.881  0.2479  0.5251  0.3312
 4027SOL    HW123543   3.657   1.397   0.972  1.5284  0.3520  0.1625
 4027SOL    HW223544   3.556   1.428   0.857  0.0838  1.0856  0.9885
 4028SOL     OW23545   1.367   3.368   8.123 -0.1308  0.5721  0.4676
 4028SOL    HW123546   1.356   3.374   8.028 -2.7131 -0.9029  0.6765
 4028SOL    HW223547   1.462   3.375   8.136  0.0278 -1.0069  0.1144
 4029SOL     OW23548   2.339   3.691   5.670 -0.2121 -1.0328  0.0623
 4029SOL    HW123549   2.345   3.602   5.635  1.1386 -1.2724  0.9180
 4029SOL    HW223550   2.244   3.694   5.679  0.0192  1.2162  1.7342
 4030SOL     OW23551   1.627   3.115   5.830  0.0829  0.4014  0.1097
 4030SOL    HW123552   1.631   3.020   5.843 -1.9365  0.4370  0.9999
 4030SOL    HW223553   1.596   3.126   5.740 -0.3066  2.4612  0.5049
 4031SOL     OW23554   3.511   4.353   5.869 -0.4280 -0.6011  0.1273
 4031SOL    HW123555   3.426   4.308   5.872 -0.7533 -0.0833 -1.3028
 4031SOL    HW223556   3.556   4.295   5.807 -0.7751 -0.8375  0.0928
 4032SOL     OW23557   1.645   0.732   7.666  0.1791 -0.3074  0.1204
 4032SOL    HW123558   1.632   0.664   7.600  0.2844 -0.8018  0.6141
 4032SOL    HW223559   1.656   0.679   7.745  1.7142 -0.9852 -0.5424
 4033SOL     OW23560   0.692   2.803   7.223 -0.1132 -0.1993 -0.3138
 4033SOL    HW123561   0.709   2.834   7.134  0.4292  1.4339  0.3502
 4033SOL    HW223562   0.740   2.721   7.216  0.4616  0.1824 -0.8864
 4034SOL     OW23563   3.495   3.533  11.712  0.6442  0.7204  0.3751
 4034SOL    HW123564   3.564   3.482  11.756 -0.8437 -0.1013  1.7866
 4034SOL    HW223565   3.416   3.491  11.746  0.3991 -0.8520 -2.1576
 4035SOL     OW23566   3.363   3.493   7.555 -0.2461 -0.3594 -0.6724
 4035SOL    HW123567   3.379   3.545   7.634  0.6117  1.9936 -2.3798
 4035SOL    HW223568   3.321   3.416   7.592  0.5753 -0.3385  0.3023
 4036SOL     OW23569   1.345   1.827  15.867 -0.6592  0.2811 -0.0343
 4036SOL    HW123570   1.251   1.835  15.855 -0.5736  0.7310 -0.4145
 4036SOL    HW223571   1.358   1.761  15.799  1.9688  0.3710  0.3630
 4037SOL     OW23572   1.859   1.504   8.454 -0.4495  0.0940  0.1642
 4037SOL    HW123573   1.942   1.458   8.469 -1.4636 -0.4712  4.0771
 4037SOL    HW223574   1.878   1.593   8.484  0.5819 -0.0769  0.0245
 4038SOL     OW23575   2.183   4.563  13.829  0.0696 -0.4033  0.0563
 4038SOL    HW123576   2.103   4.554  13.777  0.1911 -0.5608 -0.1046
 4038SOL    HW223577   2.160   4.523  13.912  1.3629 -0.0133  0.6016
 4039SOL     OW23578   1.831   2.647   7.177 -0.3581  0.0441  0.7215
 4039SOL    HW123579   1.847   2.737   7.148  1.9604 -0.6400 -0.1728
 4039SOL    HW223580   1.903   2.626   7.236  1.0851  0.7967 -0.7400
 4040SOL     OW23581   0.543   4.660   8.009 -0.1925  0.1872 -0.1128
 4040SOL    HW123582   0.538   4.705   8.093  1.7270  1.2788 -0.5606
 4040SOL    HW223583   0.459   4.617   8.021  0.6363 -0.9426  1.5119
 4041SOL     OW23584   3.206   0.936   2.398 -0.4178  0.0126  0.2684
 4041SOL    HW123585   3.281   0.892   2.438 -0.3881 -1.0609 -0.9568
 4041SOL    HW223586   3.229   0.918   2.307 -0.7477 -0.3104  0.2446
 4042SOL     OW23587   3.079   2.845  10.999  0.1901  0.0178 -0.3022
 4042SOL    HW123588   3.086   2.901  11.076  2.3969 -2.9065  1.5861
 4042SOL    HW223589   3.085   2.758  11.038  0.4467  1.0109  1.8481
 4043SOL     OW23590   3.664   3.478   7.661  0.7511 -0.4523  0.5408
 4043SOL    HW123591   3.673   3.487   7.566 -1.9455  3.8134  0.7326
 4043SOL    HW223592   3.715   3.555   7.685  0.5293 -0.5928  1.4571
 4044SOL     OW23593   1.857   1.408   6.674 -0.2432  0.1264 -0.2872
 4044SOL    HW123594   1.847   1.343   6.604  0.4081 -1.4557  1.0915
 4044SOL    HW223595   1.831   1.482   6.619 -0.8444 -1.1896 -1.7762
 4045SOL     OW23596   2.516   2.061   9.419 -0.2455 -0.0885  0.8674
 4045SOL    HW123597   2.472   2.146   9.409  0.9662  0.4261 -0.1230
 4045SOL    HW223598   2.528   2.058   9.514  0.2687 -2.1020  0.7284
 4046SOL     OW23599   2.176   3.208  14.259 -0.5881 -0.0080  0.4434
 4046SOL    HW123600   2.120   3.188  14.184  0.4148  0.1368 -0.3568
 4046SOL    HW223601   2.124   3.181  14.334 -0.1493  2.1019  1.5071
 4047SOL     OW23602   3.252   0.979   3.544 -0.1464  0.0513  0.2806
 4047SOL    HW123603   3.228   0.886   3.537  1.3235 -0.3916  1.0276
 4047SOL    HW223604   3.178   1.013   3.494 -2.3017  0.3598  3.6557
 4048SOL     OW23605   3.541   3.812   5.856 -0.2856  0.2186  0.2646
 4048SOL    HW123606   3.509   3.788   5.943  1.5669 -2.8787  0.0828
 4048SOL    HW223607   3.628   3.846   5.880  0.7418 -2.0463 -0.2456
 4049SOL     OW23608   0.728   3.625   1.788 -0.5418  0.3939 -0.5540
 4049SOL    HW123609   0.782   3.629   1.709 -1.7900 -0.1753 -1.4400
 4049SOL    HW223610   0.644   3.660   1.756 -0.4839  0.8966 -0.1613
 4050SOL     OW23611   2.469   4.340   9.242 -0.1866 -0.4752 -0.3338
 4050SOL    HW123612   2.555   4.351   9.201  0.3211  1.5863  1.2886
 4050SOL    HW223613   2.462   4.256   9.287 -1.0911  0.7023  1.7536
 4051SOL     OW23614   3.578   1.712  10.229  0.1736 -0.1577  0.0331
 4051SOL    HW123615   3.616   1.625  10.241  0.2302 -0.1590 -0.1491
 4051SOL    HW223616   3.650   1.749  10.178  0.2960  0.2990  0.5441
 4052SOL     OW23617   0.253   2.474   8.152 -0.1736  0.5041 -0.4866
 4052SOL    HW123618   0.158   2.489   8.147 -0.1032  0.3666 -2.1794
 4052SOL    HW223619   0.284   2.564   8.143 -0.5300  0.5948 -0.8089
 4053SOL     OW23620   4.302   1.821  15.988  0.2031  0.2634 -0.3024
 4053SOL    HW123621   4.233   1.760  15.960 -0.9870  0.8559  1.3174
 4053SOL    HW223622   4.379   1.788  15.941 -0.5599 -1.1923 -0.5653
 4054SOL     OW23623   2.788   0.200   4.414  0.0919 -1.1312  0.1456
 4054SOL    HW123624   2.720   0.150   4.370 -1.3386  0.8860  0.0423
 4054SOL    HW223625   2.821   0.253   4.341 -1.6464  2.0574  1.6746
 4055SOL     OW23626   4.528   1.514   7.981 -0.6600  0.0740  0.2435
 4055SOL    HW123627   4.523   1.530   8.075  0.7824  1.6626  0.0488
 4055SOL    HW223628   4.439   1.540   7.957 -0.3145  2.8763  2.0796
 4056SOL     OW23629   0.316   1.748   1.609  0.1082 -0.0781  0.0688
 4056SOL    HW123630   0.375   1.779   1.678 -1.9628  2.3186  0.7408
 4056SOL    HW223631   0.309   1.833   1.567 -1.8256  0.4112  1.3571
 4057SOL     OW23632   4.079   3.496   1.254  0.8081 -0.6258  0.0729
 4057SOL    HW123633   4.017   3.447   1.200 -1.1831  1.2975  0.6561
 4057SOL    HW223634   4.049   3.586   1.260 -5.0310 -2.5784 -0.0461
 4058SOL     OW23635   3.883   3.185   3.992 -0.5114 -0.0111  0.0075
 4058SOL    HW123636   3.838   3.195   4.077 -2.3623 -0.8313 -0.8693
 4058SOL    HW223637   3.834   3.253   3.945 -0.7940 -0.8022 -0.8317
 4059SOL     OW23638   1.507   3.564   3.875 -0.0227 -0.5266 -0.0126
 4059SOL    HW123639   1.418   3.546   3.847 -0.3309 -0.3438  0.8478
 4059SOL    HW223640   1.516   3.650   3.834 -0.7257 -0.2536  0.4142
 4060SOL     OW23641   1.229   2.186   5.888  0.1846 -0.1213  0.0458
 4060SOL    HW123642   1.258   2.156   5.802  0.4898  2.4309 -0.7547
 4060SOL    HW223643   1.306   2.160   5.938 -1.2657 -0.2415  2.2338
 4061SOL     OW23644   0.845   4.479   7.401 -0.2867  0.4715 -0.0614
 4061SOL    HW123645   0.767   4.518   7.361  0.9743  0.8173 -2.1433
 4061SOL    HW223646   0.802   4.401   7.437 -1.5190  1.8177  1.3499
 4062SOL     OW23647   1.796   1.908   8.017 -0.0926 -0.9871 -0.0798
 4062SOL    HW123648   1.711   1.866   8.034  0.5452 -1.5767  1.6223
 4062SOL    HW223649   1.784   1.933   7.925 -0.2457 -0.8817 -0.0314
 4063SOL     OW23650   4.570   1.869   4.294  0.2246  0.4890  0.5219
 4063SOL    HW123651   4.591   1.853   4.202 -1.2558  1.8719 -0.0623
 4063SOL    HW223652   4.514   1.944   4.276  0.9327  1.1991  1.2741
 4064SOL     OW23653   2.335   3.569   4.014  0.0168 -0.6419 -0.4778
 4064SOL    HW123654   2.395   3.639   3.987  1.2775 -2.4686 -2.4080
 4064SOL    HW223655   2.391   3.494   3.993 -2.2240 -1.7924 -2.3296
 4065SOL     OW23656   2.988   0.069   7.245 -0.3370 -0.1287 -0.0750
 4065SOL    HW123657   3.052   0.007   7.210 -2.8729 -2.3854 -0.7132
 4065SOL    HW223658   2.935   0.004   7.292 -0.6264  0.5173  0.4832
 4066SOL     OW23659   2.857   2.225   5.354 -0.0675  0.2196 -0.0835
 4066SOL    HW123660   2.787   2.240   5.290 -0.3200 -1.1314 -0.1125
 4066SOL    HW223661   2.917   2.300   5.350  0.7735 -0.5068 -0.8990
 4067SOL     OW23662   0.472   2.495  14.185  0.5031 -0.4880 -0.2395
 4067SOL    HW123663   0.427   2.570  14.147  4.3002  2.1554  0.4874
 4067SOL    HW223664   0.434   2.423  14.134  2.1994 -0.5503 -1.4486
 4068SOL     OW23665   0.718   1.041   8.277 -0.3906  0.2141 -0.2036
 4068SOL    HW123666   0.786   0.990   8.233 -0.2423  0.5661 -0.3810
 4068SOL    HW223667   0.771   1.080   8.347  1.7415 -3.5379  0.2406
 4069SOL     OW23668   0.670   0.679   8.915 -0.0860  0.0974 -0.1264
 4069SOL    HW123669   0.725   0.669   8.993  0.1686  1.3751 -0.1387
 4069SOL    HW223670   0.691   0.594   8.878 -0.0080 -0.4804  1.2400
 4070SOL     OW23671   2.749   4.424   6.908 -0.1942  0.6747 -0.5942
 4070SOL    HW123672   2.730   4.333   6.932 -2.0518  1.0403 -0.6558
 4070SOL    HW223673   2.841   4.441   6.925 -0.4167  2.3514 -1.0462
 4071SOL     OW23674   4.292   1.464   1.231 -0.2361  0.4873 -0.4504
 4071SOL    HW123675   4.376   1.425   1.255 -0.1529  0.7959 -0.2421
 4071SOL    HW223676   4.295   1.548   1.277  3.6667  0.0154  0.1769
 4072SOL     OW23677   0.930   4.558   0.173 -0.1356 -0.2590  0.1281
 4072SOL    HW123678   0.952   4.577   0.264 -0.4386  0.2730  0.0901
 4072SOL    HW223679   0.835   4.562   0.187 -0.0592  1.0845  0.2338
 4073SOL     OW23680   3.537   3.629  16.022 -0.0586  0.4517 -0.5359
 4073SOL    HW123681   3.448   3.637  16.057  1.2333  0.6894  2.6961
 4073SOL    HW223682   3.583   3.590  16.096  0.4169 -1.1506 -1.6860
 4074SOL     OW23683   1.564   3.290  15.753 -0.3639 -0.4766  0.6844
 4074SOL    HW123684   1.480   3.282  15.799 -1.6203  0.6387 -1.4299
 4074SOL    HW223685   1.609   3.361  15.798 -0.3142  0.3362 -0.6716
 4075SOL     OW23686   4.078   0.826   6.685 -0.2116  0.1242  0.0907
 4075SOL    HW123687   4.024   0.747   6.689 -0.8159  0.5204 -0.1104
 4075SOL    HW223688   4.139   0.809   6.756 -0.5335  0.6777  0.5009
 4076SOL     OW23689   0.361   1.903   2.753  0.6464 -0.0036 -0.6837
 4076SOL    HW123690   0.456   1.914   2.754  0.8743 -1.8642 -1.7276
 4076SOL    HW223691   0.344   1.854   2.673 -0.0348  0.4979 -0.8505
 4077SOL     OW23692   1.264   0.213  15.562  0.4721 -0.1633  0.2750
 4077SOL    HW123693   1.336   0.158  15.593  0.6647 -0.6195 -0.9849
 4077SOL    HW223694   1.311   0.294  15.541 -1.1262 -0.1052 -3.0832
 4078SOL     OW23695   3.097   1.436  11.441  0.3885  0.4285  0.1991
 4078SOL    HW123696   3.011   1.396  11.431  0.5936  0.1501 -0.4663
 4078SOL    HW223697   3.136   1.365  11.491 -2.3744  0.9529  3.1200
 4079SOL     OW23698   0.587   0.340   4.356 -0.2169 -0.1042  0.9134
 4079SOL    HW123699   0.556   0.343   4.265 -0.6125 -0.6547  1.0292
 4079SOL    HW223700   0.681   0.356   4.349 -0.0318 -1.3985  0.4440
 4080SOL     OW23701   2.424   3.792   2.663  0.8916  0.2899  0.6532
 4080SOL    HW123702   2.489   3.725   2.683 -0.7660 -1.2449  0.8903
 4080SOL    HW223703   2.464   3.875   2.691  0.3723  0.8479 -0.2595
 4081SOL     OW23704   1.545   1.370   4.426 -0.4525  0.0284  0.1418
 4081SOL    HW123705   1.498   1.424   4.363 -0.8848  0.2233  0.6296
 4081SOL    HW223706   1.555   1.433   4.498  2.8734  2.1752 -2.2154
 4082SOL     OW23707   0.158   4.191  14.170 -0.1265  0.1658 -0.3004
 4082SOL    HW123708   0.174   4.107  14.127 -1.8967  0.7959 -2.1799
 4082SOL    HW223709   0.203   4.184  14.254 -1.8762  0.0506  0.6305
 4083SOL     OW23710   3.310   1.901   9.133 -0.1935 -0.4365  0.2390
 4083SOL    HW123711   3.247   1.841   9.094 -1.3133  1.3548 -0.7231
 4083SOL    HW223712   3.267   1.986   9.123  0.1961 -0.1835  0.7219
 4084SOL     OW23713   1.693   3.447  14.098 -0.3603 -0.5719 -0.0735
 4084SOL    HW123714   1.630   3.438  14.027 -0.6446 -2.3686  0.3929
 4084SOL    HW223715   1.645   3.505  14.158 -1.7732 -2.2215  0.3958
 4085SOL     OW23716   2.327   2.378   3.257  0.0385  0.0365  0.2699
 4085SOL    HW123717   2.335   2.388   3.162 -1.6260 -0.8418  0.0433
 4085SOL    HW223718   2.241   2.418   3.271 -0.5611 -1.3059  0.3999
 4086SOL     OW23719   1.304   2.663   3.856  0.3113  0.6380 -0.5009
 4086SOL    HW123720   1.290   2.573   3.885 -1.3085  0.4735 -1.7707
 4086SOL    HW223721   1.215   2.699   3.863  0.7289  1.5504  0.0412
 4087SOL     OW23722   3.515   4.181  16.319 -0.0388 -0.2871  0.1677
 4087SOL    HW123723   3.539   4.138  16.400 -0.5969  0.0801  0.5291
 4087SOL    HW223724   3.603   4.201  16.287  0.4991 -0.0994  1.7921
 4088SOL     OW23725   3.622   4.169  17.154  0.1163  0.1448 -0.0528
 4088SOL    HW123726   3.555   4.110  17.189  1.0658 -0.8375  0.0925
 4088SOL    HW223727   3.592   4.256  17.181 -1.0183  0.1971 -1.4917
 4089SOL     OW23728   2.503   1.843   3.639 -0.3985 -0.6480  0.5748
 4089SOL    HW123729   2.487   1.937   3.631  0.3876 -0.5397  0.2379
 4089SOL    HW223730   2.424   1.813   3.596 -0.2941  0.1782 -0.1941
 4090SOL     OW23731   2.319   2.084   4.275 -0.4658  0.1458 -0.4823
 4090SOL    HW123732   2.261   2.156   4.299  1.7202  0.9698  2.2915
 4090SOL    HW223733   2.281   2.070   4.188 -1.3358  1.8916 -0.3814
 4091SOL     OW23734   2.216   2.922   6.226  0.2262  0.1785 -0.1557
 4091SOL    HW123735   2.151   2.938   6.295 -0.9837 -1.0151 -1.0262
 4091SOL    HW223736   2.163   2.917   6.146  0.5162  0.3232 -0.3594
 4092SOL     OW23737   1.906   2.919   7.126 -0.0524 -0.2904  0.1907
 4092SOL    HW123738   1.874   2.938   7.214  2.0970 -2.6951  1.4922
 4092SOL    HW223739   1.844   2.973   7.077  1.3042 -1.0719 -2.3977
 4093SOL     OW23740   3.045   1.867   5.383  0.0914 -0.3100  0.1126
 4093SOL    HW123741   3.083   1.780   5.393  0.8018  0.2897  2.7118
 4093SOL    HW223742   2.995   1.863   5.302  0.5361 -2.2901 -0.0503
 4094SOL     OW23743   0.859   0.202   8.021  0.1149  0.4310  0.1880
 4094SOL    HW123744   0.809   0.278   7.992 -2.2227 -0.5340  1.7294
 4094SOL    HW223745   0.947   0.234   8.042  1.0326 -1.3263 -1.0413
 4095SOL     OW23746   0.593   1.431   7.879 -0.2613 -0.1127  0.0246
 4095SOL    HW123747   0.520   1.446   7.940 -1.3488 -1.0025 -1.0515
 4095SOL    HW223748   0.630   1.345   7.899 -0.8560 -0.6243 -1.0897
 4096SOL     OW23749   0.465   4.713  13.595  0.2626 -0.0726 -0.2256
 4096SOL    HW123750   0.485   0.049  13.672  1.4171  1.5666 -1.6671
 4096SOL    HW223751   0.466   4.623  13.630  0.1903  0.2272  0.5628
 4097SOL     OW23752   3.773   4.189  13.376 -0.3923  0.7145  0.1061
 4097SOL    HW123753   3.853   4.142  13.401 -2.4479 -1.1150  3.1166
 4097SOL    HW223754   3.800   4.273  13.413 -0.2903  0.9845 -0.5802
 4098SOL     OW23755   2.593   3.615   2.790  0.0532 -0.5673  0.0243
 4098SOL    HW123756   2.615   3.524   2.770  0.2986 -0.5018  0.0006
 4098SOL    HW223757   2.663   3.622   2.855  1.5330 -3.5182 -1.2485
 4099SOL     OW23758   2.488   3.807   4.807  0.0022 -0.1300  0.1934
 4099SOL    HW123759   2.570   3.828   4.764 -0.5399  1.8737  0.1581
 4099SOL    HW223760   2.513   3.776   4.894  2.9836  0.5415 -0.4412
 4100SOL     OW23761   2.135   1.999   3.697 -0.2274  0.0525 -0.1937
 4100SOL    HW123762   2.138   1.905   3.680  1.3066  0.1809 -0.6234
 4100SOL    HW223763   2.062   2.004   3.758 -3.0936 -0.0049 -3.5872
 4101SOL     OW23764   2.470   4.592   1.356  0.2064  0.4284  0.1498
 4101SOL    HW123765   2.376   4.577   1.363  0.3727  0.1135  1.6193
 4101SOL    HW223766   2.469   4.683   1.326 -2.1975  0.7831  1.3397
 4102SOL     OW23767   2.261   1.228   8.992  0.0842  0.9588  0.3275
 4102SOL    HW123768   2.249   1.318   8.959  3.3299  1.2867  0.1003
 4102SOL    HW223769   2.202   1.185   8.930  0.6270  0.2827  0.2852
 4103SOL     OW23770   0.209   3.303   9.026  0.3478 -0.2568 -0.2350
 4103SOL    HW123771   0.130   3.308   9.080  1.5405 -2.3567  1.7046
 4103SOL    HW223772   0.249   3.223   9.060  1.4207  0.4281  0.1387
 4104SOL     OW23773   0.214   1.264  15.229 -0.1833  0.2633 -0.1656
 4104SOL    HW123774   0.272   1.306  15.293  1.7197 -1.0386 -1.0457
 4104SOL    HW223775   0.183   1.198  15.291  1.3530 -0.1474  0.1593
 4105SOL     OW23776   0.787   2.370   3.371 -0.2361 -0.1156  0.1416
 4105SOL    HW123777   0.780   2.460   3.338  2.6989 -0.9908 -2.8945
 4105SOL    HW223778   0.699   2.363   3.408  0.2560 -0.5361  1.2514
 4106SOL     OW23779   3.338   3.805  17.364 -0.1078 -0.0247 -0.3654
 4106SOL    HW123780   3.287   3.787  17.443 -0.6263  0.5087 -0.5783
 4106SOL    HW223781   3.273   3.780  17.299 -0.2660  0.7254 -0.4983
 4107SOL     OW23782   4.392   3.822   4.701  0.0363  0.5103 -0.2007
 4107SOL    HW123783   4.408   3.738   4.744 -2.3539 -0.6353 -1.5369
 4107SOL    HW223784   4.434   3.881   4.764 -0.7589 -2.0647  2.7414
 4108SOL     OW23785   4.609   4.469   5.240 -0.4379 -0.2905  0.5241
 4108SOL    HW123786   4.696   4.437   5.264 -1.2549 -0.9223  2.5931
 4108SOL    HW223787   4.631   4.562   5.249  0.3519 -0.1947 -2.2197
 4109SOL     OW23788   0.242   3.941   3.020  0.1223 -0.1643 -0.8514
 4109SOL    HW123789   0.214   3.911   2.934  1.1894 -0.1214 -1.2257
 4109SOL    HW223790   0.228   3.861   3.071 -0.2619 -0.3214 -1.2025
 4110SOL     OW23791   1.657   0.541   7.846 -0.7344  0.8196 -0.2676
 4110SOL    HW123792   1.723   0.471   7.849 -1.2306  0.4233  1.5799
 4110SOL    HW223793   1.605   0.504   7.775 -1.7131 -0.4204  1.1016
 4111SOL     OW23794   3.915   4.544   1.832  0.3850  0.1856 -0.7775
 4111SOL    HW123795   3.848   4.492   1.787 -0.4124 -0.8461  1.6131
 4111SOL    HW223796   3.967   4.571   1.756 -2.6363  1.3347 -2.4681
 4112SOL     OW23797   3.890   1.052   4.292  0.5931  0.3443 -0.0244
 4112SOL    HW123798   3.804   1.037   4.332  0.9939 -0.4931  0.5350
 4112SOL    HW223799   3.942   0.973   4.310  1.1613  0.8473  0.5563
 4113SOL     OW23800   2.599   2.833   4.262  0.1613 -0.3274 -0.1536
 4113SOL    HW123801   2.682   2.787   4.273  0.4494 -0.1950 -1.8883
 4113SOL    HW223802   2.614   2.916   4.307  0.9702 -0.5656  0.0152
 4114SOL     OW23803   1.278   3.261  15.603  0.4760  0.3734 -0.4501
 4114SOL    HW123804   1.292   3.167  15.601  1.0771  0.4076  1.7678
 4114SOL    HW223805   1.366   3.283  15.572  0.4815 -3.8242 -3.3476
 4115SOL     OW23806   2.662   3.791  12.214  0.1436  0.1448  0.1809
 4115SOL    HW123807   2.620   3.870  12.247  1.8357  1.2228 -0.2762
 4115SOL    HW223808   2.714   3.822  12.141  0.1762 -2.7925 -1.0367
 4116SOL     OW23809   3.700   1.455   4.876 -0.4633 -0.0835 -0.1396
 4116SOL    HW123810   3.727   1.543   4.903 -1.1637 -0.1142  0.6977
 4116SOL    HW223811   3.621   1.479   4.828  0.8538 -0.3591 -2.4094
 4117SOL     OW23812   0.191   1.672   5.727 -0.2604  0.6883 -0.8645
 4117SOL    HW123813   0.278   1.640   5.702 -0.8483 -0.2604 -1.7224
 4117SOL    HW223814   0.212   1.765   5.732  0.2410  0.5696 -0.7821
 4118SOL     OW23815   2.027   3.098  14.518 -0.0350  0.4235 -0.4646
 4118SOL    HW123816   1.989   3.064  14.437 -0.6268  1.4904 -0.6412
 4118SOL    HW223817   2.008   3.021  14.571  1.5369  0.8363  0.6915
 4119SOL     OW23818   0.268   1.625  12.710  0.5547 -0.4770  0.6447
 4119SOL    HW123819   0.240   1.541  12.675  1.2963 -1.0381  1.3745
 4119SOL    HW223820   0.258   1.613  12.805  1.2039 -0.3768  0.7287
 4120SOL     OW23821   1.194   4.641   7.644  0.1623  0.3049  0.0589
 4120SOL    HW123822   1.204   4.664   7.736  0.9006 -1.0875  0.3237
 4120SOL    HW223823   1.100   4.642   7.626  0.2352  1.4576 -0.2525
 4121SOL     OW23824   3.501   4.488   8.188 -0.4387 -0.5063 -0.5811
 4121SOL    HW123825   3.422   4.523   8.147 -0.3459 -0.6989 -0.9260
 4121SOL    HW223826   3.560   4.555   8.155 -0.8467  0.6622  1.0642
 4122SOL     OW23827   2.368   4.518  13.474 -0.0181 -0.6035  0.1083
 4122SOL    HW123828   2.355   4.450  13.539  0.1862 -0.3392  0.4223
 4122SOL    HW223829   2.364   4.467  13.393 -0.4629 -0.5268  0.0861
 4123SOL     OW23830   1.449   1.359   7.692 -0.0474  0.1529  0.1153
 4123SOL    HW123831   1.503   1.402   7.758  2.0632 -3.4088  0.7396
 4123SOL    HW223832   1.520   1.329   7.636  0.5466 -0.9063  1.4268
 4124SOL     OW23833   1.573   3.166   7.304  0.9491 -0.0152  0.6334
 4124SOL    HW123834   1.630   3.243   7.300  0.6277  0.1527 -0.7565
 4124SOL    HW223835   1.535   3.178   7.391 -2.7583  1.1856 -1.1199
 4125SOL     OW23836   2.537   0.669   9.640  0.0345 -0.0290 -0.0547
 4125SOL    HW123837   2.556   0.588   9.687 -1.1727 -0.1871  0.1610
 4125SOL    HW223838   2.442   0.663   9.627  0.4086 -2.1950 -1.6991
 4126SOL     OW23839   1.580   3.378  12.176 -0.6203 -0.0368  0.5966
 4126SOL    HW123840   1.602   3.366  12.268  0.0759 -0.5479  0.3613
 4126SOL    HW223841   1.492   3.414  12.181 -0.4847  0.6194 -1.3965
 4127SOL     OW23842   3.777   2.804   6.877 -0.0349  0.5705 -0.5050
 4127SOL    HW123843   3.772   2.723   6.927  1.5517  2.1511  2.1766
 4127SOL    HW223844   3.726   2.785   6.798 -1.4145 -0.5668  0.6563
 4128SOL     OW23845   0.482   3.546   2.959  0.9126 -0.2721 -0.8439
 4128SOL    HW123846   0.564   3.583   2.990  0.2553 -0.9640  1.7313
 4128SOL    HW223847   0.457   3.601   2.884  0.6949  2.3328  1.1171
 4129SOL     OW23848   2.262   4.110  10.818  0.8150  0.0005  0.6758
 4129SOL    HW123849   2.254   4.204  10.835 -0.8870 -0.1336  0.6079
 4129SOL    HW223850   2.279   4.107  10.724  1.1798 -2.1872  0.8278
 4130SOL     OW23851   3.347   3.949  15.485  0.5636 -0.2883  0.6323
 4130SOL    HW123852   3.275   3.927  15.425  0.9712 -0.8551  0.3439
 4130SOL    HW223853   3.290   3.977  15.556 -0.0009  3.4324 -1.2729
 4131SOL     OW23854   0.773   1.349   9.532  0.0034  0.0632  0.1014
 4131SOL    HW123855   0.783   1.354   9.627 -0.2876 -2.3520  0.2634
 4131SOL    HW223856   0.823   1.424   9.498 -1.6693  0.9654 -0.3537
 4132SOL     OW23857   2.477   4.452   5.060 -0.9282 -0.0464  0.6368
 4132SOL    HW123858   2.526   4.506   5.122  2.6444 -1.2885 -1.1401
 4132SOL    HW223859   2.499   4.489   4.975  0.4013 -0.1285  0.9495
 4133SOL     OW23860   1.089   1.349   7.418  0.5811 -0.5682  0.1085
 4133SOL    HW123861   1.030   1.331   7.492 -0.3916  0.1070 -0.4977
 4133SOL    HW223862   1.169   1.376   7.463  0.6879  1.6597 -1.4426
 4134SOL     OW23863   2.404   3.096  12.208  0.4121 -0.2361 -0.2182
 4134SOL    HW123864   2.398   3.190  12.223  1.3474  0.0716 -1.7988
 4134SOL    HW223865   2.327   3.067  12.255  0.2446  0.4494 -0.0689
 4135SOL     OW23866   0.494   2.386  13.161  0.0898  0.3517 -0.2647
 4135SOL    HW123867   0.430   2.361  13.228  2.1197  1.6897  2.1488
 4135SOL    HW223868   0.572   2.394  13.214  0.0273 -0.7538  0.0036
 4136SOL     OW23869   1.912   0.908   2.411 -1.0937 -0.2860 -0.5010
 4136SOL    HW123870   2.000   0.917   2.448 -1.8567 -0.7236  1.4128
 4136SOL    HW223871   1.916   0.961   2.331  2.0849  1.3127  0.7229
 4137SOL     OW23872   1.627   0.999   1.757 -0.6077 -0.3177 -0.0619
 4137SOL    HW123873   1.624   1.001   1.853  2.1612 -1.0894  0.0378
 4137SOL    HW223874   1.635   1.094   1.745  1.4526 -0.7736 -2.2330
 4138SOL     OW23875   1.124   0.379   1.148  0.0708 -0.2559  0.0059
 4138SOL    HW123876   1.041   0.358   1.191  0.6565 -1.0225  0.7575
 4138SOL    HW223877   1.185   0.420   1.210  1.5707 -0.7165 -1.1941
 4139SOL     OW23878   2.454   1.722   5.681 -0.4156 -0.4387 -0.1492
 4139SOL    HW123879   2.397   1.672   5.739 -3.1017  1.5084 -1.1503
 4139SOL    HW223880   2.537   1.712   5.728 -0.1308  2.3419 -0.0585
 4140SOL     OW23881   3.270   1.718   2.666  0.3378  0.2390  0.4415
 4140SOL    HW123882   3.221   1.773   2.606 -0.8137 -0.9504  0.3077
 4140SOL    HW223883   3.309   1.781   2.728  0.1484  0.4139  0.3834
 4141SOL     OW23884   0.587   0.433   5.654  0.7915 -0.0296  0.1600
 4141SOL    HW123885   0.595   0.496   5.725  0.9548  0.2239 -0.0851
 4141SOL    HW223886   0.492   0.436   5.641  0.6935 -0.0025  0.8483
 4142SOL     OW23887   2.728   4.147  16.062 -0.1665  0.0611  0.0707
 4142SOL    HW123888   2.785   4.166  15.987 -0.2054  1.4864  0.4035
 4142SOL    HW223889   2.652   4.173  16.012  0.5895 -1.0973 -1.6621
 4143SOL     OW23890   3.686   3.929  16.847 -0.0932 -0.0042  0.3355
 4143SOL    HW123891   3.659   3.909  16.936  3.0961 -3.2886  0.5421
 4143SOL    HW223892   3.779   3.948  16.843  0.0705 -1.0016 -0.7282
 4144SOL     OW23893   0.023   4.070  13.865  0.4608  0.1382  0.1435
 4144SOL    HW123894   0.081   4.145  13.878  0.0043  0.6800 -0.9327
 4144SOL    HW223895   0.086   4.006  13.835 -0.7093 -1.2005  0.5450
 4145SOL     OW23896   3.102   1.158  16.169  0.6384  0.3396  0.5584
 4145SOL    HW123897   3.102   1.174  16.075  0.2507  2.2761  0.8978
 4145SOL    HW223898   3.161   1.083  16.171  2.3928  1.7338  1.2996
 4146SOL     OW23899   1.408   3.245   6.499 -0.0370  0.2376  0.2702
 4146SOL    HW123900   1.467   3.204   6.562 -2.0095 -1.8691  0.7610
 4146SOL    HW223901   1.340   3.283   6.555 -1.8294 -2.0405 -0.3397
 4147SOL     OW23902   2.502   4.090  15.330 -0.0740 -0.5010 -0.5257
 4147SOL    HW123903   2.491   4.102  15.424 -0.1489 -3.7903 -0.1171
 4147SOL    HW223904   2.493   4.181  15.299  0.3700 -0.4482 -0.4936
 4148SOL     OW23905   0.152   3.194   4.247 -0.4279  0.6204  0.2411
 4148SOL    HW123906   0.144   3.257   4.176 -1.9667  1.5059  1.1877
 4148SOL    HW223907   0.061   3.187   4.276 -0.2332 -0.4619  0.5839
 4149SOL     OW23908   3.350   0.381   6.265  0.0610 -0.7057  0.1017
 4149SOL    HW123909   3.287   0.446   6.233 -0.7231 -1.4123  0.2035
 4149SOL    HW223910   3.289   0.310   6.285  1.0564 -1.4901  0.3518
 4150SOL     OW23911   3.789   0.150  13.610 -0.4329  0.4728  0.0228
 4150SOL    HW123912   3.762   0.091  13.680 -1.4409  1.4365  0.4446
 4150SOL    HW223913   3.883   0.142  13.627 -0.8765 -0.6145  2.0302
 4151SOL     OW23914   3.424   1.087   9.472  0.4692  0.2447  0.5938
 4151SOL    HW123915   3.378   1.003   9.466  0.5586  0.1990  0.5421
 4151SOL    HW223916   3.387   1.116   9.555 -2.0544  1.9786 -1.1785
 4152SOL     OW23917   4.164   2.991  10.797  0.1000 -0.2093  0.4981
 4152SOL    HW123918   4.251   2.974  10.762  0.0884 -0.2325  0.4800
 4152SOL    HW223919   4.161   3.086  10.794  0.6423 -0.1559  1.8101
 4153SOL     OW23920   3.470   3.116   6.581  0.0384  0.1546 -0.0392
 4153SOL    HW123921   3.458   3.059   6.505  1.3713 -0.4677  0.2095
 4153SOL    HW223922   3.383   3.103   6.618 -0.3132 -0.1964 -0.9950
 4154SOL     OW23923   1.010   1.928   9.148  0.1253 -0.3418  0.6870
 4154SOL    HW123924   1.060   2.002   9.115 -0.8078  0.0469  0.1274
 4154SOL    HW223925   0.946   1.925   9.077 -1.5443 -1.7038  2.2402
 4155SOL     OW23926   3.184   0.513   5.832  0.1349 -0.2332 -0.5390
 4155SOL    HW123927   3.093   0.529   5.856  0.9359 -1.1660  3.1239
 4155SOL    HW223928   3.188   0.420   5.855  2.6395  0.0084 -0.0491
 4156SOL     OW23929   0.934   3.610   4.873 -0.0316  0.2723  0.6191
 4156SOL    HW123930   0.965   3.587   4.961  0.4143 -0.6895  0.2187
 4156SOL    HW223931   0.896   3.527   4.842 -1.1404  0.4126  1.5927
 4157SOL     OW23932   0.316   3.185   7.158 -0.0619 -0.5465  0.1630
 4157SOL    HW123933   0.274   3.265   7.126  1.2010  0.7642  1.7422
 4157SOL    HW223934   0.405   3.209   7.132 -0.2700  0.7459  0.6215
 4158SOL     OW23935   2.427   4.413   7.438  0.1613 -0.2920  0.0084
 4158SOL    HW123936   2.426   4.322   7.469  0.7604  0.3730  1.9398
 4158SOL    HW223937   2.395   4.454   7.517  0.8674  1.7925 -0.7953
 4159SOL     OW23938   0.998   3.195  16.189 -0.1527 -0.0186  0.5967
 4159SOL    HW123939   1.069   3.240  16.235  2.7449 -0.3128 -3.6041
 4159SOL    HW223940   1.057   3.156  16.125 -1.5320 -0.7806 -0.2188
 4160SOL     OW23941   0.839   1.176   3.652 -0.1468 -0.0589 -0.0509
 4160SOL    HW123942   0.822   1.262   3.692  1.4326  0.3854 -0.3574
 4160SOL    HW223943   0.837   1.129   3.736 -0.3643  0.8483  0.4543
 4161SOL     OW23944   4.357   2.904  15.425  0.2293  0.5363 -0.3070
 4161SOL    HW123945   4.315   2.875  15.506  2.8501  1.8734  1.4976
 4161SOL    HW223946   4.373   2.818  15.386 -0.0892 -0.0236  0.8087
 4162SOL     OW23947   1.157   3.278   6.661 -0.1477  0.2878 -0.0254
 4162SOL    HW123948   1.090   3.340   6.690  0.8608 -0.0258  2.9762
 4162SOL    HW223949   1.156   3.207   6.725  0.8387  0.5799  0.3114
 4163SOL     OW23950   4.032   2.854  11.350  0.0872 -0.3199 -0.1159
 4163SOL    HW123951   4.119   2.814  11.342 -0.0440 -0.4889 -0.6649
 4163SOL    HW223952   4.025   2.819  11.439 -1.6954 -0.4773 -0.3264
 4164SOL     OW23953   4.023   2.734  14.198 -0.1494  0.1457 -0.1419
 4164SOL    HW123954   4.102   2.695  14.236  0.3006  2.7493  1.5531
 4164SOL    HW223955   3.992   2.802  14.257  1.9390 -2.3641  3.8304
 4165SOL     OW23956   0.401   0.239   1.524  0.0057  0.0476  0.3674
 4165SOL    HW123957   0.397   0.334   1.529  0.4209  0.0886 -0.2232
 4165SOL    HW223958   0.387   0.222   1.431  0.0839  1.7067  0.0644
 4166SOL     OW23959   3.802   0.325  14.204  0.2261 -0.7951  0.1457
 4166SOL    HW123960   3.767   0.284  14.124 -0.3888 -2.3430  1.2119
 4166SOL    HW223961   3.757   0.280  14.275 -0.3448 -3.6527 -1.9920
 4167SOL     OW23962   2.729   2.471  14.831 -0.0715 -0.1673  0.0072
 4167SOL    HW123963   2.807   2.525  14.812  1.3049 -2.5858 -1.1814
 4167SOL    HW223964   2.662   2.534  14.859 -0.1985  0.0516 -0.7895
 4168SOL     OW23965   0.833   2.467  17.432  0.0585 -0.1137  0.2765
 4168SOL    HW123966   0.755   2.516  17.406  0.1088  0.5884  1.4797
 4168SOL    HW223967   0.882   2.536  17.475  1.3051 -0.8299  0.0032
 4169SOL     OW23968   1.668   2.403   4.859 -0.4453 -0.3954  0.2046
 4169SOL    HW123969   1.638   2.374   4.945  1.4956 -2.2282  0.2862
 4169SOL    HW223970   1.622   2.486   4.844 -2.3149 -0.9846  2.7409
 4170SOL     OW23971   4.487   2.228   3.912  0.3333 -0.5871  0.0319
 4170SOL    HW123972   4.512   2.142   3.879 -1.6055 -1.1455  0.0453
 4170SOL    HW223973   4.427   2.268   3.849  0.0409  0.6949  1.1227
 4171SOL     OW23974   2.540   2.515   5.986 -0.8430 -0.1363 -0.0741
 4171SOL    HW123975   2.601   2.580   5.952 -1.1981 -0.1279 -0.7190
 4171SOL    HW223976   2.530   2.464   5.905  2.2170  0.1250 -0.5899
 4172SOL     OW23977   2.381   3.014   3.691  0.4629  0.6335 -0.1289
 4172SOL    HW123978   2.304   3.065   3.715 -0.4984 -0.5206 -0.7543
 4172SOL    HW223979   2.339   2.930   3.673  0.4876  0.5998 -0.0297
 4173SOL     OW23980   3.786   2.357   5.926 -0.1302 -0.0855  0.2315
 4173SOL    HW123981   3.741   2.334   5.845 -0.5183  0.3503  0.3172
 4173SOL    HW223982   3.839   2.430   5.893  0.6208 -0.3374  0.9057
 4174SOL     OW23983   1.809   1.578   6.481 -0.8618 -0.1848  0.2235
 4174SOL    HW123984   1.835   1.566   6.389  3.7274 -2.7878  1.8217
 4174SOL    HW223985   1.783   1.669   6.473 -1.0934  0.0116  3.2180
 4175SOL     OW23986   2.039   4.477  14.038 -0.2768 -0.2711 -0.1147
 4175SOL    HW123987   2.080   4.421  14.104 -0.0676  0.3414  0.2667
 4175SOL    HW223988   1.978   4.526  14.092  0.0006 -0.7584  0.6413
 4176SOL     OW23989   1.221   0.821   9.154  0.5524  0.1153  0.2014
 4176SOL    HW123990   1.263   0.884   9.096  0.9483  0.9525  1.3982
 4176SOL    HW223991   1.301   0.769   9.165  0.6237 -0.2333 -2.0623
 4177SOL     OW23992   2.108   2.261   7.818 -0.0081 -0.1839 -0.2157
 4177SOL    HW123993   2.170   2.306   7.875 -2.0157  1.9119  0.2970
 4177SOL    HW223994   2.069   2.333   7.768 -1.4002 -0.8881 -0.1415
 4178SOL     OW23995   2.614   0.705   1.299 -1.1330 -0.4420  0.0225
 4178SOL    HW123996   2.676   0.761   1.253  0.6071 -3.1862 -0.9816
 4178SOL    HW223997   2.547   0.770   1.322  1.2961  2.3698 -0.8909
 4179SOL     OW23998   4.026   3.704   8.655  0.6225 -0.2398 -0.1814
 4179SOL    HW123999   4.103   3.704   8.711 -0.6335 -1.3068  1.5652
 4179SOL    HW224000   4.040   3.786   8.609  0.8330  0.5049  1.2203
 4180SOL     OW24001   3.314   4.671   3.981 -0.2835 -0.6208  0.6122
 4180SOL    HW124002   3.280   0.041   3.997 -0.5919 -1.0995  2.5714
 4180SOL    HW224003   3.380   4.659   4.049  2.0835 -1.6073 -1.8263
 4181SOL     OW24004   2.301   1.168   3.193 -0.0659  0.3714  0.2184
 4181SOL    HW124005   2.281   1.082   3.157 -2.7409  0.8460  0.5628
 4181SOL    HW224006   2.391   1.156   3.225  0.0079  0.2818 -0.0250
 4182SOL     OW24007   2.078   4.427   5.628  0.3626  0.2959 -0.6442
 4182SOL    HW124008   2.162   4.428   5.674 -1.5717 -1.0802  2.9380
 4182SOL    HW224009   2.024   4.478   5.688 -2.1987 -0.2511 -2.5192
 4183SOL     OW24010   3.011   3.726   0.855 -0.3413  0.1111 -0.3223
 4183SOL    HW124011   3.032   3.785   0.783 -0.7627  0.7021  0.0390
 4183SOL    HW224012   2.939   3.676   0.817 -0.1315  1.6794 -2.8181
 4184SOL     OW24013   0.291   3.200  16.458 -0.6323  0.2876  0.0958
 4184SOL    HW124014   0.229   3.272  16.474  1.5311  2.6747 -2.3866
 4184SOL    HW224015   0.321   3.174  16.545 -0.0597  0.1625 -0.1439
 4185SOL     OW24016   0.860   2.132   8.181  0.6680 -0.3250 -0.1906
 4185SOL    HW124017   0.823   2.069   8.243  0.3038 -0.3669 -0.4488
 4185SOL    HW224018   0.782   2.159   8.132  0.2075 -0.4426  0.4777
 4186SOL     OW24019   2.681   4.358   3.107 -0.1235 -0.3539  0.0994
 4186SOL    HW124020   2.613   4.383   3.044 -1.4492  1.2705  2.1591
 4186SOL    HW224021   2.758   4.362   3.051 -0.9290 -0.6426 -1.0455
 4187SOL     OW24022   1.524   3.091   8.745 -0.6621 -0.7947  0.4297
 4187SOL    HW124023   1.482   3.169   8.710  0.7889 -0.6132 -0.8875
 4187SOL    HW224024   1.489   3.091   8.834 -3.5631  2.1354 -0.7185
 4188SOL     OW24025   0.003   2.298   3.787  0.1903 -0.6584 -0.3810
 4188SOL    HW124026   0.068   2.285   3.856 -1.1672  0.2821  1.0740
 4188SOL    HW224027   4.644   2.296   3.844 -0.3951  3.3470 -1.0265
 4189SOL     OW24028   0.916   3.560  15.769 -0.2402  0.2741 -0.7512
 4189SOL    HW124029   0.892   3.568  15.677 -0.7635 -1.0397 -0.7322
 4189SOL    HW224030   0.962   3.477  15.774 -0.7591  0.0866  0.8120
 4190SOL     OW24031   1.279   2.181   3.312  0.2902 -0.0602  0.2434
 4190SOL    HW124032   1.259   2.102   3.362 -1.4938  0.4005  0.2594
 4190SOL    HW224033   1.191   2.218   3.320 -0.5248 -1.8518 -0.4043
 4191SOL     OW24034   0.641   1.855   3.454  0.0798 -0.0214 -0.5179
 4191SOL    HW124035   0.632   1.937   3.406 -0.2272 -0.2068 -0.7778
 4191SOL    HW224036   0.606   1.786   3.398 -1.2370  0.1603  0.0959
 4192SOL     OW24037   0.628   4.457   2.565 -0.3037 -0.2841  0.0267
 4192SOL    HW124038   0.596   4.442   2.654  0.6056 -0.9627  0.2412
 4192SOL    HW224039   0.696   4.390   2.569 -1.8569 -1.9178 -1.1744
 4193SOL     OW24040   2.229   1.028   6.340 -0.0305 -0.4748 -0.3174
 4193SOL    HW124041   2.305   0.983   6.375  1.0492  1.2110 -0.5007
 4193SOL    HW224042   2.208   1.082   6.416 -2.5017 -1.3572 -0.3666
 4194SOL     OW24043   4.380   2.112  15.589 -0.4722 -0.4554 -0.7354
 4194SOL    HW124044   4.393   2.056  15.512 -0.2718 -0.8524 -0.4167
 4194SOL    HW224045   4.416   2.190  15.549 -0.9163  0.0389 -0.1751
 4195SOL     OW24046   0.003   0.330   1.022 -0.3344  0.8299  0.3966
 4195SOL    HW124047   4.637   0.298   1.055 -0.0318 -0.2623  0.1178
 4195SOL    HW224048   0.051   0.259   1.064 -0.6590 -0.0601 -0.7159
 4196SOL     OW24049   2.634   1.095   4.715 -0.2547 -0.3381 -0.6599
 4196SOL    HW124050   2.667   1.134   4.634 -1.3232 -0.8199 -1.3264
 4196SOL    HW224051   2.543   1.123   4.706  0.4544  1.0632 -3.3795
 4197SOL     OW24052   1.949   0.030   4.079 -0.4320 -0.7240 -0.6118
 4197SOL    HW124053   2.008   4.680   4.046 -1.8175 -1.5208 -1.4294
 4197SOL    HW224054   2.003   0.109   4.086 -0.4197 -0.6092 -1.9952
 4198SOL     OW24055   1.446   1.195  13.225 -0.2752 -0.0255 -0.3898
 4198SOL    HW124056   1.387   1.264  13.255 -0.1214 -0.3208  0.5694
 4198SOL    HW224057   1.519   1.248  13.193 -0.5911 -0.2073 -1.4413
 4199SOL     OW24058   0.751   2.547  13.643 -0.2491  0.5926  0.4942
 4199SOL    HW124059   0.773   2.609  13.713  1.7578  0.5116 -0.0496
 4199SOL    HW224060   0.818   2.480  13.658  1.4218  1.8827 -1.0388
 4200SOL     OW24061   3.735   0.457   8.606 -0.1798  0.7279  0.0705
 4200SOL    HW124062   3.799   0.460   8.677 -1.9239  2.2056  1.5835
 4200SOL    HW224063   3.786   0.484   8.529  0.0113 -0.7984 -0.3437
 4201SOL     OW24064   2.283   2.415   8.505  0.4545 -0.0378  0.1254
 4201SOL    HW124065   2.263   2.377   8.591 -1.3382  1.0356  0.1865
 4201SOL    HW224066   2.241   2.500   8.519  2.7375  1.0946  0.2207
 4202SOL     OW24067   0.844   2.600  12.067 -0.8299 -0.5300  0.3784
 4202SOL    HW124068   0.843   2.609  12.162 -4.1592  1.6559  0.1394
 4202SOL    HW224069   0.798   2.682  12.047  1.4519  0.7653  0.4654
 4203SOL     OW24070   0.686   3.748   2.567  0.0311 -0.0423  0.5828
 4203SOL    HW124071   0.782   3.744   2.567  0.0158 -0.4283  1.7936
 4203SOL    HW224072   0.662   3.758   2.475  0.1371  2.0403  0.7760
 4204SOL     OW24073   4.127   1.515   7.039 -0.7489  0.0228  0.4338
 4204SOL    HW124074   4.051   1.470   7.075 -1.1943 -0.5632 -1.2502
 4204SOL    HW224075   4.176   1.442   7.000 -0.5379 -0.3764  1.4607
 4205SOL     OW24076   2.244   1.544   6.438 -0.6314 -0.1451  0.4131
 4205SOL    HW124077   2.174   1.568   6.498 -2.5972 -0.5900 -1.7175
 4205SOL    HW224078   2.242   1.613   6.372  2.0387  1.1001  1.6149
 4206SOL     OW24079   2.802   3.195  15.371 -0.1368 -0.2464  0.5608
 4206SOL    HW124080   2.749   3.152  15.438 -1.9944  1.0135 -0.0825
 4206SOL    HW224081   2.795   3.140  15.293  0.5988 -0.6977  0.8197
 4207SOL     OW24082   4.005   3.338   5.114  0.1161  0.3609  0.3813
 4207SOL    HW124083   3.939   3.345   5.184  0.0495 -1.1207  0.4562
 4207SOL    HW224084   4.075   3.375   5.167  0.3848 -0.6693  0.7342
 4208SOL     OW24085   3.618   0.333   3.953  0.0124 -0.2337 -0.4709
 4208SOL    HW124086   3.535   0.286   3.965  0.4166 -1.1399 -1.1955
 4208SOL    HW224087   3.607   0.371   3.866  1.0082  1.4577  0.1506
 4209SOL     OW24088   3.239   2.263   6.262 -0.2710 -0.0345 -0.2745
 4209SOL    HW124089   3.207   2.350   6.240  0.2829  0.2756  0.1603
 4209SOL    HW224090   3.169   2.225   6.315  0.0340 -0.7783 -0.4068
 4210SOL     OW24091   4.639   2.993   8.979 -0.6715  0.1971  0.0867
 4210SOL    HW124092   4.546   2.970   8.984 -1.1025  1.8326 -0.4471
 4210SOL    HW224093   4.662   3.019   9.068  1.4307 -2.3242  0.2632
 4211SOL     OW24094   4.586   3.833  11.254  0.4185  0.1568 -0.1028
 4211SOL    HW124095   4.568   3.768  11.187  0.6474  0.4525 -0.4504
 4211SOL    HW224096   4.514   3.896  11.245  0.4633  0.4990  1.8746
 4212SOL     OW24097   1.962   4.318   2.010  0.8717  0.1012  0.3838
 4212SOL    HW124098   1.936   4.361   1.929  0.8229  0.1622  0.4318
 4212SOL    HW224099   1.925   4.230   2.002 -1.6211  1.1638  0.2473
 4213SOL     OW24100   2.734   1.717   7.215  0.0624 -0.4659 -0.1045
 4213SOL    HW124101   2.758   1.761   7.134 -0.6905  0.0176 -0.0634
 4213SOL    HW224102   2.770   1.629   7.207  0.6222 -0.2590  0.1102
 4214SOL     OW24103   2.512   1.826   9.283  0.1832  0.3584  0.2671
 4214SOL    HW124104   2.514   1.781   9.367 -1.4673  0.8035  0.5437
 4214SOL    HW224105   2.515   1.915   9.317 -1.5241 -0.6449  3.0977
 4215SOL     OW24106   4.340   1.892   6.876  0.1124  0.0231  0.0725
 4215SOL    HW124107   4.312   1.910   6.786  1.5620  2.3741  0.0840
 4215SOL    HW224108   4.427   1.857   6.861  0.9226  2.1558 -0.2124
 4216SOL     OW24109   4.528   3.468   9.506 -0.5199  0.2345  0.1560
 4216SOL    HW124110   4.440   3.432   9.518 -0.5709  0.4705  0.5036
 4216SOL    HW224111   4.545   3.527   9.580  1.5696 -1.4919  1.0690
 4217SOL     OW24112   0.201   1.283   7.514 -0.3433 -0.4076  0.0228
 4217SOL    HW124113   0.221   1.346   7.445  1.4989 -0.6938  0.2765
 4217SOL    HW224114   0.199   1.198   7.471  1.9679 -0.9538  0.9852
 4218SOL     OW24115   1.784   2.645   3.627 -0.4945 -0.6473 -0.0112
 4218SOL    HW124116   1.753   2.714   3.568 -0.4727 -0.2717  0.4108
 4218SOL    HW224117   1.697   2.618   3.657 -0.3405  1.0412  1.9647
 4219SOL     OW24118   3.889   3.090   7.248 -0.1012  0.0671  0.2933
 4219SOL    HW124119   3.861   3.054   7.164 -0.1727  1.9375 -0.4820
 4219SOL    HW224120   3.984   3.087   7.237 -0.1671  0.4370 -0.3949
 4220SOL     OW24121   4.293   0.670   5.962  0.0100 -0.6267 -0.5413
 4220SOL    HW124122   4.299   0.678   6.057  0.6717 -1.1329 -0.5382
 4220SOL    HW224123   4.284   0.761   5.934  3.3769 -0.1418 -0.0017
 4221SOL     OW24124   1.018   4.101  11.168 -0.0681  0.1581  0.1019
 4221SOL    HW124125   0.968   4.152  11.103 -1.6840  0.0618  1.2498
 4221SOL    HW224126   1.017   4.153  11.249 -0.1015  1.7520 -0.9331
 4222SOL     OW24127   2.815   2.544   6.812  0.3972 -0.0405  0.1864
 4222SOL    HW124128   2.816   2.639   6.809 -1.6515 -0.1484 -4.0132
 4222SOL    HW224129   2.872   2.527   6.887 -1.0416 -0.0209  1.2837
 4223SOL     OW24130   0.024   0.143   5.891  0.1336 -0.4590 -0.0712
 4223SOL    HW124131   4.681   0.090   5.943  0.2550  0.5214  1.0587
 4223SOL    HW224132   4.690   0.224   5.884 -1.7642 -1.3646  3.4955
 4224SOL     OW24133   0.051   0.404  14.529 -0.1180 -0.3362  0.0228
 4224SOL    HW124134   0.063   0.311  14.507 -2.4345 -0.3197 -1.3953
 4224SOL    HW224135   0.141   0.433  14.541 -0.0626 -0.5520  0.1316
 4225SOL     OW24136   3.764   1.892   5.242  0.7940  0.3317 -0.6352
 4225SOL    HW124137   3.829   1.870   5.308 -0.1990  2.6147  1.0821
 4225SOL    HW224138   3.736   1.977   5.275  1.8770  0.8306 -1.0031
 4226SOL     OW24139   3.676   0.850   4.386 -0.0734  0.2441  0.6410
 4226SOL    HW124140   3.732   0.773   4.374 -2.2839 -1.5515  1.8413
 4226SOL    HW224141   3.615   0.830   4.457 -1.6002 -1.8683 -1.2974
 4227SOL     OW24142   4.680   1.212  12.193 -0.3259 -0.4327  0.2918
 4227SOL    HW124143   4.686   1.228  12.098 -1.2337 -0.8119  0.1691
 4227SOL    HW224144   4.691   1.301  12.225 -2.2087 -0.3015  0.5809
 4228SOL     OW24145   4.500   2.527  13.324  0.2183  0.0433 -0.5965
 4228SOL    HW124146   4.423   2.578  13.349 -0.2256 -0.5921 -0.6535
 4228SOL    HW224147   4.528   2.601  13.270 -0.1343  0.7852  0.2551
 4229SOL     OW24148   4.522   1.357   1.271 -0.8491 -0.0156 -0.2597
 4229SOL    HW124149   4.585   1.394   1.333 -0.5176  0.5050 -0.9019
 4229SOL    HW224150   4.586   1.360   1.200  0.8140 -0.7756  1.1952
 4230SOL     OW24151   0.855   2.162   6.061  0.3293 -0.2048 -0.0845
 4230SOL    HW124152   0.794   2.152   6.135  2.0697 -0.6638  1.2719
 4230SOL    HW224153   0.911   2.234   6.088  0.5652 -0.6393  0.5882
 4231SOL     OW24154   0.649   3.375  11.760 -0.0616  0.1242 -0.1179
 4231SOL    HW124155   0.739   3.351  11.779 -0.8194  0.0215  3.4357
 4231SOL    HW224156   0.656   3.470  11.770 -0.3128  0.1669 -0.3508
 4232SOL     OW24157   3.886   0.338   5.396  0.5593  0.1157 -0.6778
 4232SOL    HW124158   3.884   0.342   5.300  3.5002  1.8031 -0.6635
 4232SOL    HW224159   3.841   0.255   5.412  0.9185 -0.0928 -0.7479
 4233SOL     OW24160   4.285   4.073  16.084 -0.3772 -0.3828  0.2347
 4233SOL    HW124161   4.339   4.139  16.128  0.0856 -2.1123  2.2669
 4233SOL    HW224162   4.224   4.120  16.028 -0.2391  1.9343  2.0270
 4234SOL     OW24163   3.683   1.299  14.248  0.1874 -0.1029  0.5752
 4234SOL    HW124164   3.667   1.381  14.293 -2.9620 -0.2329 -0.2812
 4234SOL    HW224165   3.636   1.318  14.166  0.8319  1.1618  0.5124
 4235SOL     OW24166   3.688   4.354  11.950  0.1122  0.0131  0.3112
 4235SOL    HW124167   3.684   4.394  11.863 -2.5867 -0.0134  0.4315
 4235SOL    HW224168   3.630   4.415  11.996 -1.0529  0.5138 -1.8056
 4236SOL     OW24169   2.329   2.715   9.887 -0.5869 -0.3986 -0.1115
 4236SOL    HW124170   2.316   2.788   9.948  2.9715 -0.0822  0.2620
 4236SOL    HW224171   2.376   2.759   9.816  3.1491 -2.7634  0.9031
 4237SOL     OW24172   3.404   1.921   5.610 -0.0945  0.0147  0.0225
 4237SOL    HW124173   3.424   1.840   5.562 -2.0809  0.4734 -1.5710
 4237SOL    HW224174   3.332   1.889   5.663 -1.5150  1.2433 -1.1597
 4238SOL     OW24175   0.621   0.575  12.144  0.2313 -0.2276  0.1171
 4238SOL    HW124176   0.662   0.643  12.197 -0.4792 -0.1157  0.5247
 4238SOL    HW224177   0.574   0.620  12.075  1.1403 -0.2587 -0.5291
 4239SOL     OW24178   0.508   0.315  17.338 -0.2681 -0.3802  0.4235
 4239SOL    HW124179   0.486   0.407  17.324 -0.2309  0.0299  3.1281
 4239SOL    HW224180   0.597   0.322  17.372  0.0398 -2.5268  0.0368
 4240SOL     OW24181   2.788   3.889  12.930 -0.1770 -0.3638  0.3419
 4240SOL    HW124182   2.706   3.841  12.944 -0.2050 -0.5350 -0.4102
 4240SOL    HW224183   2.839   3.814  12.902 -1.0493 -0.2737 -1.4913
 4241SOL     OW24184   0.705   0.061   5.442 -0.4171 -0.0666  0.4318
 4241SOL    HW124185   0.652   4.701   5.458  1.2217 -1.4909 -1.1134
 4241SOL    HW224186   0.714   0.042   5.348 -0.7185 -2.2080  0.8331
 4242SOL     OW24187   2.663   0.805   2.585  0.0295 -0.7398  0.1654
 4242SOL    HW124188   2.597   0.743   2.616 -1.9125  0.3741 -1.7076
 4242SOL    HW224189   2.745   0.782   2.628 -1.0996  0.1959  2.8319
 4243SOL     OW24190   1.149   0.992   5.443 -0.1173 -0.1424  0.3678
 4243SOL    HW124191   1.233   1.030   5.470 -1.2921  3.6739 -1.3152
 4243SOL    HW224192   1.124   1.053   5.373  0.3331 -0.5483 -0.1411
 4244SOL     OW24193   0.699   1.248   5.287 -0.5625 -0.3000  0.0566
 4244SOL    HW124194   0.764   1.280   5.350  1.5681 -2.6238 -0.9624
 4244SOL    HW224195   0.758   1.237   5.212 -0.2727 -0.5748  0.3242
 4245SOL     OW24196   3.182   3.201   8.812  0.8053 -0.0770  0.0751
 4245SOL    HW124197   3.258   3.193   8.754  0.8342 -0.6858  0.1921
 4245SOL    HW224198   3.160   3.288   8.779  1.1198  0.1665  0.5089
 4246SOL     OW24199   3.104   0.656  11.562 -0.2297  0.3483 -0.1750
 4246SOL    HW124200   3.075   0.618  11.479 -0.1878 -1.5687  0.6877
 4246SOL    HW224201   3.187   0.609  11.578  0.7202  1.8523 -0.6815
 4247SOL     OW24202   4.219   0.019  11.771 -0.5324 -0.3320 -0.1762
 4247SOL    HW124203   4.257   4.704  11.690  1.0278 -0.1560  0.4935
 4247SOL    HW224204   4.161   0.087  11.736  0.2697  0.0415 -0.7723
 4248SOL     OW24205   4.134   1.452   1.648  0.2352  0.0673 -0.0241
 4248SOL    HW124206   4.136   1.540   1.685  0.6132 -0.5844  1.4935
 4248SOL    HW224207   4.055   1.411   1.683 -0.8506  3.4726  1.3957
 4249SOL     OW24208   3.622   4.643  15.807 -0.0647 -0.0350 -0.1601
 4249SOL    HW124209   3.572   4.564  15.786  3.7836 -1.4714 -3.7494
 4249SOL    HW224210   3.555   4.711  15.799  0.5525  0.6268  0.3523
 4250SOL     OW24211   1.027   1.727   2.603 -0.0674 -0.7143  0.0528
 4250SOL    HW124212   1.078   1.709   2.525  0.2227 -3.1499  0.8085
 4250SOL    HW224213   1.054   1.656   2.661  1.2219 -2.3431 -2.5366
 4251SOL     OW24214   1.428   2.702   7.964 -0.0672 -0.2237  0.2089
 4251SOL    HW124215   1.357   2.749   8.008  0.5033 -0.5718  1.5008
 4251SOL    HW224216   1.387   2.692   7.878 -0.3189  2.5404  0.0163
 4252SOL     OW24217   0.170   2.889   9.718 -0.2783 -0.5934  0.5164
 4252SOL    HW124218   0.074   2.888   9.721 -0.4038  2.5525 -2.1512
 4252SOL    HW224219   0.193   2.916   9.807 -0.6670  2.7399 -0.3961
 4253SOL     OW24220   2.797   2.606  13.072 -0.2287 -0.3501 -0.0080
 4253SOL    HW124221   2.730   2.560  13.021 -0.1687  0.2800 -0.6468
 4253SOL    HW224222   2.761   2.617  13.160 -0.5277 -0.2899 -0.1374
 4254SOL     OW24223   0.101   0.608   0.449 -0.0087 -0.0478 -0.0874
 4254SOL    HW124224   0.145   0.523   0.451 -1.6579 -0.8600  1.0219
 4254SOL    HW224225   0.091   0.614   0.544 -1.1162 -0.1939 -0.1988
 4255SOL     OW24226   3.196   1.137   7.718  0.4932 -0.1865 -0.0939
 4255SOL    HW124227   3.193   1.041   7.711 -0.0519 -0.2678  1.2755
 4255SOL    HW224228   3.284   1.150   7.752  0.2109  1.8090 -0.1211
 4256SOL     OW24229   3.278   3.526   4.710 -0.6607 -0.1660  0.3321
 4256SOL    HW124230   3.253   3.491   4.795  0.4815 -0.2336  0.6512
 4256SOL    HW224231   3.373   3.536   4.722 -0.5769 -1.9365  1.1285
 4257SOL     OW24232   1.938   1.054   7.539  0.0764 -0.4589 -0.3670
 4257SOL    HW124233   1.880   1.021   7.607  0.6846  1.1215  0.9168
 4257SOL    HW224234   1.967   0.972   7.498 -0.4874 -1.8953  2.1510
 4258SOL     OW24235   0.298   2.311   4.745 -0.1327 -0.0960 -0.0105
 4258SOL    HW124236   0.364   2.247   4.717  0.4335  0.4911 -0.0182
 4258SOL    HW224237   0.250   2.256   4.807  0.4724  0.9519  1.4147
 4259SOL     OW24238   1.040   2.485   9.401 -0.7686  0.1424 -0.4909
 4259SOL    HW124239   1.015   2.560   9.456 -0.3750  0.5959 -0.9269
 4259SOL    HW224240   1.102   2.524   9.340  0.6850  1.3126  1.7073
 4260SOL     OW24241   2.588   3.829   8.670 -0.4083 -0.4460  0.2779
 4260SOL    HW124242   2.533   3.759   8.707  1.3470 -0.6597  2.5077
 4260SOL    HW224243   2.655   3.849   8.735 -0.4058 -2.9273  1.0589
 4261SOL     OW24244   2.774   3.215   4.119 -0.1822  0.0072 -0.1124
 4261SOL    HW124245   2.767   3.151   4.190  1.4830  0.2132  0.2263
 4261SOL    HW224246   2.866   3.194   4.101  0.3291  0.0671  2.4245
 4262SOL     OW24247   4.698   1.446   2.272  0.1152  0.5948  0.5180
 4262SOL    HW124248   4.645   1.367   2.260  0.4644  0.4015  0.2600
 4262SOL    HW224249   4.628   1.511   2.266 -0.2194  0.3003  1.1655
 4263SOL     OW24250   3.802   2.156   4.322 -0.4547 -0.0587  0.1647
 4263SOL    HW124251   3.728   2.217   4.324 -2.5491 -2.5792 -0.1843
 4263SOL    HW224252   3.856   2.199   4.387  1.4544  0.0638 -1.4968
 4264SOL     OW24253   2.018   2.236  10.106 -0.7886  0.0926  0.5648
 4264SOL    HW124254   1.951   2.174  10.079 -0.4765  0.6641 -1.5335
 4264SOL    HW224255   1.990   2.251  10.196 -1.0169 -1.1093  0.6878
 4265SOL     OW24256   1.824   4.357   2.435 -0.2488 -0.6702  0.2360
 4265SOL    HW124257   1.843   4.273   2.477 -2.1086 -1.0885  0.2595
 4265SOL    HW224258   1.884   4.347   2.362 -0.5000  2.3702 -0.3930
 4266SOL     OW24259   2.973   3.675   3.952 -0.0095  0.1092  0.1892
 4266SOL    HW124260   2.984   3.769   3.971 -1.9850  0.2339  0.7429
 4266SOL    HW224261   3.016   3.668   3.867  0.9862  2.6515  0.4911
 4267SOL     OW24262   3.896   2.942   4.748  0.0302  0.2962 -0.1354
 4267SOL    HW124263   3.826   2.935   4.814  0.4377 -3.3696 -0.0676
 4267SOL    HW224264   3.925   3.032   4.759 -1.6357  0.7116  0.9488
 4268SOL     OW24265   1.247   0.833   6.189  0.0092  0.5255 -0.3156
 4268SOL    HW124266   1.311   0.823   6.118  0.8700  3.9733 -0.0297
 4268SOL    HW224267   1.184   0.765   6.168  0.7691 -0.5596  0.9454
 4269SOL     OW24268   3.778   4.471   5.130 -0.2732  0.2047 -0.4348
 4269SOL    HW124269   3.820   4.547   5.171 -2.2596  0.7093  0.6493
 4269SOL    HW224270   3.690   4.470   5.166 -0.2194 -3.0270 -0.3803
 4270SOL     OW24271   0.706   1.180   7.902  0.4968  0.0059  0.0842
 4270SOL    HW124272   0.759   1.111   7.863  0.6720 -0.2235  0.7292
 4270SOL    HW224273   0.629   1.132   7.931  0.1640  0.6503  0.2627
 4271SOL     OW24274   3.684   4.538   5.935 -0.4411 -0.4009  0.0096
 4271SOL    HW124275   3.768   4.494   5.945 -0.1130 -0.3169 -2.2802
 4271SOL    HW224276   3.637   4.465   5.896 -0.6582  0.7199 -1.8478
 4272SOL     OW24277   3.887   3.341   6.933  0.7668  0.4722 -0.5496
 4272SOL    HW124278   3.972   3.298   6.938  0.9902  0.8427 -1.2342
 4272SOL    HW224279   3.853   3.311   6.848 -1.4596  0.1401  0.4358
 4273SOL     OW24280   3.951   0.371   4.311  0.1321  0.2262  0.4198
 4273SOL    HW124281   4.005   0.300   4.346 -2.0895 -1.8299 -0.2462
 4273SOL    HW224282   3.867   0.328   4.326 -0.3085  0.9395  0.0069
 4274SOL     OW24283   3.432   1.887   4.760 -0.6697 -0.5648  0.1977
 4274SOL    HW124284   3.453   1.871   4.668  1.6780 -0.9995  0.8023
 4274SOL    HW224285   3.505   1.843   4.804 -1.1234 -1.3841  0.1385
 4275SOL     OW24286   3.577   3.562   6.097  0.1757  0.1772 -0.1076
 4275SOL    HW124287   3.632   3.544   6.174 -0.2960 -0.6006  0.0574
 4275SOL    HW224288   3.624   3.635   6.058  2.5262 -1.5533 -0.5256
 4276SOL     OW24289   2.849   2.620  17.414 -0.0952  0.1816 -0.9637
 4276SOL    HW124290   2.781   2.640  17.349 -0.7329 -2.0560 -0.9692
 4276SOL    HW224291   2.918   2.583  17.359 -1.2722 -1.4380 -1.3634
 4277SOL     OW24292   0.853   4.625  10.325 -0.2760  0.3046  0.2936
 4277SOL    HW124293   0.851   4.581  10.241  0.5764 -4.3203  2.6833
 4277SOL    HW224294   0.837   4.717  10.305 -3.4403 -0.3344 -0.0901
 4278SOL     OW24295   3.190   2.801   4.875 -0.6105 -0.2320 -0.3012
 4278SOL    HW124296   3.191   2.706   4.890  2.3502  0.1370  1.7399
 4278SOL    HW224297   3.280   2.816   4.845 -0.3899 -0.6233  0.1618
 4279SOL     OW24298   2.833   0.063   4.002  0.3120  0.3658 -0.0039
 4279SOL    HW124299   2.926   0.061   4.023  0.3744 -1.2113 -0.4452
 4279SOL    HW224300   2.839   0.111   3.919 -0.1476 -2.2591 -1.5454
 4280SOL     OW24301   2.552   4.445  12.745 -0.0356 -0.3593  0.0160
 4280SOL    HW124302   2.476   4.502  12.744 -0.1192 -0.4391  0.9854
 4280SOL    HW224303   2.530   4.389  12.671 -0.4800 -1.2091  0.7941
 4281SOL     OW24304   4.643   3.497   1.855  0.4342  0.1043  0.3401
 4281SOL    HW124305   4.669   3.462   1.769  2.2874  0.8879  0.5892
 4281SOL    HW224306   4.607   3.419   1.898  0.1104  0.7807  1.2839
 4282SOL     OW24307   0.412   4.455  15.425 -0.2404 -0.1497  0.7259
 4282SOL    HW124308   0.396   4.528  15.366 -2.4001 -0.3664  1.0499
 4282SOL    HW224309   0.336   4.460  15.483 -1.1016  1.8748 -0.5969
 4283SOL     OW24310   4.066   4.715   4.909  0.1191  0.5512 -0.2896
 4283SOL    HW124311   3.989   4.661   4.891 -2.5989  3.9388  1.1471
 4283SOL    HW224312   4.109   4.664   4.977  2.5425  1.7246 -0.9325
 4284SOL     OW24313   1.286   2.590  14.644  0.4258  0.2505 -0.5456
 4284SOL    HW124314   1.241   2.575  14.727 -2.1066  4.7543 -1.0845
 4284SOL    HW224315   1.225   2.658  14.614 -0.0953  0.5650  1.2348
 4285SOL     OW24316   3.222   2.996   5.879  0.0557  0.3111  0.0041
 4285SOL    HW124317   3.223   3.091   5.867  1.9656  0.1987 -0.5789
 4285SOL    HW224318   3.128   2.979   5.881  0.7034 -3.2884  0.5624
 4286SOL     OW24319   3.249   4.484   9.335 -0.4530  0.0451  0.0120
 4286SOL    HW124320   3.165   4.442   9.353 -0.4876 -0.2805 -0.9109
 4286SOL    HW224321   3.298   4.403   9.351  2.8461  1.3934 -3.1514
 4287SOL     OW24322   4.370   0.322   4.206  0.3325  0.9098  0.4436
 4287SOL    HW124323   4.444   0.380   4.228  1.7605 -0.3244 -1.0697
 4287SOL    HW224324   4.399   0.309   4.115 -1.9169 -2.9530  0.3131
 4288SOL     OW24325   4.016   3.553   2.837 -0.0190  0.8625 -0.2134
 4288SOL    HW124326   4.078   3.480   2.831 -0.4134  0.6398 -1.4433
 4288SOL    HW224327   4.025   3.571   2.744 -0.0193  0.7797 -0.2299
 4289SOL     OW24328   3.597   0.233   9.407 -0.0415 -0.6087  0.0524
 4289SOL    HW124329   3.637   0.149   9.383 -1.0213 -0.9398 -0.4190
 4289SOL    HW224330   3.583   0.212   9.500  2.3435 -3.8566 -0.2908
 4290SOL     OW24331   2.468   1.037   0.087  0.2455  0.8475 -0.4868
 4290SOL    HW124332   2.527   0.984   0.142 -0.4459 -0.7129 -1.2381
 4290SOL    HW224333   2.515   1.117   0.066 -0.0682  0.3391 -3.1621
 4291SOL     OW24334   2.116   2.133   6.930  0.2012 -0.2049 -0.4461
 4291SOL    HW124335   2.204   2.152   6.964 -0.2646  0.6165  0.2867
 4291SOL    HW224336   2.125   2.037   6.935  0.9806 -0.0615  1.0315
 4292SOL     OW24337   0.498   0.319   4.078  0.6253  0.0906  0.3620
 4292SOL    HW124338   0.427   0.318   4.013 -0.7097 -0.6079  1.8114
 4292SOL    HW224339   0.546   0.244   4.044 -1.2645 -1.1554  0.4011
 4293SOL     OW24340   4.262   1.029  16.891 -0.1926 -0.0047 -0.8787
 4293SOL    HW124341   4.234   1.059  16.978  0.6185 -0.4203 -0.4748
 4293SOL    HW224342   4.215   0.946  16.881 -1.6426  0.9166 -1.6755
 4294SOL     OW24343   3.786   3.476  15.310 -0.7597 -0.5602 -0.3558
 4294SOL    HW124344   3.767   3.488  15.403  0.4776  2.7285 -0.5511
 4294SOL    HW224345   3.879   3.498  15.314 -0.7356 -0.4387 -1.6183
 4295SOL     OW24346   3.144   4.203  15.937 -0.1407  0.2247 -0.3564
 4295SOL    HW124347   3.171   4.187  15.846  0.3807  0.5311 -0.2512
 4295SOL    HW224348   3.222   4.179  15.986 -0.3180  0.7501  0.1867
 4296SOL     OW24349   3.166   1.491   3.906  0.4811  0.2975 -0.1453
 4296SOL    HW124350   3.107   1.540   3.849  0.4817  1.4502  0.8198
 4296SOL    HW224351   3.197   1.556   3.970  0.5580  0.3717 -0.2577
 4297SOL     OW24352   2.829   4.362  17.080 -0.3722  0.0651 -0.4662
 4297SOL    HW124353   2.896   4.364  17.149 -1.6682  0.0924  0.8051
 4297SOL    HW224354   2.841   4.282  17.029 -1.4816  2.0349 -3.7623
 4298SOL     OW24355   0.069   1.561   5.342 -0.1068  1.1085 -0.2912
 4298SOL    HW124356   0.010   1.581   5.270 -1.6612  0.4336  0.7806
 4298SOL    HW224357   0.128   1.509   5.288 -1.2537 -1.9280  1.4016
 4299SOL     OW24358   3.531   3.444  17.062 -0.2277  0.0362 -0.1889
 4299SOL    HW124359   3.526   3.456  17.156 -0.1617  1.2142 -0.3377
 4299SOL    HW224360   3.472   3.370  17.045 -1.4846  0.2740  3.1769
 4300SOL     OW24361   3.092   3.712  17.213  0.7766 -0.3525  0.5183
 4300SOL    HW124362   3.105   3.708  17.118 -3.2359 -3.2926  0.0836
 4300SOL    HW224363   3.063   3.803  17.226  2.7113  0.3599 -0.1379
 4301SOL     OW24364   1.676   3.889   5.345  0.0088 -0.0087 -0.5161
 4301SOL    HW124365   1.740   3.959   5.333  2.0662 -1.9128 -0.5897
 4301SOL    HW224366   1.619   3.896   5.268 -1.2692  0.7242  0.4950
 4302SOL     OW24367   0.299   4.235   5.567 -0.3764 -0.0478 -0.4981
 4302SOL    HW124368   0.364   4.174   5.601 -0.2152  0.4379  0.0663
 4302SOL    HW224369   0.219   4.186   5.585 -0.3897  0.3487  0.5471
 4303SOL     OW24370   2.197   3.836   8.859 -0.4258  0.4142 -0.1639
 4303SOL    HW124371   2.199   3.751   8.903  1.7666  1.5546  1.9146
 4303SOL    HW224372   2.125   3.830   8.796  0.4804  1.0680 -1.2640
 4304SOL     OW24373   2.812   1.076   6.901  0.9306  0.1701  0.1263
 4304SOL    HW124374   2.787   1.005   6.842 -3.2209 -0.7686  2.9750
 4304SOL    HW224375   2.797   1.043   6.989 -0.1470 -0.3412 -0.2535
 4305SOL     OW24376   2.607   4.176   5.000 -0.4670 -0.1489  0.1733
 4305SOL    HW124377   2.541   4.237   5.032  0.2540  1.5321 -1.5338
 4305SOL    HW224378   2.611   4.200   4.907  0.5451 -0.2046  0.2009
 4306SOL     OW24379   3.431   0.069   0.143  0.2108 -0.0066 -0.7390
 4306SOL    HW124380   3.361   0.097   0.085  0.0058  0.5140 -0.2399
 4306SOL    HW224381   3.502   0.033   0.090 -0.8462 -0.9457 -1.5033
 4307SOL     OW24382   1.127   0.155  11.229 -0.6675 -0.0105  0.3097
 4307SOL    HW124383   1.104   0.238  11.269  2.3550  0.2631  1.4865
 4307SOL    HW224384   1.158   0.183  11.142 -0.9398 -1.3512 -0.2204
 4308SOL     OW24385   2.161   0.421   6.957 -0.4291  0.6018  0.2170
 4308SOL    HW124386   2.127   0.510   6.966 -1.0368  0.5546 -1.6536
 4308SOL    HW224387   2.229   0.408   7.023  1.0610  0.4907 -1.3650
 4309SOL     OW24388   2.309   4.556   8.789 -0.0674 -0.3529 -0.5465
 4309SOL    HW124389   2.233   4.607   8.761 -0.0525  0.2200  0.4647
 4309SOL    HW224390   2.276   4.492   8.852 -0.7692  0.2259 -0.3301
 4310SOL     OW24391   1.007   1.930  14.587  0.0416 -1.0190 -0.6433
 4310SOL    HW124392   1.089   1.978  14.602  0.1616 -1.3593 -0.2357
 4310SOL    HW224393   1.033   1.904  14.498 -0.6862 -3.2932 -0.1764
 4311SOL     OW24394   4.503   0.868  13.100 -0.1627  0.3586 -0.3627
 4311SOL    HW124395   4.598   0.858  13.103 -0.0326  1.0104 -2.2143
 4311SOL    HW224396   4.490   0.932  13.030 -2.4196 -0.6501 -0.8560
 4312SOL     OW24397   4.366   0.268   4.579  0.2793  0.0207 -0.2326
 4312SOL    HW124398   4.453   0.245   4.610  0.5443  1.3727  0.0174
 4312SOL    HW224399   4.347   0.348   4.627  2.4583 -0.0150  0.6610
 4313SOL     OW24400   1.930   3.524  13.772  0.5033  0.0763  0.0798
 4313SOL    HW124401   1.868   3.580  13.819 -2.2974 -0.2306 -3.2807
 4313SOL    HW224402   1.977   3.481  13.844  0.2058 -0.3176  0.0347
 4314SOL     OW24403   3.951   1.593   3.267  0.4045  0.2560  0.8760
 4314SOL    HW124404   3.905   1.518   3.230 -1.5052  0.6511  2.4157
 4314SOL    HW224405   4.029   1.601   3.213 -0.7347 -0.4802 -0.8719
 4315SOL     OW24406   2.594   0.495  13.097  1.1167  0.0188  0.0722
 4315SOL    HW124407   2.648   0.466  13.171  0.5743  0.4273  0.6279
 4315SOL    HW224408   2.657   0.478  13.027  0.3862 -3.0535  0.1702
 4316SOL     OW24409   0.078   3.486  12.364 -0.3282 -0.9355  0.3884
 4316SOL    HW124410   0.095   3.570  12.320  0.6294 -0.5102  1.5686
 4316SOL    HW224411   0.138   3.488  12.439  2.0285 -1.9321 -1.4525
 4317SOL     OW24412   3.005   2.654   2.576  0.0894 -0.3281 -0.1318
 4317SOL    HW124413   3.073   2.665   2.510 -1.3898  1.0904 -1.4235
 4317SOL    HW224414   2.934   2.629   2.517 -0.8314  0.2745  0.7005
 4318SOL     OW24415   1.908   3.117   3.183  0.4200 -0.5943  0.5584
 4318SOL    HW124416   1.824   3.109   3.139  1.4111  0.3327 -1.4684
 4318SOL    HW224417   1.895   3.197   3.232 -0.0060 -0.1880 -0.2234
 4319SOL     OW24418   2.687   4.135   4.449 -0.2126 -0.6354 -0.2847
 4319SOL    HW124419   2.641   4.169   4.372 -1.6221 -1.7821  0.0545
 4319SOL    HW224420   2.741   4.213   4.458 -1.1518 -0.1526  1.1842
 4320SOL     OW24421   3.600   0.452  10.212 -0.2156  0.9288  0.1657
 4320SOL    HW124422   3.694   0.448  10.191  0.1345  2.2661  1.4630
 4320SOL    HW224423   3.571   0.362  10.202 -0.5195  0.7310  3.0462
 4321SOL     OW24424   3.958   0.293   5.910  0.0911 -0.9465 -0.1000
 4321SOL    HW124425   3.983   0.377   5.871 -1.0214 -0.9053 -0.7293
 4321SOL    HW224426   3.888   0.323   5.968  0.5498  0.8901 -0.4937
 4322SOL     OW24427   2.788   2.629   5.480 -0.0590 -0.7305  0.0809
 4322SOL    HW124428   2.876   2.649   5.449 -1.1031  2.1956 -0.9859
 4322SOL    HW224429   2.739   2.702   5.443  0.5747  0.8888  2.3971
 4323SOL     OW24430   3.324   3.023   3.566 -0.1770 -0.2070  0.2285
 4323SOL    HW124431   3.387   3.065   3.508 -2.1379  2.0716 -0.2248
 4323SOL    HW224432   3.280   2.956   3.514 -0.3599 -0.1001  0.2440
 4324SOL     OW24433   0.317   4.197   2.954 -0.2271  0.2515 -0.4934
 4324SOL    HW124434   0.311   4.221   3.047  0.2450 -0.7256 -0.2056
 4324SOL    HW224435   0.306   4.102   2.963  2.8542  0.0923  1.4150
 4325SOL     OW24436   3.606   2.997   6.058 -0.3609 -0.1427 -0.1800
 4325SOL    HW124437   3.518   3.000   6.097  1.0446  1.7238  2.7943
 4325SOL    HW224438   3.662   2.979   6.134  0.2877  0.3989 -0.5397
 4326SOL     OW24439   0.915   1.579   3.228  0.4838 -0.1907 -0.5536
 4326SOL    HW124440   0.989   1.529   3.262 -0.8684 -2.0129 -0.3444
 4326SOL    HW224441   0.955   1.664   3.249 -1.0187  0.3204  0.2439
 4327SOL     OW24442   3.113   4.490   0.860 -0.3746 -0.1150 -0.0015
 4327SOL    HW124443   3.193   4.543   0.851  0.2918 -1.1915 -0.3881
 4327SOL    HW224444   3.072   4.525   0.780  0.1336 -0.6303 -0.4816
 4328SOL     OW24445   1.501   3.729  15.344  0.3539  0.5804  0.5881
 4328SOL    HW124446   1.443   3.667  15.388 -1.4645  0.7905 -1.4849
 4328SOL    HW224447   1.525   3.785  15.418 -0.7364  0.6502  0.8908
 4329SOL     OW24448   2.327   2.692   4.254 -0.2600  0.0450  0.0951
 4329SOL    HW124449   2.399   2.756   4.255 -1.2958  1.2157 -0.4603
 4329SOL    HW224450   2.264   2.723   4.319 -0.6667 -2.9481  1.1263
 4330SOL     OW24451   1.692   3.381   3.515  0.3552  1.1052 -0.1190
 4330SOL    HW124452   1.640   3.320   3.567  1.0944 -1.2550 -2.1280
 4330SOL    HW224453   1.743   3.421   3.586  1.4638  0.2198 -0.4180
 4331SOL     OW24454   3.708   4.504   4.621  0.5785  0.1552  0.4463
 4331SOL    HW124455   3.793   4.502   4.579  1.0756  0.0789  1.4476
 4331SOL    HW224456   3.701   4.599   4.635 -0.3921  0.2010 -0.3688
 4332SOL     OW24457   1.067   0.790   6.680  0.0236  0.7476 -0.7748
 4332SOL    HW124458   1.103   0.738   6.608 -2.3463  0.4812 -1.7469
 4332SOL    HW224459   1.121   0.870   6.678  2.1345 -0.6924 -1.2920
 4333SOL     OW24460   4.686   3.765   4.553 -0.5756 -0.6030  0.2847
 4333SOL    HW124461   0.013   3.688   4.519 -0.9627 -0.9327  0.5221
 4333SOL    HW224462   4.657   3.731   4.638  1.4895  1.2393  1.7472
 4334SOL     OW24463   1.304   4.138   7.904  0.7278 -0.1734 -0.4307
 4334SOL    HW124464   1.384   4.131   7.956  0.5325 -0.3446 -0.1559
 4334SOL    HW224465   1.286   4.232   7.904  1.5045 -0.0201  0.3184
 4335SOL     OW24466   2.053   4.542   6.015  0.1162 -0.0029  0.1252
 4335SOL    HW124467   1.997   4.569   5.942 -0.8112 -2.1903  0.0238
 4335SOL    HW224468   1.992   4.549   6.089 -2.6731  1.7525 -2.3108
 4336SOL     OW24469   0.099   2.795   2.451  0.4074  0.0238  0.0506
 4336SOL    HW124470   0.192   2.792   2.427  0.3554 -2.2452  0.1385
 4336SOL    HW224471   0.076   2.886   2.437  0.2032 -0.4293 -2.5278
 4337SOL     OW24472   0.606   2.491  11.329 -0.1125  0.0163  0.4227
 4337SOL    HW124473   0.541   2.479  11.398  0.1153 -1.0983  0.4474
 4337SOL    HW224474   0.558   2.448  11.259  2.4269 -2.0431 -0.0769
 4338SOL     OW24475   0.322   2.981   2.599  0.0048 -0.3619  0.2161
 4338SOL    HW124476   0.247   3.018   2.553  1.8130  2.8488 -0.1332
 4338SOL    HW224477   0.289   2.968   2.688  2.0413  2.9428  1.4722
 4339SOL     OW24478   0.847   0.228   3.728  0.1170  0.7110  0.3624
 4339SOL    HW124479   0.752   0.217   3.722  0.3062  0.2098 -1.4705
 4339SOL    HW224480   0.859   0.287   3.653  0.6297 -0.3499 -0.3856
 4340SOL     OW24481   3.916   3.442   6.156 -0.1513 -0.5598  0.1996
 4340SOL    HW124482   3.993   3.495   6.171 -1.1038  0.9981 -0.4441
 4340SOL    HW224483   3.958   3.361   6.129  0.5504  0.0487 -0.5117
 4341SOL     OW24484   0.120   1.650   3.740  0.3947  0.9985  0.0080
 4341SOL    HW124485   0.202   1.601   3.730 -2.1638 -3.1358 -0.6458
 4341SOL    HW224486   0.069   1.576   3.774  1.8371 -0.0785 -0.1557
 4342SOL     OW24487   2.222   1.966   4.053  0.5826 -0.0165  0.4683
 4342SOL    HW124488   2.276   1.909   3.998 -1.5703 -1.5760 -0.0658
 4342SOL    HW224489   2.139   1.917   4.059 -0.8399  2.6348  2.1621
 4343SOL     OW24490   0.365   0.250   6.056  0.0603  0.0102 -0.1645
 4343SOL    HW124491   0.444   0.205   6.028  0.1879 -0.2837  0.6772
 4343SOL    HW224492   0.308   0.180   6.023 -2.5170  2.2167 -0.4049
 4344SOL     OW24493   2.719   3.364   9.248 -0.1652  0.3103  0.3996
 4344SOL    HW124494   2.630   3.375   9.213  0.9379 -0.8458 -2.7596
 4344SOL    HW224495   2.701   3.324   9.333 -2.8371  0.7259  0.0422
 4345SOL     OW24496   0.586   0.369   8.018  0.1034 -0.3460 -0.3667
 4345SOL    HW124497   0.581   0.339   8.108 -1.0049 -0.9246 -0.6169
 4345SOL    HW224498   0.510   0.425   8.000  0.2142  0.1461  0.6972
 4346SOL     OW24499   0.781   3.046   4.760  0.0525  0.1686  0.4971
 4346SOL    HW124500   0.775   2.983   4.688 -0.4689 -0.1731  0.8430
 4346SOL    HW224501   0.709   3.100   4.726 -2.4057 -4.8086 -2.2558
 4347SOL     OW24502   2.875   2.648  11.979 -1.1766  0.4261 -0.9020
 4347SOL    HW124503   2.914   2.713  11.920 -0.7215  0.6286 -0.3868
 4347SOL    HW224504   2.922   2.569  11.950  1.5851  2.5060 -2.1018
 4348SOL     OW24505   1.155   4.283   8.242 -0.1537 -0.0189 -0.3820
 4348SOL    HW124506   1.140   4.189   8.241 -0.2000 -0.0029 -1.0357
 4348SOL    HW224507   1.164   4.301   8.336  0.8667 -2.6687  0.0122
 4349SOL     OW24508   1.867   4.187  16.617 -0.5132 -0.1641 -0.1242
 4349SOL    HW124509   1.884   4.189  16.711  1.3887  0.1579 -0.4700
 4349SOL    HW224510   1.869   4.280  16.594  1.2200 -0.3825 -0.8621
 4350SOL     OW24511   4.451   2.031  16.109 -0.5649  0.4924  0.5273
 4350SOL    HW124512   4.395   1.953  16.104 -2.4886  1.9265 -0.3798
 4350SOL    HW224513   4.452   2.063  16.019  1.9690 -1.4493 -0.1411
 4351SOL     OW24514   3.635   4.597   6.419  0.0769 -0.1579  0.4124
 4351SOL    HW124515   3.553   4.602   6.369  1.0261 -1.6981 -1.3271
 4351SOL    HW224516   3.684   4.538   6.362 -0.2935 -1.8568  1.8488
 4352SOL     OW24517   2.947   2.473  10.638 -0.4299  0.3281 -0.2949
 4352SOL    HW124518   3.026   2.460  10.691 -0.9872 -0.1444  0.4212
 4352SOL    HW224519   2.884   2.482  10.710  1.2176  0.4846  1.1331
 4353SOL     OW24520   4.123   3.447   1.530 -0.0636  0.0707  0.0205
 4353SOL    HW124521   4.182   3.511   1.570  0.0439  0.3976 -0.6601
 4353SOL    HW224522   4.119   3.470   1.437 -1.9475 -0.9376 -0.1512
 4354SOL     OW24523   4.416   4.478   2.991  0.3681 -0.3301  0.0668
 4354SOL    HW124524   4.490   4.500   2.934 -0.5903 -1.3087 -1.5445
 4354SOL    HW224525   4.413   4.564   3.032 -1.2733 -1.1280  1.6113
 4355SOL     OW24526   0.464   0.869   6.834 -0.0819  0.1515  0.3346
 4355SOL    HW124527   0.527   0.932   6.870 -0.9627  0.8314  0.6736
 4355SOL    HW224528   0.505   0.789   6.867  1.7174  1.2619  0.7728
 4356SOL     OW24529   0.629   0.551   0.842 -0.5008 -0.4290 -0.0341
 4356SOL    HW124530   0.559   0.492   0.868 -2.4216  0.8759 -2.2570
 4356SOL    HW224531   0.596   0.632   0.881  0.2228 -0.0447 -0.2177
 4357SOL     OW24532   2.975   0.139   8.437  0.0934  0.5784  0.0939
 4357SOL    HW124533   2.916   0.172   8.504 -2.0297 -0.3558 -1.3061
 4357SOL    HW224534   3.024   0.221   8.426  0.2464  0.1346 -2.4573
 4358SOL     OW24535   0.715   4.309   3.371  0.2978  0.4051  0.3743
 4358SOL    HW124536   0.644   4.253   3.403  0.1126 -0.0891 -0.8885
 4358SOL    HW224537   0.710   4.287   3.278  0.8811 -1.8400  0.8664
 4359SOL     OW24538   4.358   3.098   6.872  0.2503 -0.5214  0.0787
 4359SOL    HW124539   4.393   3.092   6.783  2.2617  2.5238  0.6694
 4359SOL    HW224540   4.411   3.172   6.900  1.0127  0.0024 -2.8272
 4360SOL     OW24541   0.745   3.075   3.388  0.5963 -0.1436 -0.4626
 4360SOL    HW124542   0.725   2.985   3.414  0.3071 -0.1247 -0.6268
 4360SOL    HW224543   0.699   3.084   3.305 -0.9038 -0.2951  0.3573
 4361SOL     OW24544   3.539   1.364   3.538 -0.3179  0.3081  0.5795
 4361SOL    HW124545   3.511   1.275   3.560 -1.0232  0.0911 -1.1861
 4361SOL    HW224546   3.533   1.397   3.628  0.2576 -0.0752  0.7607
 4362SOL     OW24547   1.750   1.308  15.653  0.2553  0.0620  0.2235
 4362SOL    HW124548   1.765   1.335  15.743 -3.0668  1.5832  0.3099
 4362SOL    HW224549   1.691   1.380  15.630 -0.0160 -0.8146 -1.8321
 4363SOL     OW24550   1.515   2.638   4.832 -0.0329 -0.0195 -0.2137
 4363SOL    HW124551   1.447   2.574   4.813 -0.3797  0.2355  0.1675
 4363SOL    HW224552   1.470   2.719   4.806 -0.4798 -0.5301 -1.0271
 4364SOL     OW24553   4.121   0.997   9.758 -0.5323  0.0557 -0.2215
 4364SOL    HW124554   4.166   0.948   9.689 -0.9035 -0.3270 -0.1955
 4364SOL    HW224555   4.089   0.923   9.811  0.2544 -1.3686 -1.7401
 4365SOL     OW24556   3.509   0.071   1.769 -0.7864  0.4224 -0.0706
 4365SOL    HW124557   3.427   0.055   1.723 -1.1074  2.2454 -0.1181
 4365SOL    HW224558   3.565   0.033   1.701 -0.3260  0.1789  0.4391
 4366SOL     OW24559   2.736   2.647   8.287  0.0197 -0.3088  0.3478
 4366SOL    HW124560   2.712   2.584   8.355  0.8878 -2.5889 -1.4743
 4366SOL    HW224561   2.801   2.595   8.240 -0.4550 -2.2441  1.8315
 4367SOL     OW24562   4.103   2.140  12.048  0.3208 -0.0180  0.9198
 4367SOL    HW124563   4.184   2.100  12.080 -0.2855  0.0047  2.4861
 4367SOL    HW224564   4.061   2.179  12.124 -0.8572  1.7388 -0.6191
 4368SOL     OW24565   0.785   0.364   6.728 -0.8166  0.1776  0.2103
 4368SOL    HW124566   0.818   0.400   6.811  2.3563 -0.4653 -0.7771
 4368SOL    HW224567   0.694   0.356   6.757 -0.9680 -0.0607 -0.3279
 4369SOL     OW24568   2.186   4.428   5.183 -0.2457  0.0629 -0.2053
 4369SOL    HW124569   2.130   4.498   5.215  0.9534  0.9001  0.0559
 4369SOL    HW224570   2.259   4.474   5.142  0.5244 -2.0316 -1.1733
 4370SOL     OW24571   3.517   1.642   5.572  0.1387 -0.2387 -0.3895
 4370SOL    HW124572   3.579   1.667   5.641 -0.0044  0.4229 -0.4969
 4370SOL    HW224573   3.461   1.580   5.619 -0.3796  0.1436 -0.4983
 4371SOL     OW24574   2.107   1.735   5.369 -0.1945 -0.0322 -0.5133
 4371SOL    HW124575   2.182   1.696   5.414 -0.9377 -2.0173 -1.0095
 4371SOL    HW224576   2.114   1.718   5.275 -2.1571 -0.1572 -0.6341
 4372SOL     OW24577   3.470   3.820   6.583  0.2791  0.3903  0.1041
 4372SOL    HW124578   3.477   3.742   6.638 -1.0930 -0.2903 -0.6698
 4372SOL    HW224579   3.452   3.774   6.501 -1.8526 -0.7040  1.1727
 4373SOL     OW24580   0.106   3.576   8.963  0.0930 -0.1840  0.1430
 4373SOL    HW124581   0.152   3.647   9.009 -1.4047  0.6349  0.3752
 4373SOL    HW224582   0.167   3.504   8.977  1.3039  1.6396  4.5957
 4374SOL     OW24583   4.299   0.925   8.067 -0.1054  0.6689 -0.7151
 4374SOL    HW124584   4.354   0.952   7.993  0.5536 -0.7526 -0.7362
 4374SOL    HW224585   4.220   0.979   8.065 -0.1843  0.5639 -0.4205
 4375SOL     OW24586   3.387   3.667   7.764  0.5356  0.4834  0.1194
 4375SOL    HW124587   3.443   3.731   7.720 -1.4181  1.2156 -1.2706
 4375SOL    HW224588   3.445   3.627   7.829  0.4643  0.0028 -0.1144
 4376SOL     OW24589   2.623   2.223  16.747  0.2671  0.8867 -0.2532
 4376SOL    HW124590   2.593   2.303  16.705 -1.7654  0.8904  1.2166
 4376SOL    HW224591   2.566   2.215  16.823  0.7848 -1.5916 -0.1204
 4377SOL     OW24592   4.453   2.073  15.836  0.0268 -0.2000  0.1054
 4377SOL    HW124593   4.413   2.062  15.750 -0.3155 -1.9581  0.4923
 4377SOL    HW224594   4.544   2.058  15.808 -0.0188  0.5833 -0.4650
 4378SOL     OW24595   0.991   2.291   9.143  0.5367 -0.6365 -0.1279
 4378SOL    HW124596   1.005   2.269   9.051  0.2580  2.4605 -0.9211
 4378SOL    HW224597   0.961   2.380   9.125  0.6827 -0.8509 -1.4373
 4379SOL     OW24598   3.225   2.537  12.823  0.1329 -0.0944  0.0482
 4379SOL    HW124599   3.291   2.589  12.777  0.5276 -0.2673  0.4147
 4379SOL    HW224600   3.170   2.499  12.754  2.1588 -1.6071 -0.7478
 4380SOL     OW24601   0.535   2.082  16.334  1.1563  0.2115  0.0906
 4380SOL    HW124602   0.586   2.161  16.321 -0.2950  1.5796  2.5616
 4380SOL    HW224603   0.456   2.121  16.372 -0.2539  1.0019 -3.7302
 4381SOL     OW24604   3.195   4.356   7.456 -0.1470  0.2929 -0.3547
 4381SOL    HW124605   3.217   4.371   7.364 -1.4240  1.1693 -0.5115
 4381SOL    HW224606   3.183   4.262   7.448  0.0205  0.2312  0.1399
 4382SOL     OW24607   0.209   2.937   4.612 -0.4632  0.0165  0.3431
 4382SOL    HW124608   0.289   2.889   4.591 -0.1503  0.5773  0.2491
 4382SOL    HW224609   0.213   3.015   4.556 -1.4007  0.6123  1.1196
 4383SOL     OW24610   4.273   3.966  11.192  0.5219  0.3560 -0.1746
 4383SOL    HW124611   4.189   4.006  11.215  0.9518  0.4515  1.2632
 4383SOL    HW224612   4.312   4.024  11.127  1.3378 -1.2845 -1.1651
 4384SOL     OW24613   1.056   1.076  10.253 -0.0876 -0.5653 -0.0437
 4384SOL    HW124614   1.136   1.069  10.201 -0.3553 -1.1796 -0.3821
 4384SOL    HW224615   0.991   1.053  10.186  0.4389  0.0155 -0.7516
 4385SOL     OW24616   3.507   2.752   7.947  0.3469  0.0316  0.3414
 4385SOL    HW124617   3.434   2.696   7.974  0.6746 -1.1565 -1.2757
 4385SOL    HW224618   3.462   2.792   7.873  0.4629  2.2415  1.4687
 4386SOL     OW24619   3.662   1.135   5.207 -0.6991 -0.1470 -0.0639
 4386SOL    HW124620   3.660   1.056   5.261  0.6038 -0.3787 -0.3564
 4386SOL    HW224621   3.669   1.199   5.277 -1.6270 -1.4841  1.2704
 4387SOL     OW24622   1.623   1.378  16.826 -0.0848 -0.5913 -0.3685
 4387SOL    HW124623   1.679   1.451  16.798 -0.3257 -0.0980  0.4242
 4387SOL    HW224624   1.655   1.299  16.783  1.0459 -0.1661 -0.3148
 4388SOL     OW24625   0.649   2.354   9.130  0.3267  0.2482 -0.1604
 4388SOL    HW124626   0.577   2.298   9.161  1.4693 -0.7725  0.6267
 4388SOL    HW224627   0.639   2.340   9.036 -2.0757  1.7689 -0.1439
 4389SOL     OW24628   4.195   0.771   6.918 -0.0965  0.0216  0.1325
 4389SOL    HW124629   4.266   0.831   6.942  1.4864 -1.2091 -1.4516
 4389SOL    HW224630   4.124   0.794   6.978 -1.1560  1.2171 -1.5681
 4390SOL     OW24631   0.326   1.608   4.484  0.1450  0.1186  0.3906
 4390SOL    HW124632   0.373   1.666   4.544  2.2501 -0.8559 -0.3459
 4390SOL    HW224633   0.242   1.654   4.477  0.0139 -0.5659 -2.5179
 4391SOL     OW24634   1.504   2.718   2.790  0.3043 -0.1664 -0.5961
 4391SOL    HW124635   1.496   2.811   2.770 -0.7544 -0.0001  0.5249
 4391SOL    HW224636   1.422   2.705   2.840  0.9938 -2.7641 -0.1173
 4392SOL     OW24637   0.231   3.631   3.051 -0.0707 -0.0085 -0.5589
 4392SOL    HW124638   0.226   3.678   2.968 -2.2503  1.4820  0.3990
 4392SOL    HW224639   0.313   3.587   3.029  0.7263  2.0195 -1.6564
 4393SOL     OW24640   3.071   1.534   7.954  0.6485 -0.2831  0.2885
 4393SOL    HW124641   3.075   1.629   7.941  2.0059 -0.2062  1.2386
 4393SOL    HW224642   3.131   1.494   7.891  1.6190 -0.6904  1.4724
 4394SOL     OW24643   0.690   4.675  15.544  0.1283  0.3553 -0.2433
 4394SOL    HW124644   0.715   0.014  15.471  0.1279  0.0098 -0.5113
 4394SOL    HW224645   0.759   4.612  15.564  0.5578  1.0109  0.3544
 4395SOL     OW24646   3.409   1.706  10.585 -0.3705  0.1806  1.1368
 4395SOL    HW124647   3.365   1.630  10.623  2.5563 -1.3876  1.3378
 4395SOL    HW224648   3.488   1.657  10.563  0.4755  2.3839 -0.7536
 4396SOL     OW24649   0.830   0.366  10.054 -0.0055 -0.1856 -0.6335
 4396SOL    HW124650   0.829   0.420   9.975 -0.4457  1.3243  0.4020
 4396SOL    HW224651   0.858   0.282  10.019  4.1557  1.6173 -1.6183
 4397SOL     OW24652   1.111   2.750  17.207  0.3357 -0.0179  0.4332
 4397SOL    HW124653   1.201   2.780  17.212  0.2364  0.3433  0.0690
 4397SOL    HW224654   1.057   2.818  17.247  1.1795  1.2074 -0.5203
 4398SOL     OW24655   3.746   2.556  15.213  0.5655 -0.2771 -0.0481
 4398SOL    HW124656   3.816   2.563  15.148  0.1811  0.3258 -0.3918
 4398SOL    HW224657   3.788   2.507  15.284  1.2080  1.2696  0.6176
 4399SOL     OW24658   3.262   0.744   5.969 -0.3904  0.8048  0.1710
 4399SOL    HW124659   3.250   0.650   5.965  2.7799  0.4323 -0.6597
 4399SOL    HW224660   3.237   0.769   5.880 -2.2590 -0.4288  0.3642
 4400SOL     OW24661   2.108   0.414   5.638  0.3456 -0.8617 -0.0302
 4400SOL    HW124662   2.103   0.429   5.733 -2.9020  1.3345 -0.5092
 4400SOL    HW224663   2.134   0.323   5.640  1.4911 -0.5330 -0.3183
 4401SOL     OW24664   2.063   0.042   1.765  0.3622  0.4840  0.5759
 4401SOL    HW124665   2.141   0.096   1.755  1.1503 -0.9673 -1.1530
 4401SOL    HW224666   2.016   0.089   1.834 -1.3312 -0.7659  0.2827
 4402SOL     OW24667   2.133   3.678   4.720 -0.1962 -0.3691  0.5476
 4402SOL    HW124668   2.081   3.644   4.793 -1.4503 -1.2286 -0.7588
 4402SOL    HW224669   2.093   3.636   4.644  1.5111 -1.9461  0.5296
 4403SOL     OW24670   2.480   3.547  17.505  0.9820  0.2270 -0.0162
 4403SOL    HW124671   2.520   3.557  17.591  1.1351 -2.6748  0.2699
 4403SOL    HW224672   2.391   3.581  17.512  2.3557  3.2427  2.6674
 4404SOL     OW24673   2.913   1.526  15.484 -0.6114  0.0169  0.2908
 4404SOL    HW124674   2.913   1.616  15.518  1.2883 -0.0810  0.5439
 4404SOL    HW224675   2.992   1.489  15.523  0.3053  2.0296  0.3882
 4405SOL     OW24676   3.248   1.000   6.532 -0.3116  0.0708 -0.0512
 4405SOL    HW124677   3.240   1.073   6.471  0.8566  1.1642  1.1271
 4405SOL    HW224678   3.154   0.989   6.544 -0.0744 -0.4135  1.3567
 4406SOL     OW24679   2.903   2.612   7.558  0.2887  0.2977  0.0983
 4406SOL    HW124680   2.964   2.658   7.616  0.5493 -0.2043  0.2274
 4406SOL    HW224681   2.887   2.532   7.609  0.5040  1.6685  2.2956
 4407SOL     OW24682   1.838   4.385   9.173  0.9809  0.2307  0.1313
 4407SOL    HW124683   1.761   4.420   9.128  0.3223 -0.8030  0.4541
 4407SOL    HW224684   1.786   4.331   9.234  0.9788 -1.5471 -1.4461
 4408SOL     OW24685   0.603   2.354   8.832 -0.5655  0.1283  0.2172
 4408SOL    HW124686   0.569   2.266   8.850 -3.4233  1.5532  1.7845
 4408SOL    HW224687   0.541   2.383   8.764 -0.5185 -0.9776 -0.2940
 4409SOL     OW24688   3.374   1.991   5.218 -0.1214 -0.3172  0.6487
 4409SOL    HW124689   3.411   1.914   5.260  2.9313  0.1562 -1.2095
 4409SOL    HW224690   3.326   1.934   5.158  0.7081 -0.2723 -0.0476
 4410SOL     OW24691   1.206   1.774   7.558 -0.0253  0.0843 -0.2226
 4410SOL    HW124692   1.145   1.760   7.629 -0.4582 -0.0250 -0.6164
 4410SOL    HW224693   1.163   1.844   7.509 -0.8861 -1.9603 -2.4125
 4411SOL     OW24694   3.031   2.530  13.169  0.0927  0.0053 -0.6514
 4411SOL    HW124695   2.944   2.565  13.151  0.6103  1.9753  0.7491
 4411SOL    HW224696   3.009   2.509  13.260  1.4935  2.4322  0.2374
 4412SOL     OW24697   1.345   0.516   4.389  0.6740 -0.3350  0.5814
 4412SOL    HW124698   1.368   0.603   4.356 -1.3090  0.1230  0.4089
 4412SOL    HW224699   1.355   0.457   4.314 -0.9142  1.1973 -0.8552
 4413SOL     OW24700   1.121   3.896   6.187  0.1030 -0.8649 -0.4076
 4413SOL    HW124701   1.168   3.840   6.126  3.4161  0.2092  1.1864
 4413SOL    HW224702   1.052   3.929   6.129  0.0910 -2.1190 -1.1098
 4414SOL     OW24703   3.000   0.229   7.486  0.1308 -0.1646 -0.2459
 4414SOL    HW124704   3.034   0.216   7.397 -3.1582 -1.3130 -1.2978
 4414SOL    HW224705   3.084   0.238   7.532  0.9023  2.0069 -2.0248
 4415SOL     OW24706   1.078   4.674  12.008  0.1901 -0.3003  1.0553
 4415SOL    HW124707   1.131   0.034  11.991  1.1670 -0.8929  1.3728
 4415SOL    HW224708   1.080   4.673  12.104 -1.1994 -2.1194  1.0735
 4416SOL     OW24709   3.240   4.037   7.888  0.2803  0.7777  0.1207
 4416SOL    HW124710   3.227   4.047   7.983  0.4793 -1.9033  0.4141
 4416SOL    HW224711   3.165   3.985   7.860  0.6079 -0.6819  1.9454
 4417SOL     OW24712   3.322   0.876   4.327  0.1498  0.4124  0.1465
 4417SOL    HW124713   3.255   0.868   4.395  0.0879 -1.0602 -0.0832
 4417SOL    HW224714   3.384   0.944   4.352 -1.0176  1.4425  0.2937
 4418SOL     OW24715   4.698   1.921   9.974  0.0968  0.0567 -0.6881
 4418SOL    HW124716   4.670   1.969   9.896 -0.8833  0.7084  0.0693
 4418SOL    HW224717   0.024   1.992  10.021 -0.2632  0.2399 -0.6334
 4419SOL     OW24718   1.303   4.205   1.644  0.0605 -0.6256  0.2017
 4419SOL    HW124719   1.399   4.200   1.638  0.0416 -0.9090  0.1692
 4419SOL    HW224720   1.299   4.301   1.647  1.0296 -0.6286  1.7755
 4420SOL     OW24721   2.845   1.951   7.338 -0.0569  0.4805  0.0780
 4420SOL    HW124722   2.765   1.900   7.329  0.7712 -1.2169  2.3588
 4420SOL    HW224723   2.896   1.898   7.399 -0.8971  0.5576  0.8565
 4421SOL     OW24724   2.407   0.119   6.933  0.2592 -0.2506 -0.5558
 4421SOL    HW124725   2.426   0.202   6.976 -0.7124 -1.0228  1.3376
 4421SOL    HW224726   2.428   0.145   6.843 -0.3906  0.0215 -0.6285
 4422SOL     OW24727   1.993   0.763   7.807 -0.1139  0.4726  0.6456
 4422SOL    HW124728   1.924   0.736   7.747  0.6955  0.8602 -0.4744
 4422SOL    HW224729   2.036   0.682   7.837 -1.3413 -0.0180  1.0774
 4423SOL     OW24730   0.333   3.420  10.449 -0.0666 -0.4534  0.0653
 4423SOL    HW124731   0.349   3.326  10.459  1.0037 -0.5770 -3.0279
 4423SOL    HW224732   0.241   3.421  10.423  0.3452 -1.6246 -1.4317
 4424SOL     OW24733   1.513   3.921   8.341 -0.1362  0.2622  0.6348
 4424SOL    HW124734   1.539   3.829   8.342  0.9343  0.5532 -0.3963
 4424SOL    HW224735   1.517   3.934   8.436 -0.0697  0.2704  0.6311
 4425SOL     OW24736   4.666   2.618   2.601  0.7131 -0.2560  0.4763
 4425SOL    HW124737   0.011   2.663   2.544  0.9643 -0.5238  0.5468
 4425SOL    HW224738   4.593   2.587   2.547  1.4446 -1.2074  0.0281
 4426SOL     OW24739   3.072   3.193   4.448  0.1462  0.0062 -0.2207
 4426SOL    HW124740   3.122   3.167   4.525  0.3251 -2.1511 -1.0641
 4426SOL    HW224741   2.983   3.210   4.476 -0.1580 -0.9771 -0.5944
 4427SOL     OW24742   1.250   4.191  17.645 -0.4293  0.0436 -0.5762
 4427SOL    HW124743   1.324   4.251  17.648  0.9288 -1.7092  0.6553
 4427SOL    HW224744   1.221   4.180   0.062 -1.0691  0.0854 -0.7689
 4428SOL     OW24745   2.468   3.381   8.318  0.2834  0.5331 -0.7228
 4428SOL    HW124746   2.511   3.327   8.385 -0.1017 -1.0343 -1.7431
 4428SOL    HW224747   2.401   3.323   8.283  1.4809 -1.0193 -0.4060
 4429SOL     OW24748   0.970   2.907   3.672 -0.1251 -0.0756  0.1852
 4429SOL    HW124749   0.892   2.861   3.639 -0.2375  0.4321 -0.2605
 4429SOL    HW224750   1.020   2.907   3.590  1.6088 -0.4126  1.2542
 4430SOL     OW24751   1.742   0.719  13.060 -0.4422 -0.6296  0.4847
 4430SOL    HW124752   1.747   0.695  12.968 -1.3087 -0.8655  0.5050
 4430SOL    HW224753   1.756   0.812  13.074 -2.5273 -0.7118  3.1392
 4431SOL     OW24754   1.316   0.151  10.595 -0.3592 -0.2782  0.0757
 4431SOL    HW124755   1.310   0.081  10.659 -0.1813 -0.3037  0.0624
 4431SOL    HW224756   1.361   0.106  10.524  0.6513 -0.5342  0.8818
 4432SOL     OW24757   4.171   3.261   6.474 -0.4275  0.3071 -0.8168
 4432SOL    HW124758   4.175   3.165   6.472  1.9458  0.3635  1.4455
 4432SOL    HW224759   4.250   3.272   6.420 -0.6632  1.5015 -0.9161
 4433SOL     OW24760   2.336   0.941   8.066  0.0135  0.2125  0.4699
 4433SOL    HW124761   2.361   0.982   8.148  0.6130 -1.1126  0.9476
 4433SOL    HW224762   2.252   0.983   8.046  1.6065  2.6786 -1.0058
 4434SOL     OW24763   2.532   2.032  17.214 -0.3395 -0.1510 -0.0140
 4434SOL    HW124764   2.570   2.051  17.299  0.0358 -2.4057  0.3319
 4434SOL    HW224765   2.599   1.984  17.165 -0.9250  1.3872 -2.3466
 4435SOL     OW24766   4.300   0.829   4.926 -0.8004  0.0725  0.0161
 4435SOL    HW124767   4.387   0.802   4.954 -2.1003  0.7004  4.6402
 4435SOL    HW224768   4.286   0.900   4.988  0.3488  0.6060 -0.3462
 4436SOL     OW24769   3.576   0.246   8.641 -0.2263  0.4194  0.0678
 4436SOL    HW124770   3.612   0.307   8.576 -0.7518 -1.3910 -1.9192
 4436SOL    HW224771   3.638   0.273   8.709  0.9189 -2.9958  0.3727
 4437SOL     OW24772   0.554   1.296  16.711  0.1376  0.0063 -0.7599
 4437SOL    HW124773   0.481   1.297  16.773  0.7918  2.6137 -0.0250
 4437SOL    HW224774   0.629   1.299  16.770 -0.3591  1.9136 -0.2180
 4438SOL     OW24775   4.461   1.740  13.013  0.1535 -0.0579 -0.6151
 4438SOL    HW124776   4.507   1.675  12.959  0.3441  0.2112 -0.7731
 4438SOL    HW224777   4.370   1.718  12.991  0.6425 -0.7587 -1.9723
 4439SOL     OW24778   0.116   1.676   8.271 -0.8669  0.4412  0.0694
 4439SOL    HW124779   0.111   1.580   8.266  1.2670  0.4304 -1.5876
 4439SOL    HW224780   0.198   1.681   8.320  0.9642 -2.0218 -2.7101
 4440SOL     OW24781   2.937   2.023   9.097 -0.2612  0.4505  0.0100
 4440SOL    HW124782   2.886   2.099   9.126  1.3255  0.6445  2.3063
 4440SOL    HW224783   3.028   2.052   9.108 -0.0756 -1.7118  4.3304
 4441SOL     OW24784   1.950   3.577   7.758 -0.1463 -0.6452  0.0074
 4441SOL    HW124785   1.868   3.530   7.774 -0.3038 -0.9673 -1.7088
 4441SOL    HW224786   2.000   3.582   7.839 -2.5262 -0.8059  1.5010
 4442SOL     OW24787   4.473   0.801   5.541  0.3954  0.2474 -0.3126
 4442SOL    HW124788   4.411   0.871   5.520 -0.3944 -0.2833  0.2292
 4442SOL    HW224789   4.413   0.732   5.569  0.6012 -0.7831 -2.4394
 4443SOL     OW24790   2.595   4.541   8.097 -0.6653  0.5067 -0.1028
 4443SOL    HW124791   2.637   4.627   8.092 -0.2935  0.2354 -1.9364
 4443SOL    HW224792   2.570   4.518   8.007 -2.0128  1.2911  0.0735
 4444SOL     OW24793   1.865   0.487  11.387 -0.4432 -0.1145 -0.7392
 4444SOL    HW124794   1.823   0.571  11.367  1.5824  0.6086 -2.0609
 4444SOL    HW224795   1.912   0.500  11.470  0.3831 -1.6605 -0.9610
 4445SOL     OW24796   2.557   2.843  11.805  0.2732 -0.1139 -0.4881
 4445SOL    HW124797   2.588   2.754  11.793 -0.4945 -0.6255  1.3323
 4445SOL    HW224798   2.538   2.845  11.899 -0.2750 -0.7552 -0.5816
 4446SOL     OW24799   1.420   2.291   3.518 -0.2746  0.2645  0.3289
 4446SOL    HW124800   1.500   2.238   3.514  0.0427  0.6639  1.7142
 4446SOL    HW224801   1.368   2.266   3.441  0.8800 -0.3968 -0.2485
 4447SOL     OW24802   0.623   3.247   7.803 -0.4939 -0.3413 -0.4809
 4447SOL    HW124803   0.558   3.314   7.822 -0.9856 -0.7069 -0.8855
 4447SOL    HW224804   0.675   3.260   7.883 -0.7902  0.9236 -0.4949
 4448SOL     OW24805   1.917   0.520  15.553  0.4522  0.5273  0.4199
 4448SOL    HW124806   1.988   0.530  15.615  1.9933  1.0554 -1.4164
 4448SOL    HW224807   1.862   0.591  15.585 -1.2011 -0.5010 -0.1401
 4449SOL     OW24808   3.802   3.942  13.817 -0.0941 -0.1876  0.7344
 4449SOL    HW124809   3.717   3.975  13.790 -0.7488 -1.4628  1.2780
 4449SOL    HW224810   3.837   4.012  13.872  1.7797  0.8959 -1.8299
 4450SOL     OW24811   0.894   2.003   6.697 -0.3749  0.6975  0.0008
 4450SOL    HW124812   0.965   2.060   6.725  0.7877 -0.8706  0.2323
 4450SOL    HW224813   0.849   1.996   6.781 -0.8870  0.6235 -0.2800
 4451SOL     OW24814   3.895   3.770   1.683 -0.3653  0.4897 -0.6379
 4451SOL    HW124815   3.980   3.796   1.718 -0.7061  0.2744  0.3270
 4451SOL    HW224816   3.857   3.737   1.764  0.6135 -1.0740 -0.8032
 4452SOL     OW24817   2.983   3.664   8.628 -0.6405  0.2119 -0.0375
 4452SOL    HW124818   2.940   3.657   8.713  0.2085 -2.1389  0.2056
 4452SOL    HW224819   2.905   3.676   8.574 -0.0454 -0.8342 -1.1387
 4453SOL     OW24820   1.040   4.517  11.055 -0.2461  0.3883  0.1840
 4453SOL    HW124821   1.125   4.552  11.083  0.7390 -0.8003 -1.3458
 4453SOL    HW224822   1.034   4.562  10.971  0.6736  0.7633  0.3172
 4454SOL     OW24823   4.592   2.720  16.125 -0.1566  0.1344 -0.0021
 4454SOL    HW124824   4.622   2.789  16.066 -1.0643  0.5615  0.0425
 4454SOL    HW224825   4.540   2.672  16.060 -2.7533 -0.8859  2.8208
 4455SOL     OW24826   0.861   4.250   7.846  0.1853 -0.4525 -0.4027
 4455SOL    HW124827   0.922   4.197   7.795  0.8905 -1.2981  1.3332
 4455SOL    HW224828   0.819   4.175   7.888 -1.3230  1.5204  1.6079
 4456SOL     OW24829   2.148   1.125   7.988  0.0384  0.2316 -0.2906
 4456SOL    HW124830   2.066   1.165   7.959 -0.4292  0.5465  1.4563
 4456SOL    HW224831   2.214   1.176   7.942  0.2803  2.4224  2.4982
 4457SOL     OW24832   1.183   3.497  14.652  0.0511 -0.3383  0.1418
 4457SOL    HW124833   1.131   3.572  14.622  1.6137  1.1994  1.2928
 4457SOL    HW224834   1.167   3.433  14.583 -0.0192  0.1478 -0.2911
 4458SOL     OW24835   3.019   3.773   2.221  0.4053  0.1819  0.0035
 4458SOL    HW124836   3.032   3.703   2.286  1.0150 -1.4208 -1.8303
 4458SOL    HW224837   3.000   3.716   2.146 -1.2947 -0.7506  1.1451
 4459SOL     OW24838   4.216   3.432   5.517 -0.0902  0.2042  0.5660
 4459SOL    HW124839   4.177   3.349   5.546  2.1709 -1.7882 -2.0668
 4459SOL    HW224840   4.280   3.454   5.584  1.4254 -0.7351 -0.5662
 4460SOL     OW24841   3.684   4.497  11.680 -0.1365  0.2958  0.0855
 4460SOL    HW124842   3.621   4.569  11.679  1.3692  1.6091 -1.0481
 4460SOL    HW224843   3.767   4.545  11.689  0.3608 -0.3790 -0.8137
 4461SOL     OW24844   0.740   1.472   4.220 -0.3569 -0.3044 -0.0852
 4461SOL    HW124845   0.708   1.390   4.184 -2.1348  0.7430 -0.8886
 4461SOL    HW224846   0.659   1.522   4.236 -0.7284 -0.6820 -0.8378
 4462SOL     OW24847   3.826   3.090  16.039 -0.1710  0.3595 -1.2822
 4462SOL    HW124848   3.831   3.095  15.943 -0.1600  0.2671 -1.2866
 4462SOL    HW224849   3.829   3.183  16.061  0.1036  0.1563 -0.4774
 4463SOL     OW24850   1.660   0.769  12.424  0.3205 -0.6636 -1.0317
 4463SOL    HW124851   1.582   0.761  12.370  0.3036  0.4957 -1.1972
 4463SOL    HW224852   1.624   0.771  12.512 -0.0272 -1.5741 -1.1590
 4464SOL     OW24853   3.600   1.057   3.932  0.0775 -0.2339  0.4045
 4464SOL    HW124854   3.509   1.077   3.909  0.2594  0.4767  0.3147
 4464SOL    HW224855   3.604   1.099   4.017  2.8357  0.8397 -0.2569
 4465SOL     OW24856   3.465   2.914   6.382 -0.0951  0.6775  0.2216
 4465SOL    HW124857   3.429   2.969   6.312 -0.2143  1.5174  0.9436
 4465SOL    HW224858   3.463   2.827   6.343  0.0485  0.8826 -0.2396
 4466SOL     OW24859   1.200   3.731  13.897  0.9362  0.0574  0.5044
 4466SOL    HW124860   1.140   3.801  13.871 -1.8957 -2.6341 -0.2497
 4466SOL    HW224861   1.142   3.659  13.923 -2.8001  1.6943 -3.3992
 4467SOL     OW24862   1.447   1.182   0.137  0.1376  0.1588 -0.1628
 4467SOL    HW124863   1.409   1.255   0.187  0.5110  1.1639 -1.3500
 4467SOL    HW224864   1.470   1.126   0.211  1.6614 -1.5994 -1.9848
 4468SOL     OW24865   1.049   3.020   6.216  0.3467 -0.3623  0.4923
 4468SOL    HW124866   1.134   3.010   6.259 -0.3848 -0.1517  1.9996
 4468SOL    HW224867   1.057   3.106   6.176 -6.1460  0.3641  0.8020
 4469SOL     OW24868   2.687   4.487   7.493  0.2307 -0.4445  0.2130
 4469SOL    HW124869   2.678   4.416   7.557 -1.1190  1.0482  1.6940
 4469SOL    HW224870   2.603   4.474   7.448  0.0125 -0.8453  0.7304
 4470SOL     OW24871   0.096   4.305  15.290 -0.1775 -0.4658 -0.1753
 4470SOL    HW124872   0.109   4.365  15.364 -1.2730 -0.2528 -0.1490
 4470SOL    HW224873   0.041   4.242  15.337  0.3490 -1.8149 -1.4004
 4471SOL     OW24874   0.562   1.280   2.258  1.0920 -0.4282 -0.2100
 4471SOL    HW124875   0.546   1.320   2.172 -0.1731 -0.4117  0.0431
 4471SOL    HW224876   0.509   1.345   2.305  1.2891  0.5408 -1.3180
 4472SOL     OW24877   1.575   3.479   6.690  0.2917 -0.0713  0.1239
 4472SOL    HW124878   1.556   3.563   6.731 -0.4720  1.0550 -2.4945
 4472SOL    HW224879   1.565   3.420   6.765 -1.1497  0.7035  0.5446
 4473SOL     OW24880   3.567   0.373  15.186 -0.6756 -0.5981 -0.2759
 4473SOL    HW124881   3.544   0.428  15.112  2.1958  0.3224 -0.4735
 4473SOL    HW224882   3.659   0.351  15.170 -0.5389  0.5007 -1.0186
 4474SOL     OW24883   0.896   4.536  15.647 -0.5123 -0.5788 -0.4526
 4474SOL    HW124884   0.990   4.554  15.650 -0.4956 -0.3130 -2.6190
 4474SOL    HW224885   0.895   4.460  15.589 -1.3093 -0.4140 -0.6648
 4475SOL     OW24886   3.593   1.299   9.857  0.0859  0.1332 -0.2615
 4475SOL    HW124887   3.660   1.268   9.918 -0.2445  0.5090  0.2915
 4475SOL    HW224888   3.632   1.378   9.821  0.3244 -0.0895 -0.4902
 4476SOL     OW24889   1.796   2.420   3.472 -0.0030 -0.1626 -0.0467
 4476SOL    HW124890   1.790   2.504   3.518  0.4200  0.5971 -1.3721
 4476SOL    HW224891   1.767   2.452   3.387 -0.2281 -0.5758 -0.1255
 4477SOL     OW24892   1.190   1.452   8.343  0.3079 -0.0900  0.4332
 4477SOL    HW124893   1.191   1.385   8.411 -0.2600  0.9816  1.4968
 4477SOL    HW224894   1.129   1.520   8.373  2.1581  1.7487  0.0126
 4478SOL     OW24895   2.965   4.589   6.112  0.8474  0.0040 -0.4653
 4478SOL    HW124896   2.879   4.549   6.123  0.5480  0.4288 -1.2657
 4478SOL    HW224897   2.972   4.578   6.017 -0.3181 -0.1951 -0.5272
 4479SOL     OW24898   3.819   2.341   3.144 -0.2019 -0.1109  0.2052
 4479SOL    HW124899   3.851   2.315   3.058  1.1608 -0.1230  0.7107
 4479SOL    HW224900   3.858   2.429   3.151  0.9695 -0.6512  0.4225
 4480SOL     OW24901   0.527   1.097   9.579 -0.4035  0.5677 -0.2048
 4480SOL    HW124902   0.598   1.155   9.606  0.5320 -0.1738 -1.0924
 4480SOL    HW224903   0.517   1.052   9.663  1.8942 -1.5298 -1.0589
 4481SOL     OW24904   1.767   4.533   1.378 -0.3991  0.2373 -0.4295
 4481SOL    HW124905   1.802   4.475   1.446 -2.7019  0.8465  1.2892
 4481SOL    HW224906   1.705   4.586   1.429 -0.7976  2.3775 -3.2141
 4482SOL     OW24907   0.230   3.427   9.356  0.9243  0.9968 -0.5186
 4482SOL    HW124908   0.212   3.454   9.266  2.8182  2.1358 -0.5654
 4482SOL    HW224909   0.148   3.387   9.385  1.5382 -0.4387 -0.7760
 4483SOL     OW24910   1.548   1.300  10.013 -0.7669 -0.1097  0.1117
 4483SOL    HW124911   1.454   1.282  10.011 -1.0819  1.4158  1.0235
 4483SOL    HW224912   1.586   1.222   9.974 -0.4672  0.6463 -1.1046
 4484SOL     OW24913   0.121   4.167   0.880 -0.3153  0.3211 -0.0263
 4484SOL    HW124914   0.042   4.162   0.827  0.7175 -2.0459 -1.3478
 4484SOL    HW224915   0.137   4.074   0.897 -2.9222  0.1050  1.1779
 4485SOL     OW24916   0.693   1.532   5.800 -0.3451  0.6568  0.6265
 4485SOL    HW124917   0.724   1.565   5.884  1.2127 -0.0897  0.3463
 4485SOL    HW224918   0.771   1.478   5.785 -1.4446 -0.6322 -0.4193
 4486SOL     OW24919   3.784   1.354   9.231 -0.2430 -0.2128 -0.5102
 4486SOL    HW124920   3.712   1.304   9.269 -0.4764  0.7818  0.3433
 4486SOL    HW224921   3.856   1.293   9.215  0.5344 -0.0168  2.3748
 4487SOL     OW24922   3.772   0.755   4.684 -0.2665 -0.2495 -0.3948
 4487SOL    HW124923   3.805   0.841   4.709 -0.0344 -0.7044  0.8785
 4487SOL    HW224924   3.689   0.798   4.665 -0.5039  0.2215  1.7669
 4488SOL     OW24925   4.582   0.307  17.066  0.2757 -0.3186  0.1505
 4488SOL    HW124926   4.664   0.349  17.092  1.4098 -1.8062 -1.0926
 4488SOL    HW224927   4.529   0.326  17.144  2.2769  0.9469  1.1983
 4489SOL     OW24928   1.503   3.037  16.031  0.8292  0.3338  0.1638
 4489SOL    HW124929   1.560   3.061  16.105 -0.4704  0.6581  1.0703
 4489SOL    HW224930   1.461   3.118  16.002  0.0968  0.2035  0.8465
 4490SOL     OW24931   0.487   4.133   7.713  0.1525  0.2871 -0.0147
 4490SOL    HW124932   0.494   4.208   7.773 -2.1235 -0.3544  1.0569
 4490SOL    HW224933   0.540   4.067   7.759  1.1359  0.9091 -0.2556
 4491SOL     OW24934   1.746   2.688   2.919 -0.2921 -0.4905 -0.1679
 4491SOL    HW124935   1.665   2.678   2.869 -0.6327  0.1913  0.2472
 4491SOL    HW224936   1.715   2.705   3.008  0.2566  1.5027 -0.3508
 4492SOL     OW24937   0.912   4.374   8.879  0.2693  0.1955  0.3178
 4492SOL    HW124938   1.001   4.407   8.881 -0.4129  2.1484 -1.0434
 4492SOL    HW224939   0.873   4.428   8.947  0.2587 -1.2212  1.4445
 4493SOL     OW24940   2.827   0.419   3.754 -0.1827  0.1034 -0.1996
 4493SOL    HW124941   2.752   0.361   3.741 -1.0703  1.2842 -0.3872
 4493SOL    HW224942   2.781   0.503   3.753 -0.5534 -0.0897  0.5024
 4494SOL     OW24943   4.273   1.313   4.614 -0.2013  0.1712 -0.1481
 4494SOL    HW124944   4.292   1.393   4.663  1.7027 -0.4657  0.1518
 4494SOL    HW224945   4.258   1.346   4.525  1.3684 -0.1712 -0.5414
 4495SOL     OW24946   3.725   4.075   8.423  0.4891  0.2821  0.2509
 4495SOL    HW124947   3.720   4.168   8.446  0.6007  0.3944 -0.1665
 4495SOL    HW224948   3.739   4.041   8.511  0.3108 -2.5689 -0.8023
 4496SOL     OW24949   3.962   2.273   2.906  0.0318 -0.6611  0.2518
 4496SOL    HW124950   4.045   2.235   2.935  0.7081 -0.5553 -1.5485
 4496SOL    HW224951   3.993   2.341   2.846  0.4756  0.1647  1.4025
 4497SOL     OW24952   0.721   2.924   2.196  0.4268  0.3983 -0.6689
 4497SOL    HW124953   0.635   2.934   2.156  0.7479 -2.1955 -2.0342
 4497SOL    HW224954   0.745   2.837   2.163 -1.3878 -0.5401  0.5251
 4498SOL     OW24955   0.535   1.212   7.200 -0.2027  0.0725 -0.0992
 4498SOL    HW124956   0.579   1.236   7.119 -1.9200 -1.2152 -1.4197
 4498SOL    HW224957   0.606   1.241   7.256  0.3632 -2.6801  0.6098
 4499SOL     OW24958   2.505   0.754   7.985  0.6735  0.3931  0.8535
 4499SOL    HW124959   2.519   0.738   8.078  2.4891  0.4517  0.5928
 4499SOL    HW224960   2.444   0.827   7.991  0.5481  0.2626  1.1755
 4500SOL     OW24961   0.459   2.346   5.069  0.4603  0.0715 -0.8116
 4500SOL    HW124962   0.544   2.340   5.025  1.2369 -0.6662  0.8060
 4500SOL    HW224963   0.407   2.394   5.004  0.5661 -0.5703 -1.3664
 4501SOL     OW24964   2.371   2.890  11.590  0.1094 -0.5475 -0.4140
 4501SOL    HW124965   2.298   2.880  11.652  0.0137  0.7952 -0.3215
 4501SOL    HW224966   2.446   2.890  11.650 -0.4126  0.2787  0.2334
 4502SOL     OW24967   1.019   3.497   6.184 -0.3103  0.0466 -0.0651
 4502SOL    HW124968   0.951   3.533   6.127 -2.0322  1.1296  2.6347
 4502SOL    HW224969   1.082   3.478   6.115  2.0412  0.4105  1.9640
 4503SOL     OW24970   3.706   1.625   5.779  0.1612 -0.6030 -0.5294
 4503SOL    HW124971   3.781   1.566   5.772  1.0337  0.4592 -0.0264
 4503SOL    HW224972   3.660   1.575   5.846  1.5280  0.5831  1.3062
 4504SOL     OW24973   2.354   0.402   1.344 -0.3082  0.1698 -0.0568
 4504SOL    HW124974   2.284   0.415   1.408  0.7672  1.0719  0.9538
 4504SOL    HW224975   2.313   0.427   1.262 -1.1239 -0.4693  0.1564
 4505SOL     OW24976   2.857   2.364   4.384  0.2173  0.0101 -0.4462
 4505SOL    HW124977   2.775   2.347   4.339 -1.2298  0.2283  2.1342
 4505SOL    HW224978   2.841   2.334   4.474  0.1343  0.0970 -0.4322
 4506SOL     OW24979   1.181   3.726   4.794 -0.1774 -0.1602 -0.1879
 4506SOL    HW124980   1.091   3.697   4.809 -0.5306 -0.4318 -2.8409
 4506SOL    HW224981   1.230   3.666   4.851  0.7482  1.3816  0.6564
 4507SOL     OW24982   0.904   1.383   5.737 -0.1484 -0.2352  0.2644
 4507SOL    HW124983   0.947   1.387   5.822 -0.9488  0.3211  0.6409
 4507SOL    HW224984   0.974   1.409   5.676  0.4761 -1.0613  0.6279
 4508SOL     OW24985   1.336   0.139  16.091 -0.2817 -0.2279 -0.2087
 4508SOL    HW124986   1.240   0.136  16.092 -0.3467  2.7971  1.4774
 4508SOL    HW224987   1.362   0.208  16.152 -0.5103 -0.2497 -0.0867
 4509SOL     OW24988   2.684   3.842  15.195  0.0014  0.2882 -0.1119
 4509SOL    HW124989   2.637   3.799  15.124 -2.2544  3.1754 -0.3721
 4509SOL    HW224990   2.636   3.925  15.192  3.7052  2.4994  1.9752
 4510SOL     OW24991   2.899   2.170  10.746  0.5814 -0.1502  0.4799
 4510SOL    HW124992   2.819   2.214  10.716  0.5224 -1.2159 -0.9241
 4510SOL    HW224993   2.965   2.238  10.759  1.9943 -1.5786  0.7207
 4511SOL     OW24994   0.468   2.812   0.646  0.2062  0.2778  0.2501
 4511SOL    HW124995   0.458   2.898   0.687  0.9847  0.9339 -0.9282
 4511SOL    HW224996   0.563   2.808   0.636  0.1263  2.7673 -1.7085
 4512SOL     OW24997   2.795   0.742   9.481 -0.0827  0.6248 -0.0286
 4512SOL    HW124998   2.804   0.663   9.428 -2.6157  0.2597  0.0939
 4512SOL    HW224999   2.707   0.733   9.518  0.2661 -1.7896  0.2428
 4513SOL     OW25000   1.272   0.689   8.534  0.2047  0.3048 -0.0632
 4513SOL    HW125001   1.352   0.682   8.482  0.4447 -1.6414  0.5639
 4513SOL    HW225002   1.268   0.609   8.587  0.7995 -0.4909 -1.2155
 4514SOL     OW25003   2.410   1.815   5.101  0.0359 -0.6473  0.4535
 4514SOL    HW125004   2.363   1.860   5.031 -1.1311  0.8548  2.2001
 4514SOL    HW225005   2.354   1.741   5.125  1.3280 -1.8005 -0.0803
 4515SOL     OW25006   3.918   3.070   9.637 -0.5193 -0.8010 -0.4602
 4515SOL    HW125007   3.987   3.134   9.616 -1.3947  0.4026  0.3169
 4515SOL    HW225008   3.903   3.089   9.729 -0.7007 -1.7624 -0.2939
 4516SOL     OW25009   0.238   3.741  17.114 -0.2855  0.2732  0.5823
 4516SOL    HW125010   0.276   3.711  17.197  1.9479  0.8465 -0.2222
 4516SOL    HW225011   0.290   3.695  17.048 -1.3838 -0.7617  0.4336
 4517SOL     OW25012   3.810   2.092   6.857 -0.6637  0.0660 -0.0722
 4517SOL    HW125013   3.834   2.109   6.948 -0.4381 -1.6608  0.1891
 4517SOL    HW225014   3.884   2.033   6.841 -1.3272 -0.3287 -1.6341
 4518SOL     OW25015   3.907   4.484  14.712  0.2041 -0.7572  0.5186
 4518SOL    HW125016   3.908   4.571  14.752 -0.1390 -0.4812 -0.0569
 4518SOL    HW225017   3.882   4.431  14.787 -3.6915  0.1641 -0.1089
 4519SOL     OW25018   2.724   0.318   6.689  0.2389  0.0322 -0.6923
 4519SOL    HW125019   2.683   0.304   6.775  0.1576 -1.7717 -1.0258
 4519SOL    HW225020   2.730   0.414   6.694  1.6554 -0.0260 -1.3093
 4520SOL     OW25021   4.236   4.608   4.224 -0.1801  0.5289  0.0025
 4520SOL    HW125022   4.240   4.697   4.260 -1.3041  0.0414  1.3139
 4520SOL    HW225023   4.282   4.621   4.141 -0.8762 -0.6525 -0.5674
 4521SOL     OW25024   0.450   1.285   9.175 -0.7662 -0.0147 -0.2883
 4521SOL    HW125025   0.535   1.282   9.219 -0.9321 -0.5631 -0.0047
 4521SOL    HW225026   0.419   1.197   9.196  0.2631 -0.4661 -0.6461
 4522SOL     OW25027   3.128   2.247   2.500 -0.2566  0.1935 -0.2904
 4522SOL    HW125028   3.083   2.322   2.461  0.3293  1.2984  1.1525
 4522SOL    HW225029   3.181   2.206   2.431  0.2264 -0.0506  0.2298
 4523SOL     OW25030   0.892   0.379  14.139 -0.2459  0.0535  0.2704
 4523SOL    HW125031   0.899   0.367  14.234  0.0114 -0.7267  0.1570
 4523SOL    HW225032   0.845   0.462  14.131  1.2420  0.7029 -1.8552
 4524SOL     OW25033   1.643   4.106  13.863  0.3012  0.1165  0.2571
 4524SOL    HW125034   1.692   4.184  13.890 -2.3616  0.9483  2.6643
 4524SOL    HW225035   1.711   4.064  13.810  1.0058  0.0066  1.2483
 4525SOL     OW25036   2.463   2.313   8.840 -0.4341  0.3610  0.1445
 4525SOL    HW125037   2.387   2.268   8.803 -0.0771 -0.2818  0.1874
 4525SOL    HW225038   2.484   2.245   8.904  0.7882  0.3738 -0.2339
 4526SOL     OW25039   3.716   2.087   2.486 -0.3746 -0.1763 -0.7462
 4526SOL    HW125040   3.796   2.098   2.537 -0.4793  0.1191 -0.6420
 4526SOL    HW225041   3.750   2.048   2.406 -1.1562 -0.7075 -0.8212
 4527SOL     OW25042   1.234   0.891  15.650  1.0171 -0.3784 -0.0794
 4527SOL    HW125043   1.287   0.911  15.573 -1.7808  0.2669 -1.8330
 4527SOL    HW225044   1.284   0.829  15.702  0.7652 -2.0295 -1.8257
 4528SOL     OW25045   2.700   0.961   8.469 -0.8726 -0.2468  0.4662
 4528SOL    HW125046   2.793   0.940   8.475 -0.5773  1.4963  1.9656
 4528SOL    HW225047   2.719   1.051   8.443  0.9290 -0.8943 -0.4338
 4529SOL     OW25048   3.776   0.873  10.790  0.0250  0.4658 -0.0357
 4529SOL    HW125049   3.867   0.896  10.774  0.5464 -2.6462 -1.4958
 4529SOL    HW225050   3.745   0.802  10.733 -2.7333  0.8640  0.9437
 4530SOL     OW25051   1.504   3.564  16.619  0.0139  0.2514 -0.2839
 4530SOL    HW125052   1.551   3.598  16.543 -0.3665  1.1354 -0.1328
 4530SOL    HW225053   1.484   3.647  16.663 -0.2676  1.0360 -1.8753
 4531SOL     OW25054   2.463   0.209  12.603 -0.0132  0.2012 -0.1281
 4531SOL    HW125055   2.545   0.240  12.643 -0.0033 -0.5890  0.4556
 4531SOL    HW225056   2.495   0.157  12.529  3.0815  2.1226 -0.1463
 4532SOL     OW25057   0.260   1.774   7.270 -0.5941  0.1561 -0.4957
 4532SOL    HW125058   0.304   1.812   7.346 -2.5881 -1.5750  1.5103
 4532SOL    HW225059   0.183   1.753   7.322 -0.2659  0.6450  0.1832
 4533SOL     OW25060   4.517   2.504  12.952  0.3758 -0.1802  0.5721
 4533SOL    HW125061   4.565   2.552  13.020  1.4946  0.4601 -0.6837
 4533SOL    HW225062   4.549   2.416  12.972  0.2149 -1.0018 -2.8780
 4534SOL     OW25063   3.839   0.990   4.029 -0.3383  0.5202 -0.2807
 4534SOL    HW125064   3.756   0.995   3.981 -0.3088  1.1112 -0.2727
 4534SOL    HW225065   3.818   1.018   4.118  2.4684  1.8535 -0.0584
 4535SOL     OW25066   1.550   1.314   9.254 -0.3259 -0.0581  0.2304
 4535SOL    HW125067   1.645   1.325   9.263 -0.0970 -0.7918 -1.1512
 4535SOL    HW225068   1.514   1.377   9.316 -2.1561 -0.9596  0.0777
 4536SOL     OW25069   3.334   2.275   6.629 -0.2765 -0.0325  0.0508
 4536SOL    HW125070   3.349   2.207   6.564 -1.8195 -0.2756 -0.0436
 4536SOL    HW225071   3.353   2.223   6.708  1.3054 -0.5421 -0.6674
 4537SOL     OW25072   1.396   1.936   8.363  0.6912  0.0084  0.4852
 4537SOL    HW125073   1.302   1.920   8.368  0.8487 -1.5322 -1.2062
 4537SOL    HW225074   1.400   2.023   8.323 -1.1345  0.0073  0.3052
 4538SOL     OW25075   3.858   0.257   1.095 -0.3245 -0.6708 -0.3138
 4538SOL    HW125076   3.796   0.192   1.127 -0.0086 -2.5475 -3.4770
 4538SOL    HW225077   3.873   0.310   1.173  0.2338  0.5162 -1.2284
 4539SOL     OW25078   2.270   0.728   2.678 -0.6173 -0.7562  0.2412
 4539SOL    HW125079   2.350   0.675   2.679  0.1348  0.3238 -2.1337
 4539SOL    HW225080   2.279   0.774   2.761 -0.0429  0.2073 -0.3678
 4540SOL     OW25081   4.243   4.475   5.565  0.5213  0.5432  0.1155
 4540SOL    HW125082   4.221   4.440   5.651  1.3064 -1.3830 -0.4661
 4540SOL    HW225083   4.336   4.452   5.563 -0.0367 -1.7500  0.1826
 4541SOL     OW25084   0.110   1.190  13.907  0.0424  0.1173 -0.2791
 4541SOL    HW125085   0.145   1.220  13.823  2.2930  1.2653  1.0713
 4541SOL    HW225086   0.131   1.097  13.906  0.0210  0.0636  3.8248
 4542SOL     OW25087   2.393   0.361   7.173  0.2265  0.0201  0.0055
 4542SOL    HW125088   2.488   0.353   7.176  0.2380  0.4162  0.8104
 4542SOL    HW225089   2.376   0.357   7.267 -1.6043  2.8368 -0.2120
 4543SOL     OW25090   4.379   1.465   9.687  0.1129  0.0615  0.3479
 4543SOL    HW125091   4.324   1.387   9.676  0.7051 -0.1872 -0.9208
 4543SOL    HW225092   4.424   1.458   9.603  1.1510 -0.5705  0.9644
 4544SOL     OW25093   4.481   3.710  11.621 -0.0853 -0.3190 -0.2467
 4544SOL    HW125094   4.570   3.675  11.632  0.4875  1.9518  2.2585
 4544SOL    HW225095   4.449   3.654  11.550  0.5649  0.5394 -1.2151
 4545SOL     OW25096   3.103   1.024  11.555 -0.5444  0.4030 -0.9360
 4545SOL    HW125097   3.061   1.022  11.470 -0.0370  2.8942 -1.2428
 4545SOL    HW225098   3.044   0.977  11.614  2.3472 -1.8317  0.2114
 4546SOL     OW25099   0.682   2.246   8.005  0.3762 -0.0516 -0.6982
 4546SOL    HW125100   0.610   2.306   7.992  0.1587 -0.0145  0.6341
 4546SOL    HW225101   0.685   2.187   7.930 -0.6196  0.5612 -1.2036
 4547SOL     OW25102   3.770   2.765   2.496 -0.2424  0.2923 -0.7086
 4547SOL    HW125103   3.713   2.729   2.563 -0.8887  3.2963  0.3868
 4547SOL    HW225104   3.742   2.856   2.509  1.9356  0.6412  1.5581
 4548SOL     OW25105   2.526   0.481  16.989 -0.1688 -0.2735  0.5997
 4548SOL    HW125106   2.488   0.524  16.913 -1.8890 -2.8480  0.0181
 4548SOL    HW225107   2.512   0.387  16.974 -2.2266  0.5831 -2.7614
 4549SOL     OW25108   3.847   1.233   6.313 -0.7481  0.6320  0.3593
 4549SOL    HW125109   3.911   1.215   6.245 -1.0790 -0.3136  0.2985
 4549SOL    HW225110   3.789   1.292   6.263  0.0276 -0.2811 -1.5972
 4550SOL     OW25111   4.464   3.073   2.586 -0.1619  0.2860 -0.4690
 4550SOL    HW125112   4.528   3.055   2.655 -0.0967  0.6077 -0.4438
 4550SOL    HW225113   4.422   2.989   2.571  1.7105 -0.9892  1.4548
 4551SOL     OW25114   1.440   1.082   4.289 -0.2259 -0.1020  0.5543
 4551SOL    HW125115   1.527   1.047   4.269 -0.2284  0.3128 -0.1847
 4551SOL    HW225116   1.405   1.017   4.348 -0.2785  0.8033  1.5189
 4552SOL     OW25117   3.535   4.548   1.039 -0.2785  0.5294  0.0952
 4552SOL    HW125118   3.501   4.612   1.101 -0.0623  0.4430  0.3042
 4552SOL    HW225119   3.549   4.480   1.105 -0.1201  3.2677  2.8711
 4553SOL     OW25120   4.482   2.280   5.724  0.5757 -0.6777  0.1677
 4553SOL    HW125121   4.488   2.185   5.718  0.5843 -0.6217 -0.7821
 4553SOL    HW225122   4.457   2.310   5.636  0.6265  0.6398  0.6014
 4554SOL     OW25123   1.256   4.650  11.115  0.3784 -0.1703  0.0490
 4554SOL    HW125124   1.238   0.003  11.177 -1.6012 -0.5104 -0.1499
 4554SOL    HW225125   1.349   4.647  11.138  0.7724  2.1066 -1.2186
 4555SOL     OW25126   4.467   3.411   3.603 -0.4469  0.7792  0.0670
 4555SOL    HW125127   4.390   3.460   3.633 -0.7450  0.7265 -0.6289
 4555SOL    HW225128   4.536   3.475   3.620 -0.9114  1.3474 -0.2101
 4556SOL     OW25129   4.062   2.706   6.414  0.3439  0.3577  0.2872
 4556SOL    HW125130   4.026   2.696   6.326 -1.2433 -0.1673  0.9944
 4556SOL    HW225131   4.086   2.615   6.428  1.7233  0.7752  0.6984
 4557SOL     OW25132   3.730   3.897   3.001 -0.4459 -0.0055  0.1626
 4557SOL    HW125133   3.663   3.888   3.069 -0.5507 -1.8408 -0.1850
 4557SOL    HW225134   3.798   3.934   3.057 -1.1454 -0.0658  1.0587
 4558SOL     OW25135   1.922   1.871   3.188 -0.1893  0.0221 -0.2557
 4558SOL    HW125136   1.886   1.909   3.108 -0.0659  1.1419  0.2240
 4558SOL    HW225137   1.877   1.787   3.191  0.0238 -0.1326 -1.4745
 4559SOL     OW25138   1.200   3.595   7.679 -0.2387 -0.2571  0.3088
 4559SOL    HW125139   1.231   3.562   7.764  0.6299 -0.3696 -0.0542
 4559SOL    HW225140   1.255   3.670   7.659 -0.5795 -0.2885 -0.7467
 4560SOL     OW25141   3.000   0.387  13.471 -0.5937 -0.2572 -0.6943
 4560SOL    HW125142   2.997   0.481  13.492  1.1141 -0.7096  1.5940
 4560SOL    HW225143   2.945   0.359  13.544  0.8942  0.7202  0.8097
 4561SOL     OW25144   4.403   0.582   7.448  0.5546  0.0116  0.4127
 4561SOL    HW125145   4.337   0.651   7.433 -0.1909 -0.6681  0.5529
 4561SOL    HW225146   4.478   0.608   7.394  0.0546 -0.0012 -0.2854
 4562SOL     OW25147   1.774   3.441   3.245 -0.3065 -0.1497  0.3913
 4562SOL    HW125148   1.693   3.478   3.209 -0.7837 -0.3433  1.2879
 4562SOL    HW225149   1.752   3.410   3.333  1.1691 -1.5743  0.2599
 4563SOL     OW25150   3.780   1.838   9.174  0.5156  0.2413 -0.4049
 4563SOL    HW125151   3.788   1.931   9.193  1.0871  0.1267 -0.0802
 4563SOL    HW225152   3.801   1.841   9.081  1.2332  1.3610 -0.1918
 4564SOL     OW25153   1.453   0.279   1.161 -0.2583 -0.2967 -0.2188
 4564SOL    HW125154   1.455   0.275   1.065 -1.2813  3.1425 -0.3880
 4564SOL    HW225155   1.378   0.222   1.174 -0.4247 -0.0576 -0.1253
 4565SOL     OW25156   3.947   3.604   5.915  0.7803 -0.0475 -0.8824
 4565SOL    HW125157   3.999   3.574   5.841 -0.3235 -1.8612 -0.9118
 4565SOL    HW225158   3.863   3.560   5.901  0.0466  1.7962 -2.2914
 4566SOL     OW25159   3.965   0.262   2.385  0.1141  0.0800  0.3147
 4566SOL    HW125160   4.001   0.177   2.361  1.0067  0.2667  0.9884
 4566SOL    HW225161   4.044   0.316   2.390  0.2196 -0.1000  0.6223
 4567SOL     OW25162   2.875   0.720   8.595  0.0429  0.3050  0.5553
 4567SOL    HW125163   2.812   0.738   8.665 -0.5718 -2.4789  0.7188
 4567SOL    HW225164   2.941   0.784   8.619 -2.4135  2.9874  0.1868
 4568SOL     OW25165   1.420   2.923   0.513 -0.2919  0.0551 -0.2641
 4568SOL    HW125166   1.358   2.956   0.578  1.8743  2.6761  0.4779
 4568SOL    HW225167   1.388   2.832   0.511 -0.0136 -0.1238  2.5027
 4569SOL     OW25168   4.012   1.168   8.851 -0.1702 -0.2462  0.0824
 4569SOL    HW125169   4.094   1.135   8.814 -0.0743  1.6993 -1.4315
 4569SOL    HW225170   4.003   1.112   8.928 -2.1596 -2.1577 -1.5637
 4570SOL     OW25171   4.528   1.931   4.716 -0.4222  0.8352 -0.0639
 4570SOL    HW125172   4.478   1.890   4.645 -0.0162 -2.1181  1.3627
 4570SOL    HW225173   4.512   2.025   4.708 -0.8722  0.8185  0.6026
 4571SOL     OW25174   2.852   1.705  15.839  0.5272  0.0068  0.9408
 4571SOL    HW125175   2.785   1.638  15.851  1.0471 -0.6592  0.0981
 4571SOL    HW225176   2.920   1.665  15.785 -1.5096 -2.7677  0.4103
 4572SOL     OW25177   3.599   0.048  10.403 -0.1316 -0.2582  0.4730
 4572SOL    HW125178   3.582   0.015  10.491  3.0659 -0.7785  0.9010
 4572SOL    HW225179   3.670   4.709  10.374  1.2972  0.9726  1.5367
 4573SOL     OW25180   1.213   0.736  17.238  0.0424 -0.2560 -0.3091
 4573SOL    HW125181   1.189   0.740  17.331  1.2293  0.3069 -0.0314
 4573SOL    HW225182   1.140   0.782  17.195 -0.7409 -0.3595  0.8914
 4574SOL     OW25183   2.219   4.011   8.557  0.0767  0.2752 -0.5669
 4574SOL    HW125184   2.258   4.087   8.601 -0.1597 -0.1147  0.3155
 4574SOL    HW225185   2.272   3.935   8.581  0.2273 -0.2272 -2.5196
 4575SOL     OW25186   4.354   0.326   5.390 -0.3473  0.5221 -0.2342
 4575SOL    HW125187   4.446   0.312   5.368  0.5161  0.3623  3.4128
 4575SOL    HW225188   4.312   0.328   5.304 -1.0836 -0.5817  0.0977
 4576SOL     OW25189   4.452   2.013  15.166  0.5330 -0.5357  0.2137
 4576SOL    HW125190   4.451   1.967  15.082 -1.2909  0.4601 -0.3157
 4576SOL    HW225191   4.476   2.099  15.132 -1.1616  0.0352  0.4503
 4577SOL     OW25192   1.379   2.509   7.595  0.1658 -0.5271 -0.3475
 4577SOL    HW125193   1.469   2.541   7.587  0.4830 -0.5334  3.2987
 4577SOL    HW225194   1.390   2.418   7.566  0.1198 -0.9505  0.9546
 4578SOL     OW25195   1.657   4.327   6.801 -0.3327  0.1016 -0.6000
 4578SOL    HW125196   1.662   4.253   6.862 -1.0601 -0.2588 -0.9709
 4578SOL    HW225197   1.737   4.374   6.824 -1.6535  2.3290 -0.5215
 4579SOL     OW25198   1.901   3.587   6.755 -0.2945  0.1379 -0.3354
 4579SOL    HW125199   1.912   3.625   6.668 -0.5001 -0.8490 -0.7872
 4579SOL    HW225200   1.874   3.500   6.726 -0.9217 -0.3681  1.7191
 4580SOL     OW25201   0.643   1.828   4.131 -0.2035 -0.7058  0.1152
 4580SOL    HW125202   0.626   1.754   4.189 -3.0029  0.8764  1.3470
 4580SOL    HW225203   0.675   1.774   4.059  1.1930  1.6202 -1.0192
 4581SOL     OW25204   1.130   4.414   6.131  0.3335  0.1551  0.0963
 4581SOL    HW125205   1.155   4.322   6.137 -0.4228  0.0581  1.6576
 4581SOL    HW225206   1.037   4.405   6.108 -0.0515 -0.4544  1.9206
 4582SOL     OW25207   2.737   4.071   8.582  0.6404  0.1744  0.0505
 4582SOL    HW125208   2.703   4.030   8.503  0.3542 -0.4778  0.5153
 4582SOL    HW225209   2.787   4.136   8.532 -0.4189 -0.0575 -1.2951
 4583SOL     OW25210   1.302   4.076  10.851 -0.1004 -0.0324 -0.4815
 4583SOL    HW125211   1.242   4.027  10.908  1.3024 -1.2526 -0.0553
 4583SOL    HW225212   1.293   4.167  10.877 -0.9583  0.4894 -2.5815
 4584SOL     OW25213   3.640   3.586   0.638 -0.2825 -0.0544 -0.9056
 4584SOL    HW125214   3.641   3.493   0.617  0.9504 -0.0758 -0.7579
 4584SOL    HW225215   3.719   3.614   0.591  0.2518  0.8019  0.5051
 4585SOL     OW25216   2.605   0.957   5.403 -0.3144 -0.6313 -0.8734
 4585SOL    HW125217   2.537   0.909   5.356 -1.3076  0.4969 -0.5967
 4585SOL    HW225218   2.609   1.042   5.360  2.0359 -0.4221 -0.2516
 4586SOL     OW25219   1.929   0.643   2.305 -0.3965  0.0258 -0.1288
 4586SOL    HW125220   1.946   0.553   2.334  2.4995  1.1317  1.6186
 4586SOL    HW225221   1.913   0.688   2.388  0.1285 -0.5548  0.2854
 4587SOL     OW25222   4.712   0.444  10.599  0.1102  0.2283 -0.2185
 4587SOL    HW125223   0.004   0.368  10.656 -0.4422  0.9348  0.8062
 4587SOL    HW225224   4.618   0.450  10.612 -0.0159 -1.1599 -0.5174
 4588SOL     OW25225   1.347   2.655   3.221 -0.0955  0.9221  0.3995
 4588SOL    HW125226   1.322   2.649   3.313  0.2623 -1.7656  0.3205
 4588SOL    HW225227   1.442   2.663   3.227 -0.0970 -0.4285  2.1697
 4589SOL     OW25228   2.757   3.159  15.749  0.4883 -0.1236 -0.3010
 4589SOL    HW125229   2.824   3.226  15.734  0.2566  0.7369  2.4771
 4589SOL    HW225230   2.725   3.146  15.660  1.1315  1.0713 -0.6976
 4590SOL     OW25231   3.871   0.381   9.752 -0.0726 -0.3509  1.1203
 4590SOL    HW125232   3.794   0.370   9.808 -0.8455  1.2130  0.3725
 4590SOL    HW225233   3.833   0.408   9.668  0.4817  1.3571  1.4227
 4591SOL     OW25234   0.420   1.824   6.004 -0.0629  0.5637  0.3089
 4591SOL    HW125235   0.414   1.730   6.019 -1.4357  0.7354  0.7993
 4591SOL    HW225236   0.486   1.841   6.071  1.4817  1.1872 -1.3361
 4592SOL     OW25237   4.311   4.222   4.846  0.2926  0.1751 -0.1735
 4592SOL    HW125238   4.228   4.246   4.804  1.1756 -0.3703 -2.2758
 4592SOL    HW225239   4.310   4.276   4.924  1.4172 -0.9421  0.6046
 4593SOL     OW25240   0.017   2.175   4.220  0.2847  0.0833 -0.1243
 4593SOL    HW125241   0.025   2.213   4.308 -3.0963 -0.6694  0.4996
 4593SOL    HW225242   4.644   2.198   4.198  0.0623 -1.3042 -0.6775
 4594SOL     OW25243   1.637   2.676  10.805 -0.0314 -0.5181  0.4592
 4594SOL    HW125244   1.664   2.762  10.838 -0.9609  0.0384 -0.2345
 4594SOL    HW225245   1.622   2.641  10.893  1.7317  1.2835  1.4852
 4595SOL     OW25246   3.915   3.101  11.375 -0.2146 -0.0221 -0.3752
 4595SOL    HW125247   3.985   3.144  11.326 -0.0360 -0.6745 -0.7032
 4595SOL    HW225248   3.937   3.008  11.368  1.6383  0.2862  1.5090
 4596SOL     OW25249   1.903   2.482   5.083  0.0681  0.3799 -0.3474
 4596SOL    HW125250   1.830   2.426   5.056 -1.3027  1.1571  1.7400
 4596SOL    HW225251   1.966   2.460   5.015 -0.8653 -1.8068 -0.4999
 4597SOL     OW25252   1.661   0.572  13.271 -0.1320  0.0985 -0.4183
 4597SOL    HW125253   1.705   0.628  13.207  1.7348 -1.6188 -0.6072
 4597SOL    HW225254   1.662   0.630  13.347 -0.3478 -0.0224 -0.3222
 4598SOL     OW25255   3.253   3.229   1.589 -0.0982  0.0314 -0.5689
 4598SOL    HW125256   3.218   3.315   1.612  1.7898  0.8342 -0.7259
 4598SOL    HW225257   3.261   3.179   1.671 -0.0662 -1.5050 -1.5005
 4599SOL     OW25258   2.425   1.823   3.917 -0.1765  0.2519  0.6272
 4599SOL    HW125259   2.475   1.794   3.841 -2.4595  1.3938 -1.2881
 4599SOL    HW225260   2.490   1.860   3.977  0.3721 -1.5501  1.1444
 4600SOL     OW25261   0.384   0.543  12.400  0.2322  0.4492 -0.0551
 4600SOL    HW125262   0.364   0.450  12.407 -2.2614  0.9680 -0.0804
 4600SOL    HW225263   0.439   0.552  12.478  3.3931  0.5114 -2.2984
 4601SOL     OW25264   3.134   2.756   8.269 -0.0195  0.1130 -0.6975
 4601SOL    HW125265   3.093   2.772   8.354  2.8928 -0.5463  0.8329
 4601SOL    HW225266   3.067   2.792   8.210 -1.5627  0.8620  1.5008
 4602SOL     OW25267   1.704   3.720   1.679  0.2411  0.0326 -0.4096
 4602SOL    HW125268   1.642   3.647   1.681  1.4688 -0.9753  1.1952
 4602SOL    HW225269   1.715   3.727   1.773  3.9452 -1.4813 -0.7242
 4603SOL     OW25270   2.816   3.639   4.596  0.4530 -0.0396 -0.4944
 4603SOL    HW125271   2.800   3.722   4.641  1.7509 -0.1936  0.2370
 4603SOL    HW225272   2.749   3.637   4.527  1.2581 -2.4220 -1.2188
 4604SOL     OW25273   2.938   3.144   8.425 -0.1141  0.1871 -0.3871
 4604SOL    HW125274   2.944   3.149   8.330 -2.5615  0.9290 -0.5045
 4604SOL    HW225275   3.031   3.160   8.443 -0.1009 -1.0087  0.5663
 4605SOL     OW25276   3.360   0.008  11.423 -0.3105  0.0314  0.1207
 4605SOL    HW125277   3.373   0.100  11.401  0.1339  0.0062  0.2920
 4605SOL    HW225278   3.287   4.701  11.365 -1.5977  3.5857  0.2256
 4606SOL     OW25279   1.092   1.588   3.656  0.6453  0.2235 -0.2340
 4606SOL    HW125280   1.054   1.584   3.744  1.1029  0.6868 -0.0208
 4606SOL    HW225281   1.016   1.632   3.618  2.2420  1.4907 -1.9535
 4607SOL     OW25282   2.364   3.326  16.883 -0.0830 -0.4088 -0.2697
 4607SOL    HW125283   2.435   3.374  16.927 -0.0390 -2.3649  1.7667
 4607SOL    HW225284   2.347   3.384  16.809 -0.4226 -1.7266 -1.2294
 4608SOL     OW25285   2.862   3.622   6.670 -0.3334 -0.1967  0.7676
 4608SOL    HW125286   2.898   3.539   6.701 -0.6246 -0.8906 -0.7653
 4608SOL    HW225287   2.886   3.681   6.742  0.8931 -0.5715  0.6629
 4609SOL     OW25288   3.610   3.836   7.664  0.3017 -0.3064 -0.0198
 4609SOL    HW125289   3.598   3.846   7.569  1.3568 -3.5138 -0.5086
 4609SOL    HW225290   3.590   3.923   7.699  0.4786  0.4108 -1.6752
 4610SOL     OW25291   1.803   1.761   0.949  0.2926 -0.2723  0.2372
 4610SOL    HW125292   1.730   1.788   0.893 -0.1335  3.2454  2.4882
 4610SOL    HW225293   1.876   1.778   0.890  1.7114 -3.0047  1.1896
 4611SOL     OW25294   1.520   4.413  12.500  0.0399  0.4388  0.7656
 4611SOL    HW125295   1.532   4.321  12.522  0.2741  0.0779 -0.8672
 4611SOL    HW225296   1.430   4.410  12.466  0.1037  1.6576  0.4579
 4612SOL     OW25297   2.351   2.153   6.583 -0.4957  0.1010  0.3879
 4612SOL    HW125298   2.264   2.124   6.556 -0.0416  0.8552 -1.8522
 4612SOL    HW225299   2.339   2.247   6.599  0.1090 -0.0195  1.5951
 4613SOL     OW25300   3.733   3.461   7.384  0.0207 -0.5415 -0.1139
 4613SOL    HW125301   3.813   3.433   7.430 -0.0979 -0.0681  0.3811
 4613SOL    HW225302   3.752   3.482   7.293 -1.0849 -2.2550 -0.7488
 4614SOL     OW25303   2.663   0.973  11.484  0.6023 -0.1922  0.2004
 4614SOL    HW125304   2.688   1.057  11.445 -0.7012 -0.6804 -1.6724
 4614SOL    HW225305   2.593   0.945  11.425  1.5363  1.1695 -1.5391
 4615SOL     OW25306   1.224   2.795  15.829 -0.0914 -0.0726  0.3978
 4615SOL    HW125307   1.299   2.735  15.822 -0.6737 -0.6779 -0.6621
 4615SOL    HW225308   1.170   2.750  15.764 -0.9773 -0.3603  1.3344
 4616SOL     OW25309   4.162   3.601   3.200  0.6196  0.1029 -0.6532
 4616SOL    HW125310   4.147   3.576   3.291  0.3691 -1.7150 -1.2001
 4616SOL    HW225311   4.173   3.521   3.149  0.2327 -1.1777  1.2590
 4617SOL     OW25312   2.337   0.531   8.083 -0.3035  0.1514 -0.4741
 4617SOL    HW125313   2.402   0.551   8.016  0.2945  1.1319  0.3910
 4617SOL    HW225314   2.337   0.610   8.137 -1.3916  0.1195 -0.4315
 4618SOL     OW25315   0.724   2.234   4.175  0.3458 -0.1845 -0.5646
 4618SOL    HW125316   0.665   2.183   4.231  0.7811  1.4485  1.3960
 4618SOL    HW225317   0.797   2.173   4.168  0.8640 -0.0274  3.0947
 4619SOL     OW25318   1.056   1.262   3.253 -0.0307  0.5942 -0.2891
 4619SOL    HW125319   1.020   1.222   3.174 -0.3134  0.2863 -0.0002
 4619SOL    HW225320   1.026   1.189   3.307 -1.4958  0.1236 -1.7373
 4620SOL     OW25321   0.022   3.510   2.569  0.5249  0.0082 -0.0559
 4620SOL    HW125322   0.062   3.438   2.617 -1.8450 -1.0634  0.3346
 4620SOL    HW225323   0.085   3.512   2.497 -0.9765 -2.4745 -1.4603
 4621SOL     OW25324   0.525   3.211   3.787 -0.0603 -0.5183  0.3147
 4621SOL    HW125325   0.563   3.235   3.871 -0.0215  0.8569 -0.0976
 4621SOL    HW225326   0.531   3.291   3.736 -0.3195 -0.2554  0.6954
 4622SOL     OW25327   1.966   0.528   5.445 -0.3751 -0.4016 -0.1347
 4622SOL    HW125328   1.962   0.469   5.369  0.3477  0.1158 -0.5741
 4622SOL    HW225329   2.013   0.472   5.506 -1.1811 -1.8203 -0.8031
 4623SOL     OW25330   2.245   2.148   5.864 -0.1446 -0.6800  0.0646
 4623SOL    HW125331   2.302   2.119   5.793 -1.3243  0.7860 -1.5030
 4623SOL    HW225332   2.317   2.182   5.917 -0.5180 -2.4385  1.6699
 4624SOL     OW25333   4.287   3.250  12.396  0.1500 -0.0347 -0.0421
 4624SOL    HW125334   4.218   3.316  12.401 -0.2395 -0.4299 -0.2156
 4624SOL    HW225335   4.238   3.169  12.379 -0.3415  0.1705  0.3869
 4625SOL     OW25336   4.168   2.508   6.835 -0.8948 -0.1611  0.1413
 4625SOL    HW125337   4.127   2.539   6.917 -2.2290 -0.1665 -0.5166
 4625SOL    HW225338   4.088   2.475   6.795 -0.9443 -1.3861  1.2644
 4626SOL     OW25339   2.378   1.697   6.643 -0.0904 -0.3977  0.4609
 4626SOL    HW125340   2.334   1.645   6.576 -0.7473  1.1166 -0.2980
 4626SOL    HW225341   2.328   1.668   6.720 -0.8982 -1.5478 -0.4878
 4627SOL     OW25342   0.900   0.454   2.783  0.8614  0.1595  0.5584
 4627SOL    HW125343   0.917   0.458   2.688 -2.4574 -1.0255 -0.0717
 4627SOL    HW225344   0.982   0.486   2.820  2.3721 -2.0422 -0.8526
 4628SOL     OW25345   0.405   1.963  14.073 -0.3702 -0.2997 -0.4050
 4628SOL    HW125346   0.460   1.886  14.091  0.1953 -0.0586 -1.0936
 4628SOL    HW225347   0.327   1.932  14.119 -0.4720  1.7149  0.7649
 4629SOL     OW25348   4.169   0.097  15.262  0.5483 -0.1871 -0.3339
 4629SOL    HW125349   4.159   0.087  15.357  3.1557 -3.5715 -0.4048
 4629SOL    HW225350   4.236   0.165  15.262 -0.3564  0.7087  1.9344
 4630SOL     OW25351   4.377   0.973   6.426 -0.1552  0.3102  0.1880
 4630SOL    HW125352   4.307   0.908   6.428  1.8123 -1.9176 -3.6400
 4630SOL    HW225353   4.453   0.923   6.459 -0.2023  0.5754  0.6987
 4631SOL     OW25354   4.576   3.886   7.839  0.1154  0.0601  0.8599
 4631SOL    HW125355   4.669   3.863   7.834  0.9063  3.0881  1.6961
 4631SOL    HW225356   4.559   3.868   7.932 -1.0883 -2.4205  0.1601
 4632SOL     OW25357   2.383   2.406   8.236  0.9410  0.5596  0.1212
 4632SOL    HW125358   2.297   2.429   8.202  0.4756  0.5221  1.2728
 4632SOL    HW225359   2.363   2.408   8.329  1.3410  0.8168  0.1991
 4633SOL     OW25360   0.420   2.883   7.120  0.0229 -0.2457 -0.2226
 4633SOL    HW125361   0.502   2.921   7.152 -1.0725  0.2367  2.0720
 4633SOL    HW225362   0.381   2.847   7.200  0.3910  0.0908  0.1123
 4634SOL     OW25363   0.641   2.567   7.749 -0.4524  0.1428  0.4797
 4634SOL    HW125364   0.578   2.523   7.806  1.3109 -0.7564  1.7477
 4634SOL    HW225365   0.665   2.642   7.803  0.6698  0.0838  0.0667
 4635SOL     OW25366   4.603   4.556   9.386 -0.5528 -0.7637  0.0034
 4635SOL    HW125367   4.548   4.479   9.400 -1.2521 -0.5228 -1.4500
 4635SOL    HW225368   4.574   4.583   9.299 -1.3318 -1.1345  0.1546
 4636SOL     OW25369   3.059   2.604   0.605 -0.3512 -0.2268 -0.6444
 4636SOL    HW125370   3.018   2.656   0.675  0.0802 -0.9921  0.1791
 4636SOL    HW225371   2.982   2.570   0.559  0.5803  0.6047 -2.8151
 4637SOL     OW25372   3.482   2.782   8.676 -0.2186 -0.7577 -0.3808
 4637SOL    HW125373   3.393   2.787   8.711  1.1823  0.0931  3.0446
 4637SOL    HW225374   3.487   2.690   8.649  1.8621 -0.4464 -1.0655
 4638SOL     OW25375   2.412   3.107  12.546 -0.1196  0.1320 -0.7258
 4638SOL    HW125376   2.408   3.013  12.528  0.1924  0.1029 -0.6552
 4638SOL    HW225377   2.328   3.135  12.510  0.4616  0.9495 -1.4482
 4639SOL     OW25378   1.373   4.407   7.755 -0.0210  0.3870  0.3800
 4639SOL    HW125379   1.383   4.469   7.826 -3.6408  0.6199  0.6803
 4639SOL    HW225380   1.341   4.471   7.692 -0.5781  0.5236  0.8032
 4640SOL     OW25381   3.019   4.277  12.501 -0.5252  0.4160 -0.1463
 4640SOL    HW125382   3.052   4.310  12.585  0.1568 -0.4390 -0.0743
 4640SOL    HW225383   3.101   4.288  12.452 -0.5030  2.1503  0.3050
 4641SOL     OW25384   0.335   1.502  15.709 -0.5922 -0.0546 -0.4407
 4641SOL    HW125385   0.372   1.433  15.653 -0.8153  0.7162 -1.5334
 4641SOL    HW225386   0.249   1.510  15.669 -1.2153 -1.3251  0.6519
 4642SOL     OW25387   3.781   0.252   3.689  0.3021  0.0484 -0.6697
 4642SOL    HW125388   3.695   0.249   3.646 -0.7106 -0.4002  1.3933
 4642SOL    HW225389   3.778   0.321   3.755  2.7933  0.4758 -1.0227
 4643SOL     OW25390   0.688   4.018  11.039  0.5398  0.0733  0.0883
 4643SOL    HW125391   0.609   3.987  10.996  0.7338 -0.0138 -0.2066
 4643SOL    HW225392   0.739   4.058  10.969 -0.9486  0.7716 -0.5798
 4644SOL     OW25393   0.221   0.771  10.409 -0.4146  0.0668 -0.2880
 4644SOL    HW125394   0.181   0.857  10.423  0.9027  0.5409  0.5065
 4644SOL    HW225395   0.313   0.797  10.403 -0.5297  0.5368  0.0170
 4645SOL     OW25396   0.187   2.038   9.485  0.1202 -0.0908 -0.4662
 4645SOL    HW125397   0.216   2.069   9.571 -1.1546  0.2465 -0.1642
 4645SOL    HW225398   0.274   2.028   9.447  0.4661 -0.7155  0.4867
 4646SOL     OW25399   2.216   3.074   4.526  0.3341 -0.2581  0.5274
 4646SOL    HW125400   2.156   3.088   4.452 -0.4262  2.6941  1.7064
 4646SOL    HW225401   2.172   3.119   4.598 -0.3365 -0.6108  0.3412
 4647SOL     OW25402   3.224   1.465  17.061  0.0548  0.2073 -0.1882
 4647SOL    HW125403   3.236   1.397  16.995  0.4281  1.1817 -1.1248
 4647SOL    HW225404   3.145   1.425  17.096 -0.8238  1.5256 -0.6654
 4648SOL     OW25405   2.985   0.067   3.515 -0.6848 -0.0437 -0.1705
 4648SOL    HW125406   3.007   0.002   3.448  1.5159  1.3037 -0.7454
 4648SOL    HW225407   2.998   0.145   3.462 -0.4559 -0.4540 -0.7180
 4649SOL     OW25408   4.254   2.761  15.640  0.6363  0.8479  0.9243
 4649SOL    HW125409   4.239   2.666  15.642 -1.2503  1.1364 -0.0645
 4649SOL    HW225410   4.294   2.772  15.726  1.8186  0.5793  0.4082
 4650SOL     OW25411   2.752   2.250   8.185 -0.1950  0.2613  0.5800
 4650SOL    HW125412   2.788   2.338   8.177 -0.1599  0.2292  0.3933
 4650SOL    HW225413   2.727   2.230   8.095 -0.0088  0.3963  0.4972
 4651SOL     OW25414   4.462   2.885   1.775 -0.5266 -0.0040  0.2578
 4651SOL    HW125415   4.439   2.890   1.682 -0.6828  1.5396  0.3853
 4651SOL    HW225416   4.557   2.895   1.773 -0.3936 -1.2199  0.3805
 4652SOL     OW25417   1.960   4.494   2.763  0.4543  0.0996  0.8795
 4652SOL    HW125418   1.906   4.426   2.804 -1.8509  2.5484  1.9031
 4652SOL    HW225419   2.015   4.521   2.837  0.2409  0.4538  0.9081
 4653SOL     OW25420   4.401   3.566   8.044 -0.3073 -0.6958  0.3128
 4653SOL    HW125421   4.489   3.604   8.040 -0.4708 -0.3827 -0.2385
 4653SOL    HW225422   4.393   3.555   8.139  0.4263  1.5074  0.6266
 4654SOL     OW25423   4.053   3.286   8.415  0.2404 -0.5515  0.1266
 4654SOL    HW125424   4.132   3.313   8.461  1.7138  0.6496 -3.0710
 4654SOL    HW225425   4.009   3.232   8.481 -1.8990  0.7676 -0.2482
 4655SOL     OW25426   1.265   1.296  13.434  0.3449  0.3722  0.1585
 4655SOL    HW125427   1.182   1.261  13.400  1.4935 -1.0989 -1.1105
 4655SOL    HW225428   1.235   1.383  13.461  1.0239  0.4522  0.6501
 4656SOL     OW25429   4.288   1.805  13.928 -0.5308 -0.0910 -0.3596
 4656SOL    HW125430   4.256   1.736  13.870 -2.2693 -0.4500  1.0335
 4656SOL    HW225431   4.207   1.832  13.970 -0.7142 -0.2168 -0.6261
 4657SOL     OW25432   1.412   4.349  12.770 -0.8685 -0.6885 -0.2015
 4657SOL    HW125433   1.485   4.306  12.815  1.3451  1.0941 -2.1044
 4657SOL    HW225434   1.450   4.327  12.685 -1.2859  0.9692 -0.8087
 4658SOL     OW25435   0.586   2.691   4.938 -0.0821 -0.4991  0.1154
 4658SOL    HW125436   0.493   2.683   4.961 -0.2470 -1.2242 -0.8024
 4658SOL    HW225437   0.615   2.770   4.983 -1.9761 -0.3414  1.0371
 4659SOL     OW25438   1.844   2.463   8.665  0.1743 -0.0901  0.0994
 4659SOL    HW125439   1.875   2.435   8.752  0.2752 -0.9758 -0.2242
 4659SOL    HW225440   1.749   2.464   8.682 -0.0482  2.4405 -1.2797
 4660SOL     OW25441   4.694   3.119   0.774  0.3302  0.5154  0.2920
 4660SOL    HW125442   0.053   3.064   0.791  0.0502 -0.1750 -0.7137
 4660SOL    HW225443   4.625   3.090   0.833 -1.1108  0.5713 -1.3612
 4661SOL     OW25444   1.088   0.752  10.231  0.6718  0.1676 -0.0869
 4661SOL    HW125445   1.006   0.774  10.276  1.0975  3.9989 -1.1637
 4661SOL    HW225446   1.145   0.759  10.307  1.4562  0.3232 -0.6941
 4662SOL     OW25447   2.073   3.036  11.185 -0.1431 -0.2040  0.1338
 4662SOL    HW125448   2.132   3.069  11.117  0.9664 -1.9025  0.2535
 4662SOL    HW225449   2.115   2.950  11.197 -2.5757 -1.5741 -1.2964
 4663SOL     OW25450   2.651   2.259   3.355  0.1273  0.5016  0.1194
 4663SOL    HW125451   2.620   2.171   3.378  1.5330 -0.2016 -0.6514
 4663SOL    HW225452   2.624   2.258   3.263 -1.0246  1.3835  0.4397
 4664SOL     OW25453   2.591   4.151  14.768 -0.1911 -0.8989 -0.4907
 4664SOL    HW125454   2.621   4.197  14.846 -2.8019  1.3726 -0.8517
 4664SOL    HW225455   2.555   4.221  14.714  1.6885  1.2320  1.0143
 4665SOL     OW25456   0.711   1.182   9.311  0.1013 -0.7677 -0.6704
 4665SOL    HW125457   0.791   1.140   9.343  2.1052  3.6978  0.1979
 4665SOL    HW225458   0.669   1.206   9.394  2.7115  0.9651  0.1328
 4666SOL     OW25459   2.075   4.650   2.560 -0.6163 -0.3419  0.3988
 4666SOL    HW125460   2.050   4.584   2.625  1.7656 -1.6869 -0.0478
 4666SOL    HW225461   2.126   4.598   2.498 -0.8692 -0.0910 -0.0220
 4667SOL     OW25462   2.858   0.294   7.708  0.0003  0.4891 -0.1208
 4667SOL    HW125463   2.772   0.254   7.696 -1.0748  2.1250  2.3723
 4667SOL    HW225464   2.905   0.264   7.630 -1.5598 -2.4046  0.0406
 4668SOL     OW25465   1.215   1.684   9.352  0.0803  0.4861  0.3164
 4668SOL    HW125466   1.135   1.724   9.383 -0.2488 -0.4412  0.6541
 4668SOL    HW225467   1.258   1.756   9.305  0.9790  0.0851  0.5114
 4669SOL     OW25468   0.977   3.890   5.740  0.4352  0.0183 -0.3260
 4669SOL    HW125469   1.025   3.846   5.669  1.2096 -0.2849  0.3769
 4669SOL    HW225470   0.885   3.871   5.727 -0.1483  1.8960  1.1281
 4670SOL     OW25471   1.450   4.348   7.099  0.5057  0.0064 -0.0219
 4670SOL    HW125472   1.421   4.384   7.016 -0.5716 -0.8864 -0.0219
 4670SOL    HW225473   1.410   4.403   7.167  1.5465  1.0371 -0.2245
 4671SOL     OW25474   1.277   2.035   2.558  0.1783  0.0072 -0.9257
 4671SOL    HW125475   1.213   2.096   2.596  0.3294 -1.2500  1.3379
 4671SOL    HW225476   1.250   2.028   2.466 -0.5198  0.0065 -0.7189
 4672SOL     OW25477   1.306   3.757   6.033  0.4022 -0.3643 -0.1417
 4672SOL    HW125478   1.326   3.842   5.995 -0.6081 -0.0059  0.1228
 4672SOL    HW225479   1.381   3.745   6.091  1.1045  0.4991 -0.8829
 4673SOL     OW25480   2.085   2.386   2.202 -0.6449 -0.0573 -0.3342
 4673SOL    HW125481   2.039   2.314   2.159  1.4059 -2.5976  1.6730
 4673SOL    HW225482   2.087   2.358   2.294  0.2406 -0.2613 -0.4119
 4674SOL     OW25483   0.781   1.954  15.516  0.2623  0.5125  0.4152
 4674SOL    HW125484   0.740   1.925  15.434  1.3004  0.6281 -0.1499
 4674SOL    HW225485   0.707   1.992  15.563 -0.7537 -3.1605  1.7688
 4675SOL     OW25486   0.367   0.427  10.966 -0.7504  0.6082 -0.1508
 4675SOL    HW125487   0.277   0.415  10.998 -0.8337 -0.9689 -0.9720
 4675SOL    HW225488   0.355   0.496  10.901  0.6127  0.4045 -0.6095
 4676SOL     OW25489   1.245   3.708   4.468 -0.4738 -0.4570 -0.7281
 4676SOL    HW125490   1.211   3.793   4.438  1.1872 -0.2504 -2.0110
 4676SOL    HW225491   1.169   3.650   4.476 -1.5196  0.7946 -1.5871
 4677SOL     OW25492   4.521   3.494  13.177 -0.5983 -0.4694 -0.2658
 4677SOL    HW125493   4.549   3.585  13.188 -0.3985 -0.6984  1.1500
 4677SOL    HW225494   4.581   3.455  13.242 -1.1082  1.6145  1.4323
 4678SOL     OW25495   0.183   4.535   4.397 -0.1241 -0.0683  0.8341
 4678SOL    HW125496   0.264   4.506   4.355  0.6497  1.5142  1.2576
 4678SOL    HW225497   0.189   4.499   4.486 -0.9740 -1.4282  0.3432
 4679SOL     OW25498   1.809   2.843   3.859 -0.4910  0.3491 -0.1206
 4679SOL    HW125499   1.853   2.844   3.774 -2.1036  2.9364 -0.9239
 4679SOL    HW225500   1.882   2.806   3.909 -1.0106 -1.1107 -0.4621
 4680SOL     OW25501   3.472   3.394  15.252 -0.3687 -0.8463 -0.2205
 4680SOL    HW125502   3.541   3.457  15.270 -1.5975  0.5891 -0.5779
 4680SOL    HW225503   3.521   3.313  15.240  1.9226  0.6140 -0.6176
 4681SOL     OW25504   0.330   2.688   3.316 -0.3426 -0.6011 -0.6105
 4681SOL    HW125505   0.422   2.660   3.316 -0.4800 -1.0472 -1.3280
 4681SOL    HW225506   0.305   2.603   3.352 -1.4697 -0.7531 -1.7376
 4682SOL     OW25507   1.903   3.449   8.897  0.1413  0.7753  0.4966
 4682SOL    HW125508   1.887   3.362   8.932 -1.0474 -0.2412 -2.4865
 4682SOL    HW225509   1.930   3.496   8.975 -1.6255  0.8232  1.0853
 4683SOL     OW25510   4.517   0.447   4.401  0.3521 -0.6068 -0.0006
 4683SOL    HW125511   4.524   0.492   4.486 -1.1060  1.8387 -1.2004
 4683SOL    HW225512   4.469   0.371   4.435 -0.3344  0.1373  0.6881
 4684SOL     OW25513   3.338   4.195   9.302 -0.2289  0.1659 -0.1848
 4684SOL    HW125514   3.285   4.136   9.356 -1.1313  0.8718 -0.3023
 4684SOL    HW225515   3.419   4.178   9.350  1.4489 -0.5589 -3.2600
 4685SOL     OW25516   0.480   2.698   5.744 -0.2643  0.0641 -0.4087
 4685SOL    HW125517   0.387   2.687   5.722 -0.1834  0.6209 -0.9856
 4685SOL    HW225518   0.526   2.639   5.685  0.7984 -0.0762  0.5597
 4686SOL     OW25519   1.795   1.576  16.779  0.1097 -0.1133 -0.0585
 4686SOL    HW125520   1.880   1.532  16.778 -0.2414 -0.7814 -0.0757
 4686SOL    HW225521   1.828   1.650  16.728 -1.9513  0.8709  0.0294
 4687SOL     OW25522   1.025   3.470   8.823  0.1590 -0.5995  0.1822
 4687SOL    HW125523   1.078   3.398   8.856  0.7411 -0.5606 -0.6524
 4687SOL    HW225524   1.059   3.536   8.884  1.0901 -1.3905  0.5088
 4688SOL     OW25525   3.255   2.648  10.192  0.1280  0.5161 -0.8010
 4688SOL    HW125526   3.199   2.717  10.158  0.5633 -0.3810 -3.3863
 4688SOL    HW225527   3.226   2.562  10.160 -1.0391  0.6918 -0.2070
 4689SOL     OW25528   4.200   4.198   0.716  0.6677  0.8471 -0.3657
 4689SOL    HW125529   4.236   4.286   0.719  1.6305  0.5261 -2.1264
 4689SOL    HW225530   4.251   4.149   0.780 -0.4408  0.9092  0.5636
 4690SOL     OW25531   3.661   3.736   4.515 -0.5650 -0.6930  0.2808
 4690SOL    HW125532   3.713   3.712   4.592  3.6654  3.0876 -1.3710
 4690SOL    HW225533   3.580   3.688   4.531 -1.0459  0.5722  1.6918
 4691SOL     OW25534   3.410   2.441   3.556  0.1126 -0.4177 -0.5374
 4691SOL    HW125535   3.466   2.382   3.506  0.1387 -2.9038  2.4117
 4691SOL    HW225536   3.482   2.490   3.596 -2.1823  3.4105 -1.0866
 4692SOL     OW25537   2.737   3.043   8.557  0.0338 -0.6177  0.1031
 4692SOL    HW125538   2.790   3.023   8.634 -0.3821  0.8191  0.7590
 4692SOL    HW225539   2.795   3.104   8.510  0.3790 -0.4787  0.7074
 4693SOL     OW25540   1.295   1.086   2.993 -0.3925  0.7139  0.1517
 4693SOL    HW125541   1.368   1.146   3.010 -0.9759  1.2777  0.6927
 4693SOL    HW225542   1.323   1.000   3.025  0.4414  1.4814  1.4683
 4694SOL     OW25543   2.479   3.343   2.572  0.4852 -0.1886  0.0777
 4694SOL    HW125544   2.500   3.279   2.505 -3.9579 -0.5167 -0.9853
 4694SOL    HW225545   2.565   3.381   2.589 -0.2430  0.9654  1.2422
 4695SOL     OW25546   3.152   1.153  13.204 -0.4357  0.3684  0.2599
 4695SOL    HW125547   3.076   1.094  13.206  0.5083 -0.8740 -1.3308
 4695SOL    HW225548   3.102   1.229  13.235  2.1386  1.7789  0.9840
 4696SOL     OW25549   2.329   4.049   8.955  0.6947  0.0450  0.1524
 4696SOL    HW125550   2.283   3.969   8.929  1.8212 -0.5134 -0.0864
 4696SOL    HW225551   2.374   4.061   8.871  0.7450  1.7680  0.4337
 4697SOL     OW25552   3.816   4.160   1.479 -0.1407 -0.4721  0.1872
 4697SOL    HW125553   3.754   4.098   1.443  0.7469 -1.7009  0.7618
 4697SOL    HW225554   3.852   4.200   1.400 -1.7402 -0.3689 -0.4882
 4698SOL     OW25555   0.469   0.205   7.394  0.1837 -0.1200  0.1357
 4698SOL    HW125556   0.440   0.217   7.303  0.9883 -0.3278 -0.1491
 4698SOL    HW225557   0.563   0.220   7.384  0.2622  0.3951  1.6780
 4699SOL     OW25558   2.024   4.325  11.999  0.0424  0.2600  0.6266
 4699SOL    HW125559   2.035   4.325  12.094 -1.9451  1.0700  0.8526
 4699SOL    HW225560   2.113   4.337  11.967 -0.0359 -2.1477 -0.4829
 4700SOL     OW25561   1.213   2.426  13.757  0.0249 -0.3231 -0.0278
 4700SOL    HW125562   1.227   2.466  13.671 -0.1910  0.6723  0.4099
 4700SOL    HW225563   1.263   2.482  13.816  0.7688 -0.0246 -0.9464
 4701SOL     OW25564   0.333   1.715  13.761 -0.1324 -0.1975  0.2180
 4701SOL    HW125565   0.321   1.809  13.758 -3.5180 -0.6092  1.5283
 4701SOL    HW225566   0.295   1.689  13.844  1.6300 -1.8745  0.5230
 4702SOL     OW25567   4.018   0.662   4.692  0.1439 -0.2587 -0.5116
 4702SOL    HW125568   4.008   0.575   4.729 -0.2400  0.3325  0.7623
 4702SOL    HW225569   3.925   0.679   4.673 -0.1097  1.0070  1.9424
 4703SOL     OW25570   4.433   3.310   5.787 -0.0878  0.0210  0.0343
 4703SOL    HW125571   4.479   3.350   5.713 -3.0923 -1.3990 -2.5668
 4703SOL    HW225572   4.418   3.220   5.758 -1.1649  0.3908 -0.5324
 4704SOL     OW25573   3.023   1.823  14.900 -0.7101  0.4204 -0.1607
 4704SOL    HW125574   3.015   1.794  14.810 -0.1248 -0.9293  0.2205
 4704SOL    HW225575   2.968   1.901  14.901 -0.3285  0.6720  1.8038
 4705SOL     OW25576   1.874   3.795   2.264  0.7551 -0.2975  0.0653
 4705SOL    HW125577   1.913   3.849   2.333  1.5472 -0.7052 -0.0658
 4705SOL    HW225578   1.953   3.768   2.217  0.1298  2.7049 -2.7121
 4706SOL     OW25579   3.903   4.409   5.990  0.0404 -0.0102  0.2265
 4706SOL    HW125580   3.948   4.327   5.968 -1.1868 -1.0452  1.6113
 4706SOL    HW225581   3.976   4.470   6.002  1.6030 -2.0770  1.1709
 4707SOL     OW25582   3.929   0.322   2.063 -0.4834 -0.3669 -0.0878
 4707SOL    HW125583   3.968   0.241   2.031  0.0450 -0.1937  0.1176
 4707SOL    HW225584   3.842   0.310   2.024 -0.0617 -3.8021  0.0219
 4708SOL     OW25585   3.058   4.518   9.149  0.7569  0.2392  0.5802
 4708SOL    HW125586   3.100   4.592   9.191  0.5705  0.6381  0.0666
 4708SOL    HW225587   3.007   4.490   9.225  2.2463 -0.8860  1.1521
 4709SOL     OW25588   2.101   2.090  11.861  0.2602  0.2815 -0.1042
 4709SOL    HW125589   2.013   2.117  11.837  1.2506  1.4300 -2.5674
 4709SOL    HW225590   2.095   2.000  11.893  0.3104  0.9269  1.6840
 4710SOL     OW25591   2.675   1.901  15.665 -0.2999 -0.1759 -0.2659
 4710SOL    HW125592   2.679   1.868  15.576  1.1695  0.1468 -0.3096
 4710SOL    HW225593   2.768   1.917  15.682 -0.0601 -0.5669 -1.2195
 4711SOL     OW25594   0.511   2.228   2.226  0.1914  0.8289 -0.5637
 4711SOL    HW125595   0.512   2.135   2.248  1.4721  1.8524  3.6239
 4711SOL    HW225596   0.544   2.217   2.137  1.4939  1.2182 -0.1222
 4712SOL     OW25597   0.527   3.853   3.813  0.5904  0.6418 -0.3643
 4712SOL    HW125598   0.556   3.929   3.864  1.3180 -0.5549  1.0185
 4712SOL    HW225599   0.613   3.812   3.797 -0.5081 -1.6525 -0.3464
 4713SOL     OW25600   1.307   2.409   4.799 -0.0802  0.0079  0.6795
 4713SOL    HW125601   1.354   2.383   4.878 -0.8654  0.0251  1.1510
 4713SOL    HW225602   1.220   2.412   4.838  0.4891 -1.9839  2.1073
 4714SOL     OW25603   3.751   1.650   2.058 -0.3964 -0.0214 -0.0817
 4714SOL    HW125604   3.829   1.698   2.031 -0.2427  1.3822  2.8195
 4714SOL    HW225605   3.711   1.703   2.128 -0.3889 -1.8614  1.3024
 4715SOL     OW25606   0.609   1.451   0.289  0.4344 -0.8839  0.0456
 4715SOL    HW125607   0.641   1.527   0.337  1.0421  0.5570 -2.6404
 4715SOL    HW225608   0.684   1.393   0.297  0.0331 -1.3257  0.6446
 4716SOL     OW25609   1.404   2.034   6.069 -0.1189  0.3459  0.1801
 4716SOL    HW125610   1.353   2.078   6.137 -0.0101 -1.9769  1.7607
 4716SOL    HW225611   1.490   2.076   6.061 -0.6226  0.5474 -3.9989
 4717SOL     OW25612   3.676   4.222   3.030 -0.1168  0.2457  0.2755
 4717SOL    HW125613   3.620   4.144   3.030  0.4761 -0.1616 -1.1620
 4717SOL    HW225614   3.613   4.283   3.069 -1.4457 -0.6591 -0.4641
 4718SOL     OW25615   0.991   1.870  17.229  0.2552 -0.6562  0.2636
 4718SOL    HW125616   0.977   1.832  17.142 -2.0837  1.7113 -0.4118
 4718SOL    HW225617   0.913   1.925  17.235  0.0371 -0.8322 -1.0017
 4719SOL     OW25618   2.548   1.994  13.206 -0.3213 -0.4254  0.0949
 4719SOL    HW125619   2.555   2.085  13.177 -0.9258  0.3240  2.2465
 4719SOL    HW225620   2.587   1.995  13.294 -1.0182 -0.0176  0.3984
 4720SOL     OW25621   1.725   0.148   6.900 -0.2822  0.3594 -0.0740
 4720SOL    HW125622   1.644   0.098   6.908 -0.6209  1.2432  2.0017
 4720SOL    HW225623   1.750   0.159   6.991 -1.0493  1.1998  0.0344
 4721SOL     OW25624   2.597   2.528   3.701 -0.2622 -0.1652  0.2779
 4721SOL    HW125625   2.544   2.550   3.624  0.4426 -2.3142 -0.8309
 4721SOL    HW225626   2.549   2.463   3.753 -1.0288  0.1908  0.0170
 4722SOL     OW25627   0.962   0.170   3.089  0.1168 -0.2497  0.3904
 4722SOL    HW125628   0.969   0.137   3.179 -1.3793 -1.3457  0.1094
 4722SOL    HW225629   0.871   0.144   3.074 -0.6171  3.1117 -0.9815
 4723SOL     OW25630   3.504   2.094   6.422 -0.5386 -0.3779 -0.0796
 4723SOL    HW125631   3.569   2.142   6.372 -0.7013 -0.7088 -0.6069
 4723SOL    HW225632   3.559   2.080   6.499 -1.1932 -1.4236  0.2082
 4724SOL     OW25633   0.458   2.046  10.824  0.0888  0.1645  0.1618
 4724SOL    HW125634   0.411   1.997  10.892  1.8292 -0.1566  1.1276
 4724SOL    HW225635   0.450   2.135  10.857  0.6865  1.3229 -2.9002
 4725SOL     OW25636   4.182   2.460   2.447 -0.2023  0.8238  0.4287
 4725SOL    HW125637   4.147   2.371   2.450 -2.2550  1.6885  2.3584
 4725SOL    HW225638   4.142   2.507   2.373 -1.1662 -0.0964  0.3698
 4726SOL     OW25639   2.301   1.928   8.930 -0.1733 -0.1920 -0.3024
 4726SOL    HW125640   2.209   1.932   8.954 -0.9729  0.8066 -3.5986
 4726SOL    HW225641   2.296   1.931   8.835 -2.0892  1.0088 -0.1623
 4727SOL     OW25642   0.606   3.806  12.854  0.1589  0.0976  0.3665
 4727SOL    HW125643   0.631   3.763  12.935  0.7004 -1.6899 -0.7433
 4727SOL    HW225644   0.688   3.811  12.804 -1.0814  1.5652 -1.5313
 4728SOL     OW25645   0.021   4.207   3.868  0.0470 -0.0753  0.2150
 4728SOL    HW125646   4.662   4.227   3.815  1.0001 -1.0105 -1.5037
 4728SOL    HW225647   4.695   4.190   3.952 -0.2709 -0.1113  0.0417
 4729SOL     OW25648   2.770   1.167  13.813  0.6273  0.1099  0.7403
 4729SOL    HW125649   2.759   1.174  13.908 -0.2048 -1.0971  0.7297
 4729SOL    HW225650   2.743   1.256  13.790 -0.0552 -0.1687  0.4814
 4730SOL     OW25651   4.523   1.235   2.230 -0.4351  0.1388  0.0631
 4730SOL    HW125652   4.521   1.212   2.137  0.4914  0.7400 -0.1086
 4730SOL    HW225653   4.469   1.164   2.266 -1.1273  0.2503 -0.7670
 4731SOL     OW25654   2.363   0.070   2.334 -0.4966 -0.2471  0.3794
 4731SOL    HW125655   2.432   0.068   2.268  0.7661 -0.0159  1.6889
 4731SOL    HW225656   2.288   0.091   2.279  0.3821  0.7546 -0.4399
 4732SOL     OW25657   1.080   0.377   1.877 -0.5383 -0.0559  0.5578
 4732SOL    HW125658   0.992   0.386   1.840 -0.4641 -1.1471  0.1289
 4732SOL    HW225659   1.055   0.358   1.967  0.0198  0.9110  0.9159
 4733SOL     OW25660   0.223   0.670   3.170  0.5597 -0.3157  0.0851
 4733SOL    HW125661   0.283   0.664   3.095  0.9571 -0.0146  0.3810
 4733SOL    HW225662   0.279   0.657   3.247 -1.6261  0.1391  1.7225
 4734SOL     OW25663   0.308   4.470  10.384 -0.3585 -0.0194 -0.0856
 4734SOL    HW125664   0.315   4.377  10.364  0.8438  0.3036 -1.1793
 4734SOL    HW225665   0.250   4.504  10.317 -1.2376 -0.9720  0.1992
 4735SOL     OW25666   3.063   1.869  11.527 -0.0591 -0.0501  0.1266
 4735SOL    HW125667   3.148   1.911  11.517 -0.1345  0.2037  0.5439
 4735SOL    HW225668   3.038   1.866  11.435 -0.3581  0.0778  0.2030
 4736SOL     OW25669   1.607   1.263  10.281 -0.3143  0.4491 -0.1300
 4736SOL    HW125670   1.527   1.306  10.311  1.4835  2.5202  1.7427
 4736SOL    HW225671   1.590   1.266  10.187  0.5192 -4.0892 -0.4200
 4737SOL     OW25672   4.221   3.296  16.639  0.6915 -0.5564  0.1952
 4737SOL    HW125673   4.292   3.357  16.659  0.3033 -0.0477  0.0151
 4737SOL    HW225674   4.264   3.218  16.604 -0.8780 -1.1409 -0.4521
 4738SOL     OW25675   3.058   4.015   6.427 -0.1153 -0.1981 -0.0364
 4738SOL    HW125676   2.985   3.955   6.410 -2.5450  2.9879 -0.8758
 4738SOL    HW225677   3.043   4.092   6.373  0.4321  0.7793  1.1962
 4739SOL     OW25678   3.105   4.668  12.639 -0.0973  0.1619  0.2957
 4739SOL    HW125679   3.193   4.632  12.649 -0.9494 -0.5137  5.1333
 4739SOL    HW225680   3.064   4.616  12.708  0.6668  1.6740  1.8838
 4740SOL     OW25681   2.844   2.952   5.600 -0.4825 -0.4485  0.5234
 4740SOL    HW125682   2.914   2.939   5.663 -0.1569 -0.8687  0.0739
 4740SOL    HW225683   2.889   3.011   5.539  0.7947  1.8668  3.7214
 4741SOL     OW25684   4.649   1.594   3.379 -0.7011 -0.0124  0.2318
 4741SOL    HW125685   4.716   1.658   3.403 -0.1891  0.0363 -1.2957
 4741SOL    HW225686   4.699   1.515   3.402 -0.5984  0.5168  1.8019
 4742SOL     OW25687   3.196   4.017   9.446 -0.3441 -0.1292  0.2978
 4742SOL    HW125688   3.213   3.931   9.485 -0.9057 -0.0771  0.6517
 4742SOL    HW225689   3.111   4.026   9.488 -0.1743 -1.6961  0.9953
 4743SOL     OW25690   0.772   1.329   4.523 -0.3783  0.0636  0.0789
 4743SOL    HW125691   0.708   1.258   4.528  0.1708 -0.4950 -0.6409
 4743SOL    HW225692   0.826   1.283   4.458 -2.8111 -1.0173 -1.1887
 4744SOL     OW25693   1.995   2.840   5.036  0.6607  0.3511 -0.1682
 4744SOL    HW125694   1.997   2.895   4.958  1.1634  4.0178  2.4344
 4744SOL    HW225695   1.904   2.811   5.043  1.1918 -0.9632  1.3437
 4745SOL     OW25696   2.799   1.931  17.162 -0.4433  0.2973 -0.1460
 4745SOL    HW125697   2.789   1.995  17.092 -0.2437  0.0916 -0.3623
 4745SOL    HW225698   2.867   1.972  17.217 -2.3283  3.1903  0.0327
 4746SOL     OW25699   1.956   4.716   3.268 -0.0416 -0.0912 -0.5903
 4746SOL    HW125700   2.012   0.065   3.308 -0.1816 -0.8642  0.9159
 4746SOL    HW225701   1.874   0.043   3.244  1.0072  2.5416  0.7664
 4747SOL     OW25702   0.239   3.768   9.128 -0.1655  0.6358  0.4062
 4747SOL    HW125703   0.250   3.862   9.118  0.6517  0.5004  0.0702
 4747SOL    HW225704   0.216   3.759   9.221  2.2460 -0.3186  0.8933
 4748SOL     OW25705   3.112   2.696  12.131  0.1078 -0.9949 -0.1816
 4748SOL    HW125706   3.168   2.764  12.094 -1.1943 -0.8828 -1.9165
 4748SOL    HW225707   3.091   2.649  12.051 -3.6664 -2.5333  1.7229
 4749SOL     OW25708   3.594   2.994   7.238  0.2528  0.5159  0.2208
 4749SOL    HW125709   3.570   3.073   7.286  1.7944  0.4456  1.1171
 4749SOL    HW225710   3.685   3.007   7.212  0.2725 -0.7033 -0.3477
 4750SOL     OW25711   0.862   3.437  15.533 -1.0816  0.0526  0.5434
 4750SOL    HW125712   0.803   3.461  15.462  0.1107 -0.7572 -0.7196
 4750SOL    HW225713   0.874   3.349  15.497 -3.2860  0.6706 -1.6975
 4751SOL     OW25714   0.502   0.614   3.771 -0.1789 -0.0168  0.7725
 4751SOL    HW125715   0.455   0.536   3.742  1.4454 -1.3693  1.7438
 4751SOL    HW225716   0.448   0.639   3.845 -0.8402 -0.5563  0.4700
 4752SOL     OW25717   2.936   0.681   4.410 -0.0269  0.1130  0.6584
 4752SOL    HW125718   2.873   0.740   4.368  0.1110 -0.5002 -0.4075
 4752SOL    HW225719   2.959   0.619   4.341  1.7183  1.8995 -0.3775
 4753SOL     OW25720   4.111   0.970   0.799  0.0226 -0.8071  0.1676
 4753SOL    HW125721   4.147   0.913   0.730 -0.7112  0.5960 -1.3487
 4753SOL    HW225722   4.180   1.035   0.815 -1.9398  1.3356 -0.2273
 4754SOL     OW25723   3.494   4.646   9.832  0.8696 -0.2207  0.5188
 4754SOL    HW125724   3.515   4.557   9.860  0.9862 -0.8374 -1.5224
 4754SOL    HW225725   3.433   4.682   9.896  0.5601  0.1125  0.0461
 4755SOL     OW25726   0.973   0.165  15.647 -0.1143  0.4207  0.1385
 4755SOL    HW125727   0.887   0.175  15.690  0.2530 -1.2255  1.2595
 4755SOL    HW225728   1.023   0.234  15.690  1.1494 -0.5777  0.2477
 4756SOL     OW25729   3.981   4.166   5.618 -0.0164 -0.2360 -0.2282
 4756SOL    HW125730   4.076   4.181   5.621 -0.6586  3.9692  0.3408
 4756SOL    HW225731   3.971   4.114   5.539  0.8626 -1.3231  0.3659
 4757SOL     OW25732   0.084   0.013   6.957  0.3217  0.6509  0.6313
 4757SOL    HW125733   0.029   0.091   6.956  0.1325  0.5598  3.9114
 4757SOL    HW225734   0.139   0.024   7.035  2.6180 -0.5050 -0.8304
 4758SOL     OW25735   4.253   2.429   6.390  0.8441 -0.2363  0.4414
 4758SOL    HW125736   4.286   2.516   6.411 -0.7838  0.1310  1.5598
 4758SOL    HW225737   4.321   2.371   6.422  1.6161  0.2085 -0.4176
 4759SOL     OW25738   0.570   3.667   3.309 -0.5594 -0.0648  0.4546
 4759SOL    HW125739   0.623   3.676   3.230  0.3272  1.1727  1.1948
 4759SOL    HW225740   0.629   3.618   3.367  0.1528  1.4011  0.9669
 4760SOL     OW25741   2.767   2.575   7.152  0.1243  0.2834 -0.2753
 4760SOL    HW125742   2.678   2.603   7.130 -0.3870 -1.8635 -0.9407
 4760SOL    HW225743   2.765   2.486   7.117 -0.2533 -0.6063  2.0344
 4761SOL     OW25744   0.017   2.353   7.280  0.1175 -0.1291  0.1924
 4761SOL    HW125745   0.102   2.391   7.303 -0.2959  0.0526  1.4348
 4761SOL    HW225746   0.037   2.357   7.187  0.0343  1.2032  0.2419
 4762SOL     OW25747   0.062   2.135   3.309 -0.1696  0.5319 -0.5166
 4762SOL    HW125748   0.060   2.214   3.256 -1.1026  1.5445  1.0265
 4762SOL    HW225749   0.145   2.144   3.356 -0.3770 -1.8034  0.3324
 4763SOL     OW25750   1.391   1.072  13.610 -0.1048  0.0740 -0.0944
 4763SOL    HW125751   1.322   1.135  13.633  0.1844 -0.5884  2.5916
 4763SOL    HW225752   1.381   0.998  13.670 -1.1713 -0.4997 -0.9819
 4764SOL     OW25753   1.328   0.592   6.846 -0.0275  0.1165  0.1411
 4764SOL    HW125754   1.349   0.569   6.756  0.2899  1.0222 -0.0175
 4764SOL    HW225755   1.246   0.543   6.858 -0.2852  0.6755  0.6956
 4765SOL     OW25756   3.008   0.416   1.914  0.1435  0.4124  0.1701
 4765SOL    HW125757   3.026   0.322   1.913 -0.7167  0.2832 -2.8926
 4765SOL    HW225758   2.995   0.431   2.008 -0.4640 -1.5487  0.4109
 4766SOL     OW25759   1.091   4.214   4.721 -0.3748  0.1834  0.0526
 4766SOL    HW125760   1.160   4.149   4.734  0.6420  0.8112 -2.2293
 4766SOL    HW225761   1.070   4.227   4.814  2.5266  2.0054  0.4551
 4767SOL     OW25762   1.163   4.487  13.284  0.6513  0.4395 -0.0541
 4767SOL    HW125763   1.188   4.481  13.376 -0.9617  0.1031  0.3633
 4767SOL    HW225764   1.074   4.451  13.285  0.7657  0.2440  1.7767
 4768SOL     OW25765   2.352   1.357   5.106 -0.0523  0.0500  0.3631
 4768SOL    HW125766   2.445   1.363   5.126 -0.1454 -1.1345  1.1607
 4768SOL    HW225767   2.352   1.274   5.059  1.3318  1.1845 -1.6267
 4769SOL     OW25768   4.664   3.619   8.041 -0.6953 -0.0948  0.1083
 4769SOL    HW125769   4.705   3.533   8.047 -1.1173 -0.0749  3.8064
 4769SOL    HW225770   0.014   3.681   8.066  0.5362 -1.6422  0.5880
 4770SOL     OW25771   0.275   4.053   3.926 -0.2546  0.1957 -0.2279
 4770SOL    HW125772   0.350   4.109   3.904 -0.8372  1.1642  0.2575
 4770SOL    HW225773   0.248   4.097   4.007  1.4332  2.0343 -0.6452
 4771SOL     OW25774   2.453   1.458   7.607  0.6545 -0.2082  0.3370
 4771SOL    HW125775   2.489   1.387   7.660 -0.7077 -2.4592 -1.7874
 4771SOL    HW225776   2.389   1.412   7.553 -0.4870  1.9896 -0.2036
 4772SOL     OW25777   2.795   1.348  14.265  0.0766  0.5388  0.4210
 4772SOL    HW125778   2.746   1.400  14.329 -0.7147  1.3562 -0.8486
 4772SOL    HW225779   2.744   1.370  14.187  1.5511  0.3175 -0.6037
 4773SOL     OW25780   3.519   1.448   7.498 -0.5001 -0.4476  0.1260
 4773SOL    HW125781   3.597   1.492   7.463 -2.4611  2.7850 -0.1887
 4773SOL    HW225782   3.545   1.428   7.588 -2.4240 -1.0857  0.5310
 4774SOL     OW25783   1.867   1.300   0.933 -0.0153  0.2872  0.1171
 4774SOL    HW125784   1.863   1.221   0.878 -1.5494  0.9564 -0.7451
 4774SOL    HW225785   1.934   1.351   0.887 -1.4168  0.9288 -1.2039
 4775SOL     OW25786   3.428   3.868   9.050  0.2877 -0.3281 -0.1122
 4775SOL    HW125787   3.460   3.895   9.136  0.2430  0.5598 -0.3806
 4775SOL    HW225788   3.376   3.794   9.083  0.3319 -0.3965 -0.1971
 4776SOL     OW25789   2.716   4.548   5.545  0.3506 -0.1362  0.2447
 4776SOL    HW125790   2.799   4.502   5.534  0.8966  0.4824  1.7453
 4776SOL    HW225791   2.712   4.569   5.638  0.0865 -0.4146  0.2971
 4777SOL     OW25792   1.403   3.821  16.288 -0.1730 -0.1420  0.1512
 4777SOL    HW125793   1.322   3.842  16.241 -1.8746 -0.9605  2.6794
 4777SOL    HW225794   1.368   3.739  16.323 -0.5675 -0.6732 -1.4727
 4778SOL     OW25795   0.193   3.397   0.457  0.2265  0.2417 -0.0615
 4778SOL    HW125796   0.175   3.306   0.431  0.6390  0.3926 -0.8987
 4778SOL    HW225797   0.103   3.423   0.477  0.8288  3.6653 -1.7928
 4779SOL     OW25798   0.777   0.188  10.316  0.1242 -0.1804  0.3160
 4779SOL    HW125799   0.701   0.168  10.262  0.6270 -1.2063 -0.0005
 4779SOL    HW225800   0.779   0.284  10.308  1.0471 -0.2126  0.1315
 4780SOL     OW25801   0.825   3.157   5.152 -0.3627 -0.1578  0.3306
 4780SOL    HW125802   0.754   3.208   5.190  0.0461  0.4464  0.2963
 4780SOL    HW225803   0.896   3.156   5.216 -1.3869  0.7208  1.4815
 4781SOL     OW25804   3.935   2.404   8.359  0.2864 -0.1889  0.1312
 4781SOL    HW125805   3.920   2.310   8.353 -1.0608 -0.1287  2.2724
 4781SOL    HW225806   3.980   2.423   8.442  0.3336 -0.8880  0.2631
 4782SOL     OW25807   2.224   0.305   8.193  0.1170  0.6825 -0.3523
 4782SOL    HW125808   2.262   0.387   8.164 -1.0842  1.2602 -0.3051
 4782SOL    HW225809   2.222   0.249   8.115  0.2349 -1.4121  1.1586
 4783SOL     OW25810   4.413   0.022   0.322  0.6179 -0.7075 -0.3132
 4783SOL    HW125811   4.396   0.009   0.229  1.4576 -2.4036 -0.2274
 4783SOL    HW225812   4.454   0.108   0.311  0.7530 -0.7449 -0.0952
 4784SOL     OW25813   4.221   1.602   3.090  0.2977 -0.1555 -0.2622
 4784SOL    HW125814   4.232   1.692   3.062 -3.3525  0.0191 -1.0570
 4784SOL    HW225815   4.306   1.589   3.134  0.8259 -2.2975 -1.8841
 4785SOL     OW25816   2.216   1.761  15.947 -0.3213 -0.1822 -0.2217
 4785SOL    HW125817   2.176   1.837  15.906  1.3302  0.0975 -1.3316
 4785SOL    HW225818   2.309   1.759  15.921 -0.2049  1.9675  0.0385
 4786SOL     OW25819   3.111   2.906   3.819 -0.1185  0.4407  0.1541
 4786SOL    HW125820   3.037   2.889   3.878 -0.0256 -2.3022 -0.4933
 4786SOL    HW225821   3.079   2.865   3.739 -1.5546 -0.6602  1.2822
 4787SOL     OW25822   2.644   2.772   5.274 -0.3444 -0.1795 -0.3676
 4787SOL    HW125823   2.711   2.718   5.232  0.2763 -0.2131  0.6682
 4787SOL    HW225824   2.655   2.850   5.220  0.7605  1.5878  2.3818
 4788SOL     OW25825   3.207   4.462   3.290 -0.3752  0.4428  0.4080
 4788SOL    HW125826   3.207   4.530   3.358 -1.9283  1.2071 -0.3692
 4788SOL    HW225827   3.218   4.385   3.346 -2.6474  0.6722  1.1699
 4789SOL     OW25828   1.751   0.003   1.819  0.0454  0.1454 -0.2736
 4789SOL    HW125829   1.769   0.082   1.768  4.4690 -0.1207  0.8246
 4789SOL    HW225830   1.671   0.032   1.862  0.9659 -1.1693  2.3375
 4790SOL     OW25831   1.472   0.195  14.178 -0.6275  0.4839  0.4524
 4790SOL    HW125832   1.502   0.204  14.088 -1.1333 -1.3484  0.1049
 4790SOL    HW225833   1.430   0.110  14.183  0.9984 -0.4259 -1.4281
 4791SOL     OW25834   4.299   1.760   3.989 -0.2377 -0.7857  0.3264
 4791SOL    HW125835   4.224   1.749   3.932  0.2924 -0.8681 -0.3586
 4791SOL    HW225836   4.277   1.843   4.031 -1.6414 -0.6619 -0.6785
 4792SOL     OW25837   2.878   3.885   1.727  0.1790  0.1962 -0.2362
 4792SOL    HW125838   2.854   3.952   1.663  0.5154  0.8817  0.3562
 4792SOL    HW225839   2.871   3.804   1.676  0.4753  0.8824 -1.3501
 4793SOL     OW25840   0.751   1.625  14.177 -0.1692 -0.7679  0.4153
 4793SOL    HW125841   0.845   1.630  14.196 -0.7985  1.7156  2.9035
 4793SOL    HW225842   0.730   1.557  14.241 -1.2798 -0.9964 -0.1845
 4794SOL     OW25843   3.559   4.306   1.201 -0.2986  0.1808 -0.2311
 4794SOL    HW125844   3.628   4.240   1.207 -1.5174 -1.0855 -0.0880
 4794SOL    HW225845   3.478   4.254   1.209 -1.4707  2.2285  1.2106
 4795SOL     OW25846   0.372   1.791   2.039  0.1499  0.1858  0.5289
 4795SOL    HW125847   0.371   1.819   1.947 -0.9156  0.2718  0.5755
 4795SOL    HW225848   0.432   1.858   2.073  0.5248 -0.2034  0.6297
 4796SOL     OW25849   1.425   4.269  13.826  0.1907 -0.2402 -0.6587
 4796SOL    HW125850   1.503   4.216  13.810  0.3961  0.4250 -1.8590
 4796SOL    HW225851   1.379   4.261  13.742 -0.6881  0.1683 -0.2117
 4797SOL     OW25852   1.614   1.724   2.767 -0.1695  0.5772  0.3203
 4797SOL    HW125853   1.685   1.769   2.722  0.0846 -1.6248 -1.4819
 4797SOL    HW225854   1.551   1.722   2.695 -0.9752 -1.1875  1.0763
 4798SOL     OW25855   4.603   4.610   6.306 -0.3389  0.1074 -0.1203
 4798SOL    HW125856   4.548   4.553   6.360  0.1251  0.3535  0.6181
 4798SOL    HW225857   4.650   4.663   6.370 -1.0714  1.7581 -0.9457
 4799SOL     OW25858   1.303   4.351  15.798 -0.3385  0.5845  0.1715
 4799SOL    HW125859   1.225   4.400  15.824 -0.8919  0.7274 -1.7912
 4799SOL    HW225860   1.332   4.389  15.715 -0.9661 -3.0201 -1.6847
 4800SOL     OW25861   1.681   1.158   8.268  0.0650 -0.3194 -0.0935
 4800SOL    HW125862   1.766   1.130   8.302  1.7025  2.5227 -1.8132
 4800SOL    HW225863   1.693   1.253   8.271 -2.2320 -0.0230 -0.7326
 4801SOL     OW25864   1.602   3.713  17.001  0.8462 -0.4518 -0.6514
 4801SOL    HW125865   1.649   3.750  16.926 -0.9168  2.2492 -0.3972
 4801SOL    HW225866   1.515   3.752  16.995  0.2998 -1.6877 -0.8214
 4802SOL     OW25867   0.936   2.079   3.137 -0.2952 -0.5923  0.6488
 4802SOL    HW125868   0.857   2.047   3.094  1.2246 -0.2577 -2.4224
 4802SOL    HW225869   0.982   2.122   3.066 -0.4549 -0.4676  0.6216
 4803SOL     OW25870   1.282   1.219   5.793 -0.4820  0.3296 -0.3241
 4803SOL    HW125871   1.300   1.198   5.701 -1.2057 -1.2038 -0.1278
 4803SOL    HW225872   1.255   1.310   5.788  0.9168  0.6798 -1.5711
 4804SOL     OW25873   2.779   4.181  12.506  0.1248 -0.2895 -0.1127
 4804SOL    HW125874   2.795   4.184  12.600 -0.1967  0.2344 -0.0745
 4804SOL    HW225875   2.870   4.201  12.486 -0.1317  1.3590  0.4224
 4805SOL     OW25876   3.249   3.114   4.660 -0.0111  0.0543  0.4490
 4805SOL    HW125877   3.291   3.153   4.737  0.5185 -1.9683  1.1834
 4805SOL    HW225878   3.182   3.059   4.701 -0.4514  1.2702  1.3733
 4806SOL     OW25879   2.962   3.180  11.786 -0.1259 -0.4933  0.7399
 4806SOL    HW125880   2.939   3.191  11.693 -0.1218  0.7984  0.8937
 4806SOL    HW225881   2.876   3.174  11.826 -0.5298 -1.7448 -0.3038
 4807SOL     OW25882   2.634   0.265   7.238 -0.6337 -0.0645 -0.2432
 4807SOL    HW125883   2.620   0.170   7.230  0.3744 -0.2245 -0.1582
 4807SOL    HW225884   2.664   0.272   7.328  1.1041 -0.2932 -0.8058
 4808SOL     OW25885   2.869   1.074  10.234  0.7456  0.4065  0.1145
 4808SOL    HW125886   2.798   1.116  10.283  1.2424  1.2443  0.1110
 4808SOL    HW225887   2.902   1.020  10.306  1.8073  0.8531 -0.0393
 4809SOL     OW25888   2.279   2.373   4.251  0.3843 -0.0622 -0.5204
 4809SOL    HW125889   2.368   2.338   4.250  0.3526 -0.2187  1.3550
 4809SOL    HW225890   2.287   2.449   4.309  0.8375  0.2830 -1.0300
 4810SOL     OW25891   4.227   2.756  13.833 -0.3177 -0.3061 -0.0687
 4810SOL    HW125892   4.215   2.680  13.889 -0.4565  0.8620  1.4763
 4810SOL    HW225893   4.280   2.800  13.899 -1.8235 -2.1596  2.3676
 4811SOL     OW25894   4.439   1.606   5.340  0.1426  0.1653  0.1913
 4811SOL    HW125895   4.365   1.667   5.345 -1.2572 -1.5902  0.4613
 4811SOL    HW225896   4.511   1.663   5.371 -0.1407  1.4523 -1.5247
 4812SOL     OW25897   0.819   3.508  17.251  0.4588  0.0871 -0.0122
 4812SOL    HW125898   0.833   3.444  17.180  1.0866 -0.7697  0.8844
 4812SOL    HW225899   0.899   3.560  17.247  0.9101 -0.6058 -0.0017
 4813SOL     OW25900   1.356   0.010   8.245 -0.2516  0.0764 -0.4294
 4813SOL    HW125901   1.417   4.664   8.207 -0.5035 -0.8199  0.6666
 4813SOL    HW225902   1.415   0.066   8.296 -1.6130 -0.7497  2.0521
 4814SOL     OW25903   4.711   3.984   3.294 -0.5374 -0.4068  0.3809
 4814SOL    HW125904   4.701   4.022   3.381  0.2050 -0.0163  0.2931
 4814SOL    HW225905   0.044   3.908   3.321 -0.7537 -0.4945  0.5439
 4815SOL     OW25906   0.077   3.004   6.510  0.6074 -0.3361 -0.3174
 4815SOL    HW125907   0.077   2.998   6.605  0.9571 -2.2883 -0.4555
 4815SOL    HW225908   0.168   3.009   6.483 -0.0046 -0.8935 -2.4613
 4816SOL     OW25909   1.104   3.486  10.534 -0.8240 -0.3712 -0.3420
 4816SOL    HW125910   1.095   3.554  10.468  0.9012 -1.6096 -1.8257
 4816SOL    HW225911   1.169   3.432  10.491 -0.4266 -0.9676  0.9928
 4817SOL     OW25912   1.131   4.429   1.247  0.1765  0.7359  0.6650
 4817SOL    HW125913   1.101   4.349   1.204 -0.3470  1.7481 -0.8247
 4817SOL    HW225914   1.132   4.496   1.179 -1.4717  0.9296  0.8413
 4818SOL     OW25915   1.560   1.795   7.017  0.3555  0.4348 -0.2365
 4818SOL    HW125916   1.648   1.767   7.043  0.8620 -0.0898 -2.5929
 4818SOL    HW225917   1.570   1.858   6.946  0.1642  0.4274 -0.2683
 4819SOL     OW25918   0.064   2.976  13.101  0.5051 -0.2174 -0.1109
 4819SOL    HW125919   0.150   2.992  13.141  1.2021 -0.3868 -1.5648
 4819SOL    HW225920   0.072   3.016  13.015  0.4891  0.9319  0.4260
 4820SOL     OW25921   0.902   0.526  17.276  0.3962  0.0455 -0.2205
 4820SOL    HW125922   0.925   0.465  17.206 -0.2662 -0.5145  0.0485
 4820SOL    HW225923   0.970   0.503  17.341 -0.3946 -0.5481  0.4009
 4821SOL     OW25924   1.982   2.668   4.056  0.5910 -0.1180 -0.1812
 4821SOL    HW125925   2.042   2.597   4.078  0.5350 -0.0429  0.2137
 4821SOL    HW225926   1.913   2.662   4.122 -1.5341 -0.5680 -2.4638
 4822SOL     OW25927   4.156   1.535   8.788 -0.3183 -0.3501  0.3530
 4822SOL    HW125928   4.239   1.500   8.821 -0.7217 -0.2432  1.5099
 4822SOL    HW225929   4.137   1.597   8.860  0.8419  0.2845  0.1174
 4823SOL     OW25930   3.863   1.888   1.870  0.6277  0.3960 -0.0345
 4823SOL    HW125931   3.928   1.852   1.930 -0.7947 -0.6578  0.8933
 4823SOL    HW225932   3.927   1.921   1.808  0.5270  0.3500 -0.1623
 4824SOL     OW25933   2.242   0.301   6.301  0.1909 -0.1242  0.3342
 4824SOL    HW125934   2.319   0.262   6.260 -0.7207 -0.9136 -0.6202
 4824SOL    HW225935   2.215   0.224   6.350 -1.9677  0.5372  0.1747
 4825SOL     OW25936   3.781   3.347   4.954 -0.1796 -0.0143 -0.1654
 4825SOL    HW125937   3.867   3.356   4.996  0.3637  1.3665 -1.5743
 4825SOL    HW225938   3.716   3.340   5.024  1.1201  0.8726  1.1510
 4826SOL     OW25939   3.348   1.648   6.448  0.1821 -0.3128  0.6644
 4826SOL    HW125940   3.417   1.703   6.484 -1.4856  1.3272  1.3880
 4826SOL    HW225941   3.366   1.564   6.490  0.6464 -0.8438 -0.5765
 4827SOL     OW25942   0.729   0.235   7.367  0.3766 -0.2597 -0.0120
 4827SOL    HW125943   0.728   0.240   7.462 -0.7664  0.7553 -0.0770
 4827SOL    HW225944   0.820   0.231   7.336 -0.2110 -1.9880 -1.5501
 4828SOL     OW25945   0.783   0.213   9.094  0.0302  0.4530 -0.3977
 4828SOL    HW125946   0.727   0.285   9.123  0.4503 -0.1047  1.8051
 4828SOL    HW225947   0.768   0.139   9.153  2.5839 -0.5523 -0.9761
 4829SOL     OW25948   3.006   3.775   6.823  0.6702 -0.5412 -0.2533
 4829SOL    HW125949   3.039   3.783   6.913 -0.3844 -1.3472  0.2030
 4829SOL    HW225950   3.085   3.811   6.781  0.2714  0.3403 -0.2370
 4830SOL     OW25951   3.813   2.753  11.796  0.1496  0.2319 -0.6801
 4830SOL    HW125952   3.777   2.829  11.841 -0.9531 -0.8165  0.2185
 4830SOL    HW225953   3.903   2.784  11.791  0.5785 -0.9987 -0.7605
 4831SOL     OW25954   1.916   2.819   4.444 -0.2580  0.3622  0.2122
 4831SOL    HW125955   1.838   2.769   4.419  0.4757 -1.3495  1.3905
 4831SOL    HW225956   1.910   2.898   4.390  0.6276  2.5514  3.2991
 4832SOL     OW25957   0.222   0.699  12.597 -0.0510  0.4231 -0.5039
 4832SOL    HW125958   0.314   0.725  12.605  0.3551 -1.7248  1.9532
 4832SOL    HW225959   0.232   0.607  12.620 -0.0862  0.4548 -0.3594
 4833SOL     OW25960   1.028   3.325   2.505 -0.1992 -0.4877  0.4336
 4833SOL    HW125961   1.008   3.390   2.438 -1.6601 -0.3221  1.0341
 4833SOL    HW225962   1.068   3.260   2.448  2.4466 -0.6020  2.3663
 4834SOL     OW25963   2.193   4.101   2.988  0.1906 -0.1728  0.4355
 4834SOL    HW125964   2.282   4.087   2.954  0.5859 -1.5669  2.0471
 4834SOL    HW225965   2.157   4.143   2.910 -0.0413  2.6791  2.0993
 4835SOL     OW25966   4.485   3.277   8.260  0.1110 -0.2366  0.1489
 4835SOL    HW125967   4.392   3.288   8.241 -0.1835 -0.9969  1.1790
 4835SOL    HW225968   4.510   3.186   8.244 -0.1849 -0.6107  1.8776
 4836SOL     OW25969   2.061   1.405   7.679  0.3735  0.5225 -0.1760
 4836SOL    HW125970   2.122   1.352   7.731  0.1179 -0.8866 -1.3290
 4836SOL    HW225971   2.055   1.491   7.721 -2.5311  0.0770  0.3145
 4837SOL     OW25972   2.867   2.968   8.784 -0.1621 -0.3367  0.3420
 4837SOL    HW125973   2.861   2.878   8.818 -1.1181 -0.0909  0.8230
 4837SOL    HW225974   2.909   3.008   8.861  0.2869 -2.3140  1.1527
 4838SOL     OW25975   1.218   2.140  12.016 -0.7464  0.2826  0.1302
 4838SOL    HW125976   1.247   2.054  11.986 -0.5670  0.7150 -0.9616
 4838SOL    HW225977   1.175   2.117  12.098 -1.2673 -0.6058 -0.3840
 4839SOL     OW25978   3.218   4.100   4.344  0.2065  0.0925 -0.0045
 4839SOL    HW125979   3.196   4.142   4.261 -0.4987 -0.2675  0.0023
 4839SOL    HW225980   3.183   4.014   4.323 -0.0119 -0.4614  2.6172
 4840SOL     OW25981   3.905   3.416  11.397 -0.5978  0.2453  0.3227
 4840SOL    HW125982   3.872   3.333  11.361  2.8890 -2.6481  3.7689
 4840SOL    HW225983   3.898   3.481  11.327  0.6480 -0.5142 -0.4955
 4841SOL     OW25984   1.075   2.343   0.961  0.0139  0.0327 -0.2046
 4841SOL    HW125985   1.023   2.376   1.034 -1.6218  0.3754 -1.5312
 4841SOL    HW225986   1.148   2.302   1.008 -0.4580 -1.0290 -0.3817
 4842SOL     OW25987   2.766   1.316   5.582  0.4527 -0.3422  0.4732
 4842SOL    HW125988   2.798   1.406   5.581  1.3317 -0.6573 -0.1088
 4842SOL    HW225989   2.699   1.317   5.514  2.8085  1.2695 -1.8370
 4843SOL     OW25990   1.145   1.320   3.700  0.0011  0.5095 -1.2002
 4843SOL    HW125991   1.145   1.415   3.707 -0.4514  0.6073 -2.5419
 4843SOL    HW225992   1.062   1.304   3.655 -1.0443 -3.0687  2.0147
 4844SOL     OW25993   3.196   2.960   8.620 -0.2842  0.0492  0.2086
 4844SOL    HW125994   3.236   3.032   8.668 -0.1702 -0.1958  0.4829
 4844SOL    HW225995   3.181   2.996   8.532  1.3946 -0.7087 -0.3748
 4845SOL     OW25996   0.298   2.662   4.963 -0.1997 -0.4313  0.0408
 4845SOL    HW125997   0.312   2.670   4.868 -0.1727 -0.1158  0.0712
 4845SOL    HW225998   0.313   2.755   4.981  0.9028 -0.4230 -0.9095
 4846SOL     OW25999   4.406   3.444   0.656 -0.4792  0.8475 -0.1233
 4846SOL    HW126000   4.441   3.439   0.745  0.2202 -1.5558 -0.5333
 4846SOL    HW226001   4.456   3.371   0.619  1.3543  2.7344 -1.3472
 4847SOL     OW26002   2.574   3.158  11.498 -0.0686 -0.2127  0.1553
 4847SOL    HW126003   2.600   3.142  11.408  0.0819  0.0806  0.1476
 4847SOL    HW226004   2.482   3.183  11.488  0.4733  1.0586 -1.5236
 4848SOL     OW26005   0.591   2.106  13.060  0.0006 -0.0417 -0.0914
 4848SOL    HW126006   0.598   2.162  13.137 -1.0608  1.6142 -1.2116
 4848SOL    HW226007   0.531   2.038  13.093 -0.7464  0.6082 -0.1031
 4849SOL     OW26008   3.782   2.994   5.386 -0.1260  0.3518 -0.5976
 4849SOL    HW126009   3.770   3.087   5.367 -0.0269  0.6067  0.5658
 4849SOL    HW226010   3.691   2.968   5.373 -0.1106 -0.6531  1.2245
 4850SOL     OW26011   2.477   4.065   9.194  0.2971  1.0057 -0.0261
 4850SOL    HW126012   2.462   4.082   9.101 -1.2727 -0.3905 -0.0259
 4850SOL    HW226013   2.406   4.007   9.222  0.0894  0.7079 -1.1840
 4851SOL     OW26014   2.861   3.385   8.567  0.8320 -0.5729  0.0399
 4851SOL    HW126015   2.861   3.441   8.489  2.7760 -0.4889  0.1188
 4851SOL    HW226016   2.885   3.304   8.522 -1.6997 -0.7161 -1.1067
 4852SOL     OW26017   3.085   1.516   7.182 -0.1389  0.0031 -0.2012
 4852SOL    HW126018   3.122   1.440   7.137  1.6237  1.2306 -0.8488
 4852SOL    HW226019   2.995   1.492   7.201  0.2026 -0.6030  0.6634
 4853SOL     OW26020   1.409   0.202   7.134 -0.2985 -0.1412  0.1949
 4853SOL    HW126021   1.461   0.217   7.213 -0.5957 -0.8081  0.5175
 4853SOL    HW226022   1.418   0.287   7.091 -2.4669 -0.8613 -1.6506
 4854SOL     OW26023   0.349   4.227   4.350 -0.0759  0.1673  0.5891
 4854SOL    HW126024   0.295   4.204   4.274 -0.3448  3.5923 -0.2370
 4854SOL    HW226025   0.382   4.311   4.319 -2.7080  0.7452 -0.6329
 4855SOL     OW26026   0.401   2.126   8.632 -0.0961  0.1659  0.9403
 4855SOL    HW126027   0.314   2.118   8.671 -0.1350 -1.3835  0.5320
 4855SOL    HW226028   0.442   2.044   8.661  1.5078  0.8499  0.5852
 4856SOL     OW26029   1.991   2.033   0.124 -0.4331 -0.3840 -0.1087
 4856SOL    HW126030   1.938   1.969   0.171  0.3978 -0.3862  0.8247
 4856SOL    HW226031   2.075   1.988   0.114  1.0597  2.1445  0.9098
 4857SOL     OW26032   4.639   4.236  14.429  0.0346 -0.3336  0.4812
 4857SOL    HW126033   4.549   4.210  14.449  0.0371 -0.6582  0.0730
 4857SOL    HW226034   4.692   4.164  14.464  0.4370  0.5165  1.6109
 4858SOL     OW26035   0.234   3.335   5.515 -0.8680 -0.0283 -0.3452
 4858SOL    HW126036   0.147   3.296   5.508 -0.3118 -1.7380  2.6284
 4858SOL    HW226037   0.202   3.425   5.520 -0.9601 -0.0303 -0.8478
 4859SOL     OW26038   2.921   3.925   1.982  0.1440 -0.1212 -0.4204
 4859SOL    HW126039   2.952   3.835   1.974  1.3681 -0.0645  3.4577
 4859SOL    HW226040   2.909   3.935   1.888  1.5248 -0.3021 -0.6123
 4860SOL     OW26041   0.704   3.512   8.465  0.3576 -0.5930 -0.2093
 4860SOL    HW126042   0.727   3.605   8.466  0.6007 -0.6716  1.3452
 4860SOL    HW226043   0.795   3.481   8.464  1.4286  2.4724  0.0584
 4861SOL     OW26044   0.117   3.841   8.153 -0.8583 -0.3853  0.3341
 4861SOL    HW126045   0.187   3.838   8.218 -0.3091  0.8461 -0.2059
 4861SOL    HW226046   0.167   3.887   8.085 -0.9767 -0.0201  0.4905
 4862SOL     OW26047   1.280   4.604   8.486 -0.3203  0.1127  0.1405
 4862SOL    HW126048   1.205   4.651   8.524  0.9553  1.4711  1.0082
 4862SOL    HW226049   1.265   4.640   8.399 -1.9019  0.4847  0.5479
 4863SOL     OW26050   0.466   1.705   4.683 -0.4003  0.6103  0.2067
 4863SOL    HW126051   0.495   1.774   4.742 -2.5469  2.3004 -0.7197
 4863SOL    HW226052   0.500   1.620   4.710 -1.6786 -0.1002 -0.3910
 4864SOL     OW26053   1.069   3.421   4.107  0.5747 -0.0929  0.0250
 4864SOL    HW126054   1.136   3.468   4.156 -1.3774 -1.1089  3.6381
 4864SOL    HW226055   1.114   3.370   4.039 -0.7675 -0.8407 -0.2931
 4865SOL     OW26056   0.019   1.317   4.641 -0.0645  0.1384 -0.4754
 4865SOL    HW126057   4.679   1.306   4.566 -0.4889 -1.4351  0.0763
 4865SOL    HW226058   4.675   1.321   4.714  0.1910  1.7780 -0.3556
 4866SOL     OW26059   2.145   2.265   0.169  0.1819  0.1749 -0.1801
 4866SOL    HW126060   2.087   2.291   0.097  0.3181  2.4869  0.5532
 4866SOL    HW226061   2.115   2.175   0.180  1.4961 -0.2615 -0.1951
 4867SOL     OW26062   1.125   0.554   2.605 -0.2651 -0.0456 -0.1788
 4867SOL    HW126063   1.156   0.639   2.575  1.7578 -0.4573  0.7394
 4867SOL    HW226064   1.033   0.563   2.578  0.2728  0.8774 -1.7029
 4868SOL     OW26065   1.975   4.056   6.857 -0.0851  0.0847 -0.1241
 4868SOL    HW126066   2.002   3.993   6.791 -0.2852  0.1240 -0.2422
 4868SOL    HW226067   1.895   4.015   6.889 -0.9781  1.4864 -0.5323
 4869SOL     OW26068   0.161   3.784   9.732 -0.3160  0.0367 -0.1292
 4869SOL    HW126069   0.193   3.703   9.692  0.5679 -0.2190  1.0889
 4869SOL    HW226070   0.097   3.756   9.798 -0.8688  1.1831 -0.1771
 4870SOL     OW26071   4.700   3.202   5.521  0.4522 -0.2912  0.2314
 4870SOL    HW126072   4.652   3.224   5.441 -1.1699  3.6615  2.2666
 4870SOL    HW226073   4.630   3.150   5.560 -0.3864 -0.7913 -1.8945
 4871SOL     OW26074   1.306   4.370  12.302 -0.2457 -0.2461  0.1071
 4871SOL    HW126075   1.331   4.308  12.235  4.0167  0.5391  0.9641
 4871SOL    HW226076   1.219   4.399  12.273 -0.5255 -3.0102 -1.7777
 4872SOL     OW26077   3.346   0.594   6.835  0.2062  0.0360 -0.3187
 4872SOL    HW126078   3.349   0.684   6.868  1.9526 -0.7599  1.7182
 4872SOL    HW226079   3.309   0.606   6.748 -0.2261  0.2144 -0.1120
 4873SOL     OW26080   4.637   1.368   2.949  0.2275  0.0183 -0.2766
 4873SOL    HW126081   4.692   1.335   3.021 -1.2829 -0.3054  0.7282
 4873SOL    HW226082   4.641   1.293   2.889  0.3049 -0.9343  0.9202
 4874SOL     OW26083   3.393   3.533   2.767  0.0469 -0.3468 -0.0477
 4874SOL    HW126084   3.407   3.475   2.692 -1.1012  1.0308 -1.3435
 4874SOL    HW226085   3.465   3.593   2.751  0.6566 -0.7190  1.3508
 4875SOL     OW26086   0.613   4.652   2.926  0.3220  0.0372 -0.0798
 4875SOL    HW126087   0.627   4.695   2.842 -3.0965  0.1826 -0.5933
 4875SOL    HW226088   0.643   4.706   2.999  2.2657  0.4871 -1.2138
 4876SOL     OW26089   1.052   2.580   3.608  0.4119  0.4851 -0.4748
 4876SOL    HW126090   1.098   2.498   3.591  0.6072  0.5386 -0.1877
 4876SOL    HW226091   1.024   2.573   3.699 -2.4706 -2.3488 -1.5942
 4877SOL     OW26092   3.870   3.214   7.518 -0.4371  0.0475 -0.3220
 4877SOL    HW126093   3.871   3.216   7.423  0.6687 -0.5240 -0.3275
 4877SOL    HW226094   3.894   3.126   7.547  3.6019  1.9171  2.0664
 4878SOL     OW26095   1.097   2.488   5.428  0.6801 -0.3465  0.0700
 4878SOL    HW126096   1.002   2.480   5.422  0.9805 -1.3448 -3.4067
 4878SOL    HW226097   1.132   2.443   5.351 -1.2600 -0.3574 -0.8201
 4879SOL     OW26098   2.422   3.432   5.583  0.1607 -0.4537 -0.4506
 4879SOL    HW126099   2.440   3.342   5.612 -0.3316  0.1969  1.8828
 4879SOL    HW226100   2.497   3.462   5.531  1.4307  1.0384  2.2231
 4880SOL     OW26101   1.646   1.904   4.866  0.3172  0.2692 -0.4316
 4880SOL    HW126102   1.647   1.820   4.911 -0.3461  0.3037 -0.3572
 4880SOL    HW226103   1.639   1.875   4.775  0.3827 -1.3535  0.0785
 4881SOL     OW26104   3.826   1.623   9.329 -0.0904  0.4749  0.3099
 4881SOL    HW126105   3.795   1.550   9.276  0.7267  0.4710 -0.1563
 4881SOL    HW226106   3.816   1.689   9.261 -0.0404  1.4934  1.2866
 4882SOL     OW26107   4.338   0.115   6.638 -0.1201  0.1943 -0.3556
 4882SOL    HW126108   4.284   0.161   6.703  2.5000  1.7782  0.7149
 4882SOL    HW226109   4.276   0.099   6.568 -1.1688 -2.3851  1.1586
 4883SOL     OW26110   3.501   2.927   5.321  0.2078  0.0390 -0.8116
 4883SOL    HW126111   3.468   2.840   5.344  3.3076 -1.0648 -0.5499
 4883SOL    HW226112   3.413   2.966   5.313  0.2482  0.7278  1.8995
 4884SOL     OW26113   3.710   1.442  10.263 -0.3921  0.1768 -0.3955
 4884SOL    HW126114   3.643   1.390  10.309  0.4939  0.2746  1.0167
 4884SOL    HW226115   3.786   1.406  10.309 -0.8032  0.3568  0.4177
 4885SOL     OW26116   1.745   2.910  10.914  0.6609 -0.7420 -0.1844
 4885SOL    HW126117   1.781   2.938  10.998 -1.7822 -1.0699  0.9661
 4885SOL    HW226118   1.807   2.942  10.848  1.1862  0.6987  0.9938
 4886SOL     OW26119   3.936   2.149   4.091 -0.5024 -0.2562 -0.1753
 4886SOL    HW126120   4.006   2.210   4.113 -0.8260 -0.9045  2.5747
 4886SOL    HW226121   3.893   2.130   4.175 -0.6677 -0.1947 -0.2459
 4887SOL     OW26122   2.000   3.502   5.155 -0.0921 -0.2974  0.3246
 4887SOL    HW126123   2.089   3.469   5.142  0.5893  2.2919 -1.5712
 4887SOL    HW226124   1.980   3.465   5.241 -0.2863 -0.8676  0.0330
 4888SOL     OW26125   3.241   0.046   1.945  0.2050 -0.3474  0.2835
 4888SOL    HW126126   3.313   0.002   1.989  2.2601  1.5198 -1.1997
 4888SOL    HW226127   3.181   4.690   1.932 -1.5057  1.1969 -0.6165
 4889SOL     OW26128   1.363   0.255   4.239  0.2350 -0.0465  0.1424
 4889SOL    HW126129   1.336   0.242   4.148  1.1323  1.7005 -0.3864
 4889SOL    HW226130   1.346   0.170   4.279  0.5369  1.4907  3.5572
 4890SOL     OW26131   3.836   4.210   5.189 -0.1649 -0.1695 -0.3068
 4890SOL    HW126132   3.815   4.294   5.148  0.4237  0.0344 -0.1926
 4890SOL    HW226133   3.754   4.162   5.180 -0.8308  1.1402 -1.3747
 4891SOL     OW26134   0.512   2.323  11.145 -0.3146  0.1806  0.2664
 4891SOL    HW126135   0.525   2.299  11.053 -0.0855  0.3390  0.2574
 4891SOL    HW226136   0.545   2.245  11.190 -0.6988 -0.1549 -0.0295
 4892SOL     OW26137   1.677   2.328  12.139 -0.6542  0.0291 -0.4200
 4892SOL    HW126138   1.654   2.262  12.204  0.9221  0.8242  0.9507
 4892SOL    HW226139   1.614   2.394  12.169 -0.7700 -0.2056 -0.1476
 4893SOL     OW26140   3.651   2.802   3.990 -0.4490  0.1821 -0.5151
 4893SOL    HW126141   3.742   2.832   3.982 -0.7986  0.3054 -4.0713
 4893SOL    HW226142   3.608   2.832   3.910  1.1082  1.0175 -1.0542
 4894SOL     OW26143   3.288   2.260   2.717 -0.6962  0.5196  0.2374
 4894SOL    HW126144   3.223   2.252   2.647  0.8537 -0.1287 -1.1406
 4894SOL    HW226145   3.357   2.305   2.668 -1.0135 -1.5725 -2.1715
 4895SOL     OW26146   2.736   2.771  13.336  0.1789  0.4411 -0.3511
 4895SOL    HW126147   2.667   2.805  13.394 -0.5198  0.6230 -1.2974
 4895SOL    HW226148   2.701   2.787  13.248 -0.3734 -2.8205 -0.7360
 4896SOL     OW26149   2.690   4.007   9.368  0.3487  0.1928  0.2868
 4896SOL    HW126150   2.657   4.083   9.415  1.9928  0.4654  0.9858
 4896SOL    HW226151   2.646   4.034   9.287 -2.5003 -1.5479  1.2306
 4897SOL     OW26152   1.424   2.226   6.495  0.3238 -0.0555 -0.1473
 4897SOL    HW126153   1.449   2.269   6.577  0.7241  0.1135 -0.3542
 4897SOL    HW226154   1.331   2.247   6.488  0.9467  2.3602 -1.2832
 4898SOL     OW26155   2.064   4.635   3.030  1.2620  0.0948 -0.1087
 4898SOL    HW126156   2.039   0.002   2.993  1.0532  1.5018  3.2161
 4898SOL    HW226157   2.014   4.644   3.112 -2.4245 -1.3855 -2.1789
 4899SOL     OW26158   3.138   0.287  13.748  0.1330  0.2144  0.1709
 4899SOL    HW126159   3.139   0.250  13.660  0.5414 -2.4237  1.2885
 4899SOL    HW226160   3.043   0.281  13.761  0.1859 -1.1105 -0.1293
 4900SOL     OW26161   4.630   0.284   5.437 -0.6897  0.5098  1.0989
 4900SOL    HW126162   4.637   0.351   5.369 -0.6022 -2.2366 -1.5890
 4900SOL    HW226163   4.651   0.328   5.519  0.9958  0.5452  0.6420
 4901SOL     OW26164   0.209   3.390   1.082 -0.0572 -0.1406 -0.3130
 4901SOL    HW126165   0.156   3.311   1.085  1.4072 -1.1488 -0.5945
 4901SOL    HW226166   0.170   3.428   1.003 -0.0378  0.2208 -0.1489
 4902SOL     OW26167   1.758   1.743   3.547  0.3356 -0.2713  0.0167
 4902SOL    HW126168   1.689   1.679   3.566  0.2474 -0.3829 -0.6901
 4902SOL    HW226169   1.822   1.679   3.517  1.3822  0.1968  1.2672
 4903SOL     OW26170   4.545   3.497   5.612  0.4552  0.5134  0.1321
 4903SOL    HW126171   4.551   3.476   5.706  1.1878  1.1663  0.2281
 4903SOL    HW226172   4.527   3.591   5.619 -0.1464  0.2234  2.5223
 4904SOL     OW26173   2.812   3.910   3.188  0.1589 -0.3005  0.4304
 4904SOL    HW126174   2.879   3.977   3.173  0.7514 -0.9795  0.0952
 4904SOL    HW226175   2.756   3.962   3.246 -0.1402 -1.6365  1.3371
 4905SOL     OW26176   1.296   3.542   4.247 -0.3003 -0.5888 -0.0485
 4905SOL    HW126177   1.284   3.609   4.314  2.0246 -0.0983 -0.1454
 4905SOL    HW226178   1.359   3.581   4.188 -0.4613  0.8223  0.7143
 4906SOL     OW26179   0.017   4.573  14.974  0.1308  0.0297  0.1568
 4906SOL    HW126180   4.680   4.652  14.972 -0.0287 -0.1003 -0.5950
 4906SOL    HW226181   0.074   4.606  14.904 -1.2997  2.4282  0.1151
 4907SOL     OW26182   3.720   4.159  11.199  1.1046 -0.0882  0.2540
 4907SOL    HW126183   3.626   4.167  11.182  1.4746  2.5870 -0.5916
 4907SOL    HW226184   3.723   4.206  11.282  0.7009  1.9261 -0.8689
 4908SOL     OW26185   1.185   4.029  12.363  0.2364 -0.0581 -0.4114
 4908SOL    HW126186   1.161   3.980  12.284 -1.0251  1.0161 -0.7004
 4908SOL    HW226187   1.141   4.108  12.331  2.5984  0.9893 -1.1207
 4909SOL     OW26188   2.844   3.822   6.278 -0.7070 -0.2735  0.0239
 4909SOL    HW126189   2.793   3.808   6.359 -2.0723 -1.6113 -1.0796
 4909SOL    HW226190   2.786   3.787   6.211 -1.0586  3.4309 -1.6280
 4910SOL     OW26191   2.215   1.611   5.107 -0.1027 -0.1443  0.6797
 4910SOL    HW126192   2.174   1.647   5.029 -1.7993 -0.3341  1.4784
 4910SOL    HW226193   2.264   1.536   5.073 -0.9151 -0.3533 -0.0504
 4911SOL     OW26194   0.539   4.382   2.930  0.9930 -0.3423  0.0302
 4911SOL    HW126195   0.444   4.386   2.945  0.7723 -2.0368 -0.9016
 4911SOL    HW226196   0.562   4.475   2.924  2.8091 -0.8280 -0.5012
 4912SOL     OW26197   2.765   4.143  12.771  0.1100  0.3582 -0.1518
 4912SOL    HW126198   2.675   4.126  12.741  0.7068 -2.7231 -0.1156
 4912SOL    HW226199   2.782   4.087  12.847  0.4435  0.4193 -0.1844
 4913SOL     OW26200   0.280   1.937  13.503  0.1321 -0.1835 -0.3880
 4913SOL    HW126201   0.286   1.957  13.596 -1.5099  1.0318 -0.5418
 4913SOL    HW226202   0.307   1.845  13.506  1.1663  0.1948  1.5728
 4914SOL     OW26203   3.575   1.368   6.242  0.0487  0.1385 -0.3303
 4914SOL    HW126204   3.522   1.339   6.317  1.5904 -0.2548  0.6064
 4914SOL    HW226205   3.574   1.289   6.189 -2.1144  1.0327 -1.6252
 4915SOL     OW26206   2.487   3.398   9.100 -0.5494 -0.1822  0.5483
 4915SOL    HW126207   2.458   3.316   9.059  1.7526  1.1263 -3.6438
 4915SOL    HW226208   2.521   3.443   9.024 -0.8730 -0.3258  0.3188
 4916SOL     OW26209   2.682   2.869   7.344  0.4592  0.3903 -0.1680
 4916SOL    HW126210   2.630   2.910   7.274 -0.8919 -1.8002 -0.4480
 4916SOL    HW226211   2.713   2.949   7.387 -5.3342  2.7683 -0.3624
 4917SOL     OW26212   3.006   2.438   5.330  0.1624 -0.3328 -0.4381
 4917SOL    HW126213   3.034   2.528   5.316 -0.3326 -0.3158 -1.3165
 4917SOL    HW226214   3.053   2.407   5.407 -0.2026  1.3926  0.4636
 4918SOL     OW26215   1.753   0.248   7.551  0.4967  0.1807 -0.1644
 4918SOL    HW126216   1.840   0.221   7.522 -0.4726 -0.9608 -2.0416
 4918SOL    HW226217   1.775   0.266   7.642  1.1130 -1.7868  0.0851
 4919SOL     OW26218   4.288   3.952   9.347 -0.3335 -0.6475 -0.2291
 4919SOL    HW126219   4.364   3.955   9.289 -0.1387  1.7592  0.1408
 4919SOL    HW226220   4.234   3.880   9.315 -0.1778 -0.8909  0.0571
 4920SOL     OW26221   2.755   1.772   2.184  0.2987  0.2474 -0.2972
 4920SOL    HW126222   2.742   1.742   2.274  2.3124  0.7840  0.1621
 4920SOL    HW226223   2.703   1.852   2.188 -1.6778 -0.9376 -1.9632
 4921SOL     OW26224   4.247   2.006   4.069 -0.0467  0.3883  0.4569
 4921SOL    HW126225   4.232   2.053   3.987  1.5842 -0.1418 -0.1503
 4921SOL    HW226226   4.306   2.072   4.106  0.0396  0.2280  0.6066
 4922SOL     OW26227   4.136   3.104   1.147  0.2024 -0.0159  0.5921
 4922SOL    HW126228   4.076   3.178   1.155  1.5243  1.1208  0.1214
 4922SOL    HW226229   4.148   3.075   1.237 -1.7203  0.2423  0.9273
 4923SOL     OW26230   3.228   3.534   3.061  0.2627 -0.4303  0.0467
 4923SOL    HW126231   3.234   3.603   2.994  0.3042 -1.1068 -0.6406
 4923SOL    HW226232   3.172   3.474   3.012  2.0937 -0.1730 -2.4040
 4924SOL     OW26233   1.958   4.646   4.486  0.0696 -0.5529  0.4344
 4924SOL    HW126234   2.019   4.624   4.415  0.6931  1.3408  0.3771
 4924SOL    HW226235   2.016   4.692   4.547 -1.7226 -0.0998  1.7740
 4925SOL     OW26236   3.735   4.243  11.599  0.5165  0.0470 -0.1191
 4925SOL    HW126237   3.644   4.247  11.568  0.1164 -1.0450  0.9351
 4925SOL    HW226238   3.744   4.318  11.658  2.3491  0.8096 -1.3638
 4926SOL     OW26239   4.194   2.398  12.625 -0.4699  0.6915 -0.6713
 4926SOL    HW126240   4.137   2.466  12.662  0.0231  1.0059 -0.4983
 4926SOL    HW226241   4.281   2.427  12.651 -0.6383 -0.2710  0.9833
 4927SOL     OW26242   1.806   2.021   8.262  0.1014 -0.2539 -0.0816
 4927SOL    HW126243   1.800   1.998   8.170 -0.1531  0.6204 -0.2871
 4927SOL    HW226244   1.781   1.939   8.305  1.0099 -0.3270  0.2974
 4928SOL     OW26245   3.266   4.658   0.335  0.2024 -0.5591 -0.1745
 4928SOL    HW126246   3.315   0.003   0.282 -0.1789 -1.7697 -1.9482
 4928SOL    HW226247   3.335   4.596   0.359 -0.1772 -0.6727  0.6457
 4929SOL     OW26248   1.484   0.889   0.709 -0.2802 -0.1516 -0.1648
 4929SOL    HW126249   1.447   0.872   0.623  0.8905 -1.3435 -0.4389
 4929SOL    HW226250   1.450   0.822   0.769 -0.0330  0.5637  0.7854
 4930SOL     OW26251   1.859   2.357   9.319 -0.2769  0.7942  0.4258
 4930SOL    HW126252   1.817   2.324   9.240  0.8028 -0.1918  0.2591
 4930SOL    HW226253   1.795   2.336   9.387  0.0502  1.3358  0.8992
 4931SOL     OW26254   4.285   2.011   2.257 -0.0531  0.1962  0.4738
 4931SOL    HW126255   4.368   1.976   2.286  0.1376  1.7417  1.7818
 4931SOL    HW226256   4.241   1.926   2.254 -0.0431  0.2021  0.0698
 4932SOL     OW26257   2.784   4.301  13.931  0.4508 -0.0490 -0.1740
 4932SOL    HW126258   2.823   4.388  13.925  0.5902  0.1136  2.9777
 4932SOL    HW226259   2.829   4.269  13.853  2.3956 -1.0641  1.3675
 4933SOL     OW26260   3.202   1.127   3.258  0.2985  0.3886  0.4000
 4933SOL    HW126261   3.182   1.192   3.191  1.0073 -1.8578 -1.9477
 4933SOL    HW226262   3.297   1.136   3.265  0.1384  1.1987  1.7311
 4934SOL     OW26263   2.809   1.516  13.314 -0.2651  0.0024 -0.4584
 4934SOL    HW126264   2.787   1.593  13.261 -1.2007 -0.4352 -0.7178
 4934SOL    HW226265   2.733   1.462  13.292 -0.3357  0.4952 -1.4456
 4935SOL     OW26266   2.481   1.818  15.839  0.2700  0.1841  0.1875
 4935SOL    HW126267   2.538   1.825  15.916 -0.7960 -2.7724  1.2566
 4935SOL    HW226268   2.545   1.838  15.771 -2.0358 -0.6815 -2.2031
 4936SOL     OW26269   3.340   2.660   5.973  0.0790 -0.1399 -0.3804
 4936SOL    HW126270   3.399   2.694   6.041 -2.9438  2.0025  1.1606
 4936SOL    HW226271   3.341   2.565   5.984 -0.1884 -0.1589 -0.5319
 4937SOL     OW26272   3.140   2.694  14.637  0.2993  0.3519  0.2803
 4937SOL    HW126273   3.102   2.724  14.555 -0.7764 -0.5108  0.4676
 4937SOL    HW226274   3.070   2.718  14.698  0.7518 -1.0090  1.3475
 4938SOL     OW26275   4.042   2.758  12.861  0.2739  0.1015 -0.5572
 4938SOL    HW126276   4.128   2.783  12.895  0.7762 -1.2639 -0.7962
 4938SOL    HW226277   4.051   2.819  12.788 -2.5799  1.5943  0.3364
 4939SOL     OW26278   4.182   2.203   7.927  0.4854  0.2908  0.2778
 4939SOL    HW126279   4.103   2.219   7.876  0.7738 -0.8343 -0.5130
 4939SOL    HW226280   4.200   2.112   7.904  0.3538  0.1576  0.6947
 4940SOL     OW26281   0.750   0.098   1.973 -0.4512 -0.4603 -0.6352
 4940SOL    HW126282   0.669   0.133   1.938 -1.7581 -0.8025  2.0596
 4940SOL    HW226283   0.728   0.021   2.026 -0.0385 -0.0062  0.1981
 4941SOL     OW26284   0.968   2.138  11.770  0.1591 -0.7160  0.3323
 4941SOL    HW126285   0.935   2.227  11.774 -0.7076 -0.8770 -2.8849
 4941SOL    HW226286   0.886   2.091  11.783  0.1274 -0.1490  2.1026
 4942SOL     OW26287   0.537   2.953   9.460 -0.2083 -0.0557 -0.2827
 4942SOL    HW126288   0.538   2.864   9.495  1.1540  0.0074 -0.1590
 4942SOL    HW226289   0.535   3.004   9.542  1.9497 -0.9639  0.3261
 4943SOL     OW26290   1.621   2.726   3.268 -0.0180  0.7305 -0.4339
 4943SOL    HW126291   1.659   2.640   3.284  0.3702  1.3317  1.8665
 4943SOL    HW226292   1.682   2.799   3.278  2.8847 -1.5004 -1.9159
 4944SOL     OW26293   2.841   2.283  13.405 -0.5449  0.4249  0.1055
 4944SOL    HW126294   2.846   2.275  13.500 -0.8970  0.9996  0.1754
 4944SOL    HW226295   2.833   2.378  13.398 -0.6088  0.3952 -0.2138
 4945SOL     OW26296   0.808   1.839   4.700  0.6009 -0.5584  0.4584
 4945SOL    HW126297   0.875   1.886   4.650  0.4170 -1.4134 -0.5964
 4945SOL    HW226298   0.803   1.751   4.662 -2.7299  0.4009 -1.3370
 4946SOL     OW26299   3.558   0.077  12.793  0.0187  0.0830 -0.3794
 4946SOL    HW126300   3.573   0.171  12.806  1.7547 -0.2359 -0.1276
 4946SOL    HW226301   3.651   0.057  12.782  0.0711 -0.7752  1.6232
 4947SOL     OW26302   4.224   4.516  13.994 -0.2220 -0.0287  0.6200
 4947SOL    HW126303   4.303   4.503  13.942 -1.7337 -1.2682 -1.3718
 4947SOL    HW226304   4.261   4.548  14.076  0.1927 -0.8288  0.7387
 4948SOL     OW26305   1.638   4.557  15.498  0.5860 -0.0970  0.1410
 4948SOL    HW126306   1.617   4.577  15.407  0.9419 -2.0212 -0.3655
 4948SOL    HW226307   1.685   4.473  15.493 -2.1473 -1.6959  1.2954
 4949SOL     OW26308   1.466   3.188   7.577 -0.2961 -0.6952  0.1433
 4949SOL    HW126309   1.375   3.194   7.605 -0.1504  3.0131 -0.2167
 4949SOL    HW226310   1.498   3.109   7.621  1.8806  0.3475  0.4212
 4950SOL     OW26311   1.208   1.879   8.892 -0.4485 -0.3572  0.0627
 4950SOL    HW126312   1.133   1.820   8.883 -0.6884 -0.0588  0.0676
 4950SOL    HW226313   1.263   1.854   8.818  3.1635  2.7639  1.7110
 4951SOL     OW26314   1.272   1.309   9.991  0.3163  0.2457  0.4099
 4951SOL    HW126315   1.226   1.311  10.075 -3.5922  0.9901 -1.7968
 4951SOL    HW226316   1.201   1.326   9.930  0.7875 -0.2447 -0.2668
 4952SOL     OW26317   2.763   4.316  16.264 -0.0930 -0.1770  0.0186
 4952SOL    HW126318   2.757   4.248  16.331 -0.4593  0.0453  0.2128
 4952SOL    HW226319   2.754   4.254  16.192 -2.2014  0.2036 -0.0611
 4953SOL     OW26320   1.513   4.205   3.344 -0.1561  0.4133 -0.0847
 4953SOL    HW126321   1.514   4.257   3.425  0.5604  1.8056 -0.9856
 4953SOL    HW226322   1.430   4.159   3.338 -0.6781  1.2332  0.9481
 4954SOL     OW26323   3.983   4.302   3.089 -0.3072  0.4684 -0.3558
 4954SOL    HW126324   3.941   4.260   3.014  0.5456 -1.1606  0.0767
 4954SOL    HW226325   4.075   4.288   3.067 -0.9389 -1.5034 -1.7560
 4955SOL     OW26326   0.337   3.367  16.823  0.3103 -0.3887 -0.3904
 4955SOL    HW126327   0.291   3.417  16.890 -0.4536 -0.5011 -0.8373
 4955SOL    HW226328   0.428   3.397  16.830  0.4716 -1.0683  0.4107
 4956SOL     OW26329   1.532   2.359   0.498  0.1707 -0.2962  0.1573
 4956SOL    HW126330   1.584   2.383   0.575  2.5272 -0.2169 -1.4683
 4956SOL    HW226331   1.601   2.355   0.432  0.0420  2.8408 -0.1629
 4957SOL     OW26332   2.141   1.006  10.994  0.0344 -0.5232 -0.2317
 4957SOL    HW126333   2.047   1.003  11.013  0.4951 -0.1086  2.1930
 4957SOL    HW226334   2.148   0.917  10.960 -0.4425 -0.5541 -0.2493
 4958SOL     OW26335   2.499   2.664   7.093 -0.5028 -0.1571 -0.3948
 4958SOL    HW126336   2.462   2.680   7.007 -0.9787  0.7584 -0.0192
 4958SOL    HW226337   2.461   2.732   7.149 -2.1282 -0.9346 -0.5838
 4959SOL     OW26338   1.858   4.354   3.608 -0.1977  0.0537 -0.2053
 4959SOL    HW126339   1.949   4.384   3.600  0.2239 -1.3197 -0.6185
 4959SOL    HW226340   1.837   4.358   3.515 -1.7802 -3.7414 -0.0157
 4960SOL     OW26341   2.904   2.486   8.116 -0.0980 -0.2975 -0.4890
 4960SOL    HW126342   2.836   2.506   8.051 -0.5299 -0.2719 -0.0293
 4960SOL    HW226343   2.968   2.510   8.050  1.5861 -0.7899  0.9872
 4961SOL     OW26344   2.330   0.957   6.080  0.2220 -0.1524 -0.1405
 4961SOL    HW126345   2.287   1.020   6.021 -0.8527  0.0051  0.8261
 4961SOL    HW226346   2.310   0.985   6.169  0.2550  1.2144 -0.5591
 4962SOL     OW26347   1.411   2.492   5.456 -0.0993  0.4345 -0.1306
 4962SOL    HW126348   1.359   2.545   5.517 -1.1434 -0.9487  0.1892
 4962SOL    HW226349   1.358   2.483   5.377 -0.0773 -3.4588  0.2779
 4963SOL     OW26350   4.112   0.142   6.434 -0.0107  0.5031  0.0195
 4963SOL    HW126351   4.026   0.168   6.466 -1.0374 -1.2564 -1.3469
 4963SOL    HW226352   4.106   0.150   6.339  2.3316  0.0582 -0.1739
 4964SOL     OW26353   2.815   0.093   3.721  0.2255  0.1503 -0.2815
 4964SOL    HW126354   2.868   0.095   3.641 -0.0689 -0.0208 -0.4816
 4964SOL    HW226355   2.786   0.002   3.729 -1.9671  0.9126  0.5559
 4965SOL     OW26356   3.497   1.278  14.050 -0.2322 -0.5201 -0.1944
 4965SOL    HW126357   3.422   1.227  14.079 -0.8642  0.9062  0.6513
 4965SOL    HW226358   3.538   1.207  14.000  2.9534  0.0933  1.5517
 4966SOL     OW26359   0.238   4.338  13.938  0.0321  0.0189 -0.8185
 4966SOL    HW126360   0.236   4.287  14.020  0.2627  0.0661 -0.7837
 4966SOL    HW226361   0.156   4.387  13.949 -0.0836 -0.0284 -1.5015
 4967SOL     OW26362   1.328   4.324   4.918  0.1612 -0.1507  0.1451
 4967SOL    HW126363   1.408   4.344   4.967  0.0971  0.5667 -0.0447
 4967SOL    HW226364   1.353   4.292   4.832  0.6486  0.6084 -0.0038
 4968SOL     OW26365   1.598   1.994   6.828  0.2156 -0.0530 -1.1215
 4968SOL    HW126366   1.663   1.989   6.758 -1.3460 -0.5110 -2.5331
 4968SOL    HW226367   1.524   1.985   6.768 -1.0947 -1.4234  0.7260
 4969SOL     OW26368   1.682   1.550  11.788  0.6402 -0.0794  0.6149
 4969SOL    HW126369   1.725   1.464  11.781  0.6926 -0.2224  2.6704
 4969SOL    HW226370   1.610   1.533  11.728  0.2836 -0.3274  1.1106
 4970SOL     OW26371   1.005   4.352  14.522  0.0534  0.1897  0.2114
 4970SOL    HW126372   0.942   4.345  14.450  0.6868 -1.4410 -0.1889
 4970SOL    HW226373   0.959   4.415  14.578 -0.1913 -1.7774  2.2378
 4971SOL     OW26374   1.711   2.415   2.736 -0.5915 -0.3150  0.0925
 4971SOL    HW126375   1.651   2.415   2.810  0.4708 -0.0595  0.9435
 4971SOL    HW226376   1.780   2.352   2.755 -1.4729 -0.8750  1.4455
 4972SOL     OW26377   3.878   3.351   3.043  0.0472  0.1102 -0.2079
 4972SOL    HW126378   3.973   3.343   3.050  0.2099  1.1783 -1.2855
 4972SOL    HW226379   3.870   3.444   3.022  0.9024  0.2061 -0.1041
 4973SOL     OW26380   1.663   2.548   0.230  0.0362 -0.2562 -0.7817
 4973SOL    HW126381   1.587   2.515   0.182 -1.9183 -0.0209  2.1397
 4973SOL    HW226382   1.724   2.551   0.156  1.5548 -2.4125  0.3888
 4974SOL     OW26383   1.303   2.487   6.164  0.3887  0.3383 -0.3028
 4974SOL    HW126384   1.361   2.468   6.090  1.1094  1.1843  0.0486
 4974SOL    HW226385   1.350   2.555   6.212 -1.1901 -0.0256  1.7445
 4975SOL     OW26386   0.901   1.212   2.911  0.3157 -0.1488  0.1287
 4975SOL    HW126387   0.941   1.146   2.969 -1.6675  0.1590  1.8329
 4975SOL    HW226388   0.837   1.260   2.964 -1.4741 -2.4418  0.0316
 4976SOL     OW26389   2.026   1.014   3.757  0.2477 -0.0898 -0.0044
 4976SOL    HW126390   2.055   1.011   3.665  0.1123  0.4616 -0.0661
 4976SOL    HW226391   2.087   1.065   3.810  2.2758 -0.0669 -2.3345
 4977SOL     OW26392   1.895   0.492   4.445  0.1038  0.6056  0.6020
 4977SOL    HW126393   1.849   0.428   4.499  0.5492 -0.5042 -0.3159
 4977SOL    HW226394   1.988   0.471   4.459  0.9436  3.5697 -0.5617
 4978SOL     OW26395   3.961   1.405   9.618  0.0440  0.3661  0.3278
 4978SOL    HW126396   3.986   1.442   9.702 -0.7167  2.4422 -0.3673
 4978SOL    HW226397   3.866   1.404   9.629  0.1807  1.0450  1.5584
 4979SOL     OW26398   1.572   4.001   4.763  0.1507  0.4675 -0.3624
 4979SOL    HW126399   1.626   3.946   4.707  2.4262 -0.3862  2.6773
 4979SOL    HW226400   1.586   3.976   4.854  3.2321  0.7803 -0.7537
 4980SOL     OW26401   1.495   2.657   8.397  0.1101 -0.2783 -0.2517
 4980SOL    HW126402   1.488   2.744   8.435 -0.1923  0.1507 -1.2688
 4980SOL    HW226403   1.407   2.651   8.359  0.0081  0.2472 -0.1010
 4981SOL     OW26404   1.646   3.835   6.385 -0.0603  0.0812 -0.1762
 4981SOL    HW126405   1.615   3.921   6.356 -1.1849 -0.6657 -1.2064
 4981SOL    HW226406   1.599   3.790   6.315  0.0289 -0.3466  0.0408
 4982SOL     OW26407   0.611   3.125  16.572 -0.2830 -0.6721 -0.2853
 4982SOL    HW126408   0.621   3.220  16.585  1.8509 -0.7023 -1.7653
 4982SOL    HW226409   0.666   3.116  16.494  0.9626  2.3306  0.2580
 4983SOL     OW26410   2.964   3.643   9.032  0.7517  0.2190 -0.0670
 4983SOL    HW126411   2.960   3.589   9.111 -0.5928  0.5260  0.0841
 4983SOL    HW226412   3.016   3.582   8.981  2.3764  1.0188  0.6340
 4984SOL     OW26413   3.645   0.006   4.822  0.0911  0.1727 -0.3517
 4984SOL    HW126414   3.618   0.091   4.789  1.1867  1.4389  2.0408
 4984SOL    HW226415   3.657   0.025   4.915  0.8515  0.9111 -0.6062
 4985SOL     OW26416   3.076   3.058   7.718  0.3319  0.2950 -0.3097
 4985SOL    HW126417   3.091   3.054   7.812 -1.9294 -1.5231 -0.0403
 4985SOL    HW226418   3.164   3.072   7.681  0.9117  0.2413  1.0690
 4986SOL     OW26419   1.663   1.016   6.447  0.6888  0.2930  0.1529
 4986SOL    HW126420   1.582   0.968   6.428  0.0867  1.7509 -1.0208
 4986SOL    HW226421   1.703   0.973   6.521 -1.5781 -1.6513  0.2660
 4987SOL     OW26422   4.377   1.872  14.652  0.2173  0.4761 -0.2976
 4987SOL    HW126423   4.371   1.904  14.742 -0.5744 -0.5338  0.0178
 4987SOL    HW226424   4.400   1.951  14.604 -2.6448  2.0346  0.8635
 4988SOL     OW26425   0.996   3.770   1.782 -0.0782 -0.2880  0.3263
 4988SOL    HW126426   0.944   3.707   1.832  1.8090 -1.6504  0.5839
 4988SOL    HW226427   0.953   3.768   1.696  1.6500  1.1457 -0.5828
 4989SOL     OW26428   4.689   4.149  12.014 -0.0668  0.4673 -0.6346
 4989SOL    HW126429   4.631   4.123  12.086 -1.9646  0.4369 -2.1741
 4989SOL    HW226430   0.001   4.235  12.044  1.7513 -1.3167  2.6561
 4990SOL     OW26431   3.174   1.139   8.432  0.0072 -0.3616 -0.1091
 4990SOL    HW126432   3.218   1.222   8.448  4.5682 -2.7215 -0.3298
 4990SOL    HW226433   3.222   1.112   8.354  1.1811  0.0874  0.4644
 4991SOL     OW26434   0.509   2.907   3.695 -0.4236 -0.0920  0.0667
 4991SOL    HW126435   0.519   2.999   3.716  0.9689 -0.4669  1.0295
 4991SOL    HW226436   0.528   2.901   3.601  1.1577 -0.0851  0.3996
 4992SOL     OW26437   3.484   1.241  14.895 -0.6152 -0.1064  0.2513
 4992SOL    HW126438   3.450   1.170  14.949 -1.1499 -0.3172 -0.3560
 4992SOL    HW226439   3.571   1.206  14.876 -2.1605 -2.6941 -2.2270
 4993SOL     OW26440   0.364   3.332  15.418  0.4113  0.0190 -0.7463
 4993SOL    HW126441   0.311   3.259  15.389  0.2830 -0.2321  0.1255
 4993SOL    HW226442   0.352   3.333  15.513  0.0178 -2.0456 -0.7754
 4994SOL     OW26443   0.159   0.951   2.582  0.6379 -0.1865  0.1230
 4994SOL    HW126444   0.252   0.971   2.568  0.3399  0.5044 -0.9251
 4994SOL    HW226445   0.165   0.858   2.603  0.8369 -0.1811  0.0950
 4995SOL     OW26446   3.698   1.443   8.973  0.0742 -0.2668  0.0307
 4995SOL    HW126447   3.746   1.413   9.051  1.0970  0.9334 -0.1322
 4995SOL    HW226448   3.614   1.464   9.014  0.0846  0.9898 -0.6110
 4996SOL     OW26449   2.794   4.018   7.997  0.1580  0.3552  0.7319
 4996SOL    HW126450   2.757   4.099   7.963  0.9320  0.2824 -0.2714
 4996SOL    HW226451   2.845   3.992   7.920  1.0133 -0.7881  1.6698
 4997SOL     OW26452   2.902   3.325   3.235 -0.0186 -0.2786 -0.1106
 4997SOL    HW126453   2.889   3.234   3.209  0.5121  0.2165 -2.0549
 4997SOL    HW226454   2.856   3.374   3.167  0.7108 -0.6775 -0.8972
 4998SOL     OW26455   0.719   3.430  12.387  0.3137 -0.0024 -0.1178
 4998SOL    HW126456   0.754   3.518  12.373 -4.2863  2.1124  1.3971
 4998SOL    HW226457   0.795   3.385  12.424  1.7551  0.0008 -3.1538
 4999SOL     OW26458   2.068   4.610   3.817 -0.5062  0.4502 -0.0298
 4999SOL    HW126459   1.977   4.629   3.794 -1.3093 -1.4002  1.7183
 4999SOL    HW226460   2.107   4.609   3.729 -1.4337 -1.5587 -0.4152
 5000SOL     OW26461   2.826   1.254  14.811 -0.0255 -0.4944 -0.2569
 5000SOL    HW126462   2.749   1.310  14.806 -1.5997 -2.4990  1.1536
 5000SOL    HW226463   2.788   1.179  14.858 -2.5152  0.6397 -0.4528
 5001SOL     OW26464   1.229   1.474   7.618  0.4926 -0.2240 -0.1744
 5001SOL    HW126465   1.316   1.436   7.632  0.8675  0.5361 -0.4266
 5001SOL    HW226466   1.256   1.552   7.569 -0.5512  1.5987  2.1895
 5002SOL     OW26467   0.666   1.997   9.150  0.3850  0.2617 -0.6892
 5002SOL    HW126468   0.607   1.930   9.186 -0.2494  0.6635 -0.9858
 5002SOL    HW226469   0.604   2.070   9.148  2.5982  2.1202 -0.4084
 5003SOL     OW26470   4.068   2.476  11.018 -0.7639  0.1023  0.1972
 5003SOL    HW126471   4.033   2.558  11.054 -0.2476  0.6846 -0.6202
 5003SOL    HW226472   4.162   2.491  11.028 -0.4004 -1.2785 -1.1174
 5004SOL     OW26473   1.353   0.791   0.479  0.1414 -0.2293  0.6857
 5004SOL    HW126474   1.315   0.758   0.397 -0.3974 -2.6961  1.9470
 5004SOL    HW226475   1.288   0.753   0.537  1.4769 -1.0426  1.6491
 5005SOL     OW26476   3.633   1.300   1.141 -0.0034  0.3747 -0.3566
 5005SOL    HW126477   3.544   1.329   1.163  0.2796 -0.5508  1.9861
 5005SOL    HW226478   3.685   1.312   1.220  1.5183  0.6987 -1.3981
 5006SOL     OW26479   1.753   4.655   7.773  0.1130 -0.2680 -0.3193
 5006SOL    HW126480   1.780   4.663   7.682 -0.7876  0.6026 -0.5089
 5006SOL    HW226481   1.678   4.714   7.769  1.5070  1.4075 -1.7142
 5007SOL     OW26482   3.939   2.651   0.466  0.1231 -0.2031  0.2508
 5007SOL    HW126483   3.909   2.649   0.376  1.7688 -0.2813 -0.2921
 5007SOL    HW226484   4.025   2.693   0.459  1.1615 -2.1910  0.9972
 5008SOL     OW26485   0.071   4.265   2.441 -0.0978 -0.1877  0.3939
 5008SOL    HW126486   0.083   4.222   2.526  1.8813 -1.4716 -0.5426
 5008SOL    HW226487   0.016   4.210   2.387  1.1075 -0.5250 -0.4879
 5009SOL     OW26488   4.158   0.087   5.331 -0.4348 -0.2424 -0.2987
 5009SOL    HW126489   4.216   0.071   5.257  0.9743 -1.3304  1.0557
 5009SOL    HW226490   4.131   0.179   5.324 -1.4658 -0.5840 -0.7498
 5010SOL     OW26491   4.550   0.409   0.523 -0.1643  0.3427 -0.6968
 5010SOL    HW126492   4.561   0.390   0.616  0.6407 -0.7059 -1.0079
 5010SOL    HW226493   4.565   0.503   0.538 -0.8106  0.4438 -0.6633
 5011SOL     OW26494   0.948   2.345  13.734 -0.4532 -0.0770  0.4216
 5011SOL    HW126495   0.951   2.258  13.773 -1.6898  0.7735  2.4156
 5011SOL    HW226496   1.039   2.376  13.740  0.1868 -2.2362  1.5703
 5012SOL     OW26497   3.230   3.066   6.660  0.6129 -0.2107 -0.4308
 5012SOL    HW126498   3.250   3.062   6.754  1.2348  1.5844 -0.4961
 5012SOL    HW226499   3.197   2.976   6.660  0.7821 -0.2784  0.7822
 5013SOL     OW26500   3.255   4.657   7.253 -0.2271  0.1150  0.0343
 5013SOL    HW126501   3.211   4.603   7.188 -1.1978  1.2184 -0.2180
 5013SOL    HW226502   3.316   4.705   7.198  0.0917  0.4207  0.6542
 5014SOL     OW26503   2.208   1.919   8.645  0.1357  0.1219 -0.0021
 5014SOL    HW126504   2.247   2.004   8.630  0.7895 -0.0489  0.7279
 5014SOL    HW226505   2.119   1.947   8.622  0.8596  1.2504 -1.3598
 5015SOL     OW26506   3.108   3.916  11.255 -0.0531 -0.3302 -0.0402
 5015SOL    HW126507   3.188   3.956  11.289 -0.5862  0.9058 -0.2242
 5015SOL    HW226508   3.143   3.843  11.205 -0.5258 -1.7601  1.7010
 5016SOL     OW26509   3.570   1.216   9.289  0.6126  0.3419  0.0534
 5016SOL    HW126510   3.499   1.267   9.249 -0.0126 -1.5425 -1.2080
 5016SOL    HW226511   3.516   1.169   9.352  1.4055  0.9662  1.2022
 5017SOL     OW26512   3.827   2.607   2.906 -0.6887 -0.2873 -0.4420
 5017SOL    HW126513   3.899   2.656   2.866 -0.0986 -1.5527 -0.9362
 5017SOL    HW226514   3.772   2.591   2.829 -0.9794  0.4437 -0.3927
 5018SOL     OW26515   1.400   0.440   8.712 -0.0722 -0.3495 -0.2002
 5018SOL    HW126516   1.412   0.367   8.773  2.2369  0.9448  0.8985
 5018SOL    HW226517   1.423   0.511   8.772 -1.8692 -0.1268  0.2124
 5019SOL     OW26518   0.922   2.319   6.307 -0.2724  0.2068  0.2186
 5019SOL    HW126519   0.989   2.268   6.352  1.4118  1.4348 -0.8800
 5019SOL    HW226520   0.927   2.408   6.342 -0.3050  2.2617 -4.9993
 5020SOL     OW26521   0.978   3.669   7.571  0.5732 -0.1442  0.4283
 5020SOL    HW126522   0.973   3.595   7.511  0.3433 -0.8970  1.3895
 5020SOL    HW226523   1.058   3.652   7.621  1.1433  2.4235  0.3917
 5021SOL     OW26524   0.828   2.968  11.542 -0.5965  0.5628  0.3154
 5021SOL    HW126525   0.871   3.032  11.599 -2.5758  0.1908  2.2178
 5021SOL    HW226526   0.766   3.021  11.493  1.0025 -0.9079 -3.2783
 5022SOL     OW26527   4.234   4.391   6.590 -0.4341 -0.5487  0.4034
 5022SOL    HW126528   4.195   4.307   6.615 -2.3874  0.8067  1.8131
 5022SOL    HW226529   4.169   4.440   6.540  1.3379  2.0000  0.5764
 5023SOL     OW26530   1.922   1.009  12.423 -0.4780  0.1090 -0.4507
 5023SOL    HW126531   1.853   1.034  12.484 -0.4268  0.0895 -0.3851
 5023SOL    HW226532   1.866   0.994  12.346 -0.2880 -0.8754 -0.4062
 5024SOL     OW26533   0.874   2.185   8.828  0.1840  0.1827  0.2159
 5024SOL    HW126534   0.786   2.208   8.800  0.2380 -0.6688 -0.6590
 5024SOL    HW226535   0.867   2.096   8.862 -1.1946  0.4001  0.5159
 5025SOL     OW26536   3.559   2.948   4.247  0.3413  0.1723  0.3605
 5025SOL    HW126537   3.474   2.938   4.290  0.5038 -1.1563  0.3901
 5025SOL    HW226538   3.533   2.974   4.159  0.3677 -0.0880  0.2753
 5026SOL     OW26539   1.578   1.379  17.572 -0.3138  0.2208  0.6554
 5026SOL    HW126540   1.512   1.448  17.559  1.3388  1.5815 -0.5923
 5026SOL    HW226541   1.649   1.408  17.514 -0.3300 -1.2144 -0.0704
 5027SOL     OW26542   0.641   2.463  16.052 -0.0502 -0.3578 -0.6549
 5027SOL    HW126543   0.628   2.385  15.999 -1.2217 -0.6769  0.1110
 5027SOL    HW226544   0.573   2.444  16.117  0.6894  3.0452  1.1656
 5028SOL     OW26545   0.242   2.609   4.151 -0.1335  0.1072 -0.3209
 5028SOL    HW126546   0.172   2.668   4.123 -0.1031 -0.6452 -2.0243
 5028SOL    HW226547   0.276   2.589   4.063 -0.8960  0.6677 -0.7395
 5029SOL     OW26548   1.417   1.111   5.092  0.4815  0.4947  0.4576
 5029SOL    HW126549   1.476   1.044   5.127 -2.0984 -2.6894 -1.2141
 5029SOL    HW226550   1.352   1.055   5.049 -1.1965  1.2316  2.0305
 5030SOL     OW26551   2.170   1.416   5.496 -0.5557 -0.2298  0.4499
 5030SOL    HW126552   2.225   1.486   5.462 -0.2795 -1.0161 -0.7457
 5030SOL    HW226553   2.160   1.356   5.422 -0.7009  0.3238  0.0181
 5031SOL     OW26554   1.609   1.530  12.757  0.4181 -0.0579 -0.2029
 5031SOL    HW126555   1.650   1.570  12.834  0.1452 -1.6133  0.7334
 5031SOL    HW226556   1.681   1.478  12.723 -0.5030 -0.7500 -1.0640
 5032SOL     OW26557   2.213   3.511   5.434 -0.2354  0.5466 -0.3107
 5032SOL    HW126558   2.119   3.501   5.451 -0.8651  1.6660 -3.0782
 5032SOL    HW226559   2.260   3.479   5.511 -1.5820 -0.0901  0.2399
 5033SOL     OW26560   4.272   2.743  11.317 -0.1905  0.2754  0.1149
 5033SOL    HW126561   4.341   2.809  11.313 -0.7194  0.5900 -4.1362
 5033SOL    HW226562   4.295   2.689  11.241 -1.4951  0.5876 -0.5101
 5034SOL     OW26563   3.075   1.164   3.726  0.2774  0.4718 -0.0681
 5034SOL    HW126564   3.079   1.149   3.632  3.1517  0.8054 -0.0096
 5034SOL    HW226565   3.050   1.256   3.733  2.2992  1.1602 -1.9000
 5035SOL     OW26566   1.613   1.364   3.720 -0.2917 -0.2939  0.0050
 5035SOL    HW126567   1.540   1.309   3.692 -0.8316 -1.8721  4.6264
 5035SOL    HW226568   1.670   1.294   3.751  1.7375  2.4797  2.5388
 5036SOL     OW26569   2.786   3.461  16.573 -0.1276  0.0924  0.5535
 5036SOL    HW126570   2.740   3.525  16.628 -1.0062 -1.6159  1.7992
 5036SOL    HW226571   2.762   3.473  16.481  3.0429 -0.6204 -0.3461
 5037SOL     OW26572   3.159   4.469   8.872 -0.2215  0.2018  0.1437
 5037SOL    HW126573   3.253   4.483   8.875  0.0046 -0.7851 -2.0415
 5037SOL    HW226574   3.136   4.506   8.958 -1.3572 -1.4853  0.5567
 5038SOL     OW26575   1.454   0.751   2.646  0.2297 -0.2725  0.2282
 5038SOL    HW126576   1.520   0.709   2.702  2.4676 -0.8512 -2.8400
 5038SOL    HW226577   1.424   0.676   2.596  1.7057 -0.0421 -1.0155
 5039SOL     OW26578   2.660   2.821   9.459  0.4532  0.3797 -0.8108
 5039SOL    HW126579   2.700   2.907   9.469  0.2023  0.4534 -0.4204
 5039SOL    HW226580   2.736   2.782   9.415 -0.0882  2.0856 -3.2742
 5040SOL     OW26581   4.238   4.299   8.761  0.0601 -0.0540 -0.1820
 5040SOL    HW126582   4.192   4.291   8.845  0.5126 -0.8570 -0.0204
 5040SOL    HW226583   4.303   4.230   8.771  0.5937  0.7084  1.6485
 5041SOL     OW26584   1.043   1.711   7.762  0.0931 -0.5122 -0.1873
 5041SOL    HW126585   0.950   1.733   7.765 -0.0492 -0.9538 -1.5815
 5041SOL    HW226586   1.074   1.774   7.828  1.9766  0.4272 -1.9791
 5042SOL     OW26587   1.713   0.770   8.433 -0.1518  0.1426 -0.1137
 5042SOL    HW126588   1.619   0.786   8.423 -0.2458 -0.4743 -0.1802
 5042SOL    HW226589   1.753   0.838   8.378  1.8635 -0.5854  0.4586
 5043SOL     OW26590   0.158   4.676   9.806 -0.3024  0.1029 -0.1760
 5043SOL    HW126591   0.148   0.044   9.849 -0.6880 -0.7665  1.4448
 5043SOL    HW226592   0.180   4.625   9.884 -1.3914 -0.2136 -0.0663
 5044SOL     OW26593   2.941   3.610   4.227  0.0431 -0.1987  0.2245
 5044SOL    HW126594   2.992   3.536   4.262  0.0515 -0.6503 -0.7403
 5044SOL    HW226595   2.972   3.608   4.137  1.1110 -1.9140  0.6310
 5045SOL     OW26596   0.205   3.839  13.828 -0.2412  0.0395  0.5451
 5045SOL    HW126597   0.291   3.825  13.867  0.6188 -0.7564 -1.6098
 5045SOL    HW226598   0.187   3.748  13.807 -0.5620 -0.2652  2.1495
 5046SOL     OW26599   4.001   1.783   2.060 -0.2478 -0.3798  0.3314
 5046SOL    HW126600   4.075   1.742   2.104  0.5799  1.7865  0.9591
 5046SOL    HW226601   4.033   1.873   2.053  1.9617 -1.1373  0.4688
 5047SOL     OW26602   2.695   0.337   1.471  0.2618  0.2947  0.6541
 5047SOL    HW126603   2.755   0.329   1.545  2.8479 -1.5991 -1.6768
 5047SOL    HW226604   2.721   0.423   1.437  0.9631  0.2049  0.9769
 5048SOL     OW26605   0.423   3.304   2.709 -0.9073 -0.4928  0.2170
 5048SOL    HW126606   0.469   3.386   2.691  1.1516 -1.9483 -1.0641
 5048SOL    HW226607   0.501   3.251   2.697 -1.7267 -1.2536 -1.8465
 5049SOL     OW26608   0.064   0.721   6.218 -0.4228  0.5456 -0.0397
 5049SOL    HW126609   0.146   0.687   6.183 -0.5009  0.8581 -0.5329
 5049SOL    HW226610   0.083   0.724   6.312 -1.7041 -0.0709  0.2386
 5050SOL     OW26611   0.198   1.499  10.884 -0.7830 -0.2783  0.2855
 5050SOL    HW126612   0.287   1.511  10.852 -1.4359  0.6859 -1.1749
 5050SOL    HW226613   0.212   1.448  10.964 -1.5753 -0.0252  0.5862
 5051SOL     OW26614   1.835   2.372   4.602 -0.0176 -0.5804 -0.2832
 5051SOL    HW126615   1.802   2.381   4.692 -1.4198  1.0564 -0.9570
 5051SOL    HW226616   1.752   2.395   4.560  1.4415  2.0063 -1.7856
 5052SOL     OW26617   2.588   0.942   7.780  0.3282  0.6676 -0.0591
 5052SOL    HW126618   2.681   0.923   7.767 -0.0793 -1.0215 -0.5568
 5052SOL    HW226619   2.559   0.878   7.845 -2.0314  1.1492 -0.6214
 5053SOL     OW26620   0.882   1.461   6.486 -0.0399 -0.2271  0.3465
 5053SOL    HW126621   0.964   1.421   6.516  0.5913  0.2218 -0.7584
 5053SOL    HW226622   0.824   1.387   6.467 -2.3617  2.0286 -1.3393
 5054SOL     OW26623   4.439   1.625   1.416 -0.1289  0.1125 -0.6514
 5054SOL    HW126624   4.521   1.622   1.465 -0.1526  1.0185 -0.5556
 5054SOL    HW226625   4.434   1.719   1.396  0.3529 -0.2167 -2.3355
 5055SOL     OW26626   2.329   4.086  14.391 -0.7200  0.0209  0.4384
 5055SOL    HW126627   2.370   4.062  14.474 -0.0803  0.4081  0.2367
 5055SOL    HW226628   2.366   4.026  14.327 -3.2828  0.6643 -1.6656
 5056SOL     OW26629   2.484   3.358   1.259  0.4131 -0.0693  0.1663
 5056SOL    HW126630   2.541   3.299   1.308  0.2768 -0.9068 -0.6695
 5056SOL    HW226631   2.440   3.297   1.200 -0.7591  0.5535  0.4005
 5057SOL     OW26632   3.137   4.242   4.132  0.1250 -0.2865 -0.3551
 5057SOL    HW126633   3.192   4.294   4.073 -0.3673 -0.5173 -1.0191
 5057SOL    HW226634   3.064   4.225   4.073 -0.3506  0.0424  0.1430
 5058SOL     OW26635   1.095   0.699   3.565  0.5188  0.7341  0.5385
 5058SOL    HW126636   1.131   0.736   3.646  2.3177  1.1812 -0.4537
 5058SOL    HW226637   1.060   0.613   3.586  0.6507  0.2323 -1.2794
 5059SOL     OW26638   0.655   3.240   5.331 -0.0175 -0.8557  0.5562
 5059SOL    HW126639   0.567   3.202   5.337 -0.0996 -1.2341 -3.2814
 5059SOL    HW226640   0.695   3.172   5.385  0.5814 -3.7514 -3.5820
 5060SOL     OW26641   2.337   4.117   2.560 -0.1046  0.4749 -0.2788
 5060SOL    HW126642   2.368   4.106   2.470  2.0046 -0.1032  0.5124
 5060SOL    HW226643   2.411   4.095   2.616 -1.2796 -1.0997  0.6608
 5061SOL     OW26644   3.492   3.326   1.444  0.4926  0.2058  0.2626
 5061SOL    HW126645   3.445   3.246   1.466  0.6188 -0.2553 -1.1300
 5061SOL    HW226646   3.569   3.322   1.500 -0.1685 -3.1256  0.9001
 5062SOL     OW26647   1.557   4.348   5.608 -0.5785 -1.1794  0.2250
 5062SOL    HW126648   1.635   4.323   5.559  1.2803  2.3132  1.4392
 5062SOL    HW226649   1.514   4.410   5.549 -0.9083 -0.8470  0.8139
 5063SOL     OW26650   1.577   3.983   3.068  0.6854  0.3094  0.6069
 5063SOL    HW126651   1.615   3.964   2.982  0.1942  1.1913  0.1951
 5063SOL    HW226652   1.501   4.034   3.041  0.3311  0.4115  1.8386
 5064SOL     OW26653   1.009   2.906   7.750  0.3524 -0.5801  0.7006
 5064SOL    HW126654   0.963   2.914   7.834 -1.8986 -1.0151 -0.4786
 5064SOL    HW226655   1.102   2.914   7.770  0.7040 -2.0108 -0.3691
 5065SOL     OW26656   2.035   0.507   5.885  0.2581 -0.2032  0.3705
 5065SOL    HW126657   2.028   0.589   5.934  2.5956  0.5219 -0.5094
 5065SOL    HW226658   2.113   0.469   5.926  0.0127 -1.2351 -0.1298
 5066SOL     OW26659   0.141   3.758   1.414  0.4322  0.2527 -0.5713
 5066SOL    HW126660   0.235   3.744   1.424  0.7778  2.0350 -1.3193
 5066SOL    HW226661   0.147   3.836   1.359  0.0468  0.3848 -0.4251
 5067SOL     OW26662   1.737   1.801   4.643  0.0056 -0.2542 -0.5021
 5067SOL    HW126663   1.743   1.852   4.562  1.7241  2.2514  1.2102
 5067SOL    HW226664   1.762   1.715   4.608  0.2463  0.2969 -1.6847
 5068SOL     OW26665   3.818   0.566   5.575 -0.0109 -0.2125 -0.0572
 5068SOL    HW126666   3.862   0.495   5.528  0.7562 -0.4195  0.9800
 5068SOL    HW226667   3.729   0.531   5.585 -0.4935  1.0208 -0.0129
 5069SOL     OW26668   1.611   2.592   7.519  0.5182  0.1169 -0.4669
 5069SOL    HW126669   1.655   2.648   7.583 -1.0793 -0.6903  1.3297
 5069SOL    HW226670   1.557   2.654   7.470 -0.2452  0.6683  1.0671
 5070SOL     OW26671   2.172   0.484  12.082 -0.4876  0.2901 -0.8959
 5070SOL    HW126672   2.168   0.396  12.119  2.0235 -0.0633 -1.4665
 5070SOL    HW226673   2.200   0.531  12.161 -2.6583 -0.0917  0.0984
 5071SOL     OW26674   0.487   0.661   1.265  0.1012 -0.6178  0.3084
 5071SOL    HW126675   0.408   0.714   1.281 -1.6672 -2.5200 -2.1724
 5071SOL    HW226676   0.486   0.641   1.172 -2.0615 -1.2912  0.4700
 5072SOL     OW26677   0.099   1.409   5.605 -0.0597  0.3506 -0.7705
 5072SOL    HW126678   0.089   1.428   5.511 -0.4394  0.4007 -0.7221
 5072SOL    HW226679   0.140   1.490   5.636 -3.0535  1.6482 -0.1810
 5073SOL     OW26680   1.388   3.280   4.318  0.1292 -0.5759  0.2849
 5073SOL    HW126681   1.340   3.358   4.291 -1.0991 -1.5424 -0.3122
 5073SOL    HW226682   1.391   3.239   4.231  0.5035 -2.6800  1.2901
 5074SOL     OW26683   0.149   2.551   0.315  0.2323 -0.6698 -0.0234
 5074SOL    HW126684   0.212   2.611   0.355  0.1519 -0.6954  0.1408
 5074SOL    HW226685   0.136   2.490   0.387 -0.1297  0.3467  0.7840
 5075SOL     OW26686   3.504   2.463   6.379  0.3850 -0.0906 -0.3524
 5075SOL    HW126687   3.425   2.426   6.338  0.2692 -0.2845  0.0492
 5075SOL    HW226688   3.569   2.432   6.316  1.7275  0.2521  0.8919
 5076SOL     OW26689   0.338   1.653  11.168  0.2007  0.0246  0.6948
 5076SOL    HW126690   0.413   1.594  11.172 -1.6663 -2.3956  0.1541
 5076SOL    HW226691   0.282   1.607  11.231 -0.3261 -0.4490 -0.1214
 5077SOL     OW26692   4.338   3.819   8.624 -0.1779 -0.6370 -0.5303
 5077SOL    HW126693   4.314   3.912   8.617  1.3331 -0.2018 -0.0213
 5077SOL    HW226694   4.307   3.788   8.539 -0.6521  3.0701 -1.7337
 5078SOL     OW26695   1.511   4.532  14.646  0.0002 -0.7448  0.5189
 5078SOL    HW126696   1.431   4.480  14.639  0.1961 -1.4993  3.9059
 5078SOL    HW226697   1.539   4.541  14.555 -0.4925  0.0479  0.4438
 5079SOL     OW26698   1.646   1.664   9.132  0.0435 -0.1282  0.2819
 5079SOL    HW126699   1.603   1.746   9.108  1.4718  0.5486  0.0552
 5079SOL    HW226700   1.678   1.680   9.220 -0.8392 -2.1569  0.9702
 5080SOL     OW26701   0.720   1.195   8.704  0.3066 -0.7236  0.1223
 5080SOL    HW126702   0.699   1.139   8.778  1.6012 -0.3643  0.7679
 5080SOL    HW226703   0.685   1.152   8.627 -0.1927 -0.9880  0.5007
 5081SOL     OW26704   1.493   4.326  17.618  0.3312  0.5465 -0.0166
 5081SOL    HW126705   1.499   4.274  17.538  0.0686 -0.3021  0.5159
 5081SOL    HW226706   1.545   4.278   0.008 -2.6087 -2.3418  0.2070
 5082SOL     OW26707   3.256   2.380  12.194  0.2016 -1.0108 -0.2565
 5082SOL    HW126708   3.291   2.433  12.266 -1.0482 -0.2824 -0.1756
 5082SOL    HW226709   3.282   2.292  12.221 -0.6682 -1.3381 -0.4930
 5083SOL     OW26710   0.960   2.496  11.071  0.6122  0.3944  0.2442
 5083SOL    HW126711   0.949   2.438  10.996  2.4852 -1.1939  1.1739
 5083SOL    HW226712   0.910   2.573  11.044  0.9663  0.9316  1.0968
 5084SOL     OW26713   0.218   0.062   7.193 -0.0034  0.6287  0.3951
 5084SOL    HW126714   0.306   0.098   7.202  0.0666  0.6249 -0.2667
 5084SOL    HW226715   0.155   0.124   7.229 -0.4424  0.5629 -0.2679
 5085SOL     OW26716   1.555   0.699   3.121  0.5454 -0.0882  0.3624
 5085SOL    HW126717   1.471   0.667   3.089  0.3963  2.4532 -1.7819
 5085SOL    HW226718   1.535   0.705   3.214  0.5099 -2.6883  0.5247
 5086SOL     OW26719   2.647   1.931   8.603 -0.5428 -0.2742  0.2583
 5086SOL    HW126720   2.727   1.983   8.589 -2.2605  2.9986  2.6223
 5086SOL    HW226721   2.620   1.900   8.517  1.2207 -2.2545  0.4097
 5087SOL     OW26722   4.678   3.347  16.612  0.2658  0.7700  0.4209
 5087SOL    HW126723   0.037   3.400  16.590  1.5552 -0.5971  1.6125
 5087SOL    HW226724   0.002   3.264  16.634 -1.6075 -0.1443  0.4932
 5088SOL     OW26725   3.581   3.090  14.535 -0.0476 -0.1435  0.1041
 5088SOL    HW126726   3.519   3.111  14.605 -1.2030 -1.1664 -0.6095
 5088SOL    HW226727   3.576   3.177  14.495 -0.4034 -0.7561 -1.1609
 5089SOL     OW26728   1.101   1.206  12.918  0.4751  0.0585 -0.6421
 5089SOL    HW126729   1.137   1.285  12.959  1.0248 -1.1580  1.2017
 5089SOL    HW226730   1.088   1.238  12.829 -0.0245  0.4097 -0.4400
 5090SOL     OW26731   1.921   1.523   3.506  0.4234 -0.1260  0.1608
 5090SOL    HW126732   1.976   1.459   3.550 -0.8847 -0.9680  0.5766
 5090SOL    HW226733   1.942   1.502   3.415  0.6517 -0.2559  0.2444
 5091SOL     OW26734   0.558   2.513   5.549 -0.4431 -0.9542 -0.0600
 5091SOL    HW126735   0.526   2.549   5.466  1.6813  0.8001 -0.1279
 5091SOL    HW226736   0.495   2.441   5.550 -1.5852  0.0362  0.0898
 5092SOL     OW26737   4.006   0.611   6.208  0.1701 -0.5194 -0.0012
 5092SOL    HW126738   4.000   0.655   6.124 -1.4798 -2.6462 -0.9874
 5092SOL    HW226739   4.020   0.683   6.270 -3.4499 -0.5025  0.7525
 5093SOL     OW26740   4.375   2.738  14.654  0.3439 -0.3282 -0.1227
 5093SOL    HW126741   4.286   2.706  14.669 -0.1991  1.3009  0.1191
 5093SOL    HW226742   4.352   2.828  14.633  0.2823 -0.5517 -1.0148
 5094SOL     OW26743   4.544   1.191   1.954 -0.3557  0.0032  0.0074
 5094SOL    HW126744   4.523   1.176   1.862 -0.4308 -0.9564  0.1841
 5094SOL    HW226745   4.603   1.266   1.944 -1.8140  1.3983  1.9339
 5095SOL     OW26746   1.272   3.675   8.885  0.0821  0.1496  0.7944
 5095SOL    HW126747   1.213   3.648   8.955 -0.1982 -0.7328  0.2108
 5095SOL    HW226748   1.224   3.755   8.862  0.1189  0.2029  0.9015
 5096SOL     OW26749   0.886   0.900   2.371  0.3113  0.5492  0.0728
 5096SOL    HW126750   0.975   0.925   2.350  0.1926 -0.7651 -1.9797
 5096SOL    HW226751   0.882   0.808   2.344  1.7182 -0.0066  1.7808
 5097SOL     OW26752   3.731   2.516   4.916  0.0527 -0.6519  0.4457
 5097SOL    HW126753   3.706   2.470   4.836  1.0014  1.0108 -0.7924
 5097SOL    HW226754   3.815   2.549   4.885 -0.2525 -0.3664 -0.0915
 5098SOL     OW26755   3.900   2.243   8.587  0.4146 -0.0223  0.2274
 5098SOL    HW126756   3.958   2.172   8.615  0.0015 -0.0178  1.0891
 5098SOL    HW226757   3.954   2.321   8.600 -0.7780  1.1612 -1.8782
 5099SOL     OW26758   0.062   2.182   7.819  0.4175  0.0225  0.5856
 5099SOL    HW126759   4.713   2.184   7.888  0.4527  1.4688  0.5689
 5099SOL    HW226760   0.067   2.268   7.778  2.1785  0.4053  1.6068
 5100SOL     OW26761   3.794   2.555   8.131 -0.2116  0.1101 -0.0019
 5100SOL    HW126762   3.739   2.603   8.192 -0.0251 -0.3240  0.5077
 5100SOL    HW226763   3.857   2.515   8.190 -0.6814 -0.6112  0.0142
 5101SOL     OW26764   1.192   0.497   8.935  0.1990  0.1953 -0.4899
 5101SOL    HW126765   1.192   0.593   8.931  1.0034  0.2062 -0.1203
 5101SOL    HW226766   1.103   0.474   8.963 -0.4264  0.9010 -1.8302
 5102SOL     OW26767   3.474   3.872   0.833 -0.4346  0.2711  0.3925
 5102SOL    HW126768   3.401   3.906   0.885 -1.3876  0.4366 -1.0704
 5102SOL    HW226769   3.507   3.955   0.798 -0.7518  1.0244  1.8779
 5103SOL     OW26770   0.660   4.466   5.571  0.2224  0.1074  0.3822
 5103SOL    HW126771   0.678   4.525   5.644 -2.2316 -0.5845  1.5410
 5103SOL    HW226772   0.584   4.513   5.537 -1.2965 -0.2257  3.2695
 5104SOL     OW26773   1.733   1.634  14.521 -0.7861  0.7269  0.6185
 5104SOL    HW126774   1.810   1.586  14.551 -0.8179  1.2640  1.5947
 5104SOL    HW226775   1.775   1.710  14.480 -0.4593 -0.7125 -1.7037
 5105SOL     OW26776   0.414   3.402   1.287  0.9368  0.3554  0.3340
 5105SOL    HW126777   0.360   3.405   1.208 -1.5808 -3.0800  1.9564
 5105SOL    HW226778   0.407   3.310   1.311 -0.4938  0.2343 -0.5163
 5106SOL     OW26779   2.489   3.340   2.866  0.2137 -0.1831  0.1693
 5106SOL    HW126780   2.567   3.287   2.881  0.2442 -0.6697 -1.7386
 5106SOL    HW226781   2.475   3.311   2.776 -0.2760  0.4383  0.0402
 5107SOL     OW26782   3.326   3.263  17.082 -0.2880  0.7334 -0.6644
 5107SOL    HW126783   3.288   3.175  17.075  2.1200 -0.2909 -1.0366
 5107SOL    HW226784   3.252   3.308  17.122 -2.2065 -2.0767 -1.0487
 5108SOL     OW26785   2.723   3.198  16.558 -0.1059 -0.1085 -0.0979
 5108SOL    HW126786   2.800   3.150  16.589  0.2115  1.4409  1.5243
 5108SOL    HW226787   2.736   3.291  16.581 -4.5383  0.3073  0.7734
 5109SOL     OW26788   2.071   2.976  15.915 -0.2674 -0.1553  0.5859
 5109SOL    HW126789   2.047   3.067  15.931 -3.2317 -0.3329 -2.9296
 5109SOL    HW226790   2.097   2.974  15.823  2.9447  0.8619  1.4793
 5110SOL     OW26791   0.963   0.209   7.730 -0.4543 -0.0055  0.8746
 5110SOL    HW126792   1.041   0.236   7.779 -0.8515  2.3868  0.1420
 5110SOL    HW226793   0.938   0.134   7.784 -1.9545 -2.0822 -2.6599
 5111SOL     OW26794   4.609   1.000  16.277 -0.0573 -0.1582  0.2578
 5111SOL    HW126795   4.602   1.012  16.372  2.6854  0.3047  0.3841
 5111SOL    HW226796   4.655   1.081  16.253 -1.3500 -0.0677 -1.8916
 5112SOL     OW26797   2.655   4.694   7.184  0.1057 -0.1357  0.1045
 5112SOL    HW126798   2.646   4.599   7.185  2.9708 -0.4232  1.2626
 5112SOL    HW226799   2.747   4.707   7.208  0.0503 -1.6755  1.1588
 5113SOL     OW26800   2.126   2.674   2.249 -0.1427  0.0333  1.0055
 5113SOL    HW126801   2.171   2.604   2.297 -1.0575 -2.3476 -1.6294
 5113SOL    HW226802   2.198   2.736   2.255  1.7856 -2.2210  1.1565
 5114SOL     OW26803   0.095   0.475   4.279  0.4307 -0.1494  0.2260
 5114SOL    HW126804   0.097   0.398   4.223  0.7346  0.3771 -0.4899
 5114SOL    HW226805   0.002   0.474   4.301  1.0523  0.8786  3.0232
 5115SOL     OW26806   0.296   0.076  13.400 -0.9908  0.3367 -0.0317
 5115SOL    HW126807   0.338   0.075  13.486 -0.2466  3.6563 -0.3669
 5115SOL    HW226808   0.373   0.057  13.347  0.5832  1.0660  2.0288
 5116SOL     OW26809   1.701   3.638   1.370  0.0887  0.0072 -0.1807
 5116SOL    HW126810   1.753   3.567   1.332  1.2528  0.8520 -0.1744
 5116SOL    HW226811   1.751   3.668   1.446  0.9372  1.0602 -1.1522
 5117SOL     OW26812   0.368   1.026   4.891 -0.2297 -0.1028  0.5094
 5117SOL    HW126813   0.380   0.940   4.851  0.8744  0.1917  0.2065
 5117SOL    HW226814   0.273   1.043   4.891 -0.1698  0.2016  3.4015
 5118SOL     OW26815   3.707   3.941   6.573 -0.4706  0.0990 -0.3684
 5118SOL    HW126816   3.725   3.850   6.549  0.8145  0.8425 -2.2057
 5118SOL    HW226817   3.614   3.921   6.585 -1.0127  1.0953 -2.9139
 5119SOL     OW26818   4.520   3.750   6.191 -0.0823 -0.3110  0.2848
 5119SOL    HW126819   4.437   3.788   6.219 -1.3882 -1.5154 -1.9786
 5119SOL    HW226820   4.587   3.818   6.204 -0.8235  0.2545  1.1182
 5120SOL     OW26821   0.339   2.787   2.301 -0.7073  0.3415 -0.1977
 5120SOL    HW126822   0.369   2.876   2.282 -0.8053  0.2779 -0.6434
 5120SOL    HW226823   0.363   2.742   2.221 -0.1818  1.9105 -0.9315
 5121SOL     OW26824   0.718   2.285  16.400 -0.8584 -0.2636 -0.1227
 5121SOL    HW126825   0.735   2.306  16.492  0.9574 -3.6256  0.2836
 5121SOL    HW226826   0.760   2.355  16.350  0.1332  0.6214  1.9320
 5122SOL     OW26827   3.342   1.274  14.655 -0.2762  0.1808 -0.0723
 5122SOL    HW126828   3.394   1.245  14.729 -0.2179  2.5465  0.8145
 5122SOL    HW226829   3.257   1.281  14.698  0.3274  1.9401  0.8276
 5123SOL     OW26830   1.561   3.639   0.232 -0.0733  0.5274  0.1411
 5123SOL    HW126831   1.601   3.722   0.258  0.2631  0.5996 -0.6284
 5123SOL    HW226832   1.593   3.584   0.303  1.0316 -0.6794 -1.3041
 5124SOL     OW26833   1.302   3.219  11.567 -0.3173 -0.1557  0.0805
 5124SOL    HW126834   1.289   3.126  11.550  3.8035 -0.9516  1.3485
 5124SOL    HW226835   1.369   3.214  11.635 -0.0457 -1.0980 -0.2626
 5125SOL     OW26836   1.988   4.190   8.890  0.4000 -0.0017 -0.0667
 5125SOL    HW126837   1.968   4.174   8.798 -1.6010  0.5523  0.2768
 5125SOL    HW226838   1.940   4.122   8.937 -0.5664  1.0904  0.5098
 5126SOL     OW26839   1.613   2.492   2.340  0.3603 -0.1856 -0.0711
 5126SOL    HW126840   1.672   2.491   2.265  3.2879  0.6763  2.1959
 5126SOL    HW226841   1.677   2.533   2.399 -0.0475  1.3389 -0.7014
 5127SOL     OW26842   4.097   3.160  15.134 -0.1410 -0.4470  0.0616
 5127SOL    HW126843   4.018   3.203  15.101 -0.0200 -1.4984 -1.5807
 5127SOL    HW226844   4.089   3.071  15.101  0.6937 -0.3541 -0.3912
 5128SOL     OW26845   0.435   0.052  12.194 -0.4486 -0.3279 -0.3309
 5128SOL    HW126846   0.341   0.035  12.195 -0.4035 -0.3437  1.9555
 5128SOL    HW226847   0.443   0.070  12.100  0.8797  1.1095  0.0570
 5129SOL     OW26848   3.007   2.867   4.440 -0.6704 -0.6731  0.4611
 5129SOL    HW126849   3.081   2.922   4.466 -2.9573  1.5571  2.2716
 5129SOL    HW226850   3.041   2.779   4.427 -0.9949 -0.4096 -2.2288
 5130SOL     OW26851   2.834   0.989   2.820 -0.0669 -0.4969  0.1455
 5130SOL    HW126852   2.892   1.010   2.746 -1.2090  0.9824 -0.3298
 5130SOL    HW226853   2.829   0.894   2.808  2.7541 -0.5358 -0.7063
 5131SOL     OW26854   2.728   1.036   6.404 -0.2784  0.4086  0.3410
 5131SOL    HW126855   2.769   1.066   6.323 -0.3920 -0.0531  0.1150
 5131SOL    HW226856   2.800   0.979   6.434  1.0627  1.0055 -1.7526
 5132SOL     OW26857   0.311   1.308   8.315  0.5911  0.4933 -0.5362
 5132SOL    HW126858   0.280   1.296   8.225  0.7351  0.8513 -0.6358
 5132SOL    HW226859   0.331   1.219   8.343 -0.1731  0.4664 -0.0802
 5133SOL     OW26860   3.866   3.536   2.389 -0.1797 -0.1197  0.0370
 5133SOL    HW126861   3.793   3.598   2.394 -1.4952 -1.8240  1.5781
 5133SOL    HW226862   3.830   3.458   2.430 -1.3010  1.0910  1.3585
 5134SOL     OW26863   2.945   3.559  13.687 -0.4934  0.0518 -0.0417
 5134SOL    HW126864   2.887   3.620  13.731  2.0646  0.9914  1.9781
 5134SOL    HW226865   3.002   3.533  13.759 -1.4701 -1.0647  0.3426
 5135SOL     OW26866   2.497   2.840   4.785  0.3091  0.2447  0.0361
 5135SOL    HW126867   2.468   2.907   4.847  0.6108 -0.0104  0.4596
 5135SOL    HW226868   2.417   2.788   4.776  0.3323 -0.0599  1.5823
 5136SOL     OW26869   1.646   2.762   8.080  0.8069 -0.0713 -0.3147
 5136SOL    HW126870   1.566   2.740   8.032  1.0318 -2.3432  0.3712
 5136SOL    HW226871   1.615   2.759   8.170  0.6730 -0.5466 -0.3803
 5137SOL     OW26872   1.197   1.464   5.743 -0.7025 -0.5481 -0.4668
 5137SOL    HW126873   1.140   1.524   5.791  1.6580  1.1748  0.2032
 5137SOL    HW226874   1.201   1.509   5.659  2.1055  0.8090  0.3767
 5138SOL     OW26875   1.073   1.196   5.262 -0.2044  0.3646  0.3253
 5138SOL    HW126876   1.004   1.190   5.196  0.1786  0.8834 -0.1276
 5138SOL    HW226877   1.060   1.283   5.300 -1.7640 -0.1523  0.9765
 5139SOL     OW26878   2.958   4.323   5.689 -0.0309  0.0599 -0.0321
 5139SOL    HW126879   2.923   4.339   5.601 -1.1120  1.0150  0.5739
 5139SOL    HW226880   3.039   4.282   5.658 -0.2430  0.7519 -1.5086
 5140SOL     OW26881   1.321   0.137   8.685 -0.3042 -0.4004  0.2825
 5140SOL    HW126882   1.285   0.170   8.767  0.0534  0.6626  0.0129
 5140SOL    HW226883   1.242   0.089   8.658  0.5358 -1.3886 -0.4278
 5141SOL     OW26884   4.704   4.439  13.991 -0.2269 -0.3108  0.3850
 5141SOL    HW126885   4.677   4.526  14.020 -0.7062 -0.4037  0.2046
 5141SOL    HW226886   4.647   4.427  13.915 -1.3019 -1.0163  1.3066
 5142SOL     OW26887   3.759   3.052   1.879  0.2674 -0.4649  0.0995
 5142SOL    HW126888   3.666   3.036   1.895 -0.0414  0.8677 -0.3386
 5142SOL    HW226889   3.789   3.058   1.970 -0.6060  1.5527  0.2654
 5143SOL     OW26890   3.291   0.560   3.219  0.1900 -0.4669  0.3690
 5143SOL    HW126891   3.379   0.584   3.247 -1.1330  1.1180  3.1705
 5143SOL    HW226892   3.264   0.650   3.200 -1.1290 -1.0587 -0.6002
 5144SOL     OW26893   1.749   4.545   4.124 -0.0676 -0.5896 -0.1400
 5144SOL    HW126894   1.815   4.502   4.070  0.8282 -0.5137  0.9037
 5144SOL    HW226895   1.797   4.624   4.148 -0.9681 -1.2548  3.9098
 5145SOL     OW26896   0.432   2.833   5.224  0.1730 -0.0038 -0.3912
 5145SOL    HW126897   0.426   2.876   5.139  1.2308 -0.7953 -0.8593
 5145SOL    HW226898   0.347   2.848   5.267  0.0925 -2.6290  0.3796
 5146SOL     OW26899   2.080   2.961  15.630  0.7443 -0.3595 -0.7665
 5146SOL    HW126900   2.076   2.869  15.657  0.7447 -0.6686 -1.8261
 5146SOL    HW226901   2.031   2.955  15.548  0.8165 -1.8991 -0.6909
 5147SOL     OW26902   1.872   1.028   0.442 -0.5212  0.7314 -0.1201
 5147SOL    HW126903   1.844   0.942   0.475 -3.3002  1.5240 -0.5182
 5147SOL    HW226904   1.955   1.041   0.490  0.5118 -1.3885 -1.3229
 5148SOL     OW26905   0.338   2.942   6.412  0.5195  0.0638 -0.6344
 5148SOL    HW126906   0.369   2.852   6.428 -1.5700 -0.5772 -0.2422
 5148SOL    HW226907   0.306   2.923   6.324  1.0151  0.0293 -0.8104
 5149SOL     OW26908   2.582   4.316   0.119  0.2803  0.0139  0.7153
 5149SOL    HW126909   2.553   4.387   0.062 -0.1865 -0.8256 -0.0846
 5149SOL    HW226910   2.610   4.254   0.052 -1.0098  0.1396  0.0706
 5150SOL     OW26911   1.622   1.363   6.870  0.3248 -0.6163 -0.1262
 5150SOL    HW126912   1.717   1.361   6.857  0.2424 -0.2227 -0.7340
 5150SOL    HW226913   1.589   1.367   6.781 -1.1964  1.3973  0.5229
 5151SOL     OW26914   2.763   3.767   8.900  0.0716  0.0994  0.0617
 5151SOL    HW126915   2.703   3.693   8.886 -1.3991  1.2209  0.4831
 5151SOL    HW226916   2.834   3.718   8.941 -1.6018 -3.4904 -1.3246
 5152SOL     OW26917   2.432   1.528  17.120  0.4463  0.4785 -0.0654
 5152SOL    HW126918   2.489   1.604  17.135  0.8457 -0.4080  2.9986
 5152SOL    HW226919   2.490   1.453  17.130 -0.2224  0.0652  0.7337
 5153SOL     OW26920   2.596   2.583  14.089 -0.2529  0.3110 -0.6180
 5153SOL    HW126921   2.618   2.653  14.028 -2.1541  0.1723 -1.4603
 5153SOL    HW226922   2.522   2.544  14.043 -0.8391  1.2134 -0.4320
 5154SOL     OW26923   1.953   2.803  15.064  0.3260 -0.0255 -0.2747
 5154SOL    HW126924   1.860   2.796  15.044 -0.1349 -1.5600  2.3892
 5154SOL    HW226925   1.970   2.709  15.066  0.1423 -0.0049  1.8130
 5155SOL     OW26926   0.887   1.200  15.709  0.0806 -0.1572  0.1914
 5155SOL    HW126927   0.867   1.272  15.769 -2.8264 -1.1053  0.3784
 5155SOL    HW226928   0.828   1.211  15.634  0.9559 -1.3580 -0.6658
 5156SOL     OW26929   1.800   3.908   8.082  0.0860 -0.2926 -0.1834
 5156SOL    HW126930   1.884   3.873   8.055 -0.5102 -2.0934  0.2663
 5156SOL    HW226931   1.749   3.830   8.059  0.2299  0.1229 -1.8475
 5157SOL     OW26932   1.992   1.960  16.941  0.5481 -0.5690 -0.4241
 5157SOL    HW126933   2.014   1.979  16.849  3.1213  2.3017  0.7756
 5157SOL    HW226934   1.937   2.037  16.955  0.8614 -0.2023 -1.1927
 5158SOL     OW26935   3.971   3.815   3.106 -0.5270  0.7675  0.0375
 5158SOL    HW126936   4.060   3.805   3.072  0.1128 -0.2440  2.0057
 5158SOL    HW226937   3.967   3.762   3.186 -0.4859  1.2488  0.3600
 5159SOL     OW26938   1.122   1.570   5.510 -0.2666 -0.0812 -0.0732
 5159SOL    HW126939   1.042   1.588   5.460 -1.3687 -1.3714  1.2201
 5159SOL    HW226940   1.168   1.508   5.454 -1.2025  0.0010 -0.9404
 5160SOL     OW26941   0.494   4.075  12.971 -0.1736 -0.2094 -0.2082
 5160SOL    HW126942   0.542   4.034  12.899  1.1878  1.5009 -0.2647
 5160SOL    HW226943   0.563   4.078  13.037 -1.4758 -4.1916  1.3936
 5161SOL     OW26944   0.508   3.887  11.349 -0.2515 -0.1571 -0.1280
 5161SOL    HW126945   0.573   3.955  11.366  1.0813 -0.9100 -2.2859
 5161SOL    HW226946   0.464   3.915  11.269 -1.2154 -0.8778  0.1438
 5162SOL     OW26947   1.918   4.482   6.666  0.5610  0.2781 -0.7605
 5162SOL    HW126948   2.002   4.435   6.668 -1.2162 -2.8443  0.5745
 5162SOL    HW226949   1.931   4.574   6.689  3.8562  0.0808 -1.7764
 5163SOL     OW26950   4.041   4.491  13.615  0.1684 -0.0572 -0.0713
 5163SOL    HW126951   3.947   4.478  13.604 -0.0003 -0.0961  1.4101
 5163SOL    HW226952   4.035   4.534  13.700 -0.0319 -3.4006  1.6220
 5164SOL     OW26953   0.549   3.629   6.726  0.2494  0.6730  0.6718
 5164SOL    HW126954   0.503   3.636   6.810 -2.7195 -0.2924 -0.8843
 5164SOL    HW226955   0.596   3.712   6.719 -0.4579  1.1419  1.5561
 5165SOL     OW26956   3.503   3.711   1.464 -0.4185 -0.4811  0.1138
 5165SOL    HW126957   3.553   3.761   1.527  0.5658 -1.0220 -0.2349
 5165SOL    HW226958   3.570   3.654   1.425  0.1733 -0.3586  0.9602
 5166SOL     OW26959   2.084   0.809  12.152 -0.2114  0.2145 -0.2434
 5166SOL    HW126960   2.064   0.843  12.239  0.0281 -0.1695 -0.0356
 5166SOL    HW226961   2.139   0.733  12.172 -2.0140 -0.8196  0.7617
 5167SOL     OW26962   3.651   2.754   8.228  0.4369 -0.3389  0.0595
 5167SOL    HW126963   3.657   2.823   8.294 -1.7655  0.3197 -0.4124
 5167SOL    HW226964   3.631   2.798   8.145  0.8091 -1.2756 -0.5308
 5168SOL     OW26965   1.713   0.914   6.929 -0.3290 -0.0699 -0.6585
 5168SOL    HW126966   1.646   0.855   6.964 -0.3891 -0.8898 -2.1651
 5168SOL    HW226967   1.680   0.997   6.964 -2.7744 -0.7467 -1.3249
 5169SOL     OW26968   2.491   3.801  16.019 -0.0630 -0.8344  0.4118
 5169SOL    HW126969   2.480   3.707  16.034  1.5056 -0.6776  2.5333
 5169SOL    HW226970   2.566   3.814  15.961 -1.2203 -0.1472 -0.9204
 5170SOL     OW26971   4.172   2.282   9.339  0.1527  0.0808  0.0606
 5170SOL    HW126972   4.259   2.252   9.310 -0.6281 -2.2268  0.0953
 5170SOL    HW226973   4.124   2.199   9.344  2.0533 -0.9384  1.8394
 5171SOL     OW26974   2.773   2.011   5.527 -0.3038 -0.1213 -0.3926
 5171SOL    HW126975   2.805   2.072   5.461 -0.8646 -1.2388 -1.6770
 5171SOL    HW226976   2.713   1.953   5.480 -2.3232  1.5944  0.0603
 5172SOL     OW26977   1.525   0.070  15.309  0.3475 -0.3104  0.3694
 5172SOL    HW126978   1.571   0.153  15.319 -1.7066  0.4479  3.6878
 5172SOL    HW226979   1.540   0.041  15.219 -2.2347  0.5908 -0.3588
 5173SOL     OW26980   4.561   2.935   9.823  0.1118 -0.0956 -0.0801
 5173SOL    HW126981   4.531   2.844   9.829 -1.7049  0.5139  0.1260
 5173SOL    HW226982   4.477   2.976   9.843 -0.3573  0.0038 -2.2140
 5174SOL     OW26983   0.470   2.275   5.863 -0.1404 -0.0792 -0.4518
 5174SOL    HW126984   0.490   2.232   5.946 -0.5597  1.3753  0.4063
 5174SOL    HW226985   0.486   2.365   5.889 -0.6249 -0.0431 -0.2686
 5175SOL     OW26986   0.233   0.314   2.261  0.0695 -0.0013  0.3186
 5175SOL    HW126987   0.240   0.409   2.249 -0.9564  0.2927  2.1865
 5175SOL    HW226988   0.138   0.309   2.262 -0.0319  1.6579 -0.6214
 5176SOL     OW26989   0.703   4.142   2.301 -0.2575  0.3946  0.0773
 5176SOL    HW126990   0.699   4.198   2.223  2.4834  0.2257 -0.1629
 5176SOL    HW226991   0.655   4.063   2.273  1.0229  0.3929 -2.0816
 5177SOL     OW26992   0.792   4.426   4.789 -0.1138 -0.0771 -0.0635
 5177SOL    HW126993   0.881   4.427   4.752  0.2642 -0.7389  0.8476
 5177SOL    HW226994   0.782   4.509   4.837  0.8999 -0.7739  1.3356
 5178SOL     OW26995   2.100   2.332   6.717 -0.0577 -0.3070  0.6566
 5178SOL    HW126996   2.097   2.292   6.630  0.2811 -0.6329  0.7908
 5178SOL    HW226997   2.111   2.266   6.785  1.4177 -1.5032 -0.7387
 5179SOL     OW26998   3.380   4.611  12.691 -0.1235  0.3046  0.7085
 5179SOL    HW126999   3.447   4.571  12.637 -1.1622 -1.3240  0.6109
 5179SOL    HW227000   3.430   4.668  12.749  0.0476  1.8590 -0.9699
 5180SOL     OW27001   2.227   1.017  12.018 -0.2422  0.2448  0.1269
 5180SOL    HW127002   2.247   1.083  12.084  0.6470 -0.6019  0.6988
 5180SOL    HW227003   2.146   0.977  12.049 -1.2622  1.4935 -0.9420
 5181SOL     OW27004   0.793   1.865   8.340  0.2526  1.1444 -0.3118
 5181SOL    HW127005   0.839   1.838   8.419  2.3237  2.3447 -1.1203
 5181SOL    HW227006   0.711   1.894   8.380 -1.0354 -0.4118 -1.8106
 5182SOL     OW27007   3.825   0.981   0.612  1.0947  0.4835  0.2840
 5182SOL    HW127008   3.864   0.940   0.689  0.8044  1.7884  1.1244
 5182SOL    HW227009   3.765   1.045   0.651  2.0678  1.2497  0.5108
 5183SOL     OW27010   0.156   0.153   3.809  0.2274 -0.2847  0.0745
 5183SOL    HW127011   0.114   0.160   3.724  0.3441  0.2806  0.0644
 5183SOL    HW227012   0.241   0.118   3.783 -0.0884 -1.4604  0.6351
 5184SOL     OW27013   0.718   2.912   6.974 -0.8819  0.2262 -0.3966
 5184SOL    HW127014   0.666   2.838   6.944  0.8143 -1.5448  0.9749
 5184SOL    HW227015   0.683   2.982   6.919 -0.4312 -1.7935 -3.2445
 5185SOL     OW27016   2.656   3.019  15.531  0.0491 -0.7784  0.0751
 5185SOL    HW127017   2.693   2.934  15.558  0.7444 -0.7924 -0.9094
 5185SOL    HW227018   2.592   2.982  15.470  0.7628 -1.2535 -0.3973
 5186SOL     OW27019   2.359   2.775   5.990 -0.8351  0.3909  0.6638
 5186SOL    HW127020   2.280   2.829   5.981 -0.1410  1.6304  1.9856
 5186SOL    HW227021   2.362   2.709   5.921  0.9976 -0.1480  1.2520
 5187SOL     OW27022   0.475   3.703   1.725  0.2711  0.1240 -0.4676
 5187SOL    HW127023   0.416   3.711   1.800  0.7069  2.2387 -0.3499
 5187SOL    HW227024   0.432   3.630   1.682  0.4621  0.5677 -1.4201
 5188SOL     OW27025   0.209   0.620  10.656  0.0573  0.3251  0.0876
 5188SOL    HW127026   0.159   0.548  10.619 -1.0127  1.0099  0.2127
 5188SOL    HW227027   0.231   0.668  10.576  0.5765  2.1045  1.2817
 5189SOL     OW27028   0.541   1.377   5.986  0.0209  0.2762  0.3928
 5189SOL    HW127029   0.571   1.410   5.901 -1.5062 -0.4089 -0.4137
 5189SOL    HW227030   0.615   1.396   6.043  1.0775  1.2607 -1.3321
 5190SOL     OW27031   4.268   1.809   7.569  0.6454 -0.3342 -0.0591
 5190SOL    HW127032   4.181   1.801   7.529  0.3742  1.5127  0.1700
 5190SOL    HW227033   4.292   1.718   7.584  4.1201  0.4728 -0.6890
 5191SOL     OW27034   0.262   3.914   5.034 -0.0003  0.3673 -0.0665
 5191SOL    HW127035   0.271   3.918   4.939  1.3251 -0.8056  0.0111
 5191SOL    HW227036   0.342   3.963   5.056 -0.2762  1.7612 -2.1520
 5192SOL     OW27037   0.519   2.842  10.227  0.6152 -0.4988  0.0221
 5192SOL    HW127038   0.429   2.865  10.202  1.9123  1.7716 -2.6124
 5192SOL    HW227039   0.509   2.849  10.322  0.1497 -0.6402 -0.0125
 5193SOL     OW27040   3.816   2.403   3.438  0.3420 -0.0888 -0.0316
 5193SOL    HW127041   3.840   2.342   3.508 -0.5711 -0.7607 -0.3068
 5193SOL    HW227042   3.867   2.482   3.460 -2.1358  2.9433 -5.1330
 5194SOL     OW27043   1.326   3.497   3.448 -0.0233 -0.2364 -0.5051
 5194SOL    HW127044   1.367   3.440   3.383 -0.1680 -0.3500 -0.4948
 5194SOL    HW227045   1.264   3.549   3.397  0.3495 -0.7136 -1.4444
 5195SOL     OW27046   3.691   1.851   4.113 -0.4670 -0.5197 -0.3394
 5195SOL    HW127047   3.678   1.945   4.102 -1.5586 -0.7143 -0.7306
 5195SOL    HW227048   3.672   1.817   4.025 -0.8361 -3.0835  0.7483
 5196SOL     OW27049   1.616   3.751  17.550  0.2245  0.3745 -0.3255
 5196SOL    HW127050   1.618   3.704  17.466  3.1174 -0.1953  0.0824
 5196SOL    HW227051   1.558   3.822  17.524  2.7347  2.2309 -0.7961
 5197SOL     OW27052   1.176   4.223  17.379  0.2106  0.3419 -0.1047
 5197SOL    HW127053   1.206   4.221  17.470 -1.9113 -2.6477  0.5584
 5197SOL    HW227054   1.101   4.278  17.402  1.0756  3.0291 -3.7800
 5198SOL     OW27055   3.718   0.889   9.485  0.2184 -0.1943  0.6038
 5198SOL    HW127056   3.683   0.966   9.440 -0.8221 -1.5034 -0.8283
 5198SOL    HW227057   3.721   0.915   9.577  1.4887  0.6730  0.3213
 5199SOL     OW27058   1.445   1.621   7.352 -0.2835  0.4335  0.2865
 5199SOL    HW127059   1.516   1.647   7.411  2.3952 -0.9125 -2.3636
 5199SOL    HW227060   1.483   1.537   7.325 -1.1339 -0.1573  0.9290
 5200SOL     OW27061   3.468   4.645   5.727  0.0268  0.3470 -0.3707
 5200SOL    HW127062   3.524   4.606   5.660  1.4236  2.8270 -0.6531
 5200SOL    HW227063   3.517   4.625   5.808 -0.2074  0.7912 -0.1208
 5201SOL     OW27064   1.598   0.358   6.832  0.5148 -0.3004 -0.2263
 5201SOL    HW127065   1.576   0.336   6.742  1.7873  1.1931 -0.9032
 5201SOL    HW227066   1.678   0.305   6.840  0.0922 -0.7442  1.0144
 5202SOL     OW27067   3.015   1.935   3.958 -0.1176 -0.1659  0.0908
 5202SOL    HW127068   2.969   2.019   3.947  0.1402  0.3527  2.8499
 5202SOL    HW227069   3.099   1.962   3.995 -0.4349  1.3030 -0.2741
 5203SOL     OW27070   3.827   1.524   2.495 -0.7598 -0.0016 -0.2430
 5203SOL    HW127071   3.862   1.603   2.453 -0.1520  0.0233  0.3128
 5203SOL    HW227072   3.767   1.495   2.426  1.2315  2.0684 -2.8912
 5204SOL     OW27073   2.689   2.596  15.258  0.0218 -0.1237 -0.0802
 5204SOL    HW127074   2.707   2.534  15.329  2.6543  0.2118 -0.4729
 5204SOL    HW227075   2.770   2.647  15.266 -0.3780  0.6101 -0.6371
 5205SOL     OW27076   1.810   0.644  11.653  0.2365  0.5357 -0.1260
 5205SOL    HW127077   1.799   0.607  11.740  0.7155 -0.4604 -0.4794
 5205SOL    HW227078   1.722   0.622  11.623  0.1452 -0.2951  0.7742
 5206SOL     OW27079   0.446   3.295   6.327 -0.1492 -0.5823  0.0951
 5206SOL    HW127080   0.482   3.245   6.253  1.4558  2.2744 -1.0736
 5206SOL    HW227081   0.479   3.380   6.299  0.1607 -0.9294 -0.5982
 5207SOL     OW27082   4.528   2.653  14.236  0.5770 -0.2868 -0.6299
 5207SOL    HW127083   4.558   2.579  14.182  2.7854  0.3868 -0.3563
 5207SOL    HW227084   4.435   2.636  14.225  0.3197 -1.5822  3.5312
 5208SOL     OW27085   3.526   4.297   8.400  0.4760  0.8553  0.3001
 5208SOL    HW127086   3.462   4.231   8.371  0.3791  1.7026 -1.4121
 5208SOL    HW227087   3.523   4.350   8.320 -1.7809 -0.6495 -0.6283
 5209SOL     OW27088   4.446   4.163   6.480 -0.4244  0.0989  0.4958
 5209SOL    HW127089   4.446   4.084   6.535  0.8264 -0.2249  0.0227
 5209SOL    HW227090   4.351   4.177   6.487 -0.0023  2.3935  1.8485
 5210SOL     OW27091   0.275   0.339   3.341 -0.0219  0.5298  0.2592
 5210SOL    HW127092   0.195   0.342   3.287 -0.2765 -0.5071  0.5869
 5210SOL    HW227093   0.267   0.252   3.380  0.4068 -0.2052 -1.2823
 5211SOL     OW27094   4.666   3.259   9.415 -0.3080 -0.7244  0.5567
 5211SOL    HW127095   4.701   3.218   9.494  0.3205 -0.0160  0.6411
 5211SOL    HW227096   4.604   3.320   9.455  1.4140  0.9553  0.6560
 5212SOL     OW27097   3.495   3.120  12.057  0.0203  0.1174 -0.3257
 5212SOL    HW127098   3.419   3.127  12.114  0.6295 -0.7172  0.6018
 5212SOL    HW227099   3.457   3.084  11.977 -0.1130  0.2837 -0.3357
 5213SOL     OW27100   3.952   1.167   9.468  0.4764  0.0645 -0.4936
 5213SOL    HW127101   3.868   1.142   9.506 -0.9991  0.6226 -3.3807
 5213SOL    HW227102   3.968   1.255   9.502 -1.7425  0.8204 -1.3947
 5214SOL     OW27103   1.948   0.381   8.068 -0.8819  0.1025 -0.4831
 5214SOL    HW127104   1.953   0.458   8.125 -0.6617 -0.2790  0.0143
 5214SOL    HW227105   1.938   0.307   8.128 -1.9990  0.3064 -0.4241
 5215SOL     OW27106   0.415   2.847   6.850 -1.0536 -0.1487 -0.3264
 5215SOL    HW127107   0.396   2.857   6.944  2.7092 -0.2719  0.4555
 5215SOL    HW227108   0.484   2.914   6.850  0.5274 -1.7991 -0.3519
 5216SOL     OW27109   3.894   1.199   9.861  0.0313  0.1915  0.5297
 5216SOL    HW127110   3.935   1.278   9.896 -1.4407  1.6578 -1.0391
 5216SOL    HW227111   3.973   1.157   9.829  0.8331  0.8208  1.6854
 5217SOL     OW27112   1.313   4.467   1.646 -0.4662 -0.2892 -0.4093
 5217SOL    HW127113   1.294   4.490   1.736 -1.9029 -4.6046  0.4138
 5217SOL    HW227114   1.409   4.461   1.641 -0.5485 -1.7695 -0.4444
 5218SOL     OW27115   2.302   2.811   7.762  0.4196 -0.2537  0.7365
 5218SOL    HW127116   2.302   2.902   7.731 -1.3313 -0.6577 -0.4431
 5218SOL    HW227117   2.251   2.826   7.842 -0.3963  1.2196 -0.0593
 5219SOL     OW27118   4.122   0.390  13.765 -0.0847  0.0784 -0.7128
 5219SOL    HW127119   4.118   0.333  13.688 -0.9512  0.9086 -1.2706
 5219SOL    HW227120   4.030   0.409  13.782  0.2229  0.4713  0.5451
 5220SOL     OW27121   4.494   2.759   8.314 -0.2985  0.3806  0.3971
 5220SOL    HW127122   4.400   2.746   8.300 -0.0536 -0.2645 -0.6368
 5220SOL    HW227123   4.494   2.763   8.409  2.5227 -3.5813  0.5358
 5221SOL     OW27124   4.075   3.401   4.653  0.3316 -0.0887 -0.9700
 5221SOL    HW127125   4.072   3.495   4.636 -0.7814  0.0044 -0.1944
 5221SOL    HW227126   4.133   3.376   4.580  0.3146 -0.3548 -0.8920
 5222SOL     OW27127   2.509   0.885  16.245  0.3417 -0.4331 -0.5371
 5222SOL    HW127128   2.490   0.958  16.304 -0.7868 -0.9208 -0.3154
 5222SOL    HW227129   2.553   0.937  16.177  0.9627  0.6727  0.7168
 5223SOL     OW27130   3.709   1.751   4.831  0.0857  0.3212  0.6524
 5223SOL    HW127131   3.769   1.825   4.822 -1.5005  1.1539 -3.0268
 5223SOL    HW227132   3.705   1.741   4.926  1.3502 -1.6240  0.5016
 5224SOL     OW27133   2.008   1.008   6.657 -0.7160  0.3350  0.5889
 5224SOL    HW127134   2.099   0.991   6.636 -1.3685 -1.4830 -0.8088
 5224SOL    HW227135   2.006   1.103   6.645  0.5050  0.3501  0.5140
 5225SOL     OW27136   3.897   1.112  13.545  0.7314 -0.2259 -0.0532
 5225SOL    HW127137   3.976   1.139  13.497 -0.3039 -0.0617 -1.6687
 5225SOL    HW227138   3.864   1.039  13.492 -0.3488  0.9018 -0.9157
 5226SOL     OW27139   0.557   2.045   7.182 -0.0242 -0.1320 -0.0358
 5226SOL    HW127140   0.650   2.041   7.203 -0.1974  0.2300  0.8182
 5226SOL    HW227141   0.529   1.999   7.262 -0.5727  0.4629  0.1189
 5227SOL     OW27142   0.132   1.617  16.133  0.3357  0.1886  0.0600
 5227SOL    HW127143   0.225   1.627  16.156 -0.5838  3.1123  2.4634
 5227SOL    HW227144   0.101   1.563  16.206 -0.6368 -0.1812 -0.6479
 5228SOL     OW27145   2.705   2.507  12.558 -0.9682  0.1154 -0.5882
 5228SOL    HW127146   2.772   2.456  12.511 -0.3681  0.1260  0.2634
 5228SOL    HW227147   2.726   2.485  12.648 -2.8957  0.7829  0.0154
 5229SOL     OW27148   0.452   0.770   8.180 -0.2567 -0.7033 -0.2267
 5229SOL    HW127149   0.421   0.702   8.120  0.3854 -0.4541 -0.8488
 5229SOL    HW227150   0.522   0.727   8.229 -1.2556 -2.2910 -0.1980
 5230SOL     OW27151   0.220   1.019   6.259  0.1405 -0.2516  0.1687
 5230SOL    HW127152   0.305   0.977   6.278  0.9157  1.0551 -0.3922
 5230SOL    HW227153   0.243   1.111   6.276  0.4274 -0.5548  1.4587
 5231SOL     OW27154   1.119   4.645  10.811 -0.1725 -0.5267  0.0691
 5231SOL    HW127155   1.203   4.688  10.826 -0.2445  0.0274 -1.1262
 5231SOL    HW227156   1.102   4.662  10.718  1.7252 -0.5818 -0.2806
 5232SOL     OW27157   0.580   3.160   5.685 -0.2278  0.4582 -0.5668
 5232SOL    HW127158   0.624   3.108   5.618  0.1993 -0.4939  0.4365
 5232SOL    HW227159   0.641   3.234   5.690 -3.0724  2.7941 -0.0988
 5233SOL     OW27160   2.944   3.069   3.124 -0.2746 -0.0057 -0.4502
 5233SOL    HW127161   2.933   3.060   3.029 -0.8718 -1.6696 -0.2307
 5233SOL    HW227162   2.905   2.987   3.155  0.3025 -0.3422 -0.6091
 5234SOL     OW27163   2.216   2.233   8.781 -0.9095  0.4081 -0.1845
 5234SOL    HW127164   2.177   2.225   8.693 -0.6260  1.0684 -0.3670
 5234SOL    HW227165   2.181   2.161   8.835 -0.2988  1.0529  1.0687
 5235SOL     OW27166   0.766   3.690   3.839 -0.1475  0.2677 -0.5391
 5235SOL    HW127167   0.741   3.684   3.747  1.3857  0.5126 -0.9894
 5235SOL    HW227168   0.812   3.607   3.854 -0.0588  0.7345  1.8918
 5236SOL     OW27169   0.238   3.896   4.323  0.2905 -0.6886  0.7550
 5236SOL    HW127170   0.272   3.954   4.392 -0.3062 -0.4606  0.8586
 5236SOL    HW227171   0.315   3.843   4.300 -0.0661 -0.8676  0.0098
 5237SOL     OW27172   2.632   1.656   4.379 -0.3973  0.1997 -0.1822
 5237SOL    HW127173   2.593   1.597   4.444 -3.2545 -1.5582 -3.4866
 5237SOL    HW227174   2.554   1.672   4.327 -1.7360 -1.8428  1.1660
 5238SOL     OW27175   0.247   4.368   3.948 -0.2234  0.0456  0.4340
 5238SOL    HW127176   0.173   4.324   3.907 -0.4088  1.2460 -0.5278
 5238SOL    HW227177   0.203   4.446   3.982 -0.7316 -0.4729  0.9686
 5239SOL     OW27178   3.822   1.442   0.003  0.1592 -0.4855 -0.2853
 5239SOL    HW127179   3.877   1.508  17.636  1.9818 -0.9466  1.4123
 5239SOL    HW227180   3.841   1.459   0.095  0.1731  0.8260 -0.5327
 5240SOL     OW27181   3.544   2.609   3.221  0.8056 -0.3538 -0.2473
 5240SOL    HW127182   3.573   2.690   3.179  0.5767  0.7187  1.6339
 5240SOL    HW227183   3.633   2.575   3.231  0.8759  0.1989  1.0183
 5241SOL     OW27184   0.199   4.305   8.221 -0.1681 -0.5341 -0.0540
 5241SOL    HW127185   0.117   4.256   8.218 -0.9688  0.7353  1.2139
 5241SOL    HW227186   0.203   4.360   8.299  1.3921 -0.7202  0.0059
 5242SOL     OW27187   2.834   0.689   6.437 -0.0462 -0.5250  0.1917
 5242SOL    HW127188   2.833   0.619   6.371  1.3796  0.5173 -0.9463
 5242SOL    HW227189   2.910   0.669   6.493  0.2246  0.1234  0.0531
 5243SOL     OW27190   1.194   1.151   6.028  0.2424  0.1292 -0.1417
 5243SOL    HW127191   1.235   1.162   5.942 -2.2305  0.5522 -1.2533
 5243SOL    HW227192   1.266   1.122   6.084 -1.2900 -0.8047  1.3304
 5244SOL     OW27193   2.737   2.277   7.289 -0.1888 -0.2419  0.5261
 5244SOL    HW127194   2.675   2.324   7.345  0.1650 -1.6969  2.1323
 5244SOL    HW227195   2.813   2.266   7.347 -0.1903 -1.4374  0.2876
 5245SOL     OW27196   2.054   2.276   2.669  0.1536 -0.4471  0.1079
 5245SOL    HW127197   2.134   2.225   2.657 -0.2813  0.1430 -5.2973
 5245SOL    HW227198   2.095   2.359   2.693 -1.9268  0.5799  0.1494
 5246SOL     OW27199   3.463   4.050  10.315 -0.4145 -0.1312 -0.0943
 5246SOL    HW127200   3.550   4.036  10.353  0.1181 -2.4060 -2.0727
 5246SOL    HW227201   3.441   4.107  10.388 -1.4111 -1.5532  0.7258
 5247SOL     OW27202   3.865   4.115   8.662 -0.1561  0.1470  0.6733
 5247SOL    HW127203   3.823   4.200   8.646 -0.2116  0.3474  1.9089
 5247SOL    HW227204   3.870   4.121   8.757 -1.3507  2.8197  0.5644
 5248SOL     OW27205   3.770   4.589  16.915  0.4975  0.1443  0.5743
 5248SOL    HW127206   3.747   4.620  17.003 -0.3857  0.0266  0.3840
 5248SOL    HW227207   3.752   4.495  16.924 -1.2103  0.4756  0.6699
 5249SOL     OW27208   2.346   0.607   3.644 -0.8037 -0.1443  0.4413
 5249SOL    HW127209   2.354   0.532   3.703  1.0161 -1.0154 -0.9157
 5249SOL    HW227210   2.361   0.560   3.562 -0.3397 -3.4457  2.4270
 5250SOL     OW27211   1.205   1.505   9.649 -0.2809 -0.3143 -0.1083
 5250SOL    HW127212   1.236   1.595   9.658 -0.5321 -0.1607 -0.7711
 5250SOL    HW227213   1.166   1.475   9.731  1.0413 -0.5272  0.4483
 5251SOL     OW27214   2.569   3.572   8.163  0.2842  0.6534 -0.1557
 5251SOL    HW127215   2.558   3.500   8.225 -1.0592  2.1475  1.3284
 5251SOL    HW227216   2.659   3.598   8.183  0.9516 -2.1548  0.5279
 5252SOL     OW27217   1.815   1.576   4.539 -0.4282  0.2531 -0.8611
 5252SOL    HW127218   1.836   1.509   4.604 -0.9871 -0.5496 -1.5161
 5252SOL    HW227219   1.840   1.533   4.457 -0.0846 -1.0923 -0.0366
 5253SOL     OW27220   4.504   1.317  14.929 -0.7068  0.6400 -0.1314
 5253SOL    HW127221   4.506   1.394  14.986 -2.3134  0.9141 -0.4605
 5253SOL    HW227222   4.519   1.242  14.986  1.2557 -0.8387 -2.5829
 5254SOL     OW27223   0.890   0.149   5.986  0.0944  0.3887 -0.0817
 5254SOL    HW127224   0.923   0.205   5.916  1.2514 -0.3724 -0.1401
 5254SOL    HW227225   0.939   0.068   5.978  0.8772  1.1069 -2.7441
 5255SOL     OW27226   0.445   1.245   2.853 -0.5630 -0.2154  0.0990
 5255SOL    HW127227   0.422   1.277   2.766  1.7510 -1.7592 -1.0809
 5255SOL    HW227228   0.361   1.201   2.864 -1.4746  1.1538 -1.5196
 5256SOL     OW27229   3.853   0.061   6.578 -0.4239 -0.2494 -0.1204
 5256SOL    HW127230   3.787   0.106   6.630  0.9259 -0.4237  1.7693
 5256SOL    HW227231   3.791   0.007   6.529 -1.5692 -0.2669  1.3529
 5257SOL     OW27232   4.060   0.495   1.904  0.3081  0.1252  0.0157
 5257SOL    HW127233   4.011   0.434   1.959 -1.8731  2.5262  0.7096
 5257SOL    HW227234   3.982   0.524   1.857 -0.7762 -2.7672  0.0207
 5258SOL     OW27235   2.963   3.363   6.727  0.6648 -0.2230 -0.7201
 5258SOL    HW127236   2.940   3.313   6.806 -0.4285  1.0148 -0.2394
 5258SOL    HW227237   2.945   3.293   6.665 -1.8596  2.4004 -2.9881
 5259SOL     OW27238   3.490   4.470  12.115  0.1153  0.0996 -0.9271
 5259SOL    HW127239   3.494   4.419  12.196 -1.0747  1.1983 -0.1736
 5259SOL    HW227240   3.408   4.517  12.127  1.4842  1.9770  1.1267
 5260SOL     OW27241   2.490   0.817  16.594  0.6279  0.4342 -0.3227
 5260SOL    HW127242   2.553   0.764  16.545 -0.3839  0.1302 -1.2865
 5260SOL    HW227243   2.508   0.907  16.568  0.0207  0.5684 -0.2911
 5261SOL     OW27244   0.910   2.084  16.411 -0.0205 -0.0062 -1.0410
 5261SOL    HW127245   0.885   2.012  16.468 -0.7753 -0.0598 -1.4294
 5261SOL    HW227246   0.835   2.143  16.418 -0.0303  0.0362 -1.4843
 5262SOL     OW27247   0.169   0.736  14.769 -0.1083  0.6153 -0.2907
 5262SOL    HW127248   0.196   0.825  14.793  2.0607 -0.4014  1.0731
 5262SOL    HW227249   0.236   0.701  14.711  1.2170  0.7521  1.1601
 5263SOL     OW27250   1.288   2.332   7.272 -0.4230  0.0494  0.1543
 5263SOL    HW127251   1.337   2.413   7.258  0.4426 -1.1009 -3.4266
 5263SOL    HW227252   1.195   2.354   7.273 -0.7110 -1.0653 -2.9126
 5264SOL     OW27253   3.415   4.498   8.757 -0.0220 -0.1531  0.0963
 5264SOL    HW127254   3.468   4.450   8.821  0.0723  1.4876  1.2532
 5264SOL    HW227255   3.468   4.578   8.753  0.2622 -0.4099 -1.1677
 5265SOL     OW27256   3.424   1.528   8.997 -0.3091  0.1814  0.0240
 5265SOL    HW127257   3.340   1.489   8.971  0.2466  0.1392 -1.6709
 5265SOL    HW227258   3.418   1.613   8.954  0.8467  0.1216 -0.2420
 5266SOL     OW27259   1.677   2.405   3.788  0.2966  0.1932 -0.6064
 5266SOL    HW127260   1.697   2.337   3.724 -1.3605  0.1150 -1.0488
 5266SOL    HW227261   1.596   2.437   3.747 -1.0076 -1.1794  0.8773
 5267SOL     OW27262   3.827   2.099   9.227 -0.7441 -0.6850 -0.6231
 5267SOL    HW127263   3.765   2.172   9.237  0.2807  0.0481  0.2817
 5267SOL    HW227264   3.895   2.132   9.169 -0.7041  0.3786  0.0156
 5268SOL     OW27265   0.596   0.907   7.457 -0.7597 -0.5626  0.4385
 5268SOL    HW127266   0.683   0.933   7.488 -0.2003 -1.1881 -0.6141
 5268SOL    HW227267   0.609   0.895   7.363 -0.7367  1.1289  0.2242
 5269SOL     OW27268   1.193   0.424   0.368  0.9158  0.4077 -0.4841
 5269SOL    HW127269   1.146   0.480   0.429 -1.1056 -3.2305  1.2960
 5269SOL    HW227270   1.230   0.491   0.310  0.5692  2.3941  1.5768
 5270SOL     OW27271   4.086   4.387  15.809 -0.0484  0.1201 -0.3345
 5270SOL    HW127272   4.129   4.315  15.854  0.4237  0.4338 -0.2790
 5270SOL    HW227273   4.047   4.430  15.885 -0.9827 -3.3596  1.1142
 5271SOL     OW27274   1.884   4.118   6.439  0.0993 -0.1991  0.0789
 5271SOL    HW127275   1.924   4.205   6.448  1.1933 -0.6833 -0.1459
 5271SOL    HW227276   1.807   4.118   6.496  0.7289  0.3516  0.9214
 5272SOL     OW27277   2.213   1.178   3.875 -0.2061 -0.2023  0.4427
 5272SOL    HW127278   2.210   1.194   3.970 -0.0271  2.2783  0.0172
 5272SOL    HW227279   2.300   1.200   3.842  0.1219 -0.2168  1.2813
 5273SOL     OW27280   1.122   4.435  15.330 -0.2384  0.0667  0.1111
 5273SOL    HW127281   1.038   4.413  15.371 -0.1464 -0.8222 -0.1780
 5273SOL    HW227282   1.129   4.529  15.344 -1.9809  0.3831 -1.0866
 5274SOL     OW27283   1.005   1.924   7.966  0.3143  0.1169 -0.4601
 5274SOL    HW127284   0.994   1.879   8.049  2.6533  1.4913  0.6060
 5274SOL    HW227285   1.084   1.974   7.989 -0.0907  0.9789 -0.9521
 5275SOL     OW27286   0.389   0.010   2.075 -0.1990  0.3938 -0.3581
 5275SOL    HW127287   0.294   0.001   2.083 -0.2456  0.5165 -0.8075
 5275SOL    HW227288   0.412   4.636   2.084  0.7880  0.6008 -0.8729
 5276SOL     OW27289   2.588   4.056   2.670 -0.5224  0.8200 -0.3710
 5276SOL    HW127290   2.610   4.005   2.592 -3.6106 -0.8839 -0.1463
 5276SOL    HW227291   2.676   4.073   2.703 -0.5605 -1.4548  0.9057
 5277SOL     OW27292   0.826   0.444   1.772  0.8883  0.3699 -0.2550
 5277SOL    HW127293   0.794   0.534   1.778  0.5755  0.0442  2.8131
 5277SOL    HW227294   0.772   0.408   1.701 -0.8144 -2.2998  2.4129
 5278SOL     OW27295   1.377   0.475   7.450  0.2679  0.1844 -0.4714
 5278SOL    HW127296   1.414   0.563   7.440 -1.0865  0.7961  0.0394
 5278SOL    HW227297   1.284   0.492   7.458  0.2375  0.4813 -1.4206
 5279SOL     OW27298   0.793   3.781   4.286 -0.2864  0.1813  0.6499
 5279SOL    HW127299   0.880   3.813   4.311 -0.1946 -0.1062  0.7034
 5279SOL    HW227300   0.738   3.859   4.290  0.7850  0.9627  0.0442
 5280SOL     OW27301   2.980   2.831  11.818  0.0879  0.1375  0.1391
 5280SOL    HW127302   2.959   2.916  11.780 -1.9572 -0.2247  0.4504
 5280SOL    HW227303   3.074   2.834  11.832  0.3184  1.1327 -1.6339
 5281SOL     OW27304   4.315   3.259   7.736 -0.1107  0.2855  0.1164
 5281SOL    HW127305   4.266   3.290   7.813  1.3216 -1.4073  1.7084
 5281SOL    HW227306   4.318   3.165   7.753 -0.4933 -0.1247 -2.0573
 5282SOL     OW27307   0.313   4.679  16.425  0.1458  0.1525 -0.3435
 5282SOL    HW127308   0.335   4.649  16.513  1.0181  1.5830 -0.0783
 5282SOL    HW227309   0.361   4.619  16.368  0.8772 -0.7467  1.2303
 5283SOL     OW27310   3.152   2.002  14.281 -0.0565  0.2848  0.6006
 5283SOL    HW127311   3.132   1.938  14.213  0.9276  1.1154 -0.4698
 5283SOL    HW227312   3.232   1.967  14.322  0.7054 -0.2524 -1.3500
 5284SOL     OW27313   0.943   3.207   3.761  0.0935 -0.1234  0.9177
 5284SOL    HW127314   0.953   3.112   3.752  1.9134  0.1107  0.4391
 5284SOL    HW227315   0.858   3.221   3.719 -0.0069 -2.3077  0.3852
 5285SOL     OW27316   3.320   1.746   6.794 -0.2148 -0.0263 -0.3707
 5285SOL    HW127317   3.392   1.696   6.833  1.4071  3.0845  0.6290
 5285SOL    HW227318   3.273   1.679   6.743  0.8636  0.2948 -1.7841
 5286SOL     OW27319   3.744   3.067   1.100 -0.8437  0.1532  0.1861
 5286SOL    HW127320   3.764   3.139   1.160 -0.2550  0.6061 -0.5600
 5286SOL    HW227321   3.826   3.058   1.052 -0.9739 -0.2596  0.0452
 5287SOL     OW27322   3.060   3.565  17.438 -0.7466 -0.2413 -0.3443
 5287SOL    HW127323   3.076   3.616  17.359  2.7145  0.2279  0.6540
 5287SOL    HW227324   3.146   3.573  17.479 -0.4337 -1.8058 -0.7267
 5288SOL     OW27325   3.243   1.754   7.902  0.3279 -0.6051  0.3872
 5288SOL    HW127326   3.331   1.722   7.883  0.6967 -0.1131  1.2899
 5288SOL    HW227327   3.254   1.846   7.879  0.8244 -0.6499  0.4412
 5289SOL     OW27328   0.069   2.659   2.838  0.4274 -0.4548  0.2248
 5289SOL    HW127329   0.030   2.652   2.751  1.4452 -0.5416 -0.2238
 5289SOL    HW227330   0.136   2.591   2.837  1.2083  0.3185  0.3488
 5290SOL     OW27331   2.342   2.628   5.035  0.6553  0.3289 -0.0029
 5290SOL    HW127332   2.431   2.632   5.000  0.5633 -1.7442 -0.4740
 5290SOL    HW227333   2.292   2.629   4.953  2.2874  0.8790 -0.9764
 5291SOL     OW27334   3.885   0.135   5.145  0.4173 -0.0803  0.2266
 5291SOL    HW127335   3.790   0.146   5.137  0.2345 -2.0445 -0.4435
 5291SOL    HW227336   3.886   0.099   5.234  0.4882  3.1882  1.5292
 5292SOL     OW27337   4.189   4.127   8.360  0.7600  0.3836  0.1215
 5292SOL    HW127338   4.187   4.130   8.264  0.2725  2.3079  0.1809
 5292SOL    HW227339   4.111   4.177   8.382 -0.1789 -1.1071  0.1563
 5293SOL     OW27340   0.768   3.855   8.938  0.4564 -0.1782 -0.4292
 5293SOL    HW127341   0.676   3.839   8.961 -0.2334  0.7288 -2.5454
 5293SOL    HW227342   0.766   3.946   8.907 -1.9306 -0.7906 -2.0837
 5294SOL     OW27343   2.159   3.533   5.961 -0.1199 -0.2277 -0.4031
 5294SOL    HW127344   2.147   3.614   6.011  0.6599 -0.6547  0.4769
 5294SOL    HW227345   2.146   3.469   6.031 -2.1294 -0.5277 -1.0585
 5295SOL     OW27346   2.604   3.752   7.565 -0.1753 -0.4421  0.2306
 5295SOL    HW127347   2.668   3.684   7.545 -0.6508 -0.1728 -2.1543
 5295SOL    HW227348   2.524   3.710   7.533 -0.5584 -1.4646  2.4863
 5296SOL     OW27349   3.525   1.487   8.225  0.0179 -0.3408 -0.0274
 5296SOL    HW127350   3.607   1.507   8.181  0.2405  1.6699  1.2831
 5296SOL    HW227351   3.471   1.564   8.205  0.5117 -0.1480 -0.5969
 5297SOL     OW27352   2.573   1.093   3.195  0.1204 -0.1327  0.2403
 5297SOL    HW127353   2.611   1.131   3.273 -0.8538 -0.9802  1.1282
 5297SOL    HW227354   2.586   1.003   3.222  0.0955  0.3422  1.7973
 5298SOL     OW27355   3.932   0.178  10.028  0.3053 -0.0492  0.2820
 5298SOL    HW127356   3.866   0.198   9.962 -0.8336  0.2030  1.5043
 5298SOL    HW227357   3.897   0.094  10.055 -1.2477  0.0832 -1.3285
 5299SOL     OW27358   1.156   2.222   1.829  0.4318  0.0651 -0.1543
 5299SOL    HW127359   1.151   2.317   1.828  0.3633  0.0768  1.7879
 5299SOL    HW227360   1.068   2.200   1.859  0.3588 -2.0484 -1.8866
 5300SOL     OW27361   1.216   2.140   5.065  0.0520  0.4076  0.4420
 5300SOL    HW127362   1.173   2.104   4.987  0.8622  0.6872 -0.1356
 5300SOL    HW227363   1.301   2.096   5.067  0.6943  1.4729 -3.6622
 5301SOL     OW27364   1.243   0.387   8.491 -0.1020  0.1632  0.6656
 5301SOL    HW127365   1.303   0.376   8.565 -0.6358  1.2053  1.2518
 5301SOL    HW227366   1.211   0.297   8.495  0.9249 -0.2331 -0.1383
 5302SOL     OW27367   2.443   1.566  13.173 -0.3272  0.5031 -0.3097
 5302SOL    HW127368   2.452   1.481  13.214  1.0187 -0.0592 -1.8080
 5302SOL    HW227369   2.531   1.603  13.182 -0.4214  1.0306 -1.5277
 5303SOL     OW27370   1.349   3.131   5.269  0.6120  0.1187 -0.1710
 5303SOL    HW127371   1.361   3.042   5.300 -1.4418 -0.7451 -1.8644
 5303SOL    HW227372   1.422   3.124   5.208  0.9251 -2.9230  0.5578
 5304SOL     OW27373   0.444   0.282  10.451  0.8926 -0.6030 -0.1435
 5304SOL    HW127374   0.371   0.337  10.422 -0.3317 -1.3956  1.4727
 5304SOL    HW227375   0.478   0.336  10.522  0.1859 -0.0376 -0.2294
 5305SOL     OW27376   3.288   0.021  10.011 -0.4164  0.4517  0.0076
 5305SOL    HW127377   3.302   4.716  10.103  0.5660 -1.8961 -0.7380
 5305SOL    HW227378   3.258   0.112  10.018  0.6225  0.7257  0.8779
 5306SOL     OW27379   0.184   1.241  16.393 -0.0708  0.3619 -0.3194
 5306SOL    HW127380   0.275   1.272  16.397  0.0246  0.0065  0.2625
 5306SOL    HW227381   0.177   1.166  16.451  1.4704  0.9462  0.6163
 5307SOL     OW27382   4.091   2.592  13.676  0.2217 -0.5369 -0.1311
 5307SOL    HW127383   4.019   2.654  13.666  1.8642  1.2582 -0.9391
 5307SOL    HW227384   4.155   2.659  13.704  0.0535 -0.2302 -0.4790
 5308SOL     OW27385   0.315   4.500   5.629  0.0281 -0.0579 -0.2736
 5308SOL    HW127386   0.276   4.519   5.714 -1.3201 -0.6062 -0.7619
 5308SOL    HW227387   0.302   4.405   5.628  1.7230 -0.3390  4.5958
 5309SOL     OW27388   3.169   0.334   8.356  0.3030  0.5999 -0.2041
 5309SOL    HW127389   3.216   0.367   8.279  2.2212 -1.3904  0.1315
 5309SOL    HW227390   3.107   0.407   8.364  2.0908  2.1236 -0.2632
 5310SOL     OW27391   0.368   4.020   4.518 -0.2413 -0.0876 -0.0600
 5310SOL    HW127392   0.352   4.060   4.603  1.8912  1.2801 -0.2980
 5310SOL    HW227393   0.373   4.097   4.461 -3.0314  0.4627  0.4445
 5311SOL     OW27394   2.638   4.119   5.318 -0.1361  0.5967 -0.4933
 5311SOL    HW127395   2.554   4.159   5.299  0.6766  2.6858  0.3865
 5311SOL    HW227396   2.695   4.171   5.262  1.6871 -0.1941  0.6050
 5312SOL     OW27397   3.480   2.892   3.761  0.2996  0.2847 -0.2738
 5312SOL    HW127398   3.495   2.813   3.708 -1.9259 -0.2212 -0.1575
 5312SOL    HW227399   3.422   2.935   3.698 -1.9607 -2.2056  0.1275
 5313SOL     OW27400   0.312   0.292  12.316  0.8686  0.3087 -0.1042
 5313SOL    HW127401   0.398   0.277  12.279  0.0557 -1.4693 -1.2347
 5313SOL    HW227402   0.256   0.245  12.255  1.0747  2.8600 -2.2956
 5314SOL     OW27403   2.051   1.619   8.744 -0.1827 -0.1037 -0.0060
 5314SOL    HW127404   2.043   1.671   8.664  2.0117  1.6691  0.9274
 5314SOL    HW227405   2.005   1.675   8.807  1.9675  1.6895 -0.0261
 5315SOL     OW27406   2.945   1.935   6.234  0.7879  0.1266  0.3938
 5315SOL    HW127407   2.951   1.921   6.139  0.9410  0.8165  0.2992
 5315SOL    HW227408   2.913   2.025   6.233  0.6173  0.0757  1.4076
 5316SOL     OW27409   4.307   3.211   7.290 -0.6658  0.3235  0.1133
 5316SOL    HW127410   4.375   3.258   7.339  0.1471  0.9182 -1.6080
 5316SOL    HW227411   4.344   3.216   7.202  0.2435  2.3404  0.6126
 5317SOL     OW27412   2.774   4.026   3.801  0.2875  0.0653 -0.8232
 5317SOL    HW127413   2.810   3.941   3.824 -0.5349 -0.1157 -0.1717
 5317SOL    HW227414   2.764   3.998   3.710  2.1403  2.6984 -1.8321
 5318SOL     OW27415   3.988   4.574   5.348 -0.2414  0.2609 -0.2621
 5318SOL    HW127416   4.034   4.658   5.353 -0.5930  0.4463 -0.1428
 5318SOL    HW227417   3.953   4.563   5.436  0.8413  0.1954  0.1595
 5319SOL     OW27418   0.523   2.745  15.366  0.5528  0.5302  0.1897
 5319SOL    HW127419   0.474   2.819  15.404 -2.4335 -0.5964 -1.4404
 5319SOL    HW227420   0.520   2.689  15.443 -1.0683 -2.1181 -1.8261
 5320SOL     OW27421   1.117   2.505  14.855  0.2278 -0.0604  0.5732
 5320SOL    HW127422   1.103   2.569  14.926 -3.2787 -0.5057  0.3013
 5320SOL    HW227423   1.030   2.500  14.815 -1.4753 -0.0370  4.2293
 5321SOL     OW27424   3.702   1.806   0.459  0.8289 -0.0666  0.0449
 5321SOL    HW127425   3.714   1.840   0.370 -2.5275 -0.8296 -0.6952
 5321SOL    HW227426   3.613   1.773   0.456  0.0796  1.9638 -0.7491
 5322SOL     OW27427   0.984   2.888  17.376  0.4560  0.2332  0.4320
 5322SOL    HW127428   1.011   2.912  17.464  1.2586  2.9988 -0.5888
 5322SOL    HW227429   0.980   2.970  17.328  0.5259 -0.3179 -0.5148
 5323SOL     OW27430   2.227   4.073   5.919  0.0597 -0.2339  0.4708
 5323SOL    HW127431   2.307   4.126   5.924 -0.2414  0.2046  0.5424
 5323SOL    HW227432   2.201   4.077   6.011 -1.9994 -0.6231 -0.1044
 5324SOL     OW27433   2.084   4.068   0.639 -0.0783  0.2220  0.1479
 5324SOL    HW127434   2.178   4.083   0.624  0.2355 -0.6614  1.2720
 5324SOL    HW227435   2.072   3.986   0.590 -1.6268 -0.0859  1.0564
 5325SOL     OW27436   1.440   2.907   8.540 -0.7021 -0.0088  0.4812
 5325SOL    HW127437   1.457   2.954   8.621 -0.0418  1.4139 -0.4813
 5325SOL    HW227438   1.356   2.945   8.514 -1.3711 -0.9775  1.2150
 5326SOL     OW27439   2.632   3.845   5.392 -0.2448 -0.3659 -0.4034
 5326SOL    HW127440   2.649   3.930   5.352  3.1569 -0.5420  0.6866
 5326SOL    HW227441   2.552   3.871   5.439 -0.2395 -1.5156  0.2492
 5327SOL     OW27442   2.320   1.845  11.790  0.9153 -0.4119 -0.3977
 5327SOL    HW127443   2.345   1.876  11.877  2.4842 -1.0697 -0.6249
 5327SOL    HW227444   2.402   1.851  11.742  1.9604 -2.5276  1.1263
 5328SOL     OW27445   1.507   1.683   6.259 -0.1936  0.2373  0.3158
 5328SOL    HW127446   1.486   1.659   6.349 -1.8548  0.3999 -0.0288
 5328SOL    HW227447   1.432   1.736   6.235 -1.0672 -0.8457  0.6487
 5329SOL     OW27448   2.458   2.967  17.023 -0.1080 -0.4917  0.2106
 5329SOL    HW127449   2.545   2.980  17.060  0.1749 -0.9338 -0.2949
 5329SOL    HW227450   2.420   2.903  17.082 -1.2459 -0.5444 -0.5729
 5330SOL     OW27451   3.645   3.001   8.683 -0.3584 -0.0407  0.3290
 5330SOL    HW127452   3.598   2.918   8.694  0.6018 -0.5522  0.6462
 5330SOL    HW227453   3.671   3.004   8.776  0.2057  0.2851  0.1617
 5331SOL     OW27454   1.988   2.725   8.906  0.4189 -0.1417 -0.5162
 5331SOL    HW127455   2.054   2.715   8.976 -0.9781 -1.9747  0.5286
 5331SOL    HW227456   2.035   2.750   8.827 -2.2290  2.5885 -1.2021
 5332SOL     OW27457   3.411   2.978   2.595 -0.4648 -0.2302 -0.7823
 5332SOL    HW127458   3.471   2.975   2.670 -2.6268 -0.6793  0.9498
 5332SOL    HW227459   3.341   3.039   2.617  0.1891 -0.0714  0.8894
 5333SOL     OW27460   3.176   3.753  16.963 -0.4239  0.2099  0.3152
 5333SOL    HW127461   3.164   3.702  16.883  0.2638  0.0397  0.3191
 5333SOL    HW227462   3.266   3.728  16.984 -0.7758 -0.0469  1.5083
 5334SOL     OW27463   1.866   0.678   8.621  0.0968  1.0053  0.4771
 5334SOL    HW127464   1.808   0.694   8.546 -0.1759  0.2375  0.5255
 5334SOL    HW227465   1.836   0.749   8.678  0.7950  2.8573 -1.4748
 5335SOL     OW27466   1.352   2.037  12.627 -0.7411 -0.5592  0.2755
 5335SOL    HW127467   1.286   2.052  12.695 -1.6683 -0.9285 -0.5455
 5335SOL    HW227468   1.311   1.963  12.582  0.7137 -0.6445 -0.8949
 5336SOL     OW27469   4.638   1.850   7.294  0.2728  0.1079 -0.0419
 5336SOL    HW127470   4.666   1.760   7.309 -2.3988 -0.5221  1.1435
 5336SOL    HW227471   4.668   1.900   7.370 -1.4708  1.6881 -0.4088
 5337SOL     OW27472   3.746   3.316   2.172  0.1145 -0.2106  0.7266
 5337SOL    HW127473   3.694   3.240   2.148 -0.8741  0.7693 -0.2243
 5337SOL    HW227474   3.707   3.385   2.120  1.3779  1.1433  1.5657
 5338SOL     OW27475   4.630   1.631   7.066 -0.6293 -0.2831 -0.0932
 5338SOL    HW127476   0.007   1.633   7.077 -0.6867 -1.8389  0.6191
 5338SOL    HW227477   4.616   1.725   7.051  0.7262 -0.3291 -1.6941
 5339SOL     OW27478   3.789   3.750   6.141  0.2456 -0.4624 -0.8409
 5339SOL    HW127479   3.836   3.786   6.216 -2.9179 -0.0751  0.9111
 5339SOL    HW227480   3.862   3.717   6.087  1.0677 -0.2532  0.1421
 5340SOL     OW27481   4.159   4.151   6.805 -0.0524 -0.0560  0.5973
 5340SOL    HW127482   4.110   4.070   6.796 -0.2288  0.1271 -0.1431
 5340SOL    HW227483   4.243   4.114   6.834  0.6861  0.6071 -0.6745
 5341SOL     OW27484   0.653   2.007   2.646  1.2053 -0.2197  0.2663
 5341SOL    HW127485   0.704   2.007   2.727 -0.4475 -3.2173  1.2779
 5341SOL    HW227486   0.661   2.099   2.621 -0.5681 -1.0242 -3.1696
 5342SOL     OW27487   1.994   0.840   7.380  0.2308 -0.8625 -0.4181
 5342SOL    HW127488   2.089   0.829   7.372  0.2244 -0.8549 -0.5039
 5342SOL    HW227489   1.959   0.770   7.325 -0.1309 -1.1186  0.1334
 5343SOL     OW27490   3.474   4.133  10.946  0.4442  0.5071 -0.7633
 5343SOL    HW127491   3.565   4.127  10.915  0.8227  1.0562  0.2411
 5343SOL    HW227492   3.440   4.215  10.912  0.6831  0.6769 -0.5933
 5344SOL     OW27493   0.816   0.473   6.484 -0.5531  0.7996 -0.1895
 5344SOL    HW127494   0.790   0.422   6.561  1.4224 -0.1806 -0.1498
 5344SOL    HW227495   0.740   0.503   6.435 -0.1977 -0.0265 -1.2625
 5345SOL     OW27496   2.440   3.924   5.559  0.2645 -0.7148  0.6514
 5345SOL    HW127497   2.365   3.915   5.501  0.6614  0.6513 -0.0780
 5345SOL    HW227498   2.431   3.844   5.612 -0.2755 -0.3939  1.0523
 5346SOL     OW27499   2.199   2.320  15.886 -0.0835 -0.0579  0.0372
 5346SOL    HW127500   2.255   2.274  15.823 -0.4228 -0.4266  0.0038
 5346SOL    HW227501   2.259   2.386  15.921 -2.1196  1.4193  0.7070
 5347SOL     OW27502   4.142   2.158   3.545 -0.2055 -0.0578  0.1828
 5347SOL    HW127503   4.158   2.070   3.510  2.3507  0.3256  0.3810
 5347SOL    HW227504   4.048   2.168   3.530 -0.6864 -1.7841  2.0950
 5348SOL     OW27505   1.110   4.614   6.330  0.0022  0.7536 -0.4618
 5348SOL    HW127506   1.036   4.638   6.274  0.3668 -0.3347 -1.4003
 5348SOL    HW227507   1.155   4.550   6.276 -2.4079 -0.1572 -1.3981
 5349SOL     OW27508   1.755   3.349   6.998 -0.3706  0.1589  0.3943
 5349SOL    HW127509   1.753   3.398   7.080  0.8559 -0.3702  0.7407
 5349SOL    HW227510   1.844   3.366   6.967  0.1682 -2.4162  0.5667
 5350SOL     OW27511   4.163   3.840  14.191 -0.4947 -0.0617  0.1862
 5350SOL    HW127512   4.249   3.809  14.163 -0.1254  1.7379 -0.7029
 5350SOL    HW227513   4.184   3.933  14.204 -0.8185 -0.1234  1.0970
 5351SOL     OW27514   2.914   1.258  11.406  0.0906  0.3843 -0.1085
 5351SOL    HW127515   2.842   1.225  11.352 -1.1378  1.9727  0.5623
 5351SOL    HW227516   2.864   1.273  11.487  0.2149  0.8490 -0.1184
 5352SOL     OW27517   1.233   3.101   0.648 -0.3342 -0.1959  0.0022
 5352SOL    HW127518   1.268   3.059   0.727 -1.7178  0.1887  0.8372
 5352SOL    HW227519   1.238   3.194   0.667  0.6397 -0.1310 -0.5673
 5353SOL     OW27520   2.428   0.034   4.618 -0.1930  0.2679  0.1023
 5353SOL    HW127521   2.433   0.018   4.524 -0.4973  0.1951  0.0988
 5353SOL    HW227522   2.467   0.121   4.623  0.1920  0.0669  0.5821
 5354SOL     OW27523   4.632   2.222   7.476  0.1988  0.3927  0.2601
 5354SOL    HW127524   4.672   2.239   7.391  1.6866  1.3049  1.1446
 5354SOL    HW227525   4.648   2.307   7.517 -1.4376  0.1030  1.5016
 5355SOL     OW27526   4.312   2.584   3.856 -0.1473  0.1827 -0.0403
 5355SOL    HW127527   4.307   2.609   3.949 -2.9876 -0.3733 -0.0511
 5355SOL    HW227528   4.294   2.670   3.818 -0.4644 -0.1018 -0.5268
 5356SOL     OW27529   0.508   0.255  11.270  0.2148 -0.0393 -0.1553
 5356SOL    HW127530   0.603   0.266  11.274  0.1777  0.8842 -1.5859
 5356SOL    HW227531   0.497   0.242  11.176 -2.2099 -1.7980  0.3725
 5357SOL     OW27532   2.881   2.083   6.919  0.7370  0.1184 -0.1189
 5357SOL    HW127533   2.934   2.063   6.842 -1.4519  0.7626 -1.8048
 5357SOL    HW227534   2.840   2.001   6.946 -0.6657  0.3858 -1.3870
 5358SOL     OW27535   0.501   0.907  10.800 -0.3034  0.0157  0.6850
 5358SOL    HW127536   0.543   0.896  10.714 -0.7356  0.2233  0.4451
 5358SOL    HW227537   0.445   0.982  10.782  0.3194  0.3276  0.0592
 5359SOL     OW27538   0.094   3.348  10.620 -0.1015 -0.0943 -0.3977
 5359SOL    HW127539   0.005   3.378  10.640  0.2682  0.0364  1.0480
 5359SOL    HW227540   0.084   3.342  10.525  1.2790  0.1293 -0.5473
 5360SOL     OW27541   2.623   2.682   5.725  0.6086  0.0253  0.3789
 5360SOL    HW127542   2.693   2.653   5.783  1.5961 -0.9516 -1.3062
 5360SOL    HW227543   2.666   2.661   5.642 -2.0177 -3.4509 -0.0584
 5361SOL     OW27544   3.405   4.275   7.828  0.4942  0.0624  0.1020
 5361SOL    HW127545   3.356   4.342   7.875 -0.8192 -0.7959 -0.0585
 5361SOL    HW227546   3.350   4.197   7.834 -0.7295  0.9120 -0.1371
 5362SOL     OW27547   0.710   1.707   5.013 -0.1133  0.3209  0.1471
 5362SOL    HW127548   0.715   1.634   4.951 -1.7210  0.1755  0.1854
 5362SOL    HW227549   0.734   1.661   5.093  0.6590 -1.7142 -1.2499
 5363SOL     OW27550   1.562   0.096  11.293  0.4589 -0.6174  0.3070
 5363SOL    HW127551   1.585   0.105  11.201 -0.9465  0.5200  0.0657
 5363SOL    HW227552   1.516   0.012  11.286  2.4162 -1.6175 -0.4116
 5364SOL     OW27553   0.256   0.848   5.178  0.2797  0.4448  0.0388
 5364SOL    HW127554   0.205   0.898   5.243  0.5834 -0.2888  0.8432
 5364SOL    HW227555   0.185   0.836   5.114 -0.0237 -0.2903  0.5111
 5365SOL     OW27556   3.906   1.390   7.135  0.4777 -0.1199  0.0196
 5365SOL    HW127557   3.834   1.434   7.180  1.2157  2.0952 -0.9263
 5365SOL    HW227558   3.859   1.311   7.109 -1.9168  1.1305  0.5176
 5366SOL     OW27559   1.772   4.688   2.391 -0.6454  0.1016  0.1051
 5366SOL    HW127560   1.850   4.700   2.445 -0.9152  1.0972  0.2700
 5366SOL    HW227561   1.745   4.603   2.426  1.3390  0.0611  1.5713
 5367SOL     OW27562   0.459   1.970   2.448  0.1762 -0.2925  0.1518
 5367SOL    HW127563   0.520   1.977   2.521  1.4957 -0.3974 -0.9448
 5367SOL    HW227564   0.401   2.042   2.474  2.5353  1.2725  1.0516
 5368SOL     OW27565   1.789   3.781  16.767  0.0272  0.1596  0.5639
 5368SOL    HW127566   1.743   3.842  16.709  0.1879 -0.7489 -0.5267
 5368SOL    HW227567   1.868   3.771  16.714 -1.6230 -0.6117 -1.7412
 5369SOL     OW27568   3.527   2.057  16.386 -0.6913 -0.0041  0.6290
 5369SOL    HW127569   3.619   2.055  16.408 -0.3176 -0.4519 -0.9187
 5369SOL    HW227570   3.512   2.137  16.336 -1.3701 -2.2104 -2.8030
 5370SOL     OW27571   3.014   1.987   0.482  0.9904  0.2450  0.0431
 5370SOL    HW127572   3.017   2.075   0.443 -1.3317  0.3589  0.1154
 5370SOL    HW227573   2.920   1.980   0.502  0.5111  3.8288 -0.9403
 5371SOL     OW27574   4.286   3.907  11.991 -0.7153 -0.0725 -0.8711
 5371SOL    HW127575   4.323   3.931  11.906 -1.0635 -1.7599 -1.4931
 5371SOL    HW227576   4.365   3.870  12.029 -0.7822 -0.3550 -1.0041
 5372SOL     OW27577   3.275   2.148   7.106  0.0753  0.4191 -0.0074
 5372SOL    HW127578   3.236   2.073   7.062  1.4741 -0.1788 -0.2159
 5372SOL    HW227579   3.203   2.161   7.168 -1.1483  0.9803 -1.5301
 5373SOL     OW27580   0.252   1.760   3.168  0.0675  0.0639  0.1610
 5373SOL    HW127581   0.174   1.755   3.225 -1.4544  1.4159 -1.8147
 5373SOL    HW227582   0.230   1.690   3.107  0.0630 -0.7627  1.0960
 5374SOL     OW27583   3.687   1.041   4.720 -0.1124 -0.2646  0.2131
 5374SOL    HW127584   3.619   1.106   4.739  0.1868 -0.3454  1.5847
 5374SOL    HW227585   3.754   1.073   4.781 -0.7038  0.9308  0.2430
 5375SOL     OW27586   0.916   0.763   7.244 -0.1872 -0.1558 -0.4665
 5375SOL    HW127587   0.981   0.820   7.286 -0.0805 -0.3882 -0.3135
 5375SOL    HW227588   0.964   0.725   7.170  3.0303  1.2294  0.9110
 5376SOL     OW27589   1.021   1.425   1.303  0.0949  0.2584  0.1472
 5376SOL    HW127590   0.959   1.433   1.375 -1.2303  0.5221 -1.0249
 5376SOL    HW227591   0.997   1.508   1.261  1.3539  1.5869  2.0492
 5377SOL     OW27592   0.668   0.977   5.039 -0.2353  0.7281 -0.1651
 5377SOL    HW127593   0.582   0.959   5.001  0.4115 -2.1035 -0.2887
 5377SOL    HW227594   0.664   0.919   5.114 -0.5432  1.9828  0.7943
 5378SOL     OW27595   3.691   1.844   2.711 -0.3406 -0.1931  0.3921
 5378SOL    HW127596   3.750   1.788   2.760 -0.0923  0.3685  0.7300
 5378SOL    HW227597   3.748   1.918   2.690  1.2915 -0.8636  2.5200
 5379SOL     OW27598   1.108   4.220  12.770  0.3535  0.2095  0.0805
 5379SOL    HW127599   1.067   4.170  12.699  0.1787  1.4577 -0.7019
 5379SOL    HW227600   1.181   4.262  12.725 -0.2622  1.6791  0.4537
 5380SOL     OW27601   1.734   3.706   2.642 -0.1723  0.4574  0.2446
 5380SOL    HW127602   1.694   3.700   2.555  0.8068 -0.2011 -0.1679
 5380SOL    HW227603   1.827   3.690   2.628 -0.7745 -2.7702  0.0624
 5381SOL     OW27604   0.241   3.880   4.756 -0.1138 -0.0570 -0.2422
 5381SOL    HW127605   0.211   3.928   4.679 -0.4594  1.3949  0.8066
 5381SOL    HW227606   0.178   3.808   4.756  0.4550 -0.5617 -0.9338
 5382SOL     OW27607   0.529   2.715  13.353  0.0733  0.1614  0.1344
 5382SOL    HW127608   0.471   2.687  13.282  1.2688 -1.1601 -0.3126
 5382SOL    HW227609   0.494   2.804  13.360 -0.8712 -0.1500 -0.6034
 5383SOL     OW27610   4.715   4.532   8.058 -0.3858 -0.3242  0.1419
 5383SOL    HW127611   4.688   4.515   8.149  1.6059 -2.5189  0.3128
 5383SOL    HW227612   4.642   4.587   8.029 -0.2162 -0.5555 -0.7040
 5384SOL     OW27613   0.698   2.421   0.907  0.0421 -0.0048  0.2886
 5384SOL    HW127614   0.673   2.512   0.925  2.6320  0.3791  2.0192
 5384SOL    HW227615   0.759   2.424   0.834  1.2670 -2.8550  1.1858
 5385SOL     OW27616   2.158   0.807   5.400 -0.6095  0.2437 -0.5551
 5385SOL    HW127617   2.115   0.768   5.476 -0.9897  0.8110 -0.4731
 5385SOL    HW227618   2.081   0.855   5.369  0.0664  1.0776 -0.9485
 5386SOL     OW27619   2.255   1.366   7.450  0.0379 -0.5297  0.8158
 5386SOL    HW127620   2.205   1.433   7.498 -0.9052 -2.5984  2.6997
 5386SOL    HW227621   2.187   1.301   7.436  0.7348 -1.0328 -0.1859
 5387SOL     OW27622   0.333   0.834  13.817  0.9074 -0.1803  0.1816
 5387SOL    HW127623   0.360   0.862  13.904  1.8851 -1.5441  0.3181
 5387SOL    HW227624   0.418   0.831  13.773  0.4605  2.7454 -0.9275
 5388SOL     OW27625   1.433   3.409   5.426  0.1243  0.2593 -0.1626
 5388SOL    HW127626   1.455   3.317   5.444 -1.7234  0.0371  0.9513
 5388SOL    HW227627   1.509   3.436   5.375  0.2867  0.3941  0.1497
 5389SOL     OW27628   3.449   2.302   1.826  0.1516 -0.2314 -0.0569
 5389SOL    HW127629   3.482   2.268   1.743  2.0037  1.8849 -0.1636
 5389SOL    HW227630   3.458   2.396   1.812  0.7646 -0.3611 -0.5333
 5390SOL     OW27631   2.926   1.989   8.826  0.0837  0.1912 -0.1583
 5390SOL    HW127632   2.929   1.991   8.922  1.5984  1.1866 -0.2146
 5390SOL    HW227633   3.018   2.014   8.812  1.0063 -2.7563  0.6277
 5391SOL     OW27634   0.392   3.935  13.629 -0.7867  0.2212  0.0326
 5391SOL    HW127635   0.304   3.911  13.657 -0.9774  2.2376  1.1788
 5391SOL    HW227636   0.416   3.862  13.571  0.2986  0.6614 -0.0778
 5392SOL     OW27637   2.418   3.723   3.110  0.2783  0.2321  0.1272
 5392SOL    HW127638   2.351   3.791   3.099 -2.1347 -1.8781  1.9938
 5392SOL    HW227639   2.374   3.647   3.071 -1.8479  2.5906 -2.1209
 5393SOL     OW27640   2.728   3.551   1.104  0.3481 -0.2613 -0.5275
 5393SOL    HW127641   2.672   3.480   1.136  0.5252  0.1113  0.5923
 5393SOL    HW227642   2.681   3.629   1.131  1.9453  0.8537 -0.9519
 5394SOL     OW27643   4.288   1.669   6.652 -0.1079 -0.2288 -0.1184
 5394SOL    HW127644   4.326   1.646   6.737 -0.0982  0.6719  0.1163
 5394SOL    HW227645   4.318   1.595   6.600  1.3220  0.2964 -0.0349
 5395SOL     OW27646   1.100   1.033   7.040 -0.0311 -0.2182  0.2697
 5395SOL    HW127647   1.196   1.032   7.036  0.0033 -0.5572  1.4138
 5395SOL    HW227648   1.088   1.119   7.079  1.5745  0.0569  0.1804
 5396SOL     OW27649   3.431   2.344  12.988 -0.1152 -0.2772  0.0718
 5396SOL    HW127650   3.427   2.254  13.021  1.7043 -0.1986  0.4964
 5396SOL    HW227651   3.484   2.390  13.053  0.6517 -1.0973  0.0227
 5397SOL     OW27652   3.291   1.439   2.772 -0.2058  0.2975 -0.2439
 5397SOL    HW127653   3.322   1.529   2.761 -1.2806  0.4569 -1.9411
 5397SOL    HW227654   3.197   1.455   2.774 -0.5113 -1.3430 -1.3822
 5398SOL     OW27655   1.215   2.097  14.605  0.4332 -0.0120  0.1013
 5398SOL    HW127656   1.298   2.055  14.626 -0.3775 -1.3756  0.5361
 5398SOL    HW227657   1.253   2.184  14.595 -0.7398  0.2384 -2.2067
 5399SOL     OW27658   4.668   0.993   6.252  0.7248  0.0152  0.2930
 5399SOL    HW127659   4.659   0.910   6.205 -0.5540  0.4485 -0.2410
 5399SOL    HW227660   0.046   0.999   6.253  0.8662 -2.2077  0.7831
 5400SOL     OW27661   2.250   1.409   8.682 -0.6168  0.4959 -0.3583
 5400SOL    HW127662   2.198   1.468   8.736 -1.8430 -2.6733  1.9245
 5400SOL    HW227663   2.329   1.453   8.650 -0.7650  0.0524 -1.3237
 5401SOL     OW27664   0.585   0.460  14.218 -0.3457 -0.3965  0.3707
 5401SOL    HW127665   0.587   0.365  14.210  2.1280 -0.1745 -1.6896
 5401SOL    HW227666   0.608   0.474  14.310  0.6099 -0.6931  0.1747
 5402SOL     OW27667   4.512   0.305   2.994 -0.7003 -0.0312  0.2107
 5402SOL    HW127668   4.561   0.343   2.921  1.0077 -0.7270  1.0075
 5402SOL    HW227669   4.449   0.375   3.012 -1.3879 -0.5010 -0.3971
 5403SOL     OW27670   0.663   3.673   5.542  0.5762  0.6705 -0.6830
 5403SOL    HW127671   0.676   3.585   5.579 -0.1455  0.5934 -0.6043
 5403SOL    HW227672   0.699   3.664   5.454 -0.7545 -0.4698 -1.1325
 5404SOL     OW27673   2.272   2.699   4.784 -0.2800  0.0473 -0.0361
 5404SOL    HW127674   2.182   2.691   4.753 -0.5589  1.7398  0.3584
 5404SOL    HW227675   2.296   2.609   4.762 -0.2614 -0.0227  0.2630
 5405SOL     OW27676   2.761   4.607   4.608 -0.6614  0.0783  0.1733
 5405SOL    HW127677   2.682   4.633   4.654  0.7353  0.8748  2.1302
 5405SOL    HW227678   2.815   4.562   4.673  0.3207  2.1512  0.7893
 5406SOL     OW27679   4.459   0.877   7.421 -0.4752 -0.7271  0.2474
 5406SOL    HW127680   4.528   0.865   7.486 -1.9097 -0.6552  1.7994
 5406SOL    HW227681   4.497   0.821   7.354 -1.6222 -0.1269 -0.9208
 5407SOL     OW27682   3.213   3.192   8.410  0.7126  0.4877  0.0307
 5407SOL    HW127683   3.253   3.129   8.350 -3.6176 -1.1635 -1.1427
 5407SOL    HW227684   3.290   3.244   8.435 -0.0720  2.2817 -1.2843
 5408SOL     OW27685   0.949   2.050   4.267 -0.7199  0.4164  0.1127
 5408SOL    HW127686   0.963   2.144   4.253 -0.2260  0.3661  0.2830
 5408SOL    HW227687   0.875   2.049   4.329  0.6878 -0.6037  1.7732
 5409SOL     OW27688   4.283   0.462   2.012  0.1752  0.0931  0.2459
 5409SOL    HW127689   4.260   0.520   2.085  0.9025  1.0804 -0.3081
 5409SOL    HW227690   4.210   0.477   1.952 -0.2304 -1.3868  0.3610
 5410SOL     OW27691   3.347   3.435   5.988  0.3837 -0.3248 -0.5786
 5410SOL    HW127692   3.416   3.491   6.022 -3.2983  3.4387  0.6947
 5410SOL    HW227693   3.324   3.388   6.069 -0.3217 -2.1444 -1.8504
 5411SOL     OW27694   1.696   1.643  17.070 -0.2455  0.8552 -0.2057
 5411SOL    HW127695   1.694   1.619  16.978  1.1479 -0.5753  0.1371
 5411SOL    HW227696   1.785   1.677  17.083 -0.1883  0.8833 -0.6982
 5412SOL     OW27697   1.606   3.474   6.070  0.3344 -0.2173 -0.2086
 5412SOL    HW127698   1.677   3.410   6.071  0.8659  0.3407 -2.1882
 5412SOL    HW227699   1.531   3.414   6.067 -1.1791  1.6501  0.3642
 5413SOL     OW27700   1.006   0.239   5.750  0.5473 -0.3543 -0.5914
 5413SOL    HW127701   1.067   0.203   5.685  0.3074  0.9700 -1.5463
 5413SOL    HW227702   0.937   0.284   5.702  0.3394 -0.9549 -0.8534
 5414SOL     OW27703   3.090   4.045  11.651  0.9151 -0.2437 -0.3955
 5414SOL    HW127704   3.016   4.097  11.621 -1.4807 -2.5763  1.5572
 5414SOL    HW227705   3.079   3.975  11.587 -1.3540  0.7505 -1.0674
 5415SOL     OW27706   4.137   2.253   4.557  0.0685 -0.1124 -0.1460
 5415SOL    HW127707   4.117   2.176   4.504 -0.9681  1.4283 -1.9736
 5415SOL    HW227708   4.230   2.268   4.538 -0.1976 -0.6462 -1.9091
 5416SOL     OW27709   4.543   1.573  10.472 -0.1600 -0.1693  0.3395
 5416SOL    HW127710   4.507   1.541  10.555 -1.2425 -0.0635 -0.0954
 5416SOL    HW227711   4.622   1.612  10.510  0.3258 -1.2263  0.3999
 5417SOL     OW27712   3.417   0.482  13.917  0.8361  0.0907  1.1023
 5417SOL    HW127713   3.503   0.446  13.939  0.1885 -1.9879  0.3302
 5417SOL    HW227714   3.430   0.575  13.898 -0.7304 -0.1401 -1.1181
 5418SOL     OW27715   3.428   2.235   5.058  0.0509  0.7318  0.1720
 5418SOL    HW127716   3.447   2.142   5.068 -1.5411  0.3529 -0.2663
 5418SOL    HW227717   3.333   2.226   5.051 -0.0142  1.1819  0.4529
 5419SOL     OW27718   2.501   4.361  15.231 -0.2838 -0.1134  0.0289
 5419SOL    HW127719   2.561   4.432  15.254  0.0866 -1.3867  2.8707
 5419SOL    HW227720   2.414   4.402  15.225  0.3720  1.1533 -0.8910
 5420SOL     OW27721   0.648   1.891  13.289  0.4090 -0.0748 -0.6683
 5420SOL    HW127722   0.660   1.879  13.195  1.5985 -1.0360 -0.3854
 5420SOL    HW227723   0.558   1.923  13.282  0.3892  0.2381  0.9784
 5421SOL     OW27724   3.668   2.236  16.734  0.4290 -0.1814  0.0872
 5421SOL    HW127725   3.744   2.194  16.693 -1.3786 -0.3899 -3.0384
 5421SOL    HW227726   3.676   2.318  16.686 -2.7541  1.1500  1.8506
 5422SOL     OW27727   1.643   3.507   4.554 -0.2333 -0.9449  0.0824
 5422SOL    HW127728   1.682   3.592   4.576 -2.3055 -0.0931  0.3915
 5422SOL    HW227729   1.551   3.519   4.577 -0.0534  0.2584  0.1640
 5423SOL     OW27730   1.144   3.907   8.918 -0.0604 -0.3982  0.3638
 5423SOL    HW127731   1.131   4.000   8.939  0.2937  0.2109 -2.1960
 5423SOL    HW227732   1.096   3.863   8.989  2.2962 -0.7041  1.7623
 5424SOL     OW27733   1.293   4.115  11.315 -0.1854  0.1498 -0.4579
 5424SOL    HW127734   1.209   4.094  11.273 -0.2939 -0.3486  0.0064
 5424SOL    HW227735   1.297   4.043  11.378  0.6678  0.5851 -0.0252
 5425SOL     OW27736   3.048   1.280   4.328  0.4101  0.3798 -0.4651
 5425SOL    HW127737   3.025   1.372   4.316  0.9068  0.5885  0.1417
 5425SOL    HW227738   3.056   1.244   4.240 -0.1305  0.6853 -0.6407
 5426SOL     OW27739   4.611   4.212   4.106  0.1526  0.1101 -0.0393
 5426SOL    HW127740   4.622   4.302   4.135 -0.5477 -0.8808  3.2971
 5426SOL    HW227741   4.516   4.200   4.105 -0.0261  1.1798  3.4800
 5427SOL     OW27742   0.665   4.250  12.610 -0.1070  0.1311 -0.5605
 5427SOL    HW127743   0.650   4.179  12.548  1.9596 -2.1457  1.5234
 5427SOL    HW227744   0.682   4.210  12.696  0.6258 -1.6742 -1.5444
 5428SOL     OW27745   1.505   4.439   3.524 -0.4221 -0.2200 -0.1872
 5428SOL    HW127746   1.522   4.422   3.617  0.2198 -1.4387 -0.5346
 5428SOL    HW227747   1.417   4.474   3.533  0.6889  1.9883  2.1251
 5429SOL     OW27748   4.217   0.165  10.150 -0.0335 -0.3659 -0.6941
 5429SOL    HW127749   4.130   0.199  10.129 -0.8498 -0.5602  2.5125
 5429SOL    HW227750   4.228   0.106  10.075 -1.1148 -3.7828  1.8667
 5430SOL     OW27751   4.530   2.111  13.620  0.3579  0.2093  0.6563
 5430SOL    HW127752   4.527   2.201  13.586  1.9627  0.5796  1.4699
 5430SOL    HW227753   4.452   2.097  13.672 -0.5565 -0.6294 -0.9460
 5431SOL     OW27754   3.841   4.080   8.108 -0.2014 -0.0245 -0.1121
 5431SOL    HW127755   3.892   4.129   8.172 -2.1898  0.7228  0.8728
 5431SOL    HW227756   3.865   4.117   8.023 -0.8547  0.7501  0.0446
 5432SOL     OW27757   1.573   2.707   5.208 -0.4968  0.1624  0.1431
 5432SOL    HW127758   1.512   2.748   5.269 -0.1643  0.0460  0.5549
 5432SOL    HW227759   1.628   2.657   5.268 -0.1292 -0.1019 -0.4131
 5433SOL     OW27760   1.206   2.584  10.218 -0.5080 -0.2852 -0.2976
 5433SOL    HW127761   1.247   2.657  10.265  0.4806 -0.6452 -0.5900
 5433SOL    HW227762   1.269   2.549  10.155 -0.2959 -1.3849  0.5222
 5434SOL     OW27763   0.073   4.603   3.914  0.1858  0.0344 -0.1066
 5434SOL    HW127764   0.102   4.692   3.896 -0.7908  0.4994  0.6557
 5434SOL    HW227765   4.717   4.596   3.853  0.8010 -1.3682 -0.7077
 5435SOL     OW27766   2.165   1.987   7.232  0.5715  0.4331  0.1429
 5435SOL    HW127767   2.208   2.067   7.261 -1.3005  1.3470  0.4222
 5435SOL    HW227768   2.082   1.990   7.281  0.3742  2.8803 -0.3593
 5436SOL     OW27769   0.347   4.055   8.723  0.1453 -0.1034 -0.2383
 5436SOL    HW127770   0.302   4.044   8.807 -1.3900  2.0298 -0.7869
 5436SOL    HW227771   0.297   4.127   8.685  0.2084  0.2940  0.4299
 5437SOL     OW27772   2.803   1.427  17.018 -0.3077  0.1634 -0.0893
 5437SOL    HW127773   2.863   1.492  17.054  0.6655 -0.9916  0.3667
 5437SOL    HW227774   2.747   1.474  16.956  0.4825  0.4335 -0.6011
 5438SOL     OW27775   2.102   2.058   3.358 -0.5668 -0.1657 -0.1596
 5438SOL    HW127776   2.041   1.994   3.320  0.0183  0.3973 -2.0163
 5438SOL    HW227777   2.093   2.126   3.291 -1.0708  0.9098  1.0090
 5439SOL     OW27778   2.789   1.173   4.211  0.2453  0.3391 -0.3854
 5439SOL    HW127779   2.833   1.221   4.141 -0.8925  2.9107  0.6896
 5439SOL    HW227780   2.696   1.192   4.203  0.2038 -0.9978 -3.0434
 5440SOL     OW27781   4.059   2.763   9.556 -0.1157 -0.8772  0.4404
 5440SOL    HW127782   3.991   2.741   9.621 -0.5855 -2.8568 -0.7278
 5440SOL    HW227783   4.070   2.674   9.523 -1.2283 -2.2124  3.5697
 5441SOL     OW27784   4.067   2.059   8.732  0.1441 -0.5091  0.4681
 5441SOL    HW127785   4.080   1.964   8.738  0.8294 -0.6466 -3.6246
 5441SOL    HW227786   4.151   2.092   8.765 -0.5639 -0.0816  1.8415
 5442SOL     OW27787   1.356   3.312   2.944  0.0273  0.1019  0.7454
 5442SOL    HW127788   1.340   3.352   2.859  0.3271  0.3683  0.8131
 5442SOL    HW227789   1.284   3.250   2.958  0.4721  0.4992  4.9539
 5443SOL     OW27790   1.356   0.077   2.403  0.0820 -0.4242  0.5768
 5443SOL    HW127791   1.355   0.009   2.335  0.0960  1.5380 -1.3720
 5443SOL    HW227792   1.419   0.139   2.368  0.1153 -0.2823  0.8936
 5444SOL     OW27793   3.578   3.009   4.599 -0.2923  0.4729  0.3159
 5444SOL    HW127794   3.604   2.984   4.688 -0.5653 -1.4073 -0.1238
 5444SOL    HW227795   3.653   2.973   4.551 -0.0004  2.1266 -0.4666
 5445SOL     OW27796   2.172   3.154  12.387 -0.0807 -0.2446 -0.1899
 5445SOL    HW127797   2.204   3.240  12.361 -2.3948  0.8054  0.4713
 5445SOL    HW227798   2.106   3.141  12.319  0.6381  0.7615 -1.0599
 5446SOL     OW27799   0.698   0.865   3.803  0.0403  0.1728  0.0472
 5446SOL    HW127800   0.756   0.841   3.876 -0.3222 -3.5744 -0.9000
 5446SOL    HW227801   0.643   0.786   3.796 -1.6381  1.3259  0.3562
 5447SOL     OW27802   2.103   2.912   9.388 -0.2437  0.2820  0.3605
 5447SOL    HW127803   2.195   2.926   9.363  0.4736 -0.4054  2.6044
 5447SOL    HW227804   2.069   2.998   9.364 -2.8049 -0.3702  1.7119
 5448SOL     OW27805   2.991   4.301   5.958 -0.1759  0.1414 -0.0119
 5448SOL    HW127806   2.991   4.304   5.862  0.1427  2.0655  0.0323
 5448SOL    HW227807   2.900   4.298   5.987 -0.2694  1.6870 -0.1362
 5449SOL     OW27808   1.607   2.556   5.706  0.2591  0.0251  0.4317
 5449SOL    HW127809   1.598   2.630   5.646 -0.6535  0.3378  0.9607
 5449SOL    HW227810   1.648   2.498   5.641 -0.5531 -0.3798  0.2860
 5450SOL     OW27811   1.557   0.286   6.554 -0.3772 -0.0967  0.4174
 5450SOL    HW127812   1.462   0.285   6.563 -0.2890 -0.8793  1.2310
 5450SOL    HW227813   1.572   0.316   6.465 -0.2263 -1.2112  0.0754
 5451SOL     OW27814   2.501   3.968  14.588 -0.0145 -0.2788  0.5088
 5451SOL    HW127815   2.532   3.892  14.637 -0.2052 -0.0098  1.0454
 5451SOL    HW227816   2.512   4.032  14.658 -0.9985 -0.7441  1.0875
 5452SOL     OW27817   0.793   4.298  14.332 -0.1826 -0.3517  0.2525
 5452SOL    HW127818   0.702   4.327  14.326 -0.0745 -0.0285  0.1250
 5452SOL    HW227819   0.830   4.339  14.254 -1.0224 -1.0764 -0.5201
 5453SOL     OW27820   0.553   2.054   8.303 -0.6768 -0.0672  0.1275
 5453SOL    HW127821   0.482   2.112   8.275  0.6227  0.9486 -1.0658
 5453SOL    HW227822   0.546   1.984   8.238  0.6800  0.4972 -0.6315
 5454SOL     OW27823   0.773   4.327   2.105  0.3994  0.0983  0.1072
 5454SOL    HW127824   0.868   4.314   2.108  0.2862 -1.0107 -1.2086
 5454SOL    HW227825   0.772   4.422   2.097  1.2644  0.0994  0.0074
 5455SOL     OW27826   2.617   4.157   7.270  0.0574  0.2451  0.5052
 5455SOL    HW127827   2.644   4.094   7.337  2.4571 -0.7497 -1.3739
 5455SOL    HW227828   2.563   4.095   7.221 -0.5742  1.8269 -0.7583
 5456SOL     OW27829   4.551   4.460   2.601 -0.0806 -0.1636  0.7523
 5456SOL    HW127830   4.535   4.367   2.618 -3.3718  0.3636  0.6038
 5456SOL    HW227831   4.589   4.487   2.684 -0.1166  1.0999  0.3609
 5457SOL     OW27832   2.280   4.324   6.168 -0.2797 -0.2875 -0.5276
 5457SOL    HW127833   2.343   4.268   6.123  2.4537  0.1081  2.8038
 5457SOL    HW227834   2.224   4.264   6.217 -3.1261  2.3658 -0.5034
 5458SOL     OW27835   4.525   0.880  14.645 -0.5414  0.2386  0.1651
 5458SOL    HW127836   4.515   0.897  14.739  0.7205  1.0476  0.1662
 5458SOL    HW227837   4.479   0.950  14.598 -0.0376  0.1322 -0.4980
 5459SOL     OW27838   1.811   3.291  12.074  0.3558 -0.0239  0.6349
 5459SOL    HW127839   1.864   3.369  12.057  1.4670 -0.0048  4.2994
 5459SOL    HW227840   1.730   3.323  12.112 -0.9089 -2.2138 -0.2321
 5460SOL     OW27841   3.593   4.004   1.358  0.0481 -0.0326  0.0098
 5460SOL    HW127842   3.522   3.949   1.325 -0.7279  0.6464  0.5529
 5460SOL    HW227843   3.619   3.961   1.439  1.3354 -0.7987 -0.8124
 5461SOL     OW27844   2.792   2.615   5.945  0.1366 -0.0288  0.0186
 5461SOL    HW127845   2.845   2.665   6.007 -1.5443  1.1751  0.4579
 5461SOL    HW227846   2.863   2.565   5.903 -0.4285 -1.4350  0.7471
 5462SOL     OW27847   1.944   1.628   7.921  0.6486 -0.0535 -0.3614
 5462SOL    HW127848   2.002   1.690   7.877  1.7111 -0.7701  0.0122
 5462SOL    HW227849   1.864   1.656   7.877 -0.3709  0.2382  1.6689
 5463SOL     OW27850   0.928   3.169   4.081 -0.3603  0.0405  0.3427
 5463SOL    HW127851   0.992   3.146   4.014 -1.3543 -1.0522 -0.2157
 5463SOL    HW227852   0.949   3.259   4.108 -1.6420  0.9529 -1.7749
 5464SOL     OW27853   2.699   1.517   0.727  0.1748  0.1979  0.1123
 5464SOL    HW127854   2.627   1.531   0.789 -1.3746 -3.4073 -0.8490
 5464SOL    HW227855   2.769   1.502   0.790  0.6791 -0.0823 -0.5199
 5465SOL     OW27856   2.462   3.595   5.886 -0.1378 -0.2907 -0.3098
 5465SOL    HW127857   2.442   3.638   5.802 -0.1927  3.2532  1.5302
 5465SOL    HW227858   2.377   3.591   5.929 -1.0317 -3.3389 -2.3484
 5466SOL     OW27859   2.749   0.046   6.294  0.3461  0.1284  0.3260
 5466SOL    HW127860   2.723   4.672   6.283 -1.4694  0.5144  1.4026
 5466SOL    HW227861   2.717   0.065   6.382 -1.2200  2.3936 -0.7422
 5467SOL     OW27862   0.938   4.296  12.434  0.0532  0.5438  0.4804
 5467SOL    HW127863   0.888   4.310  12.354 -0.0697  2.3066  0.8505
 5467SOL    HW227864   0.972   4.384  12.452 -0.7562  0.8929  0.2852
 5468SOL     OW27865   4.405   2.687  10.928 -0.8635 -0.1721 -0.1629
 5468SOL    HW127866   4.320   2.720  10.956  0.2826 -0.0159  3.1362
 5468SOL    HW227867   4.455   2.760  10.893  0.2601  0.3421  2.5207
 5469SOL     OW27868   2.332   2.464   6.330  0.6103  0.3162  0.4452
 5469SOL    HW127869   2.376   2.461   6.415  1.6313  1.0559 -0.0548
 5469SOL    HW227870   2.358   2.552   6.302  0.2976  0.0553 -0.6295
 5470SOL     OW27871   4.391   1.875   1.361  0.0229  0.1892 -0.0595
 5470SOL    HW127872   4.379   1.928   1.440 -3.2201 -0.2839 -0.2349
 5470SOL    HW227873   4.400   1.937   1.288 -1.7543 -0.7210 -1.0629
 5471SOL     OW27874   2.377   1.153   8.660  0.2588 -0.8304 -0.3493
 5471SOL    HW127875   2.322   1.231   8.665  1.1709 -0.1457 -0.8833
 5471SOL    HW227876   2.333   1.086   8.713 -0.6351 -0.8182 -1.0844
 5472SOL     OW27877   1.215   0.098  15.087 -0.4660 -0.2234  0.3815
 5472SOL    HW127878   1.304   0.114  15.057 -0.4349  1.1357  1.2150
 5472SOL    HW227879   1.187   0.048  15.011  0.3474  0.6529 -0.4879
 5473SOL     OW27880   0.966   1.311   5.980  0.1572  0.0315  0.0276
 5473SOL    HW127881   1.031   1.240   5.975  0.4686  0.3923 -1.1088
 5473SOL    HW227882   1.012   1.371   6.039 -0.7911  0.0927  0.6934
 5474SOL     OW27883   0.161   0.538   7.519  0.2128  0.1557 -0.5487
 5474SOL    HW127884   0.239   0.590   7.502  2.1639 -2.7517 -0.5707
 5474SOL    HW227885   0.201   0.453   7.540 -0.2967  0.5033  1.7901
 5475SOL     OW27886   1.026   2.271   3.309 -0.5405  0.1005 -1.1297
 5475SOL    HW127887   0.936   2.288   3.336 -0.0449 -1.2915  1.3012
 5475SOL    HW227888   1.003   2.203   3.246  0.1346 -0.5406 -0.6897
 5476SOL     OW27889   4.080   1.125   8.081  0.0475 -0.3598 -0.6685
 5476SOL    HW127890   4.020   1.176   8.135  1.1276  1.7072 -1.4096
 5476SOL    HW227891   4.141   1.191   8.045  0.9267  0.0791  1.6273
 5477SOL     OW27892   0.921   1.721  12.764  0.1262  0.4550  0.1468
 5477SOL    HW127893   0.886   1.635  12.740  2.0684 -0.5114  0.7824
 5477SOL    HW227894   0.921   1.709  12.858 -1.0945  1.7338  0.3116
 5478SOL     OW27895   1.796   2.119   4.275  0.6379 -0.1009 -0.5000
 5478SOL    HW127896   1.826   2.145   4.362  1.8712  1.5029 -1.3983
 5478SOL    HW227897   1.778   2.027   4.296  2.2545 -0.6098 -1.3318
 5479SOL     OW27898   0.472   1.382   5.100 -0.1173 -0.0314  0.1214
 5479SOL    HW127899   0.481   1.293   5.132  0.4713 -0.0071  0.0330
 5479SOL    HW227900   0.377   1.386   5.094  0.0177  1.1142 -1.2463
 5480SOL     OW27901   0.427   2.565   5.312  0.0680 -0.0954 -0.2105
 5480SOL    HW127902   0.465   2.513   5.241  1.7740  2.7335 -1.3570
 5480SOL    HW227903   0.444   2.655   5.283 -0.0502 -0.1877 -0.5644
 5481SOL     OW27904   1.328   0.553  13.551 -0.2942  0.3317  0.0805
 5481SOL    HW127905   1.397   0.592  13.603  0.4544  1.4445 -1.7361
 5481SOL    HW227906   1.305   0.631  13.500  0.5335  2.2662  2.7356
 5482SOL     OW27907   1.213   3.167   7.671 -0.2945  0.4677 -0.3053
 5482SOL    HW127908   1.145   3.187   7.607 -1.7459  0.4938  1.2444
 5482SOL    HW227909   1.195   3.239   7.732 -2.1381  0.2481 -0.5774
 5483SOL     OW27910   4.413   4.217   9.089  0.2670 -0.3472  0.1120
 5483SOL    HW127911   4.342   4.246   9.147  1.0275 -0.1444  0.9404
 5483SOL    HW227912   4.429   4.134   9.134 -1.2180 -0.3151  0.6908
 5484SOL     OW27913   2.864   0.513  12.944 -0.6542  0.2400  0.1683
 5484SOL    HW127914   2.909   0.466  12.874 -0.5500  0.6457 -0.0422
 5484SOL    HW227915   2.883   0.607  12.934  0.2463 -0.0639 -1.0129
 5485SOL     OW27916   1.865   0.125   8.167  0.2403 -0.3696 -0.5367
 5485SOL    HW127917   1.820   0.056   8.119 -1.4027  2.3354 -2.8844
 5485SOL    HW227918   1.891   0.072   8.242  1.8542 -0.0269 -0.8526
 5486SOL     OW27919   2.806   2.280   5.930  0.1864  0.1773 -0.2104
 5486SOL    HW127920   2.727   2.270   5.877 -0.6836 -0.2974  1.1728
 5486SOL    HW227921   2.863   2.327   5.869 -2.6255  1.0865 -2.1666
 5487SOL     OW27922   0.868   4.288  10.726 -0.6339  0.3126 -0.3402
 5487SOL    HW127923   0.868   4.193  10.737 -1.1877  0.5755  1.9516
 5487SOL    HW227924   0.812   4.298  10.650 -0.8720 -1.2281 -0.3641
 5488SOL     OW27925   2.684   3.476   6.270  0.2856  0.3334  0.5261
 5488SOL    HW127926   2.600   3.434   6.254  1.8437 -2.1033 -1.2953
 5488SOL    HW227927   2.690   3.469   6.365  1.0040  2.0545  0.6003
 5489SOL     OW27928   2.926   0.937  13.152 -0.4363  0.6718 -0.5311
 5489SOL    HW127929   2.915   0.883  13.073 -0.0820  0.2651 -0.3006
 5489SOL    HW227930   2.937   0.861  13.209  2.7333  1.4904 -0.0760
 5490SOL     OW27931   0.577   2.341  12.627 -0.0080  0.2268 -0.5072
 5490SOL    HW127932   0.552   2.383  12.710 -0.8544  1.0686 -1.1876
 5490SOL    HW227933   0.612   2.262  12.669  0.3006  0.7047  0.1366
 5491SOL     OW27934   2.394   4.175   7.606  0.4853  0.3266 -0.7226
 5491SOL    HW127935   2.358   4.170   7.694  0.4342 -0.0584 -0.7657
 5491SOL    HW227936   2.460   4.106   7.613 -0.8313 -0.7757  0.6719
 5492SOL     OW27937   2.088   4.457   9.168  0.4477 -0.0694  0.7772
 5492SOL    HW127938   2.116   4.403   9.095  2.0575  0.8259  0.7369
 5492SOL    HW227939   1.995   4.434   9.169  0.9480 -2.1826  0.7807
 5493SOL     OW27940   4.036   0.503   1.523 -0.1839  0.5616  0.5037
 5493SOL    HW127941   4.105   0.568   1.511  1.7934 -1.1365  2.6556
 5493SOL    HW227942   3.960   0.560   1.535  0.2723  0.8945  1.8872
 5494SOL     OW27943   3.696   1.107  10.673  0.3421 -0.5392 -0.1067
 5494SOL    HW127944   3.688   1.161  10.752 -0.8648  1.4868 -1.6321
 5494SOL    HW227945   3.685   1.021  10.714  0.2500 -0.7212 -0.5154
 5495SOL     OW27946   4.204   2.177   3.082 -0.2680 -0.1785  0.5343
 5495SOL    HW127947   4.131   2.130   3.122 -0.6832  0.4505  0.5190
 5495SOL    HW227948   4.270   2.172   3.152 -1.7616 -0.7799  1.9073
 5496SOL     OW27949   1.602   3.502   2.291  0.0615  0.3415  0.2462
 5496SOL    HW127950   1.691   3.487   2.258  1.1494  0.7218  2.9972
 5496SOL    HW227951   1.581   3.415   2.326 -0.9880  1.5123  2.5193
 5497SOL     OW27952   2.702   0.165  12.852 -0.1222  0.3859  0.4052
 5497SOL    HW127953   2.752   0.091  12.816  2.4033  1.9068  0.7878
 5497SOL    HW227954   2.719   0.235  12.789  0.5293 -1.7358 -1.8172
 5498SOL     OW27955   0.569   4.695   9.517  0.0203  0.3400 -0.3203
 5498SOL    HW127956   0.584   0.057   9.567 -2.4830  0.8288 -0.3209
 5498SOL    HW227957   0.610   4.631   9.575 -0.8439  1.0091  1.0258
 5499SOL     OW27958   1.496   0.874  17.154 -0.0031 -0.2879 -0.2213
 5499SOL    HW127959   1.409   0.913  17.146  0.8607  1.3452 -1.5968
 5499SOL    HW227960   1.506   0.850  17.246  1.1857  0.5430 -0.1303
 5500SOL     OW27961   4.511   0.682   8.906  0.6928  0.8264 -0.2365
 5500SOL    HW127962   4.485   0.724   8.988  0.2662 -1.5009  0.7920
 5500SOL    HW227963   4.482   0.748   8.843  1.1573 -0.6563 -1.9940
 5501SOL     OW27964   3.866   2.618   9.256  0.6641 -0.4677  0.4374
 5501SOL    HW127965   3.935   2.592   9.316 -1.2446 -0.9734  2.4033
 5501SOL    HW227966   3.832   2.699   9.295 -1.1946  0.1223 -2.3712
 5502SOL     OW27967   3.768   4.435   0.285 -0.1991  0.8101 -0.5031
 5502SOL    HW127968   3.700   4.390   0.335 -1.0159  1.8833 -0.6357
 5502SOL    HW227969   3.827   4.454   0.358  0.0633 -1.3457 -0.1731
 5503SOL     OW27970   0.903   4.092  13.310  0.0088  0.1302  0.0702
 5503SOL    HW127971   0.917   4.181  13.342 -1.4703 -0.9541  3.7029
 5503SOL    HW227972   0.993   4.060  13.315 -1.1639 -3.5120 -1.7340
 5504SOL     OW27973   2.891   2.360  12.442  0.0508 -0.0525  0.4299
 5504SOL    HW127974   2.929   2.272  12.436  1.7576  0.8016 -1.3840
 5504SOL    HW227975   2.852   2.352  12.354  1.1171  0.3881 -0.0810
 5505SOL     OW27976   2.886   1.368  17.370  0.3779 -0.5842 -0.0501
 5505SOL    HW127977   2.803   1.320  17.368  0.0777 -0.1330  1.5828
 5505SOL    HW227978   2.865   1.457  17.399  2.2654 -0.6493  1.5039
 5506SOL     OW27979   1.014   1.050   2.641  0.0307  0.2261 -0.0789
 5506SOL    HW127980   1.046   1.135   2.613  0.1058  0.8829  1.9539
 5506SOL    HW227981   1.083   1.013   2.697  0.6253  3.0393  1.0345
 5507SOL     OW27982   1.531   4.404  16.968  0.2513 -0.5417 -0.3741
 5507SOL    HW127983   1.541   4.333  17.031 -2.0020 -0.1564  0.4102
 5507SOL    HW227984   1.475   4.371  16.898  0.9947  0.7770 -1.5855
 5508SOL     OW27985   0.894   0.853  10.404  0.2404  0.5309 -0.1299
 5508SOL    HW127986   0.952   0.929  10.397  0.4024  0.5287  1.1474
 5508SOL    HW227987   0.927   0.814  10.485 -0.4561  0.8869  0.3198
 5509SOL     OW27988   1.344   3.861  11.438  0.0627  0.5380 -0.2109
 5509SOL    HW127989   1.418   3.808  11.407  0.4365  1.7425 -1.4029
 5509SOL    HW227990   1.271   3.817  11.395 -0.2500  1.2638 -0.4245
 5510SOL     OW27991   2.501   3.573   8.892 -0.1221  0.7144 -0.3322
 5510SOL    HW127992   2.462   3.520   8.823  2.4269 -1.0911 -0.4089
 5510SOL    HW227993   2.418   3.590   8.937 -1.6554 -2.5552 -1.9895
 5511SOL     OW27994   3.581   1.716  16.372  0.0515 -0.4326 -0.4112
 5511SOL    HW127995   3.499   1.763  16.353  1.1954  1.2405 -1.1497
 5511SOL    HW227996   3.601   1.675  16.288 -1.2188  0.4288 -1.1302
 5512SOL     OW27997   4.010   2.398   6.254  0.2563 -0.1232 -0.2889
 5512SOL    HW127998   4.049   2.322   6.212 -1.0123 -1.6179  1.2429
 5512SOL    HW227999   4.072   2.410   6.326 -1.1322 -3.3157  1.4329
 5513SOL     OW28000   4.688   1.910   6.546 -0.3947  0.0233  0.2364
 5513SOL    HW128001   4.690   1.821   6.511  0.7397  0.1745 -0.0696
 5513SOL    HW228002   4.598   1.938   6.526 -0.7645 -1.3229  0.0110
 5514SOL     OW28003   1.339   0.873  15.381  0.0759  0.4836 -0.4310
 5514SOL    HW128004   1.360   0.846  15.292  0.0355 -2.7677  0.5686
 5514SOL    HW228005   1.287   0.953  15.372  0.7039  0.8989 -0.3506
 5515SOL     OW28006   1.528   1.420  13.495  0.2730  0.7768 -0.0487
 5515SOL    HW128007   1.449   1.370  13.478  0.7939  0.0581 -0.3618
 5515SOL    HW228008   1.483   1.504  13.507 -2.2780 -0.4761 -1.0347
 5516SOL     OW28009   2.452   4.212   5.848 -0.1299 -0.1546  0.2751
 5516SOL    HW128010   2.518   4.207   5.778 -1.2975  1.1319 -0.9199
 5516SOL    HW228011   2.494   4.289   5.885 -1.6266  0.3327  0.9498
 5517SOL     OW28012   2.399   2.183   7.033  0.3995  0.0959  0.6324
 5517SOL    HW128013   2.439   2.137   7.107  1.9762  1.6891  0.7862
 5517SOL    HW228014   2.396   2.267   7.080  2.3494  0.0618  0.8186
 5518SOL     OW28015   3.167   0.626   2.700  0.4157  0.5670  0.6185
 5518SOL    HW128016   3.087   0.578   2.677  0.2137  2.1030 -1.9978
 5518SOL    HW228017   3.229   0.615   2.628 -0.8489  0.3634 -0.4530
 5519SOL     OW28018   2.909   2.705   9.364 -0.5444  0.9679 -0.0392
 5519SOL    HW128019   2.984   2.731   9.311 -0.0398 -0.1912  0.1019
 5519SOL    HW228020   2.915   2.609   9.357  0.1571  1.1083 -1.3185
 5520SOL     OW28021   4.703   0.983   5.607  0.6273 -0.8021  0.7907
 5520SOL    HW128022   0.077   0.992   5.632  0.8315  0.1752 -0.3115
 5520SOL    HW228023   4.658   0.942   5.681  0.0569 -0.8272  0.4285
 5521SOL     OW28024   3.441   0.248   4.437 -0.1733  0.2550 -1.1031
 5521SOL    HW128025   3.408   0.273   4.351  1.8926  0.4727 -1.8356
 5521SOL    HW228026   3.437   0.328   4.489  0.5063 -0.9824  0.8645
 5522SOL     OW28027   3.079   2.730   5.412  0.0907 -0.2619  0.5919
 5522SOL    HW128028   3.132   2.758   5.487  1.4590 -1.9360  0.2378
 5522SOL    HW228029   3.141   2.731   5.340  0.4035 -1.8689  0.8540
 5523SOL     OW28030   4.515   1.043   3.088  1.1515  0.0246  0.7872
 5523SOL    HW128031   4.528   1.063   2.996 -1.3432 -0.0744  0.4196
 5523SOL    HW228032   4.545   0.952   3.088  0.9960 -0.0142 -0.6316
 5524SOL     OW28033   2.537   1.209   7.022 -0.3465 -0.1386  0.4562
 5524SOL    HW128034   2.623   1.244   6.999 -0.1388  0.3893  2.0442
 5524SOL    HW228035   2.512   1.266   7.095  1.7853  0.6241  0.6023
 5525SOL     OW28036   4.692   3.904   4.307  0.0897  0.2742 -0.2517
 5525SOL    HW128037   4.674   3.833   4.368 -0.5361  0.0822 -0.6551
 5525SOL    HW228038   0.064   3.873   4.296 -0.1549 -0.6492  0.3787
 5526SOL     OW28039   3.917   2.924   2.947 -0.2280 -0.2749 -0.2968
 5526SOL    HW128040   3.967   2.878   2.880  4.7052  2.4153  1.5373
 5526SOL    HW228041   3.992   2.969   2.985 -0.1602  0.2686 -1.0510
 5527SOL     OW28042   1.711   0.442   3.281 -0.2667 -0.5788  0.2780
 5527SOL    HW128043   1.741   0.387   3.353  2.0798  1.2893  0.7227
 5527SOL    HW228044   1.656   0.379   3.233 -0.1702 -0.5482  0.1268
 5528SOL     OW28045   0.970   3.945   6.980 -0.2532  0.1847 -0.1743
 5528SOL    HW128046   1.006   4.022   6.935 -0.9176  1.3995  1.3453
 5528SOL    HW228047   0.970   3.876   6.914  0.3224  0.6504 -0.6703
 5529SOL     OW28048   2.641   4.633  11.356  0.2507 -0.1312  0.4444
 5529SOL    HW128049   2.629   4.541  11.381  0.7806 -0.6468 -1.2477
 5529SOL    HW228050   2.621   4.682  11.436 -2.5660 -0.8381  0.1597
 5530SOL     OW28051   0.848   2.473  16.265  0.5594  0.1374 -0.0603
 5530SOL    HW128052   0.778   2.475  16.200 -1.2055  1.6415  1.8949
 5530SOL    HW228053   0.843   2.564  16.293  4.1793  0.7067 -1.2671
 5531SOL     OW28054   1.008   2.026   4.581 -0.1276 -0.2026  0.4266
 5531SOL    HW128055   1.060   2.077   4.519 -1.0497 -1.0166 -1.0196
 5531SOL    HW228056   0.922   2.064   4.561  0.4406  1.4995  1.1772
 5532SOL     OW28057   4.457   2.720   2.138 -0.2325  0.7009 -0.1537
 5532SOL    HW128058   4.434   2.627   2.148  1.1809  0.5631  1.7342
 5532SOL    HW228059   4.378   2.764   2.169  1.0109  1.6327  1.6378
 5533SOL     OW28060   2.868   0.442   8.438  0.2392  0.4717 -0.1712
 5533SOL    HW128061   2.779   0.438   8.404  0.6907  1.4912 -1.4565
 5533SOL    HW228062   2.869   0.532   8.469 -2.5460  0.4861 -0.1572
 5534SOL     OW28063   3.003   0.905   5.404 -0.6803 -0.0028  0.1563
 5534SOL    HW128064   2.926   0.848   5.411  1.1137 -2.4487  0.3606
 5534SOL    HW228065   3.032   0.866   5.322  0.1860 -0.3131  0.6020
 5535SOL     OW28066   3.475   3.999   8.639 -0.2175  0.0572  0.1809
 5535SOL    HW128067   3.508   3.915   8.607 -2.2571 -0.3730 -0.8143
 5535SOL    HW228068   3.532   3.999   8.716  1.5994 -2.1184 -1.1632
 5536SOL     OW28069   0.750   1.520   6.764  0.0208 -0.4725  0.5862
 5536SOL    HW128070   0.779   1.602   6.724 -1.0161 -1.2026 -1.6750
 5536SOL    HW228071   0.679   1.556   6.818 -0.9258 -0.7129 -0.4888
 5537SOL     OW28072   4.552   2.910  13.518 -0.0533  0.6519 -0.1242
 5537SOL    HW128073   4.458   2.896  13.534 -0.3525  1.3098 -1.2336
 5537SOL    HW228074   4.595   2.868  13.591  1.9634  1.1455 -1.0406
 5538SOL     OW28075   0.872   1.789  13.037 -0.3301 -0.6955  0.5137
 5538SOL    HW128076   0.908   1.877  13.045  0.6442 -1.1531  1.1727
 5538SOL    HW228077   0.777   1.799  13.050 -0.2264 -0.6045  1.2102
 5539SOL     OW28078   1.632   1.892   2.327 -0.0819  0.4434  0.1841
 5539SOL    HW128079   1.578   1.929   2.397 -2.1973 -0.8830 -0.7756
 5539SOL    HW228080   1.600   1.803   2.310  0.8520 -0.1309  1.3721
 5540SOL     OW28081   4.610   4.190   5.400 -0.4666 -0.1308 -0.1705
 5540SOL    HW128082   4.645   4.196   5.489 -1.1575 -1.6490  0.2094
 5540SOL    HW228083   4.570   4.277   5.398 -1.1398 -0.3843  1.7711
 5541SOL     OW28084   0.759   0.006  12.366  0.6516  0.5977  0.4390
 5541SOL    HW128085   0.731   4.650  12.420  0.2319  1.0271  0.8134
 5541SOL    HW228086   0.770   0.081  12.425  0.8612  1.8404 -1.1823
 5542SOL     OW28087   0.542   4.233   6.300  0.2983  0.3273  0.1910
 5542SOL    HW128088   0.578   4.214   6.387  0.1915 -3.0449 -0.4951
 5542SOL    HW228089   0.576   4.171   6.236  2.6448 -0.1429  1.8715
 5543SOL     OW28090   2.139   0.206   8.899 -0.0337 -0.1316 -0.5765
 5543SOL    HW128091   2.049   0.237   8.911 -0.6831 -2.3599  0.2235
 5543SOL    HW228092   2.131   0.118   8.862 -0.3010 -1.3534  2.3734
 5544SOL     OW28093   4.153   1.460  17.385  0.3397 -0.1052 -0.0607
 5544SOL    HW128094   4.099   1.387  17.414  2.4601 -1.3712  0.6811
 5544SOL    HW228095   4.134   1.456  17.291 -0.2605 -1.0775  0.0955
 5545SOL     OW28096   2.187   2.167   7.492  0.2688 -0.0678  0.3655
 5545SOL    HW128097   2.233   2.250   7.482  0.2400 -0.1459 -0.3709
 5545SOL    HW228098   2.261   2.110   7.515 -0.3730 -1.6259 -1.4473
 5546SOL     OW28099   2.858   0.365   1.678 -0.4415  0.2193 -0.2576
 5546SOL    HW128100   2.893   0.375   1.766 -0.6288  1.7542 -0.3593
 5546SOL    HW228101   2.912   0.430   1.632  0.3393  0.4816  1.0165
 5547SOL     OW28102   0.444   0.626   1.721 -0.0231 -0.5111  0.3402
 5547SOL    HW128103   0.393   0.660   1.795  2.2801  0.3139  1.5628
 5547SOL    HW228104   0.400   0.545   1.698 -0.7701 -0.2743  0.9494
 5548SOL     OW28105   0.167   4.003  11.770  0.0525 -0.7000  0.8872
 5548SOL    HW128106   0.235   4.069  11.785  0.7416 -1.0549 -0.7169
 5548SOL    HW228107   0.195   3.961  11.689 -0.3748  1.2029 -0.2542
 5549SOL     OW28108   0.240   0.923   5.506 -0.0518  0.5492 -0.3446
 5549SOL    HW128109   0.317   0.919   5.563 -0.0741  1.3169 -0.2575
 5549SOL    HW228110   0.232   1.018   5.502  1.0319  0.6996  1.3649
 5550SOL     OW28111   0.388   3.781  14.804 -0.1214 -0.3497 -0.0658
 5550SOL    HW128112   0.454   3.821  14.861 -2.6588  4.1544 -0.2440
 5550SOL    HW228113   0.312   3.786  14.863  0.0790  3.1385 -0.0906
 5551SOL     OW28114   2.995   0.539   3.986 -0.4836 -0.2580  0.4389
 5551SOL    HW128115   2.962   0.484   3.914 -1.7028 -0.4984  1.1773
 5551SOL    HW228116   2.978   0.481   4.060 -0.4770  0.1569  0.7645
 5552SOL     OW28117   0.191   1.916   2.318 -0.3967 -0.0748 -0.7276
 5552SOL    HW128118   0.177   1.838   2.264  0.9969 -1.8848  1.4566
 5552SOL    HW228119   0.284   1.907   2.342 -0.4596  1.2532 -0.0030
 5553SOL     OW28120   1.480   1.034   0.969  0.0293  0.5711 -0.5234
 5553SOL    HW128121   1.544   0.986   0.916  0.9547  0.9431  0.2593
 5553SOL    HW228122   1.490   0.989   1.053  0.6412  0.5700 -0.5960
 5554SOL     OW28123   3.669   3.036  11.515  0.1220  0.3345  0.1270
 5554SOL    HW128124   3.698   3.033  11.424  0.6926  0.9193  0.2942
 5554SOL    HW228125   3.608   3.109  11.503 -2.2513 -1.9564 -1.9468
 5555SOL     OW28126   2.524   2.186   8.321  0.5462  0.0522  0.4797
 5555SOL    HW128127   2.477   2.250   8.268 -2.8461 -1.7045  1.3905
 5555SOL    HW228128   2.613   2.209   8.293  0.6267  1.6576  2.0293
 5556SOL     OW28129   2.428   2.502   3.491  0.2266 -0.5780  0.4781
 5556SOL    HW128130   2.335   2.516   3.511  0.2662  0.8527 -0.3501
 5556SOL    HW228131   2.412   2.453   3.410  1.7367  0.5077 -0.4728
 5557SOL     OW28132   1.801   0.896   2.965  0.3523 -0.0618 -0.0043
 5557SOL    HW128133   1.786   0.923   2.874 -1.0826 -2.9185 -0.6082
 5557SOL    HW228134   1.841   0.970   3.011 -0.9215  1.6193 -1.5682
 5558SOL     OW28135   0.967   2.525  11.668 -0.0112 -0.0015  0.0902
 5558SOL    HW128136   0.921   2.475  11.601 -1.6129 -1.0165  1.9758
 5558SOL    HW228137   1.059   2.529  11.643  0.5298  1.8424  2.3479
 5559SOL     OW28138   4.688   3.164   3.901 -0.3016 -0.1494 -0.1351
 5559SOL    HW128139   4.630   3.169   3.825  1.1193 -0.1484 -1.2272
 5559SOL    HW228140   4.655   3.082   3.936  1.3773 -0.8347 -0.1518
 5560SOL     OW28141   0.811   0.748   5.742 -0.3404 -0.0492  1.0023
 5560SOL    HW128142   0.731   0.784   5.780 -2.1135 -1.5220 -1.3388
 5560SOL    HW228143   0.829   0.671   5.796 -0.7403 -0.3195  0.7500
 5561SOL     OW28144   2.859   0.895   7.864 -0.0069 -0.8785 -0.1251
 5561SOL    HW128145   2.875   0.961   7.931 -1.0559  1.3723 -2.1174
 5561SOL    HW228146   2.906   0.820   7.901  4.8474  1.1644 -2.1916
 5562SOL     OW28147   0.239   3.537   4.719  0.4324  0.3765  0.0281
 5562SOL    HW128148   0.165   3.567   4.665 -0.1134 -0.9194  0.0691
 5562SOL    HW228149   0.208   3.450   4.743 -1.5397  1.0471 -0.0699
 5563SOL     OW28150   4.016   2.896   2.524 -0.5213  0.3677  0.4321
 5563SOL    HW128151   4.023   2.916   2.431  3.1170  1.1870  0.8679
 5563SOL    HW228152   3.931   2.852   2.525 -0.3280 -0.0029  0.8198
 5564SOL     OW28153   3.641   0.014   6.121 -0.2683 -0.3819 -0.0251
 5564SOL    HW128154   3.655   4.663   6.056 -1.5333 -0.8919  0.2502
 5564SOL    HW228155   3.714   0.009   6.181  0.7676  0.9164 -1.1638
 5565SOL     OW28156   0.528   0.222  10.992  0.0733  0.6153  0.8855
 5565SOL    HW128157   0.557   0.185  10.908  1.3597 -0.9698  2.0204
 5565SOL    HW228158   0.464   0.291  10.972  1.6529  1.8397  0.0827
 5566SOL     OW28159   0.466   0.872   3.454  0.3600 -0.3880  0.0423
 5566SOL    HW128160   0.427   0.802   3.506 -2.7405  2.7190  1.9045
 5566SOL    HW228161   0.523   0.832   3.389  0.1922 -0.7957  0.1449
 5567SOL     OW28162   1.162   1.115  12.498  0.3953 -0.8625  0.5027
 5567SOL    HW128163   1.106   1.149  12.429  1.8202  1.1184  0.3275
 5567SOL    HW228164   1.103   1.047  12.531 -1.4806  0.6904  0.3364
 5568SOL     OW28165   4.709   2.446  16.888 -0.4812 -0.3591 -0.0242
 5568SOL    HW128166   4.702   2.518  16.825  0.2976 -0.9145 -0.7464
 5568SOL    HW228167   4.705   2.363  16.839  1.8675  0.7879 -2.1432
 5569SOL     OW28168   1.203   4.691   5.845 -0.1326 -0.1357  0.3546
 5569SOL    HW128169   1.231   4.626   5.910 -0.6131 -0.5903  0.1101
 5569SOL    HW228170   1.129   4.657   5.795 -0.4215  2.6893 -1.1103
 5570SOL     OW28171   3.294   3.211   1.039  0.1810 -0.4480 -0.1752
 5570SOL    HW128172   3.234   3.230   0.966 -1.2739 -0.3142  1.0566
 5570SOL    HW228173   3.341   3.294   1.028 -0.4032 -0.1821 -0.6641
 5571SOL     OW28174   1.336   4.716   4.348  0.1762 -0.2942 -0.2502
 5571SOL    HW128175   1.416   4.669   4.325  0.8736  1.7586 -2.0361
 5571SOL    HW228176   1.335   4.696   4.442  0.8326  0.9447  0.0153
 5572SOL     OW28177   2.842   1.138   1.333 -0.2086  0.1489  0.2853
 5572SOL    HW128178   2.909   1.206   1.333  0.5148 -0.5704  1.3701
 5572SOL    HW228179   2.791   1.174   1.261  0.1867  1.2967  0.5860
 5573SOL     OW28180   0.493   0.084  12.523 -0.6377  0.2633  0.3243
 5573SOL    HW128181   0.529   0.147  12.460  1.0165 -1.3674 -0.3618
 5573SOL    HW228182   0.574   0.050  12.562 -0.5986  0.2976  0.2738
 5574SOL     OW28183   0.111   2.882   0.766  0.5215 -0.0237 -0.4133
 5574SOL    HW128184   0.046   2.830   0.813  0.0260  1.4558  0.5276
 5574SOL    HW228185   0.181   2.888   0.832  0.7967  1.1807 -0.8081
 5575SOL     OW28186   0.645   4.689   8.897  0.2571 -0.1302  0.0000
 5575SOL    HW128187   0.577   4.626   8.875  0.0358 -0.0425  0.4420
 5575SOL    HW228188   0.612   0.000   8.982 -1.7810 -0.2907 -0.7535
 5576SOL     OW28189   4.185   3.989   8.868 -0.0267 -0.2229 -0.1462
 5576SOL    HW128190   4.155   3.992   8.777 -0.1497  0.2004 -0.0913
 5576SOL    HW228191   4.108   3.961   8.917 -0.5449 -1.6642 -1.8026
 5577SOL     OW28192   2.811   2.430   7.726  0.1235  0.7280  0.4698
 5577SOL    HW128193   2.766   2.482   7.792 -2.3520 -0.9491  0.0880
 5577SOL    HW228194   2.830   2.348   7.771 -3.7901 -0.5325 -0.2363
 5578SOL     OW28195   0.321   3.962   7.115 -0.2361 -0.0887 -0.5236
 5578SOL    HW128196   0.237   3.945   7.072 -1.0981  0.2027  1.0529
 5578SOL    HW228197   0.286   4.017   7.185  0.5037 -1.3799  0.8748
 5579SOL     OW28198   3.162   1.565   3.035 -0.0293 -0.2243 -0.3362
 5579SOL    HW128199   3.151   1.637   2.974 -0.3826  0.7230  0.8583
 5579SOL    HW228200   3.110   1.595   3.109 -0.2718  1.1890 -1.0836
 5580SOL     OW28201   1.962   2.750   2.041  0.1269  0.2937  0.1715
 5580SOL    HW128202   1.901   2.686   2.003  0.6296 -0.8843  1.3248
 5580SOL    HW228203   2.013   2.693   2.098  1.6635 -0.2162 -1.6926
 5581SOL     OW28204   4.207   0.525   6.810 -0.1671  0.2319  0.3592
 5581SOL    HW128205   4.268   0.544   6.739  0.3345 -0.2049  0.6679
 5581SOL    HW228206   4.220   0.607   6.858  3.1409  0.9323 -1.7045
 5582SOL     OW28207   1.988   1.013   6.929 -0.3350 -0.7246  0.5539
 5582SOL    HW128208   1.904   0.970   6.946  0.0241 -0.4078  3.1564
 5582SOL    HW228209   1.982   1.015   6.834  1.4140 -1.4802  0.4300
 5583SOL     OW28210   3.904   3.122   8.942 -0.1002 -0.4088 -0.2682
 5583SOL    HW128211   3.975   3.136   8.880  0.2501  0.8860  0.4404
 5583SOL    HW228212   3.923   3.200   8.994 -0.3566  1.1922 -2.6079
 5584SOL     OW28213   0.564   2.043   7.822  0.2135 -0.2383 -0.3571
 5584SOL    HW128214   0.508   1.970   7.798  0.7378 -0.4424 -0.9774
 5584SOL    HW228215   0.499   2.112   7.809  0.6273 -0.2167 -2.3711
 5585SOL     OW28216   4.363   4.654   8.903 -0.2765 -0.3015  0.0717
 5585SOL    HW128217   4.366   4.684   8.812 -1.2778 -2.1443 -0.5836
 5585SOL    HW228218   4.333   0.021   8.937  0.1476  0.3280 -1.1110
 5586SOL     OW28219   4.186   0.011  13.314 -0.1404 -0.3899  0.4508
 5586SOL    HW128220   4.260   0.031  13.256 -1.4747 -0.8726 -1.4408
 5586SOL    HW228221   4.108   0.004  13.258 -1.3454 -2.5984  2.3931
 5587SOL     OW28222   2.538   4.281  14.257  0.2639  0.0231 -0.3098
 5587SOL    HW128223   2.462   4.334  14.234 -0.9037 -1.3697  0.3466
 5587SOL    HW228224   2.509   4.236  14.336 -0.3813  0.8083 -0.0976
 5588SOL     OW28225   2.619   2.244  14.270 -0.0814 -0.4870  0.5325
 5588SOL    HW128226   2.619   2.152  14.243  0.1153 -0.3782  0.1759
 5588SOL    HW228227   2.649   2.230  14.360 -0.0836 -0.2598  0.5675
 5589SOL     OW28228   3.336   0.333   4.204 -0.0480  0.0737 -0.3573
 5589SOL    HW128229   3.343   0.427   4.219  1.8397 -0.0449 -0.4879
 5589SOL    HW228230   3.355   0.334   4.110  1.7053 -2.0061 -0.0262
 5590SOL     OW28231   1.074   0.074  16.809  0.4683  0.3162  0.0488
 5590SOL    HW128232   0.980   0.091  16.811  0.4738  0.4094 -0.5176
 5590SOL    HW228233   1.102   0.155  16.851 -1.0822 -0.2119  2.1119
 5591SOL     OW28234   0.347   4.671   9.332 -0.3593 -0.7760  0.1151
 5591SOL    HW128235   0.425   4.681   9.387 -0.8190 -3.4825  1.2875
 5591SOL    HW228236   0.277   4.671   9.397 -1.8680  0.2664 -1.5451
 5592SOL     OW28237   0.128   2.707   8.599 -0.0042 -0.4854  0.3227
 5592SOL    HW128238   0.086   2.650   8.534 -0.1238 -2.8375  2.4786
 5592SOL    HW228239   0.097   2.664   8.679 -1.6095  1.2358  0.6325
 5593SOL     OW28240   4.418   3.723  12.136  0.3898 -0.5928 -0.0804
 5593SOL    HW128241   4.481   3.663  12.096 -0.2942 -0.2490 -1.6842
 5593SOL    HW228242   4.438   3.705  12.228  0.3077 -1.4985 -0.2403
 5594SOL     OW28243   2.224   1.653  11.603 -0.3927 -0.5109  0.7731
 5594SOL    HW128244   2.255   1.717  11.667  0.7892  0.7621 -1.0405
 5594SOL    HW228245   2.272   1.574  11.627 -0.2925 -0.0681  2.0039
 5595SOL     OW28246   0.892   4.551   8.509 -0.5496 -0.0653  0.4385
 5595SOL    HW128247   0.817   4.526   8.564  0.1848 -1.5975  0.7555
 5595SOL    HW228248   0.851   4.556   8.423 -1.9641 -0.1673  1.0913
 5596SOL     OW28249   0.408   1.565   6.348 -0.2311  0.5254  0.1088
 5596SOL    HW128250   0.351   1.529   6.416  0.4382 -1.5175 -0.4123
 5596SOL    HW228251   0.489   1.581   6.396  0.0074  0.3232 -0.2266
 5597SOL     OW28252   2.611   1.648   6.783 -0.6668 -0.0570  0.4315
 5597SOL    HW128253   2.539   1.660   6.721  0.5399  0.2698 -0.9194
 5597SOL    HW228254   2.674   1.681   6.718 -0.0751  1.1810  1.6340
 5598SOL     OW28255   0.276   0.031   7.843 -0.4537  0.1244  0.3293
 5598SOL    HW128256   0.186   0.055   7.864  0.0856  2.8204 -0.3837
 5598SOL    HW228257   0.320   0.114   7.864  0.2354 -0.5114  1.4301
 5599SOL     OW28258   1.428   0.114   7.575 -0.2686 -0.7502  0.0393
 5599SOL    HW128259   1.373   0.040   7.549 -2.7142  1.2323 -0.4184
 5599SOL    HW228260   1.465   0.074   7.653  1.1087  1.9827  0.7511
 5600SOL     OW28261   0.951   0.611  12.180 -0.8255  0.4326 -0.0973
 5600SOL    HW128262   0.960   0.614  12.085 -1.7984 -0.4604 -0.2215
 5600SOL    HW228263   1.042   0.626  12.207 -0.3632 -1.3638 -0.6552
 5601SOL     OW28264   0.913   2.094   7.773  0.5937  0.1943  0.7061
 5601SOL    HW128265   0.956   2.021   7.817  2.1083 -0.2781 -1.5788
 5601SOL    HW228266   0.937   2.160   7.839 -0.7579  2.0440 -0.6575
 5602SOL     OW28267   1.237   2.599   6.820  0.1202 -0.1934  0.0863
 5602SOL    HW128268   1.173   2.624   6.753  0.8581  2.1392  0.2512
 5602SOL    HW228269   1.220   2.505   6.820 -2.4981  0.2701  1.9992
 5603SOL     OW28270   1.821   3.839   8.744 -0.3328  0.1058  0.2883
 5603SOL    HW128271   1.765   3.916   8.732  1.0781  1.0227 -0.4360
 5603SOL    HW228272   1.814   3.789   8.663  1.3980 -0.2214  0.3315
 5604SOL     OW28273   2.064   2.587   9.638 -0.1175  0.0572 -0.6758
 5604SOL    HW128274   2.057   2.656   9.704  1.1786  1.1230 -1.6686
 5604SOL    HW228275   2.036   2.513   9.692  2.0223  0.9240  1.6413
 5605SOL     OW28276   0.913   4.075   4.580 -0.0449  0.0150 -0.3879
 5605SOL    HW128277   0.888   3.990   4.617 -0.8817  0.2614 -0.3802
 5605SOL    HW228278   0.999   4.097   4.615  0.0932 -0.4354 -0.4355
 5606SOL     OW28279   1.640   4.196  17.104  0.1330 -0.4891  0.5378
 5606SOL    HW128280   1.723   4.159  17.134  1.6583  2.1373 -0.4045
 5606SOL    HW228281   1.643   4.167  17.013 -0.4961  1.8126 -0.2194
 5607SOL     OW28282   4.698   3.327   3.098 -0.5117  0.0723 -1.0598
 5607SOL    HW128283   4.690   3.398   3.035 -0.9296 -0.5928 -1.7592
 5607SOL    HW228284   4.701   3.386   3.173 -3.8353 -2.2346  0.9321
 5608SOL     OW28285   1.407   0.778   4.344 -0.5151  0.5228 -0.2315
 5608SOL    HW128286   1.401   0.829   4.424  0.9454  0.1657  0.0986
 5608SOL    HW228287   1.501   0.772   4.330 -0.1191  1.0687  2.1863
 5609SOL     OW28288   0.263   3.585  10.715 -0.3005  0.0771 -0.2284
 5609SOL    HW128289   0.273   3.679  10.731 -0.4483 -0.2699  1.9079
 5609SOL    HW228290   0.300   3.587  10.627  1.0164 -0.7357  0.3005
 5610SOL     OW28291   2.293   1.302   6.896 -0.5256  0.0235 -0.3523
 5610SOL    HW128292   2.359   1.245   6.935 -1.2723  0.4350  1.5159
 5610SOL    HW228293   2.288   1.374   6.960 -2.0691 -1.9134  1.7041
 5611SOL     OW28294   0.005   0.205  10.721  0.0014 -0.3277  0.4272
 5611SOL    HW128295   4.658   0.136  10.738 -0.5287 -0.0967 -0.6192
 5611SOL    HW228296   0.091   0.182  10.754 -0.6711 -0.8626  1.8034
 5612SOL     OW28297   1.366   2.137   4.008  0.4420 -0.4806 -0.5520
 5612SOL    HW128298   1.303   2.065   4.007 -0.2819  0.1081  2.8642
 5612SOL    HW228299   1.396   2.127   4.099  1.4536  0.9988 -0.7110
 5613SOL     OW28300   3.061   3.823   3.220  0.1221 -0.1425  0.7166
 5613SOL    HW128301   2.969   3.842   3.238 -0.0215 -1.0114  0.9346
 5613SOL    HW228302   3.063   3.728   3.233  0.3836 -0.7068 -3.7096
 5614SOL     OW28303   0.311   1.214   3.826  0.0921  0.3746  0.5775
 5614SOL    HW128304   0.244   1.244   3.765  1.1714 -2.8975 -2.2263
 5614SOL    HW228305   0.253   1.220   3.902 -0.0476 -1.6039  0.6236
 5615SOL     OW28306   0.627   2.232   8.517  0.0808 -0.1262 -0.1065
 5615SOL    HW128307   0.604   2.210   8.426  3.4580 -0.8421 -0.7881
 5615SOL    HW228308   0.554   2.196   8.567 -0.7179 -0.2401 -1.3498
 5616SOL     OW28309   4.389   3.187   3.053 -0.4587 -0.5478 -0.1460
 5616SOL    HW128310   4.420   3.185   2.963 -1.5643  1.6193 -0.5923
 5616SOL    HW228311   4.470   3.193   3.104  0.7795  0.2541 -2.2185
 5617SOL     OW28312   2.291   3.646  12.896  0.2701 -0.0240  0.0645
 5617SOL    HW128313   2.331   3.629  12.982  0.0482 -1.5948 -0.1494
 5617SOL    HW228314   2.215   3.589  12.907 -0.7783  1.0192 -1.8261
 5618SOL     OW28315   3.199   4.511   5.267 -0.2519  0.0602  0.0150
 5618SOL    HW128316   3.155   4.426   5.261 -1.0482  0.5175 -0.6592
 5618SOL    HW228317   3.165   4.563   5.194 -2.5146 -0.2549  0.8637
 5619SOL     OW28318   0.051   2.702   5.838  0.2073  0.7662 -0.0276
 5619SOL    HW128319   0.108   2.648   5.893 -0.0248 -0.3724 -0.8969
 5619SOL    HW228320   0.116   2.729   5.773  1.9270 -0.8361  1.0265
 5620SOL     OW28321   2.345   0.191   3.448  0.7228 -0.0390  0.6119
 5620SOL    HW128322   2.339   0.106   3.403 -1.2174  0.1917  0.4418
 5620SOL    HW228323   2.276   0.185   3.514  0.3499  0.9640  0.3112
 5621SOL     OW28324   1.925   4.452   8.432 -0.3842 -0.2636  0.1387
 5621SOL    HW128325   1.875   4.442   8.513 -1.7580  0.1053 -0.6524
 5621SOL    HW228326   1.857   4.448   8.364 -0.1243 -0.5791 -0.0998
 5622SOL     OW28327   2.366   0.798   4.654 -0.1496  0.4719  0.2544
 5622SOL    HW128328   2.332   0.749   4.579 -0.7149 -0.4065  1.0862
 5622SOL    HW228329   2.425   0.736   4.698  0.2171  0.6358 -0.0089
 5623SOL     OW28330   1.793   3.543   5.826  0.1681 -0.0840 -0.3137
 5623SOL    HW128331   1.784   3.535   5.921 -0.1635 -0.6342 -0.3896
 5623SOL    HW228332   1.737   3.618   5.805 -0.3610 -0.4144 -0.0542
 5624SOL     OW28333   4.246   1.099  14.726 -0.2950 -0.3023 -0.3477
 5624SOL    HW128334   4.288   1.074  14.644 -1.4193 -0.6419 -0.8085
 5624SOL    HW228335   4.239   1.193  14.707 -0.6820 -0.6319 -1.7878
 5625SOL     OW28336   1.963   1.072   2.205 -0.1429  0.0371 -0.1264
 5625SOL    HW128337   2.051   1.105   2.222 -0.2098 -0.6440  1.4978
 5625SOL    HW228338   1.912   1.153   2.215 -1.8729 -0.8861 -1.5439
 5626SOL     OW28339   4.274   1.289   5.124 -0.2601  0.5527 -0.1408
 5626SOL    HW128340   4.313   1.210   5.086 -1.1216  1.1066 -2.1698
 5626SOL    HW228341   4.202   1.308   5.064 -1.3861  0.2235  1.1260
 5627SOL     OW28342   0.499   4.625   3.251  0.2238  0.1296  0.4017
 5627SOL    HW128343   0.454   4.560   3.197 -2.7307  1.8379  0.8031
 5627SOL    HW228344   0.492   4.585   3.338 -1.3432  0.2650  0.3402
 5628SOL     OW28345   1.033   3.924   4.362 -0.1781 -0.4978 -0.1056
 5628SOL    HW128346   1.003   3.998   4.415 -1.6167 -1.6076  0.6297
 5628SOL    HW228347   1.102   3.965   4.311  1.1281  0.0362  2.0831
 5629SOL     OW28348   2.588   0.698   6.568  0.0068  0.6030  0.1756
 5629SOL    HW128349   2.662   0.691   6.508  0.7656  2.0977  0.9387
 5629SOL    HW228350   2.606   0.642   6.643  2.8229  2.7437  1.0892
 5630SOL     OW28351   1.102   0.857  14.211  0.0243 -1.1722  0.3284
 5630SOL    HW128352   1.100   0.893  14.122 -2.3814 -2.6587 -0.2207
 5630SOL    HW228353   1.177   0.892  14.259  0.0568 -0.7696 -0.0189
 5631SOL     OW28354   3.368   0.961  16.641  0.3669 -0.3866  0.1866
 5631SOL    HW128355   3.333   1.045  16.670  0.0295 -0.0915 -1.0628
 5631SOL    HW228356   3.359   0.911  16.722 -0.9236  0.5298  0.6139
 5632SOL     OW28357   0.818   1.479   2.765 -0.1636 -0.3789 -0.0068
 5632SOL    HW128358   0.908   1.494   2.795 -1.0637  0.5276  2.2467
 5632SOL    HW228359   0.768   1.427   2.828  0.4917 -0.1287  0.7242
 5633SOL     OW28360   1.616   3.591   7.522 -0.1059 -0.7949 -0.5826
 5633SOL    HW128361   1.547   3.603   7.587 -1.6190 -1.5777 -2.0461
 5633SOL    HW228362   1.567   3.625   7.447  0.9648 -3.1892 -2.3840
 5634SOL     OW28363   1.069   3.461   2.745 -0.4252 -0.7154  0.5720
 5634SOL    HW128364   1.058   3.399   2.673  1.5806  0.2528 -0.5883
 5634SOL    HW228365   1.157   3.495   2.726  1.3365 -4.0726  2.6347
 5635SOL     OW28366   4.261   1.354  12.417  0.4191 -0.2480  0.3037
 5635SOL    HW128367   4.229   1.368  12.506 -0.5001 -0.7084  0.0449
 5635SOL    HW228368   4.230   1.265  12.397  1.9195 -0.8499  0.6432
 5636SOL     OW28369   0.483   4.469   5.124 -0.4184  0.6594  0.1665
 5636SOL    HW128370   0.502   4.451   5.032 -1.9631  0.7001 -0.1690
 5636SOL    HW228371   0.570   4.466   5.164 -0.1410 -0.9271 -0.5266
 5637SOL     OW28372   1.938   3.358   5.384 -0.1979 -0.7630  0.1900
 5637SOL    HW128373   1.965   3.272   5.414 -0.4222  0.2009  3.1318
 5637SOL    HW228374   1.875   3.383   5.452 -0.1320 -0.7391  0.2420
 5638SOL     OW28375   3.475   0.082   7.688  0.3770  0.5051 -0.3137
 5638SOL    HW128376   3.495   0.014   7.624 -0.0722 -0.2510  0.3420
 5638SOL    HW228377   3.515   0.042   7.766  2.0417  0.4383 -1.1987
 5639SOL     OW28378   2.057   1.899   6.747 -0.0061 -0.1341  0.2787
 5639SOL    HW128379   2.095   1.875   6.832 -0.0211 -2.2374 -0.3150
 5639SOL    HW228380   2.025   1.815   6.716 -2.6446  0.2458  1.9721
 5640SOL     OW28381   1.274   1.573   7.925 -0.5386  0.2214 -0.5978
 5640SOL    HW128382   1.278   1.628   8.002 -2.1622 -0.8168  0.2193
 5640SOL    HW228383   1.293   1.486   7.961  0.3026  0.2511 -0.9527
 5641SOL     OW28384   2.012   2.830   6.419 -0.5101  0.2254  0.3994
 5641SOL    HW128385   2.068   2.773   6.472  1.0013 -0.2124 -1.6835
 5641SOL    HW228386   1.944   2.856   6.482  0.6713  2.4290  0.7474
 5642SOL     OW28387   0.356   3.488   3.277  0.1170  0.7663  0.6033
 5642SOL    HW128388   0.280   3.523   3.230 -1.4828 -0.2708  2.4157
 5642SOL    HW228389   0.429   3.540   3.246  0.5780  0.3336  0.9577
 5643SOL     OW28390   0.165   0.161   1.178  0.2514 -0.6295  0.0727
 5643SOL    HW128391   0.194   0.147   1.269  0.5915  0.6383  0.1653
 5643SOL    HW228392   0.178   0.074   1.141  1.9487 -0.1006 -0.6019
 5644SOL     OW28393   0.503   0.461   3.171 -0.1618 -0.0568  0.0591
 5644SOL    HW128394   0.517   0.419   3.086 -2.9294  0.6343 -0.7568
 5644SOL    HW228395   0.420   0.416   3.188 -0.7026  1.9644  2.7337
 5645SOL     OW28396   1.632   1.118   5.413  0.2254 -0.2635 -0.5579
 5645SOL    HW128397   1.671   1.045   5.364 -1.2835  0.0143 -2.1750
 5645SOL    HW228398   1.675   1.117   5.498 -0.5460  3.3148 -0.1268
 5646SOL     OW28399   1.813   0.299  11.778 -0.3920  0.1427 -0.2087
 5646SOL    HW128400   1.771   0.369  11.829  3.1414  1.5364  0.8134
 5646SOL    HW228401   1.747   0.231  11.787 -2.3645  1.8675 -1.5651
 5647SOL     OW28402   0.044   1.985   4.450  0.1236  0.1894 -0.1336
 5647SOL    HW128403   4.696   1.964   4.384 -0.7109 -1.4136  1.2048
 5647SOL    HW228404   0.010   2.065   4.490 -1.3422 -1.2204  1.4875
 5648SOL     OW28405   0.924   1.946   8.585 -0.0213 -0.1088  0.7713
 5648SOL    HW128406   0.899   1.914   8.672 -0.9734 -1.1804  0.1130
 5648SOL    HW228407   0.928   2.041   8.593  0.7696  0.0252 -1.1589
 5649SOL     OW28408   2.657   0.007   4.202  0.1933  0.5067 -0.2274
 5649SOL    HW128409   2.692   0.029   4.115  0.7916 -0.4080 -0.2123
 5649SOL    HW228410   2.706   4.643   4.208 -0.7728  0.0813  1.8691
 5650SOL     OW28411   1.893   0.781  13.440 -0.7541 -0.1399  0.3958
 5650SOL    HW128412   1.801   0.806  13.443 -1.5871 -3.0318 -0.5382
 5650SOL    HW228413   1.923   0.826  13.360  1.1205 -1.4552  0.3637
 5651SOL     OW28414   0.109   3.053   6.778  0.2998 -0.2511  0.1460
 5651SOL    HW128415   0.082   3.057   6.870  1.0642 -0.9312  0.4078
 5651SOL    HW228416   0.156   2.970   6.790  0.2596 -0.3781 -0.5803
 5652SOL     OW28417   1.209   4.525  13.030  0.3165  0.3788  0.1841
 5652SOL    HW128418   1.221   4.520  13.125 -0.9716  0.0900  0.3303
 5652SOL    HW228419   1.275   4.590  13.005  1.4210 -1.6639 -2.1621
 5653SOL     OW28420   4.514   3.926   3.134 -0.4393 -0.1084  0.1813
 5653SOL    HW128421   4.579   3.964   3.193  0.1218 -0.5795 -0.1339
 5653SOL    HW228422   4.546   3.955   3.049 -0.6117 -0.3686  0.0275
 5654SOL     OW28423   2.043   0.275   3.883  0.2335  0.3027 -0.0169
 5654SOL    HW128424   1.979   0.283   3.953  0.1278 -2.8879  0.2581
 5654SOL    HW228425   2.119   0.247   3.934 -0.7272 -2.2224  0.0152
 5655SOL     OW28426   1.909   4.266   6.100  0.0704  1.4262 -0.7238
 5655SOL    HW128427   1.915   4.360   6.119 -1.2086  1.2106  0.6708
 5655SOL    HW228428   1.999   4.235   6.102 -0.5185  0.0250  2.3316
 5656SOL     OW28429   3.615   3.644   3.963 -0.2128  0.0898 -0.8264
 5656SOL    HW128430   3.595   3.721   3.910 -0.6440  1.8494  1.9000
 5656SOL    HW228431   3.543   3.648   4.025 -0.3994 -0.5686 -0.9941
 5657SOL     OW28432   1.400   3.011   3.868 -0.6035 -0.1682  0.0427
 5657SOL    HW128433   1.384   2.954   3.792 -0.8221  2.2801 -1.7709
 5657SOL    HW228434   1.381   2.947   3.936  3.4861 -2.7028 -1.1998
 5658SOL     OW28435   0.426   2.261  14.008 -0.0715  0.4086 -0.1573
 5658SOL    HW128436   0.417   2.173  14.043 -0.2052  0.3752 -0.2728
 5658SOL    HW228437   0.365   2.256  13.934  1.5428  2.8884 -1.6720
 5659SOL     OW28438   0.425   2.283   5.593  0.7396  0.6411 -0.0648
 5659SOL    HW128439   0.419   2.280   5.688 -1.1027  2.4036 -0.1335
 5659SOL    HW228440   0.362   2.213   5.576  1.0000  0.5074 -0.4974
 5660SOL     OW28441   0.643   4.618   7.079 -0.2797  0.4470  0.7648
 5660SOL    HW128442   0.591   4.573   7.146 -1.5643  0.5846 -0.1279
 5660SOL    HW228443   0.672   4.540   7.031 -1.3067 -0.8748  2.2783
 5661SOL     OW28444   3.276   3.874   4.908 -0.2416  0.1851  0.5413
 5661SOL    HW128445   3.350   3.825   4.942 -0.2880 -1.3403 -1.5662
 5661SOL    HW228446   3.317   3.956   4.879 -0.6900  1.1845  2.7553
 5662SOL     OW28447   2.322   0.395   8.911 -0.5800  0.1296 -0.1786
 5662SOL    HW128448   2.260   0.442   8.854 -1.1835 -1.4780 -0.8526
 5662SOL    HW228449   2.266   0.323   8.940 -1.6947  0.5779 -1.2112
 5663SOL     OW28450   3.948   3.391   1.736  0.4260 -0.2496  0.2192
 5663SOL    HW128451   4.001   3.397   1.816  0.1503 -0.9494  0.4541
 5663SOL    HW228452   4.007   3.415   1.665 -1.7580  2.1318 -0.7809
 5664SOL     OW28453   4.479   1.609   6.126 -0.2690  0.3684  0.1629
 5664SOL    HW128454   4.563   1.600   6.170 -0.2885  2.6557  0.6463
 5664SOL    HW228455   4.451   1.529   6.082 -0.8677  1.8554 -2.1780
 5665SOL     OW28456   1.666   4.712   2.893  0.0197 -0.7223  0.3663
 5665SOL    HW128457   1.650   0.023   2.983 -1.5972  1.2798 -0.5682
 5665SOL    HW228458   1.690   4.620   2.904  0.3740 -0.5424  1.0952
 5666SOL     OW28459   0.813   3.983  11.547 -0.1883 -0.0926 -0.0299
 5666SOL    HW128460   0.744   3.947  11.603  0.9696  0.2291  1.5924
 5666SOL    HW228461   0.776   3.980  11.459  0.0772  0.8840 -0.1766
 5667SOL     OW28462   0.275   2.863   0.993  0.2124 -0.3857  0.2380
 5667SOL    HW128463   0.300   2.842   1.083  0.8361 -0.0839  0.1384
 5667SOL    HW228464   0.346   2.918   0.958 -0.3389 -0.0758 -0.4010
 5668SOL     OW28465   0.235   0.093  11.066 -0.3337 -0.5194 -0.3185
 5668SOL    HW128466   0.243   0.082  10.971  1.1691  2.5089 -0.5121
 5668SOL    HW228467   0.320   0.123  11.097 -0.9819  0.2305  0.7288
 5669SOL     OW28468   1.992   0.019   7.226  0.0562  0.7880 -0.2687
 5669SOL    HW128469   1.918   0.080   7.221 -2.3851 -2.2149 -1.7470
 5669SOL    HW228470   2.037   0.035   7.143 -0.6017 -1.3081 -1.0527
 5670SOL     OW28471   1.627   3.288   2.886  0.2066  0.4455 -0.0378
 5670SOL    HW128472   1.544   3.317   2.923  1.0992 -0.6121  2.8005
 5670SOL    HW228473   1.666   3.372   2.865  0.0655  0.7303  0.8592
 5671SOL     OW28474   1.806   2.986  11.158 -0.3687 -0.5035 -0.2971
 5671SOL    HW128475   1.900   3.004  11.167 -0.7270  0.7447  1.0648
 5671SOL    HW228476   1.771   3.068  11.194  0.8609  0.5490 -1.5134
 5672SOL     OW28477   1.167   4.189  15.497  0.1513  0.1837  0.3409
 5672SOL    HW128478   1.107   4.216  15.428 -0.1952 -0.5858  0.3377
 5672SOL    HW228479   1.115   4.121  15.541  1.4713 -0.2201  1.2632
 5673SOL     OW28480   3.278   3.712   1.607  0.9818  0.3303 -0.7093
 5673SOL    HW128481   3.343   3.688   1.540  2.1002  1.9034 -0.1935
 5673SOL    HW228482   3.335   3.748   1.676  3.8991 -1.2435 -2.2756
 5674SOL     OW28483   4.021   4.014  14.513 -0.3342  0.0957  0.2109
 5674SOL    HW128484   3.979   4.058  14.439  0.6208  1.3262  0.4182
 5674SOL    HW228485   4.014   4.078  14.583 -1.2221 -0.1921  0.3987
 5675SOL     OW28486   0.503   0.102  13.229  0.2458 -0.5077 -0.6841
 5675SOL    HW128487   0.540   0.125  13.144 -1.2730 -0.7755 -1.4221
 5675SOL    HW228488   0.578   0.122  13.285  0.4466 -1.4403 -0.6247
 5676SOL     OW28489   1.645   2.111   8.852 -0.5782 -0.5808 -0.3156
 5676SOL    HW128490   1.559   2.094   8.812 -0.5664 -1.1208 -0.1047
 5676SOL    HW228491   1.687   2.127   8.767  1.2995 -0.4903  0.6532
 5677SOL     OW28492   2.438   0.142   6.176 -0.4206  0.1265 -0.3951
 5677SOL    HW128493   2.400   0.058   6.199  1.1138 -0.8392 -1.3561
 5677SOL    HW228494   2.427   0.136   6.081  0.3160  2.9361 -0.6622
 5678SOL     OW28495   1.442   1.724   7.724 -0.2899  0.1722 -0.0914
 5678SOL    HW128496   1.388   1.668   7.779 -0.3254  0.5035  0.2110
 5678SOL    HW228497   1.380   1.749   7.656 -1.6978  0.2545  1.2210
 5679SOL     OW28498   1.414   4.088   1.940  0.2860 -0.0674  0.5346
 5679SOL    HW128499   1.428   4.175   1.902  0.8330 -0.3052  0.1841
 5679SOL    HW228500   1.469   4.092   2.018  0.7147  0.7497  0.1960
 5680SOL     OW28501   0.058   0.467   8.918  0.0503 -0.0040  0.0258
 5680SOL    HW128502   0.141   0.435   8.954 -0.1615  0.7082  1.1463
 5680SOL    HW228503   0.021   0.474   9.006  2.6674 -0.5771  1.1614
 5681SOL     OW28504   2.966   3.500   9.252 -0.3631 -0.0330  0.8572
 5681SOL    HW128505   3.030   3.437   9.284 -0.9279 -0.4001  1.2530
 5681SOL    HW228506   2.881   3.458   9.267  0.1250 -1.2760  0.1006
 5682SOL     OW28507   4.101   0.098  13.631 -0.2871  0.0869  0.6570
 5682SOL    HW128508   4.196   0.092  13.635 -0.2756  1.1494  1.5746
 5682SOL    HW228509   4.072   0.029  13.570 -0.7337  1.4098 -0.6196
 5683SOL     OW28510   0.284   0.492  11.325  0.1528 -0.3492  0.4178
 5683SOL    HW128511   0.274   0.579  11.287 -0.3139 -1.1230 -1.2137
 5683SOL    HW228512   0.235   0.438  11.263  0.3988  0.8326 -0.8028
 5684SOL     OW28513   2.311   2.094   8.080 -0.0075  0.6205 -0.3958
 5684SOL    HW128514   2.333   2.024   8.141 -2.3048 -0.6241 -0.9811
 5684SOL    HW228515   2.218   2.076   8.070  0.1779  0.1050 -1.2619
 5685SOL     OW28516   2.184   3.312   6.400  0.4291 -0.0975 -0.1561
 5685SOL    HW128517   2.090   3.295   6.412  0.4241 -0.7245 -1.0954
 5685SOL    HW228518   2.216   3.304   6.489 -3.9454  1.4732  1.5928
 5686SOL     OW28519   2.836   2.492   0.456 -0.6462 -0.3621 -0.4824
 5686SOL    HW128520   2.841   2.567   0.397  1.3034 -1.6160 -1.9124
 5686SOL    HW228521   2.757   2.453   0.418 -0.8454 -0.0837 -0.3619
 5687SOL     OW28522   0.232   3.004   5.515  0.1580 -0.4493  0.1774
 5687SOL    HW128523   0.207   2.959   5.434  1.3963  0.7557 -0.8594
 5687SOL    HW228524   0.190   3.089   5.509 -1.3073 -1.1777  0.1679
 5688SOL     OW28525   3.327   3.867  16.007  0.2173 -0.5384  0.4917
 5688SOL    HW128526   3.359   3.957  16.016 -0.6333  0.0478 -2.2177
 5688SOL    HW228527   3.250   3.882  15.952  1.5744 -2.2823 -1.8983
 5689SOL     OW28528   0.345   0.021   4.152 -0.1601  0.2101 -0.7431
 5689SOL    HW128529   0.251   0.033   4.167 -0.0829 -0.3803  0.1546
 5689SOL    HW228530   0.370   0.038   4.243  3.1018  0.4252 -1.6677
 5690SOL     OW28531   4.027   2.976   3.886  1.0533  0.1571 -0.1806
 5690SOL    HW128532   3.967   3.026   3.940 -0.8765 -1.3982 -0.8922
 5690SOL    HW228533   4.010   3.030   3.809  0.1356  0.8404  0.5201
 5691SOL     OW28534   0.390   3.465   4.313 -0.4364  0.0006 -0.2074
 5691SOL    HW128535   0.417   3.382   4.353  2.3862  0.7670 -0.4796
 5691SOL    HW228536   0.459   3.465   4.246 -0.8815  3.2756 -0.6579
 5692SOL     OW28537   1.104   2.282   4.180 -0.0274 -0.2314 -0.0200
 5692SOL    HW128538   1.059   2.340   4.242 -0.9562 -0.6327 -0.3220
 5692SOL    HW228539   1.092   2.327   4.097  0.9538  0.1854  0.0576
 5693SOL     OW28540   2.056   0.761   5.660  0.1404 -0.4394 -0.9957
 5693SOL    HW128541   2.103   0.688   5.699 -0.4186 -0.1384  0.2346
 5693SOL    HW228542   2.056   0.824   5.732  1.2913 -0.5112 -0.9386
 5694SOL     OW28543   0.976   3.477  16.111  0.6484 -0.5427 -0.2486
 5694SOL    HW128544   0.977   3.392  16.156 -2.3500 -0.4774 -0.0424
 5694SOL    HW228545   0.893   3.469  16.064  1.0710  1.0419 -1.2404
 5695SOL     OW28546   1.267   0.686  10.730 -0.0609  0.7434  0.0560
 5695SOL    HW128547   1.361   0.665  10.733  0.0054  0.8819 -1.0290
 5695SOL    HW228548   1.228   0.599  10.734  0.5983  0.4068 -0.8299
 5696SOL     OW28549   2.702   2.572   7.958 -0.2215 -0.7758  0.5951
 5696SOL    HW128550   2.629   2.524   7.997  0.0357 -0.3289  1.6409
 5696SOL    HW228551   2.660   2.651   7.925  0.2251 -0.9703 -0.4413
 5697SOL     OW28552   2.068   2.540   4.455 -0.2258 -0.0261 -0.2984
 5697SOL    HW128553   1.990   2.580   4.496  0.2007  2.4922 -1.9358
 5697SOL    HW228554   2.130   2.608   4.480  1.2067 -1.1716 -0.7507
 5698SOL     OW28555   1.537   2.611  12.711  0.4724  0.8205  0.2773
 5698SOL    HW128556   1.538   2.544  12.643  1.3267  1.0629  0.0580
 5698SOL    HW228557   1.570   2.572  12.792 -0.8226  0.3208  0.5707
 5699SOL     OW28558   3.612   4.713   0.439 -0.0831  0.0400  0.0060
 5699SOL    HW128559   3.623   4.696   0.533  2.5598  0.9867 -0.1360
 5699SOL    HW228560   3.703   0.001   0.412  0.5180 -0.7068  1.8462
 5700SOL     OW28561   2.383   0.900  14.241  0.1836  0.2240  0.4870
 5700SOL    HW128562   2.321   0.918  14.171  1.3784  2.9477  0.1601
 5700SOL    HW228563   2.449   0.852  14.190 -0.6142  0.4690 -0.7707
 5701SOL     OW28564   0.147   2.930   7.021 -0.2785  0.0279  0.2792
 5701SOL    HW128565   0.131   2.900   7.110 -0.1688  0.8000  0.5534
 5701SOL    HW228566   0.220   2.989   7.037 -0.2521  0.4973 -1.5837
 5702SOL     OW28567   3.572   2.169   1.613  0.6245 -0.0611 -0.2691
 5702SOL    HW128568   3.568   2.144   1.521 -2.2751  0.0364 -0.1713
 5702SOL    HW228569   3.565   2.085   1.657  0.7247  0.5667  0.9534
 5703SOL     OW28570   0.017   4.213   5.985 -0.0168  0.2717 -0.1489
 5703SOL    HW128571   4.659   4.254   5.943 -0.3185 -1.3929 -1.2390
 5703SOL    HW228572   0.033   4.273   6.058  2.2884 -0.7249  0.1765
 5704SOL     OW28573   2.097   3.993   5.063  0.5236 -0.0359  0.3260
 5704SOL    HW128574   2.059   3.941   5.134  0.1607 -0.2117  0.0019
 5704SOL    HW228575   2.120   3.928   4.996 -1.7075 -0.9094  0.4325
 5705SOL     OW28576   3.534   0.343   5.199  0.0932 -0.1518 -0.2589
 5705SOL    HW128577   3.520   0.348   5.294 -1.3273 -0.1710 -0.4690
 5705SOL    HW228578   3.448   0.353   5.157  0.0456  1.5898  0.2371
 5706SOL     OW28579   2.109   4.268   4.964 -0.5637 -0.3939  0.1363
 5706SOL    HW128580   2.104   4.174   4.985 -0.2603 -0.0116  1.9713
 5706SOL    HW228581   2.119   4.310   5.050 -2.5008 -0.2964  0.2990
 5707SOL     OW28582   0.495   1.112  15.629  0.4781  0.2968 -0.4465
 5707SOL    HW128583   0.488   1.019  15.608 -0.3211  0.4584 -0.8796
 5707SOL    HW228584   0.408   1.144  15.607  0.5357 -0.8210 -2.2467
 5708SOL     OW28585   0.302   0.609  12.135  0.4126  0.7734  0.2033
 5708SOL    HW128586   0.337   0.525  12.107  1.6307  1.7271 -1.1818
 5708SOL    HW228587   0.336   0.632  12.222 -1.1942  0.3294  0.9380
 5709SOL     OW28588   0.061   1.356   8.888  0.5494 -0.4866 -0.0193
 5709SOL    HW128589   0.104   1.283   8.843  0.1272 -0.8217  0.1288
 5709SOL    HW228590   0.027   1.314   8.967  1.3201 -0.2300  0.4464
 5710SOL     OW28591   1.486   3.862   8.868 -0.2406 -0.3801  0.2940
 5710SOL    HW128592   1.510   3.857   8.961 -0.9058 -4.8774  0.2101
 5710SOL    HW228593   1.409   3.806   8.874 -0.3630 -0.1285  1.0681
 5711SOL     OW28594   1.039   1.652   5.873 -0.0666  0.0074  0.7174
 5711SOL    HW128595   1.087   1.734   5.886 -1.2836  0.9519 -0.7857
 5711SOL    HW228596   0.972   1.672   5.808 -0.3078 -0.8236  0.7122
 5712SOL     OW28597   1.481   3.594   7.266 -0.3175 -0.0555 -0.3793
 5712SOL    HW128598   1.394   3.623   7.292  0.1172  0.0429  0.9503
 5712SOL    HW228599   1.452   3.512   7.225 -3.6040  1.3707 -0.8768
 5713SOL     OW28600   0.337   1.116  10.739  0.0160  0.5314 -0.0147
 5713SOL    HW128601   0.251   1.077  10.726 -0.7288  2.0458  0.3342
 5713SOL    HW228602   0.334   1.163  10.655  0.6669  0.9864  0.2162
 5714SOL     OW28603   3.781   1.964   2.217  0.1032 -0.5148  0.2219
 5714SOL    HW128604   3.705   1.955   2.160  0.5684  0.5903 -0.5709
 5714SOL    HW228605   3.828   2.028   2.164 -0.1895 -0.8084 -0.3976
 5715SOL     OW28606   0.883   0.663  11.167  0.0646 -0.7063  0.0780
 5715SOL    HW128607   0.905   0.584  11.216  0.3479 -1.4990 -1.3244
 5715SOL    HW228608   0.794   0.675  11.200 -0.6403  0.0665 -2.1019
 5716SOL     OW28609   4.303   3.022   3.964  0.2951 -0.1269  0.4558
 5716SOL    HW128610   4.309   3.078   3.886 -0.1194 -0.4168  0.2166
 5716SOL    HW228611   4.227   2.972   3.933  1.4192 -1.3132 -0.4270
 5717SOL     OW28612   1.882   3.232  12.498 -0.1610  0.9937 -0.1225
 5717SOL    HW128613   1.852   3.141  12.506 -0.1669  1.0984  1.1160
 5717SOL    HW228614   1.977   3.232  12.512 -0.3331 -0.2089  1.0965
 5718SOL     OW28615   2.826   2.019   4.292  0.3332  0.0075 -0.1141
 5718SOL    HW128616   2.750   2.009   4.350 -0.5382 -1.1227 -1.4698
 5718SOL    HW228617   2.782   1.992   4.211 -0.2500 -1.0124  0.5442
 5719SOL     OW28618   2.849   2.076  11.072  0.2419 -0.5267  0.8111
 5719SOL    HW128619   2.889   2.162  11.072  1.1562 -0.9514 -0.0141
 5719SOL    HW228620   2.770   2.096  11.023  1.5939  1.1952 -0.6677
 5720SOL     OW28621   3.051   4.024  17.336  0.4496  0.0324 -0.0425
 5720SOL    HW128622   3.043   4.112  17.298  1.6220  0.1845  0.0444
 5720SOL    HW228623   3.124   4.040  17.397  0.1264  0.6642  0.1866
 5721SOL     OW28624   0.715   4.546   0.582  0.1564  0.1770  0.2726
 5721SOL    HW128625   0.660   4.500   0.519 -0.1699  1.3191 -0.2890
 5721SOL    HW228626   0.775   4.478   0.611 -1.3590  0.0209  3.1163
 5722SOL     OW28627   2.102   3.296  15.462 -0.5288  0.3516 -0.1302
 5722SOL    HW128628   2.021   3.272  15.417  0.2517  0.0685 -1.3816
 5722SOL    HW228629   2.163   3.228  15.433  0.1222  1.5645 -1.5827
 5723SOL     OW28630   3.553   3.780   4.896 -0.4522  0.4377  0.2866
 5723SOL    HW128631   3.634   3.734   4.873 -0.3915 -0.0917  1.5518
 5723SOL    HW228632   3.539   3.837   4.821  0.8035 -0.7099 -0.8225
 5724SOL     OW28633   0.207   0.989  10.027  0.3241  0.2241 -0.4002
 5724SOL    HW128634   0.184   1.010  10.118 -0.7169  0.5688 -0.7366
 5724SOL    HW228635   0.294   1.029  10.029  0.8351 -0.9360  0.5026
 5725SOL     OW28636   3.778   1.591   8.134  0.6560  0.1344 -0.3743
 5725SOL    HW128637   3.786   1.677   8.175  0.8751  0.6658 -1.5353
 5725SOL    HW228638   3.813   1.547   8.212  0.5981  0.8351  0.0506
 5726SOL     OW28639   4.426   0.103   4.903 -0.6991  0.3850 -0.4863
 5726SOL    HW128640   4.462   0.076   4.987 -0.4105  0.7174 -0.4976
 5726SOL    HW228641   4.412   0.018   4.862  1.1465 -0.7923  1.3130
 5727SOL     OW28642   1.833   0.255   4.952  0.1783  0.5803 -0.0103
 5727SOL    HW128643   1.746   0.241   4.914 -1.4535  4.3956  2.3452
 5727SOL    HW228644   1.825   0.218   5.040  0.9126 -0.6022 -0.4453
 5728SOL     OW28645   2.055   4.610   0.939  0.2489 -0.2561  0.2220
 5728SOL    HW128646   2.042   4.517   0.956  0.5920 -0.3653 -0.1317
 5728SOL    HW228647   2.138   4.626   0.986  1.1488 -0.9223 -1.1523
 5729SOL     OW28648   3.292   4.618   2.581  0.2040 -0.3425 -0.2000
 5729SOL    HW128649   3.240   4.554   2.532 -0.3348  2.3217 -3.0878
 5729SOL    HW228650   3.231   4.692   2.585 -1.2421 -1.5485  0.0434
 5730SOL     OW28651   2.951   2.856   7.448  0.1553  0.8615  0.2305
 5730SOL    HW128652   2.903   2.896   7.522  2.2232 -1.9688  3.1016
 5730SOL    HW228653   2.934   2.766   7.477  0.1178 -0.1395 -2.9749
 5731SOL     OW28654   1.631   1.984   9.137  0.0395  0.2351  0.2765
 5731SOL    HW128655   1.561   2.046   9.158 -0.2706 -0.4956  1.4217
 5731SOL    HW228656   1.660   2.022   9.054  0.2748 -1.1068 -0.2536
 5732SOL     OW28657   2.568   2.208   3.094  0.2677 -0.1336 -0.6943
 5732SOL    HW128658   2.511   2.149   3.046 -0.6380  0.6958 -0.6474
 5732SOL    HW228659   2.623   2.260   3.035  0.2345  0.1350 -0.4900
 5733SOL     OW28660   1.124   4.572  15.925  0.1357  0.9800  0.2431
 5733SOL    HW128661   1.077   4.644  15.966 -1.6807 -0.5951  0.9217
 5733SOL    HW228662   1.183   4.560  15.999  1.6313 -1.7914 -1.4051
 5734SOL     OW28663   4.566   2.930   3.964 -0.2926  0.2089 -0.4455
 5734SOL    HW128664   4.576   2.897   3.875 -0.6101  0.0309 -0.4151
 5734SOL    HW228665   4.471   2.934   3.974 -0.3456 -0.8649 -0.6166
 5735SOL     OW28666   0.939   4.345   3.017  0.0517  0.3234 -0.1100
 5735SOL    HW128667   0.919   4.321   2.926  0.2836 -1.5210  0.3205
 5735SOL    HW228668   0.855   4.311   3.049  0.7403 -1.7201 -0.4611
 5736SOL     OW28669   3.888   0.779   5.392  0.2763 -0.3430 -0.9544
 5736SOL    HW128670   3.797   0.805   5.373  0.0709  0.6946  1.4261
 5736SOL    HW228671   3.872   0.729   5.472 -0.7892  2.4239  0.5977
 5737SOL     OW28672   2.328   4.094   7.859 -0.2242 -0.1430 -0.2237
 5737SOL    HW128673   2.271   4.016   7.858  2.1146 -1.8053 -2.3741
 5737SOL    HW228674   2.357   4.099   7.950 -1.3440  3.1300 -0.0387
 5738SOL     OW28675   3.708   4.678  14.345  0.1203 -0.1353 -0.6417
 5738SOL    HW128676   3.655   0.035  14.373 -1.6182 -1.6273  0.1137
 5738SOL    HW228677   3.653   4.609  14.381  0.6142  0.3870  1.0829
 5739SOL     OW28678   2.644   2.519   8.862  0.5580  0.0426 -0.3389
 5739SOL    HW128679   2.605   2.432   8.864 -1.6016  0.9792 -1.9490
 5739SOL    HW228680   2.572   2.571   8.897  1.3448  0.2435  0.9602
 5740SOL     OW28681   4.228   1.783   5.340  0.5652 -0.3668  0.1316
 5740SOL    HW128682   4.239   1.845   5.267  1.3633  1.3592  1.7289
 5740SOL    HW228683   4.230   1.840   5.416  0.2650  0.9364 -0.8290
 5741SOL     OW28684   0.973   3.690   6.879  0.2276  0.2815 -0.1432
 5741SOL    HW128685   0.891   3.648   6.901  0.0051  0.4469 -0.6569
 5741SOL    HW228686   1.041   3.648   6.931 -2.8132 -4.8462 -0.4018
 5742SOL     OW28687   3.088   1.549   4.277  0.0137  0.4796  0.2592
 5742SOL    HW128688   3.049   1.635   4.259 -0.6563  0.6714  2.5043
 5742SOL    HW228689   3.159   1.545   4.214  1.4402  2.4184  1.7401
 5743SOL     OW28690   0.435   3.840   3.507 -0.2773 -0.2104  0.0740
 5743SOL    HW128691   0.452   3.789   3.427 -0.1232 -1.1492  0.7069
 5743SOL    HW228692   0.500   3.802   3.566 -1.5989  0.5574  2.0359
 5744SOL     OW28693   1.223   1.548   0.828  1.1434 -0.6343  0.1910
 5744SOL    HW128694   1.219   1.473   0.888 -0.4889  0.1330  1.0130
 5744SOL    HW228695   1.299   1.531   0.772 -0.8482 -1.4718 -2.2633
 5745SOL     OW28696   1.390   4.168  12.543 -0.0698  0.1725 -0.0605
 5745SOL    HW128697   1.384   4.094  12.603 -0.6474 -1.9529 -2.7549
 5745SOL    HW228698   1.339   4.137  12.468 -0.4425 -0.0207  0.2697
 5746SOL     OW28699   2.221   2.186   9.134  0.4235 -0.0461 -0.0162
 5746SOL    HW128700   2.171   2.133   9.195 -1.0658  0.1222 -1.1050
 5746SOL    HW228701   2.306   2.166   9.175  0.5290 -0.8830 -0.6296
 5747SOL     OW28702   0.331   1.962   7.482  0.3702 -0.0207  0.0533
 5747SOL    HW128703   0.283   1.945   7.563 -0.9038 -0.6445 -0.8323
 5747SOL    HW228704   0.422   1.937   7.497 -0.0310 -0.8044  1.1902
 5748SOL     OW28705   4.430   3.995   5.522 -0.0580  0.1107  0.5917
 5748SOL    HW128706   4.348   3.976   5.475  0.6589  1.4402 -1.1827
 5748SOL    HW228707   4.495   3.975   5.455 -2.6205 -2.0686 -1.2423
 5749SOL     OW28708   0.780   3.419   6.641 -0.0091 -0.2251  0.3729
 5749SOL    HW128709   0.716   3.481   6.678  1.5121  0.1578  2.3267
 5749SOL    HW228710   0.852   3.479   6.624 -2.3948  1.7698 -2.7120
 5750SOL     OW28711   0.553   0.370   9.944 -0.1810  0.3889  0.3602
 5750SOL    HW128712   0.554   0.302  10.011  0.2581  2.0595  2.0532
 5750SOL    HW228713   0.603   0.443   9.980 -1.8379  1.6424  0.1205
 5751SOL     OW28714   1.283   3.039   6.346  0.1244  0.0987 -0.4699
 5751SOL    HW128715   1.327   2.973   6.399 -1.9093 -0.8614  0.0277
 5751SOL    HW228716   1.318   3.118   6.387  0.5798  0.9300 -2.4552
 5752SOL     OW28717   2.439   2.214  16.963 -0.0970 -0.8954  0.3293
 5752SOL    HW128718   2.424   2.203  17.057  0.8298  1.3395  0.7323
 5752SOL    HW228719   2.371   2.150  16.941 -0.0542 -1.0693  0.6932
 5753SOL     OW28720   1.343   2.336   1.036 -0.0428  0.2203 -0.2666
 5753SOL    HW128721   1.370   2.308   0.948 -2.6719 -0.4841 -0.8481
 5753SOL    HW228722   1.354   2.431   1.026 -0.8746  0.3855  0.3801
 5754SOL     OW28723   4.158   4.385  11.212 -0.5539  0.1439  0.2909
 5754SOL    HW128724   4.224   4.368  11.145  0.2187  1.2053  0.7701
 5754SOL    HW228725   4.213   4.414  11.285  0.1570 -1.8623  0.5312
 5755SOL     OW28726   2.154   2.756   2.871 -0.0065  0.3104  0.0495
 5755SOL    HW128727   2.201   2.730   2.792 -1.6511 -2.5757  0.0642
 5755SOL    HW228728   2.074   2.788   2.831 -0.8166 -1.6086  0.1766
 5756SOL     OW28729   1.893   1.556  14.838  0.2680  1.2581 -0.1193
 5756SOL    HW128730   1.931   1.638  14.807 -0.6196  1.1879 -1.4026
 5756SOL    HW228731   1.890   1.504  14.758  0.8003  1.1570 -0.0732
 5757SOL     OW28732   3.836   4.473   8.452 -0.4835 -0.3450  0.0798
 5757SOL    HW128733   3.764   4.530   8.424 -0.3907 -0.2581  0.0203
 5757SOL    HW228734   3.790   4.406   8.503  0.4612 -0.8912  0.2098
 5758SOL     OW28735   2.699   3.719   6.474 -0.1737 -0.9480  0.3914
 5758SOL    HW128736   2.623   3.661   6.482 -0.5284 -0.4729  0.5224
 5758SOL    HW228737   2.755   3.692   6.547  0.5112  1.8096  0.8884
 5759SOL     OW28738   2.574   0.118  16.318  0.4805 -0.6879 -0.4616
 5759SOL    HW128739   2.599   0.211  16.322 -3.0251  0.3768 -2.5608
 5759SOL    HW228740   2.482   0.124  16.291 -0.2332  0.5729  2.2768
 5760SOL     OW28741   1.064   2.243   8.012  0.0508  0.4345 -0.2895
 5760SOL    HW128742   0.994   2.209   8.068  0.6180  1.8094  1.2479
 5760SOL    HW228743   1.144   2.197   8.036  1.2408  2.1812 -0.9359
 5761SOL     OW28744   3.012   4.165   6.659  0.4335 -0.0417 -0.2960
 5761SOL    HW128745   2.920   4.145   6.677  0.6684  0.4318  1.4332
 5761SOL    HW228746   3.037   4.100   6.593 -0.3762  0.7160 -1.3657
 5762SOL     OW28747   2.413   0.636  14.853 -0.2633 -0.7204  0.1282
 5762SOL    HW128748   2.404   0.547  14.888 -0.7876 -0.0861  1.5533
 5762SOL    HW228749   2.497   0.634  14.807 -0.3290  0.2893 -0.0318
 5763SOL     OW28750   4.702   3.597  17.166 -1.1574  0.1146 -0.1133
 5763SOL    HW128751   4.664   3.663  17.225 -0.8921 -0.5965  0.8484
 5763SOL    HW228752   0.073   3.629  17.151 -0.7244 -2.1033 -2.2758
 5764SOL     OW28753   0.777   0.230   4.811 -0.1708 -0.6168  0.0531
 5764SOL    HW128754   0.833   0.292   4.857 -0.8883 -0.9243  1.3373
 5764SOL    HW228755   0.801   0.241   4.719  0.7777 -0.9781  0.2632
 5765SOL     OW28756   3.836   1.872   9.700 -0.8396  0.3891 -0.2093
 5765SOL    HW128757   3.798   1.847   9.785 -1.2531  0.7813 -0.2798
 5765SOL    HW228758   3.756   1.853   9.650 -0.5250  1.3899 -1.0751
 5766SOL     OW28759   0.385   3.666  17.325  1.0168 -0.1533  0.3838
 5766SOL    HW128760   0.317   3.657  17.391 -0.6628  2.5226 -0.9651
 5766SOL    HW228761   0.464   3.639  17.372  0.2722 -2.4705  0.3035
 5767SOL     OW28762   2.114   3.128   4.281 -0.3933  0.3645  0.0196
 5767SOL    HW128763   2.135   3.074   4.205 -1.5435  1.4097 -1.0316
 5767SOL    HW228764   2.024   3.098   4.271  0.1971 -1.6657  0.7039
 5768SOL     OW28765   1.906   1.344   6.928  0.5107  0.1320  0.2118
 5768SOL    HW128766   1.991   1.300   6.927  0.6621  0.4309  0.2420
 5768SOL    HW228767   1.901   1.368   6.835 -0.6185  0.1984  0.2881
 5769SOL     OW28768   0.205   2.464   2.173  0.0522  0.2851  0.3808
 5769SOL    HW128769   0.145   2.391   2.187  0.1387  0.3007  0.8221
 5769SOL    HW228770   0.141   2.535   2.179  0.2253  0.5146 -0.4969
 5770SOL     OW28771   3.623   2.431   6.126 -0.5553 -0.7794  0.2719
 5770SOL    HW128772   3.692   2.426   6.060 -0.4373  0.9679  0.2687
 5770SOL    HW228773   3.548   2.410   6.071 -0.9692 -2.6739  1.5719
 5771SOL     OW28774   4.118   4.631   6.805  0.6999  0.1811  0.0196
 5771SOL    HW128775   4.166   4.599   6.881 -0.0017 -2.2267 -0.5448
 5771SOL    HW228776   4.179   4.657   6.735 -0.0695 -0.7449 -0.9921
 5772SOL     OW28777   4.242   0.801   1.081 -0.6103 -0.1977 -0.3770
 5772SOL    HW128778   4.329   0.838   1.067 -1.0832  1.3050  0.6548
 5772SOL    HW228779   4.253   0.734   1.148  0.4519  0.7651  0.4110
 5773SOL     OW28780   1.687   3.541   2.850 -0.5849 -0.0413  0.0854
 5773SOL    HW128781   1.712   3.571   2.763  1.8366  0.2745  0.8714
 5773SOL    HW228782   1.712   3.618   2.900  0.8465 -0.4873  0.0640
 5774SOL     OW28783   0.240   2.745   5.617  0.0125 -0.2495 -0.1859
 5774SOL    HW128784   0.252   2.836   5.592  0.0999  0.1375  1.2687
 5774SOL    HW228785   0.217   2.699   5.536 -1.2111 -1.7534  0.9997
 5775SOL     OW28786   3.079   3.120   6.189 -0.1181  0.1995 -0.3848
 5775SOL    HW128787   3.154   3.177   6.210  1.7517 -0.9070 -4.0735
 5775SOL    HW228788   3.029   3.183   6.136  0.0431  0.9352  0.3331
 5776SOL     OW28789   0.049   4.209   8.837  0.1675 -0.2652  0.1756
 5776SOL    HW128790   0.011   4.205   8.925  0.6399 -0.3004  0.3788
 5776SOL    HW228791   0.018   4.292   8.801  0.7694 -1.0436 -2.1446
 5777SOL     OW28792   0.199   2.982   1.957  0.2078  0.0678 -0.5471
 5777SOL    HW128793   0.194   3.038   2.035  2.7813 -3.7679  2.4289
 5777SOL    HW228794   0.273   3.015   1.907  1.5240 -0.9601  0.7016
 5778SOL     OW28795   1.320   4.106   7.240  0.2552  0.0229 -0.2459
 5778SOL    HW128796   1.375   4.036   7.276  0.2827 -0.6200 -1.5361
 5778SOL    HW228797   1.381   4.161   7.191 -1.2763  0.4273 -1.7129
 5779SOL     OW28798   0.003   1.934   8.701  0.4782  0.1477  0.6803
 5779SOL    HW128799   0.080   1.985   8.677  1.0745 -0.4799  1.2468
 5779SOL    HW228800   0.045   1.882   8.769 -1.1533  1.4433  2.6777
 5780SOL     OW28801   4.089   1.262   4.936 -0.2059 -0.1473 -0.1402
 5780SOL    HW128802   4.011   1.258   4.991  1.3963 -0.8362  2.1016
 5780SOL    HW228803   4.052   1.313   4.864 -0.2038  2.4429  1.6785
 5781SOL     OW28804   1.341   3.284  10.151 -0.1852  0.3475  0.2027
 5781SOL    HW128805   1.284   3.348  10.108 -1.8874 -0.2459  1.5841
 5781SOL    HW228806   1.292   3.208  10.121  1.5719 -1.1119  1.0236
 5782SOL     OW28807   1.293   2.646   2.944 -0.0965  0.1279  0.3274
 5782SOL    HW128808   1.291   2.688   3.030  0.3425 -1.5658  1.1458
 5782SOL    HW228809   1.220   2.584   2.947 -1.8599  2.1557 -0.4814
 5783SOL     OW28810   2.774   0.754   5.384 -0.1273 -0.1813  0.3939
 5783SOL    HW128811   2.710   0.824   5.396  0.4794  0.4559 -0.1427
 5783SOL    HW228812   2.726   0.673   5.367  2.6375 -1.9802  1.0114
 5784SOL     OW28813   1.231   1.007   1.388  0.0961  0.1873  0.2700
 5784SOL    HW128814   1.159   0.945   1.395 -0.3346  0.3595 -2.6432
 5784SOL    HW228815   1.202   1.069   1.322  2.9128  1.3503  0.1161
 5785SOL     OW28816   4.618   4.486   7.519  0.1969  0.5475 -0.1649
 5785SOL    HW128817   4.576   4.488   7.432  0.7629 -4.1089 -0.5457
 5785SOL    HW228818   4.613   4.581   7.534 -1.4382  0.3710  0.4001
 5786SOL     OW28819   2.276   2.879   5.148 -0.1331  0.4516 -0.0167
 5786SOL    HW128820   2.197   2.851   5.102  0.9846 -1.5105 -0.7537
 5786SOL    HW228821   2.315   2.793   5.162 -0.1367  0.6388  1.1522
 5787SOL     OW28822   4.436   0.911   6.948  0.6002 -0.1649  0.4213
 5787SOL    HW128823   4.473   0.839   6.898  0.6336  0.4927 -0.5081
 5787SOL    HW228824   4.468   0.987   6.900 -3.2710 -0.7368 -3.0796
 5788SOL     OW28825   2.450   4.188   6.378 -0.3138  0.0750  0.2375
 5788SOL    HW128826   2.497   4.106   6.392  1.2449  1.0895  0.9859
 5788SOL    HW228827   2.482   4.196   6.288 -0.9462 -0.1059  0.0043
 5789SOL     OW28828   3.477   0.033   3.242  0.2830  0.5152  0.3631
 5789SOL    HW128829   3.514   0.001   3.160  0.1730  0.1789  0.4435
 5789SOL    HW228830   3.385   0.035   3.218 -0.4820 -0.8259  3.1649
 5790SOL     OW28831   0.459   1.560   3.670  0.1419 -0.1274 -0.1371
 5790SOL    HW128832   0.440   1.571   3.577 -0.5015 -0.0450  0.0071
 5790SOL    HW228833   0.504   1.475   3.663  0.4996  0.0469  0.0319
 5791SOL     OW28834   3.172   1.808   3.542 -0.1129  0.2032 -0.5348
 5791SOL    HW128835   3.102   1.744   3.553 -0.6506  1.3804  2.6962
 5791SOL    HW228836   3.155   1.845   3.455 -1.5218 -0.1112 -0.3888
 5792SOL     OW28837   1.966   3.894   5.850 -0.4215  0.0542 -0.0486
 5792SOL    HW128838   1.940   3.892   5.758  1.8096 -0.0221 -0.6782
 5792SOL    HW228839   2.031   3.964   5.840  0.1409 -0.3089  1.0413
 5793SOL     OW28840   2.807   0.859   3.537  0.6391  0.3446  0.0189
 5793SOL    HW128841   2.748   0.911   3.482  0.2532  0.8978  0.9606
 5793SOL    HW228842   2.844   0.803   3.468 -0.0873  1.4677 -1.2928
 5794SOL     OW28843   4.661   2.540   4.322  0.2421 -0.4807 -0.1483
 5794SOL    HW128844   4.666   2.598   4.246  2.5023  2.0850  1.9693
 5794SOL    HW228845   4.673   2.612   4.384 -1.4034  2.0174 -2.7108
 5795SOL     OW28846   1.070   3.013   7.307 -0.1849  0.6734  0.0078
 5795SOL    HW128847   1.003   2.969   7.359  0.2181  0.3085  0.2192
 5795SOL    HW228848   1.072   3.097   7.352 -0.3317 -0.6461  2.4625
 5796SOL     OW28849   1.857   2.614   5.309  0.2200  0.1954  0.0308
 5796SOL    HW128850   1.913   2.688   5.285  0.6117 -0.0184  0.2740
 5796SOL    HW228851   1.872   2.560   5.231 -0.6716  0.6708 -0.4577
 5797SOL     OW28852   2.276   1.715   7.337  0.2688  0.1186  0.5434
 5797SOL    HW128853   2.189   1.708   7.375 -0.0501  1.2792  0.0505
 5797SOL    HW228854   2.261   1.772   7.261 -1.8163 -0.2086  0.7271
 5798SOL     OW28855   1.888   2.304   8.256 -0.0240  0.4679 -0.1088
 5798SOL    HW128856   1.856   2.215   8.245  0.6405  0.1301  0.6331
 5798SOL    HW228857   1.962   2.312   8.196  0.9190 -1.3091  0.8025
 5799SOL     OW28858   4.654   3.554  10.395  0.2059 -0.6083  0.7161
 5799SOL    HW128859   4.617   3.524  10.477 -0.6860 -1.0864  0.1385
 5799SOL    HW228860   4.687   3.468  10.368 -0.9245 -1.3548  1.7579
 5800SOL     OW28861   3.996   2.217   9.032 -0.0861  0.6625 -0.3033
 5800SOL    HW128862   4.017   2.304   9.067 -1.0139  0.3652  1.0027
 5800SOL    HW228863   4.086   2.193   9.011 -0.8105 -2.0422 -0.3023
 5801SOL     OW28864   2.432   3.917   1.005 -0.2729  0.4807  0.4076
 5801SOL    HW128865   2.370   3.953   1.069 -0.0929  0.4956  0.5719
 5801SOL    HW228866   2.447   3.996   0.953  1.3430 -0.9985 -1.3706
 5802SOL     OW28867   0.939   2.121  15.116 -0.0244 -0.3422 -0.4199
 5802SOL    HW128868   0.942   2.144  15.208 -0.8908 -2.8905  0.2481
 5802SOL    HW228869   1.030   2.099  15.097 -0.8418 -2.0235 -2.5178
 5803SOL     OW28870   4.111   4.334   3.933  0.1323 -0.5064  0.3732
 5803SOL    HW128871   4.027   4.289   3.944 -1.3752  2.3966  0.6679
 5803SOL    HW228872   4.097   4.424   3.964 -0.9404 -1.0202  1.3743
 5804SOL     OW28873   2.930   3.619   4.889  0.6422 -0.4485 -0.1524
 5804SOL    HW128874   2.942   3.678   4.963 -0.9715 -0.1679 -0.1103
 5804SOL    HW228875   2.950   3.679   4.817 -3.7668  0.3904 -0.6906
 5805SOL     OW28876   3.781   3.686   6.507  0.3501 -0.0281 -0.1833
 5805SOL    HW128877   3.780   3.607   6.453 -2.1262  1.6603 -2.6282
 5805SOL    HW228878   3.777   3.646   6.593 -0.4513  1.5512  0.5188
 5806SOL     OW28879   4.158   1.940   2.659  0.0816 -0.5787  0.2959
 5806SOL    HW128880   4.156   1.848   2.687 -0.0609 -0.7112 -0.1558
 5806SOL    HW228881   4.211   1.981   2.727  2.6932  0.6873 -2.5143
 5807SOL     OW28882   1.478   3.881  12.452  0.6246 -0.1739 -0.2486
 5807SOL    HW128883   1.469   3.833  12.370 -0.5834 -0.7602  0.2283
 5807SOL    HW228884   1.424   3.834  12.515  0.5626 -1.4863 -1.2805
 5808SOL     OW28885   2.283   2.561   5.786  0.4328 -0.4167 -0.1878
 5808SOL    HW128886   2.202   2.530   5.826  0.5164  0.5125  0.7246
 5808SOL    HW228887   2.320   2.476   5.766 -3.1836 -2.2629  0.8700
 5809SOL     OW28888   0.221   0.129  11.396  0.3890  0.0448 -0.2239
 5809SOL    HW128889   0.136   0.139  11.355  0.3859  1.0497  0.0424
 5809SOL    HW228890   0.284   0.170  11.337  0.0914 -0.1608 -0.6840
 5810SOL     OW28891   0.900   1.421  16.753  0.2052  0.1470  0.1623
 5810SOL    HW128892   0.865   1.354  16.811  2.4236 -1.5596 -0.4843
 5810SOL    HW228893   0.932   1.496  16.803  0.0862  1.0077 -1.0597
 5811SOL     OW28894   1.636   3.339   8.179  0.3963  0.2290 -0.2165
 5811SOL    HW128895   1.729   3.355   8.161  1.1912  0.1415  3.7449
 5811SOL    HW228896   1.631   3.325   8.274 -0.7625  2.4674  0.0544
 5812SOL     OW28897   0.228   2.233   6.157  0.0318  0.0197  0.0190
 5812SOL    HW128898   0.166   2.161   6.170  0.3009  0.5705  4.3134
 5812SOL    HW228899   0.299   2.179   6.122 -1.9683 -2.5130 -0.1539
 5813SOL     OW28900   2.959   4.346   7.230  0.3581 -0.3105 -0.2716
 5813SOL    HW128901   2.993   4.360   7.142  0.2256  0.2834 -0.2307
 5813SOL    HW228902   2.995   4.259   7.245 -0.1443 -0.2589  1.2965
 5814SOL     OW28903   1.991   1.523   5.959 -0.1722  0.0855  1.0299
 5814SOL    HW128904   1.946   1.598   5.921 -0.2738  0.0076  0.9965
 5814SOL    HW228905   1.929   1.481   6.019  0.0429 -1.0572  0.4613
 5815SOL     OW28906   3.937   4.331   6.837 -0.1968  0.3756  0.4964
 5815SOL    HW128907   3.980   4.258   6.793 -1.0075  0.8785 -1.1641
 5815SOL    HW228908   4.008   4.396   6.832  0.5988 -0.5467 -0.2365
 5816SOL     OW28909   2.167   3.945   0.299  0.1507 -0.0567  0.0757
 5816SOL    HW128910   2.200   4.035   0.299 -0.5911  0.2181  0.6516
 5816SOL    HW228911   2.088   3.960   0.352  2.0579  3.8776  1.7918
 5817SOL     OW28912   4.291   0.617   5.499 -0.6117 -0.3921  0.2958
 5817SOL    HW128913   4.232   0.624   5.424 -1.7331  1.4286  1.3518
 5817SOL    HW228914   4.305   0.523   5.503 -2.2914 -0.6017  1.0958
 5818SOL     OW28915   3.569   0.389   8.929  0.0357  0.2066  0.0818
 5818SOL    HW128916   3.542   0.386   9.021  1.5979  1.5623  0.5901
 5818SOL    HW228917   3.623   0.310   8.923  0.7303  0.5406  1.6885
 5819SOL     OW28918   3.657   0.647   2.600 -0.2061 -0.2242 -0.1838
 5819SOL    HW128919   3.669   0.720   2.539 -0.7942 -0.1444 -0.2065
 5819SOL    HW228920   3.691   0.575   2.547 -3.6235 -2.7821  1.1299
 5820SOL     OW28921   4.702   2.489   8.506 -0.1031  0.1697  0.0584
 5820SOL    HW128922   4.613   2.519   8.486 -0.0409 -0.0388 -0.5312
 5820SOL    HW228923   4.692   2.411   8.561  2.0151 -1.2220 -1.5781
 5821SOL     OW28924   4.365   4.078  14.504  0.0059 -0.2075  0.5159
 5821SOL    HW128925   4.301   4.149  14.500  0.5070  0.0074 -3.4256
 5821SOL    HW228926   4.336   4.026  14.580 -2.5085 -0.6861 -0.7759
 5822SOL     OW28927   1.588   1.080   2.155  0.1903  0.5009  0.3805
 5822SOL    HW128928   1.649   1.130   2.211 -0.6848  0.3455  1.4746
 5822SOL    HW228929   1.634   1.093   2.072 -1.2149 -1.8815 -0.7646
 5823SOL     OW28930   0.740   1.636   2.214 -0.2517  0.2821 -0.3262
 5823SOL    HW128931   0.830   1.663   2.233  0.3775 -1.1020 -1.3472
 5823SOL    HW228932   0.697   1.698   2.273 -1.1055  0.9586 -1.6503
 5824SOL     OW28933   1.006   0.126   3.399  0.1074  0.4051  0.6063
 5824SOL    HW128934   0.954   0.206   3.408  0.3947  0.5640  0.8430
 5824SOL    HW228935   0.943   0.054   3.400 -1.2856  1.5738 -1.9873
 5825SOL     OW28936   3.458   4.664   7.980  1.0973  0.0324  0.2630
 5825SOL    HW128937   3.551   4.668   7.959  1.2206 -1.7804  0.5023
 5825SOL    HW228938   3.445   0.032   8.020  0.7297  1.0855 -2.0974
 5826SOL     OW28939   1.555   0.227  10.855  0.0063 -0.5175 -0.3236
 5826SOL    HW128940   1.567   0.258  10.765  1.9676  1.5500  0.6398
 5826SOL    HW228941   1.525   0.309  10.892  1.5588 -0.2814  0.4272
 5827SOL     OW28942   4.485   3.539   2.647  0.2874 -0.2272 -0.2255
 5827SOL    HW128943   4.578   3.528   2.625  0.5202  2.9186 -0.7948
 5827SOL    HW228944   4.442   3.467   2.600  2.5798 -1.6890 -0.1060
 5828SOL     OW28945   3.731   3.156   2.944  0.5132 -0.0825 -0.5278
 5828SOL    HW128946   3.769   3.221   3.003 -0.8672  0.5374 -0.3183
 5828SOL    HW228947   3.806   3.105   2.914  2.5923  1.5431  1.9166
 5829SOL     OW28948   4.221   3.672   5.836 -0.0144  0.0556  0.4078
 5829SOL    HW128949   4.260   3.642   5.918 -0.9540  1.7442  1.4774
 5829SOL    HW228950   4.269   3.752   5.814 -0.5095  0.1397 -0.3488
 5830SOL     OW28951   1.914   3.798  17.384 -0.4549  0.3536  1.0363
 5830SOL    HW128952   1.832   3.774  17.341  0.5091  0.7191 -0.9955
 5830SOL    HW228953   1.977   3.777  17.316 -0.0607 -0.4298  1.6396
 5831SOL     OW28954   0.675   1.417   3.243  0.2145 -0.3200 -0.3887
 5831SOL    HW128955   0.754   1.466   3.219  0.1845 -0.3446 -0.5400
 5831SOL    HW228956   0.677   1.408   3.338  1.2679 -0.0165 -0.3740
 5832SOL     OW28957   3.080   2.519  11.835  0.5477 -0.0931 -0.1508
 5832SOL    HW128958   3.058   2.441  11.784 -0.1163 -0.5308  0.7909
 5832SOL    HW228959   3.129   2.561  11.765  0.4702  0.9602  0.4216
 5833SOL     OW28960   3.192   1.772   1.831 -0.1941  0.1401  0.0432
 5833SOL    HW128961   3.120   1.752   1.772  0.7617  0.8921 -1.3693
 5833SOL    HW228962   3.233   1.688   1.854  0.3591 -0.0461 -1.6492
 5834SOL     OW28963   2.150   2.069  10.402 -0.3937 -0.8756  0.5211
 5834SOL    HW128964   2.059   2.097  10.413 -0.8605 -3.1665  2.5093
 5834SOL    HW228965   2.188   2.096  10.486 -0.4787 -1.6427  0.8018
 5835SOL     OW28966   2.776   0.847   8.856 -0.0913  0.4821  0.4778
 5835SOL    HW128967   2.817   0.922   8.899  3.1692 -2.0148  1.6496
 5835SOL    HW228968   2.689   0.869   8.891 -0.4836 -0.6556  0.2005
 5836SOL     OW28969   2.687   3.337   7.612  0.0552  0.4461 -0.3767
 5836SOL    HW128970   2.736   3.409   7.572  0.1159  1.2149  1.0656
 5836SOL    HW228971   2.614   3.386   7.651 -0.0511 -0.1111  0.1088
 5837SOL     OW28972   3.645   4.664   7.199  0.1772  0.0558  0.1461
 5837SOL    HW128973   3.569   0.002   7.178 -0.0428 -1.0096 -1.9230
 5837SOL    HW228974   3.634   4.622   7.284  1.0784  0.3177  0.3877
 5838SOL     OW28975   2.841   3.725   0.185  0.0132  0.1876 -0.3707
 5838SOL    HW128976   2.878   3.722   0.097 -3.3310  1.4217 -1.7835
 5838SOL    HW228977   2.749   3.744   0.171  0.2335  1.1466 -0.4817
 5839SOL     OW28978   3.971   1.964   7.563  0.5249 -0.1083 -0.4471
 5839SOL    HW128979   4.026   1.983   7.487  2.6434  0.2817  1.1948
 5839SOL    HW228980   3.895   1.926   7.518  0.7168 -3.1271  1.7834
 5840SOL     OW28981   0.782   4.106  12.843  0.9472 -0.2493 -0.5523
 5840SOL    HW128982   0.799   4.123  12.936 -0.2254  1.5116 -0.6486
 5840SOL    HW228983   0.819   4.019  12.831 -0.4766 -0.8924 -0.2320
 5841SOL     OW28984   2.718   0.904   6.712  0.2657 -0.1641 -0.3236
 5841SOL    HW128985   2.695   0.873   6.624  0.8963 -1.5753  0.0101
 5841SOL    HW228986   2.634   0.923   6.753  1.2556 -0.3203  1.7485
 5842SOL     OW28987   1.753   1.836   6.389  0.1046 -0.3614  0.8277
 5842SOL    HW128988   1.666   1.861   6.418 -0.3504 -2.2026  1.0561
 5842SOL    HW228989   1.782   1.903   6.326 -1.1037  1.0948  1.8279
 5843SOL     OW28990   2.136   3.013   5.663  0.0475  0.1154 -0.4596
 5843SOL    HW128991   2.191   2.947   5.620 -1.5283 -1.5063 -0.0009
 5843SOL    HW228992   2.204   3.076   5.688 -0.2114  0.3435 -0.3437
 5844SOL     OW28993   2.572   1.079   2.908  0.2349  0.7336 -0.5962
 5844SOL    HW128994   2.648   1.062   2.853  0.6286 -1.4252  0.6109
 5844SOL    HW228995   2.610   1.068   2.995  1.1614  2.3530 -0.8070
 5845SOL     OW28996   0.683   0.305   3.311  0.4701  0.9000 -0.2255
 5845SOL    HW128997   0.633   0.363   3.253 -1.6808 -1.4174 -0.6888
 5845SOL    HW228998   0.638   0.338   3.389  0.0216  1.9663 -0.9368
 5846SOL     OW28999   3.135   2.479   7.373 -0.2940  0.2224 -0.0880
 5846SOL    HW129000   3.205   2.532   7.412 -0.2636 -0.3822  0.6828
 5846SOL    HW229001   3.091   2.536   7.310  0.6108  0.5549 -0.4121
 5847SOL     OW29002   3.813   3.237   4.229 -0.0703  0.6648  0.0621
 5847SOL    HW129003   3.858   3.171   4.282 -1.6181  1.4211  2.3191
 5847SOL    HW229004   3.726   3.230   4.268 -0.0640 -0.8222 -0.1897
 5848SOL     OW29005   1.284   1.344  17.626  0.4737 -0.2015 -0.3423
 5848SOL    HW129006   1.260   1.353   0.044 -0.6308  1.9684 -0.8370
 5848SOL    HW229007   1.313   1.431  17.596  0.3970 -0.5198 -1.3440
 5849SOL     OW29008   2.122   3.214   7.233  0.1765  0.3786 -0.0825
 5849SOL    HW129009   2.083   3.180   7.152  0.6570  2.0577 -1.0045
 5849SOL    HW229010   2.045   3.246   7.279  2.7692  0.9482  3.8321
 5850SOL     OW29011   3.202   3.476   8.092  0.1431  0.0771  0.2720
 5850SOL    HW129012   3.125   3.420   8.087  0.2426  0.0642 -1.1964
 5850SOL    HW229013   3.275   3.416   8.075 -1.2246 -2.1597  2.2304
 5851SOL     OW29014   0.158   3.743   9.384  0.1838  0.0215 -0.3241
 5851SOL    HW129015   0.101   3.819   9.390  1.4606  1.0616 -1.5504
 5851SOL    HW229016   0.121   3.699   9.461 -2.1996 -0.1098 -1.5439
 5852SOL     OW29017   0.149   4.055  15.572  0.5928  0.3748  0.0835
 5852SOL    HW129018   0.100   3.986  15.617  0.6786 -0.2577 -0.7924
 5852SOL    HW229019   0.091   4.082  15.502 -0.7229 -1.8900  0.2971
 5853SOL     OW29020   3.690   4.019  11.876 -0.1264 -0.0268  0.1064
 5853SOL    HW129021   3.702   3.926  11.895  0.7250 -0.0569 -0.6372
 5853SOL    HW229022   3.643   4.029  11.794  0.9697 -0.0140 -0.5124
 5854SOL     OW29023   3.709   4.594   3.577 -0.1582 -0.0825 -0.2360
 5854SOL    HW129024   3.626   4.590   3.625 -0.2409 -1.0928 -0.4739
 5854SOL    HW229025   3.704   4.677   3.530  0.4578 -0.3161 -0.7166
 5855SOL     OW29026   1.118   0.679  15.232  0.1240  0.0455 -0.3828
 5855SOL    HW129027   1.125   0.682  15.328  1.0761  3.7161 -0.5582
 5855SOL    HW229028   1.209   0.689  15.203 -0.5377  1.1989 -2.0451
 5856SOL     OW29029   0.645   1.049  11.853 -0.4301 -0.1954 -0.3083
 5856SOL    HW129030   0.702   1.114  11.811  0.2722 -1.1751 -0.8529
 5856SOL    HW229031   0.562   1.081  11.817 -0.7582  1.1379  1.6103
 5857SOL     OW29032   2.046   1.217   7.352 -0.0852  0.2028  0.1439
 5857SOL    HW129033   2.043   1.158   7.276 -1.7522  0.7746 -0.2442
 5857SOL    HW229034   1.989   1.175   7.416  0.3256 -2.3689 -1.1725
 5858SOL     OW29035   0.292   2.046   4.391  0.3875 -0.1095 -0.1332
 5858SOL    HW129036   0.211   2.003   4.363  0.7494 -0.9588  0.1237
 5858SOL    HW229037   0.272   2.136   4.365 -0.6656 -0.0354  0.9644
 5859SOL     OW29038   0.069   0.924   2.848  0.4484  0.2747  0.0377
 5859SOL    HW129039   0.092   0.968   2.766  1.0859 -0.0524  0.0479
 5859SOL    HW229040   0.004   0.862   2.814  0.2199 -0.0676  1.1099
 5860SOL     OW29041   3.335   2.823   7.664 -0.0421  0.3121 -0.7337
 5860SOL    HW129042   3.359   2.751   7.606 -0.5218 -1.2202  0.9288
 5860SOL    HW229043   3.385   2.899   7.637 -2.0500  1.4221 -1.3501
 5861SOL     OW29044   2.135   0.247  11.327 -0.0738  0.2497 -0.3225
 5861SOL    HW129045   2.210   0.266  11.383 -0.2930  1.5535 -0.4594
 5861SOL    HW229046   2.181   0.268  11.246 -1.0375  1.6440 -0.5285
 5862SOL     OW29047   4.109   3.155   4.771 -0.1908  0.3957  0.3143
 5862SOL    HW129048   4.078   3.241   4.744 -0.0510 -0.1492 -1.5959
 5862SOL    HW229049   4.199   3.161   4.740 -0.4218  0.8048 -0.2801
 5863SOL     OW29050   2.935   2.293   0.630 -0.8340 -0.0037 -0.6117
 5863SOL    HW129051   2.929   2.364   0.567  0.8016  1.1453  0.5202
 5863SOL    HW229052   2.851   2.248   0.620 -1.0203 -0.2166  1.8574
 5864SOL     OW29053   1.084   3.478   7.250 -0.3273  0.6294 -0.0313
 5864SOL    HW129054   1.144   3.541   7.288 -1.5521  0.8385  1.5514
 5864SOL    HW229055   1.117   3.468   7.161 -0.6073 -0.5057 -0.0121
 5865SOL     OW29056   2.925   4.601  16.955  0.6898  0.1581  0.4315
 5865SOL    HW129057   2.985   4.552  16.899 -1.8550 -1.0359 -1.2493
 5865SOL    HW229058   2.886   4.527  17.002 -2.3452  2.0353  0.8220
 5866SOL     OW29059   3.277   4.398   6.376  0.0995 -1.0513 -0.3538
 5866SOL    HW129060   3.329   4.450   6.314  0.4707 -1.1087 -0.0902
 5866SOL    HW229061   3.194   4.389   6.329 -1.8607 -0.7394  3.0584
 5867SOL     OW29062   1.001   0.181   1.013  0.2256 -0.4918  0.6431
 5867SOL    HW129063   0.913   0.205   1.039  0.1642 -2.1216  1.9210
 5867SOL    HW229064   1.060   0.232   1.069  0.3988 -1.9510  1.7621
 5868SOL     OW29065   4.563   2.773   7.923 -0.1089  0.0130 -0.2788
 5868SOL    HW129066   4.485   2.727   7.955  0.4371  1.3033  2.9206
 5868SOL    HW229067   4.530   2.863   7.930 -0.5539 -0.3375  2.2852
 5869SOL     OW29068   2.819   4.317  15.375 -0.5332 -0.2452 -0.2626
 5869SOL    HW129069   2.774   4.390  15.331  1.5545  1.3929  0.2903
 5869SOL    HW229070   2.837   4.252  15.308 -2.1288 -0.8793 -0.0843
 5870SOL     OW29071   4.056   1.849   3.031  0.1576  0.4061 -0.2723
 5870SOL    HW129072   3.994   1.802   2.975 -0.6933  0.0028  1.0041
 5870SOL    HW229073   4.131   1.865   2.973  0.3275  0.2717 -0.0923
 5871SOL     OW29074   1.897   0.668  12.529  0.5323  0.3525 -0.1325
 5871SOL    HW129075   1.816   0.686  12.481 -0.1673  0.9013  1.2639
 5871SOL    HW229076   1.898   0.572  12.528 -1.2598  0.3244 -0.4557
 5872SOL     OW29077   1.257   2.731   7.739  0.2722  0.0241 -0.4465
 5872SOL    HW129078   1.163   2.724   7.719 -0.5346  1.2429  2.9205
 5872SOL    HW229079   1.287   2.651   7.695 -2.2907 -1.0167 -0.3188
 5873SOL     OW29080   1.773   3.637   8.036  0.2418  0.3494 -0.2701
 5873SOL    HW129081   1.770   3.634   8.132  0.3574 -0.3242 -0.2901
 5873SOL    HW229082   1.868   3.631   8.029  0.2002 -0.3881 -0.1931
 5874SOL     OW29083   1.438   0.149   9.896 -0.0091 -0.1065  0.4985
 5874SOL    HW129084   1.401   0.061   9.883  1.0090 -0.3348 -0.8729
 5874SOL    HW229085   1.530   0.137   9.916  0.6880 -0.7374 -2.9744
 5875SOL     OW29086   1.737   0.728   1.448 -0.0104  0.0656  0.1013
 5875SOL    HW129087   1.742   0.717   1.543 -2.7126  4.4247  0.7522
 5875SOL    HW229088   1.702   0.817   1.444 -1.3666 -0.4747  0.0163
 5876SOL     OW29089   1.984   4.392   3.971  0.0253 -0.1614  0.5132
 5876SOL    HW129090   2.033   4.457   3.920 -0.6454 -1.9605 -2.4055
 5876SOL    HW229091   1.983   4.321   3.907 -1.7957 -0.0335  0.3792
 5877SOL     OW29092   1.375   2.209   3.051  0.1490  0.4787 -0.3298
 5877SOL    HW129093   1.326   2.152   2.992  1.7326  1.0308 -2.2013
 5877SOL    HW229094   1.345   2.187   3.139  0.8856 -2.5238 -0.7998
 5878SOL     OW29095   2.559   2.979   6.743  0.0656  0.1173 -0.1236
 5878SOL    HW129096   2.481   2.970   6.798  1.0161  1.5335  1.4344
 5878SOL    HW229097   2.627   2.993   6.809 -0.1563  1.0266 -0.0978
 5879SOL     OW29098   0.630   3.547   5.143  0.0864  0.1835  0.0423
 5879SOL    HW129099   0.699   3.481   5.145 -0.2498 -0.1890 -0.6381
 5879SOL    HW229100   0.568   3.511   5.079  1.0796 -1.1093 -0.1977
 5880SOL     OW29101   3.985   0.885   8.200  0.8979 -0.0852  0.5360
 5880SOL    HW129102   4.011   0.974   8.179  0.2214  0.2814  1.2453
 5880SOL    HW229103   3.951   0.885   8.290 -0.5604 -2.3817  0.0170
 5881SOL     OW29104   0.689   2.802   6.322  0.0729  0.2678  0.9644
 5881SOL    HW129105   0.626   2.733   6.341  0.7085 -0.6586 -0.2934
 5881SOL    HW229106   0.638   2.841   6.251 -0.9419 -0.3902  1.3367
 5882SOL     OW29107   2.883   4.110  15.135  0.3458 -0.2357 -0.2179
 5882SOL    HW129108   2.952   4.048  15.112  0.4637 -0.7994  1.6609
 5882SOL    HW229109   2.912   4.184  15.081 -0.6082  1.2999  1.3665
 5883SOL     OW29110   2.565   4.472  12.375  0.2827 -0.3613 -0.4688
 5883SOL    HW129111   2.531   4.405  12.435  1.0842 -0.7727 -0.4875
 5883SOL    HW229112   2.508   4.456  12.300 -1.0288 -0.4087  0.5229
 5884SOL     OW29113   1.943   1.139   3.024  0.1438  0.3165  0.2593
 5884SOL    HW129114   2.027   1.094   3.029 -0.3452 -0.7463 -1.1325
 5884SOL    HW229115   1.918   1.135   3.116 -0.7167 -1.3084 -0.0530
 5885SOL     OW29116   0.832   1.609   9.816 -0.3824  0.5760 -0.2957
 5885SOL    HW129117   0.745   1.647   9.802 -0.2586  1.1576  0.5060
 5885SOL    HW229118   0.874   1.661   9.885 -2.4562 -0.5112  1.7953
 5886SOL     OW29119   4.626   3.524   3.273  0.4040 -0.1868 -0.4254
 5886SOL    HW129120   4.683   3.592   3.310  2.5746 -0.7093 -2.8510
 5886SOL    HW229121   4.551   3.583   3.266  1.1451  0.8423  0.2953
 5887SOL     OW29122   3.261   1.206   4.525  0.4128 -0.3710 -0.0979
 5887SOL    HW129123   3.202   1.176   4.456 -1.4171  2.7803  0.1228
 5887SOL    HW229124   3.329   1.254   4.478 -0.1095 -0.7624 -1.2512
 5888SOL     OW29125   3.214   4.133  15.152  0.1330 -0.0829  0.0417
 5888SOL    HW129126   3.226   4.074  15.227  0.2009 -0.3868 -0.2063
 5888SOL    HW229127   3.303   4.120  15.119  0.2382 -1.9177  1.0267
 5889SOL     OW29128   4.473   3.359   6.828 -0.1123 -0.5828 -0.4402
 5889SOL    HW129129   4.381   3.370   6.802 -0.3995  1.2708  1.3434
 5889SOL    HW229130   4.491   3.450   6.852 -1.1188 -0.6458  0.5477
 5890SOL     OW29131   3.154   0.413   8.742 -0.3622  0.8473 -0.0712
 5890SOL    HW129132   3.239   0.458   8.741  0.2130 -0.2295  2.2238
 5890SOL    HW229133   3.102   0.459   8.676 -1.8542  0.4848  0.8767
 5891SOL     OW29134   1.440   1.457   0.624  0.2565  0.4996  0.4017
 5891SOL    HW129135   1.377   1.416   0.566  1.2880  0.3862 -0.6448
 5891SOL    HW229136   1.480   1.378   0.660 -1.0352 -0.1499  0.3961
 5892SOL     OW29137   3.459   0.172   8.151  0.3007 -0.2772 -0.2101
 5892SOL    HW129138   3.422   0.260   8.151 -0.4110 -0.5948 -3.9728
 5892SOL    HW229139   3.405   0.128   8.217  3.4633 -2.0618  1.2036
 5893SOL     OW29140   0.385   0.498   1.471  0.2801  0.4488  0.0530
 5893SOL    HW129141   0.402   0.562   1.402  0.9941  1.1658  0.8926
 5893SOL    HW229142   0.295   0.518   1.494  1.0949  1.3848  2.3673
 5894SOL     OW29143   2.533   0.655   4.200 -0.1883 -0.1439  0.1193
 5894SOL    HW129144   2.554   0.734   4.250  1.6268 -1.6073  1.6488
 5894SOL    HW229145   2.583   0.674   4.120 -0.4842 -1.8836 -0.4645
 5895SOL     OW29146   2.346   1.445   2.452  0.6927 -0.4752 -0.1707
 5895SOL    HW129147   2.266   1.460   2.503 -0.1514 -0.1681 -1.5780
 5895SOL    HW229148   2.380   1.535   2.453 -0.9500  0.1437 -0.5290
 5896SOL     OW29149   2.150   0.200   3.630  0.2804  0.2239  0.4244
 5896SOL    HW129150   2.126   0.206   3.722 -0.3432 -0.1770  0.2870
 5896SOL    HW229151   2.068   0.194   3.582  0.3451 -0.8839  0.4439
 5897SOL     OW29152   3.485   0.391   2.812  0.1712  0.2103  0.1239
 5897SOL    HW129153   3.483   0.363   2.904 -0.9455 -0.4866 -0.1166
 5897SOL    HW229154   3.449   0.321   2.759 -0.1164  0.2100  0.3188
 5898SOL     OW29155   1.230   3.321   5.914 -0.1468  0.1348 -0.1196
 5898SOL    HW129156   1.294   3.281   5.972  0.4176 -0.8588 -1.4166
 5898SOL    HW229157   1.196   3.249   5.860  0.1598  0.8001 -1.2093
 5899SOL     OW29158   4.240   3.647   1.670 -0.0355 -0.1326 -0.2800
 5899SOL    HW129159   4.331   3.657   1.698  0.4908 -2.1553 -1.2211
 5899SOL    HW229160   4.187   3.692   1.735  0.5840 -1.6672  1.2816
 5900SOL     OW29161   1.515   3.666  11.322  0.1829 -0.4011  0.0662
 5900SOL    HW129162   1.446   3.603  11.346 -0.7497 -0.2140 -2.1383
 5900SOL    HW229163   1.525   3.649  11.228  1.0913  3.3138 -0.4772
 5901SOL     OW29164   1.096   2.027  12.802 -0.3113  0.4429 -0.4152
 5901SOL    HW129165   1.046   2.109  12.804  2.8647  2.4329 -2.2665
 5901SOL    HW229166   1.045   1.965  12.751 -0.4075  1.6453 -1.7760
 5902SOL     OW29167   2.582   4.151   3.273  1.0515  0.1165 -0.2156
 5902SOL    HW129168   2.639   4.199   3.213  0.2109  0.7457 -0.5201
 5902SOL    HW229169   2.497   4.176   3.238  1.1625  3.6931  2.0151
 5903SOL     OW29170   0.062   3.973   6.501 -0.2439 -0.4646  0.7477
 5903SOL    HW129171   0.083   3.908   6.568 -0.3396 -1.0491  0.2079
 5903SOL    HW229172   0.150   4.008   6.486 -0.5304  0.4442  1.1905
 5904SOL     OW29173   4.442   3.063   3.447 -0.3130 -0.1984  0.3180
 5904SOL    HW129174   4.484   3.019   3.373  1.5558  0.9948  0.6642
 5904SOL    HW229175   4.442   3.155   3.422  1.2245 -0.2292  0.2184
 5905SOL     OW29176   3.324   0.890   7.385  0.1977  0.4537  0.5842
 5905SOL    HW129177   3.234   0.885   7.418  0.2221 -2.5782  0.2575
 5905SOL    HW229178   3.351   0.981   7.383  1.2697  0.0795 -2.6798
 5906SOL     OW29179   3.755   3.805   2.411  0.1187 -0.5332 -0.3094
 5906SOL    HW129180   3.824   3.865   2.384  0.1225 -0.6750 -0.6142
 5906SOL    HW229181   3.700   3.874   2.450  0.7846  0.0569 -0.4179
 5907SOL     OW29182   4.572   3.155   2.353 -0.1427 -0.2278  0.5513
 5907SOL    HW129183   4.536   3.140   2.441 -0.6337  1.8218  0.7149
 5907SOL    HW229184   4.498   3.188   2.302 -0.6258 -2.6080 -0.2892
 5908SOL     OW29185   1.631   3.585  14.988  0.1104  0.2674 -0.4088
 5908SOL    HW129186   1.555   3.539  14.953  1.5688 -1.4128 -1.3914
 5908SOL    HW229187   1.702   3.534  14.948 -0.2917 -1.2781  0.8678
 5909SOL     OW29188   3.262   3.416   0.560 -0.2432 -0.4144 -0.6013
 5909SOL    HW129189   3.182   3.396   0.511 -0.8790 -0.5511  0.4878
 5909SOL    HW229190   3.256   3.510   0.578  1.9398 -0.6225  1.2382
 5910SOL     OW29191   2.691   0.012   2.289 -0.0072 -0.1099  0.8779
 5910SOL    HW129192   2.756   0.083   2.288 -1.7925  1.5497  1.0954
 5910SOL    HW229193   2.644   0.022   2.206 -1.4759  0.2128  1.7364
 5911SOL     OW29194   1.757   3.535   9.942  0.0405 -0.1164 -0.2063
 5911SOL    HW129195   1.751   3.447   9.980  0.8888  0.2921  0.9063
 5911SOL    HW229196   1.664   3.556   9.936  0.6567  2.4877 -0.6520
 5912SOL     OW29197   0.255   3.424  12.573 -0.1726 -0.0505  0.0657
 5912SOL    HW129198   0.330   3.403  12.518 -0.4899 -1.3046  0.1027
 5912SOL    HW229199   0.241   3.345  12.626 -2.2851  1.0179  1.0880
 5913SOL     OW29200   2.323   3.085   7.801 -0.2475  0.2636 -0.0492
 5913SOL    HW129201   2.409   3.124   7.813 -0.2410  0.1025  0.4195
 5913SOL    HW229202   2.274   3.129   7.870  2.0691 -0.3737  1.9969
 5914SOL     OW29203   4.365   3.939  11.712  0.1532  0.2253 -0.6879
 5914SOL    HW129204   4.442   3.991  11.734  1.7840 -3.0021  1.3246
 5914SOL    HW229205   4.407   3.857  11.687 -0.9160 -0.3584 -0.5790
 5915SOL     OW29206   2.746   1.380   6.602 -0.3604 -0.1572 -0.1415
 5915SOL    HW129207   2.652   1.384   6.622 -0.3166 -0.3278  0.1064
 5915SOL    HW229208   2.744   1.463   6.555  2.9360  0.2839  0.5249
 5916SOL     OW29209   0.300   4.316   3.213  0.0266 -0.2571  0.5778
 5916SOL    HW129210   0.210   4.284   3.212  0.2462 -0.9108  1.6468
 5916SOL    HW229211   0.319   4.349   3.301  2.1772  0.3632 -0.1120
 5917SOL     OW29212   4.376   3.774   8.326 -0.5149 -0.6307 -0.0692
 5917SOL    HW129213   4.438   3.812   8.264 -1.1260  0.9800  0.3235
 5917SOL    HW229214   4.435   3.706   8.360 -0.3614  0.6393  2.2351
 5918SOL     OW29215   1.408   0.658  16.426 -0.3763  0.3438 -0.1446
 5918SOL    HW129216   1.414   0.753  16.436 -1.4407  0.3540  0.4304
 5918SOL    HW229217   1.484   0.623  16.473  0.4017  2.3327  0.0906
 5919SOL     OW29218   4.547   4.171   2.643  0.7317 -0.2722 -0.2380
 5919SOL    HW129219   4.575   4.107   2.578  0.7133 -0.6385  0.1158
 5919SOL    HW229220   4.581   4.140   2.726 -0.0733 -1.3803 -0.3227
 5920SOL     OW29221   0.155   0.694   5.625  0.1438  0.1993 -0.0884
 5920SOL    HW129222   0.170   0.777   5.579 -2.9161 -0.6007 -2.5410
 5920SOL    HW229223   0.094   0.717   5.695 -0.8918 -0.6338 -0.7112
 5921SOL     OW29224   2.830   2.619  12.245 -0.3754 -0.4378 -0.7414
 5921SOL    HW129225   2.855   2.639  12.155 -0.1594 -2.4752 -1.1322
 5921SOL    HW229226   2.803   2.529  12.225  0.7763 -0.4336 -2.3324
 5922SOL     OW29227   2.257   0.817  10.071 -0.1802 -0.0378  0.3244
 5922SOL    HW129228   2.203   0.896  10.059  1.3775  1.0711  0.5320
 5922SOL    HW229229   2.249   0.790  10.162  2.3204  1.7305  1.0775
 5923SOL     OW29230   3.346   4.049   1.013  0.2686 -0.4387 -0.4084
 5923SOL    HW129231   3.343   3.992   1.089 -2.8827  0.6419  0.2832
 5923SOL    HW229232   3.270   4.104   1.032  2.0939  2.5041 -1.5125
 5924SOL     OW29233   4.091   4.214   7.384 -0.5230 -0.4914  0.0406
 5924SOL    HW129234   4.178   4.186   7.412  0.1167 -0.0314 -1.4555
 5924SOL    HW229235   4.029   4.185   7.451 -0.7430  0.0179  0.0509
 5925SOL     OW29236   0.018   3.743   1.902  0.3808 -0.1904  0.3788
 5925SOL    HW129237   0.002   3.766   1.811 -3.3391 -0.8127  0.8801
 5925SOL    HW229238   4.705   3.653   1.897  4.8311 -1.6723 -0.3945
 5926SOL     OW29239   1.690   0.935   4.089  0.5195  0.2236 -0.3972
 5926SOL    HW129240   1.705   1.030   4.089 -0.1199  0.3316  2.1218
 5926SOL    HW229241   1.775   0.896   4.068  1.6421  1.1713  2.3458
 5927SOL     OW29242   0.495   2.455   8.002  0.0916 -0.9417 -0.3857
 5927SOL    HW129243   0.538   2.515   8.063 -0.4417 -1.4572  0.4984
 5927SOL    HW229244   0.410   2.457   8.044  0.4155  1.1308  0.1546
 5928SOL     OW29245   3.048   2.850   9.099  0.3990 -0.1874  0.4166
 5928SOL    HW129246   3.045   2.939   9.065 -0.3051 -0.1475  0.5780
 5928SOL    HW229247   3.108   2.847   9.173 -0.9969 -2.0584  1.4758
 5929SOL     OW29248   2.190   0.589  12.323 -0.2127  0.6831  0.6982
 5929SOL    HW129249   2.244   0.529  12.374  0.7418 -1.1232 -2.4177
 5929SOL    HW229250   2.179   0.659  12.387  1.3457  1.9619 -0.4147
 5930SOL     OW29251   1.887   2.253  17.014 -0.3123 -0.0312  0.4475
 5930SOL    HW129252   1.808   2.275  17.063 -0.0231  0.6559  0.6027
 5930SOL    HW229253   1.842   2.250  16.930 -1.0543 -0.8445  0.8688
 5931SOL     OW29254   1.330   4.060   5.512 -0.2908 -0.4450  0.0651
 5931SOL    HW129255   1.293   4.142   5.479  1.0278 -0.2000 -0.8027
 5931SOL    HW229256   1.314   4.080   5.605 -0.6432  0.3918 -0.1753
 5932SOL     OW29257   4.361   1.300   7.698 -0.3905 -0.3342 -0.2788
 5932SOL    HW129258   4.428   1.254   7.748 -0.1585 -1.0654 -1.2396
 5932SOL    HW229259   4.357   1.245   7.619  1.6864 -1.8233  0.6616
 5933SOL     OW29260   3.259   2.604   3.733  0.1980  0.0240 -0.3170
 5933SOL    HW129261   3.352   2.603   3.757  0.1027  0.7120  0.0672
 5933SOL    HW229262   3.272   2.656   3.654 -0.2301 -0.7719 -0.9131
 5934SOL     OW29263   4.109   3.349   8.942 -0.0779  0.0799 -0.4756
 5934SOL    HW129264   4.193   3.390   8.925  0.0961  1.4556  3.6004
 5934SOL    HW229265   4.059   3.371   8.864 -2.5098 -0.3903  0.9436
 5935SOL     OW29266   1.683   2.662   4.414 -0.2665 -0.6867  0.6173
 5935SOL    HW129267   1.736   2.615   4.350  1.1003  0.6756  0.7559
 5935SOL    HW229268   1.666   2.593   4.479  0.1503  0.0225  1.4844
 5936SOL     OW29269   2.528   1.180   4.016 -0.6286  0.3969 -0.0056
 5936SOL    HW129270   2.511   1.195   3.923 -1.4593  3.0261  0.5640
 5936SOL    HW229271   2.589   1.107   4.007 -0.3422  0.5470  0.7620
 5937SOL     OW29272   0.837   4.597   3.379 -0.1341 -0.2292  0.4471
 5937SOL    HW129273   0.910   4.547   3.415  1.4422  0.2321 -2.0796
 5937SOL    HW229274   0.782   4.524   3.350  0.6361  0.4311 -2.6727
 5938SOL     OW29275   0.300   4.400   7.047  0.3764  0.1233  0.0044
 5938SOL    HW129276   0.338   4.318   7.017  3.0796  0.6471  2.0024
 5938SOL    HW229277   0.326   4.459   6.977  1.2849 -2.1764 -1.5726
 5939SOL     OW29278   1.119   1.874   6.335 -0.3596 -0.9276  0.0865
 5939SOL    HW129279   1.182   1.834   6.394 -0.3011 -1.8242 -0.5900
 5939SOL    HW229280   1.138   1.838   6.249 -1.4039  1.0700 -0.9855
 5940SOL     OW29281   0.395   4.169   2.508 -0.0811  0.0781  0.0417
 5940SOL    HW129282   0.461   4.162   2.578  0.8896  2.0611 -0.6550
 5940SOL    HW229283   0.313   4.155   2.557 -0.5756 -1.0701 -1.1323
 5941SOL     OW29284   3.285   3.659   6.338 -0.2455 -0.2485 -0.7085
 5941SOL    HW129285   3.211   3.626   6.388  0.2629 -1.0272 -0.4604
 5941SOL    HW229286   3.349   3.592   6.361  1.1872  1.3144 -0.1287
 5942SOL     OW29287   2.765   2.841   2.061 -0.8512 -0.2698 -0.5596
 5942SOL    HW129288   2.720   2.757   2.050 -0.2610 -0.6043 -0.4218
 5942SOL    HW229289   2.772   2.855   1.966  0.4216 -2.0909 -0.7310
 5943SOL     OW29290   1.051   2.793  14.007  0.3294  0.1700 -0.4776
 5943SOL    HW129291   1.091   2.717  13.964  0.6568 -0.1084  0.3034
 5943SOL    HW229292   1.124   2.855  14.018  0.5018 -0.4347  1.7578
 5944SOL     OW29293   3.155   2.714  16.372 -0.1645  0.3913 -0.1811
 5944SOL    HW129294   3.227   2.776  16.376 -1.3436  1.6801  1.1503
 5944SOL    HW229295   3.113   2.749  16.293 -1.1614 -0.9256 -0.2344
 5945SOL     OW29296   4.514   0.370  16.517  0.4085  0.4720 -0.1309
 5945SOL    HW129297   4.421   0.377  16.499  0.0925 -0.1637  1.2247
 5945SOL    HW229298   4.554   0.360  16.431 -0.5368 -2.3700 -0.2224
 5946SOL     OW29299   2.061   1.677   7.689 -0.1559 -0.1560 -0.0106
 5946SOL    HW129300   2.059   1.676   7.594 -0.1355  1.3585 -0.0268
 5946SOL    HW229301   2.130   1.742   7.705 -0.7714  0.4277  0.2771
 5947SOL     OW29302   0.878   2.742  13.785  0.0746 -0.1809 -0.2174
 5947SOL    HW129303   0.830   2.824  13.772 -1.0233 -0.9162 -0.8287
 5947SOL    HW229304   0.960   2.780  13.814 -0.5623  0.8381  0.2390
 5948SOL     OW29305   3.142   4.019  17.023  0.3957  0.2328 -0.0381
 5948SOL    HW129306   3.149   3.924  17.009  1.8834  0.5551 -1.3961
 5948SOL    HW229307   3.062   4.045  16.979  1.1331  3.1054  0.3464
 5949SOL     OW29308   4.092   3.989   8.603 -0.3523 -0.0667  0.4315
 5949SOL    HW129309   4.129   4.031   8.526 -0.2423 -1.7709 -0.4356
 5949SOL    HW229310   4.006   4.031   8.607  0.2841  1.0062  3.1197
 5950SOL     OW29311   4.023   1.365  12.025  0.0305 -0.0806  0.0624
 5950SOL    HW129312   4.016   1.298  12.092 -1.8864  0.7679  0.7242
 5950SOL    HW229313   4.117   1.361  12.007 -0.0943 -0.9662 -0.3564
 5951SOL     OW29314   3.584   3.858   8.327  0.7501  0.2559  0.6159
 5951SOL    HW129315   3.607   3.943   8.364  1.5004  0.0165  0.7059
 5951SOL    HW229316   3.552   3.885   8.241  0.3404 -0.5398  0.5214
 5952SOL     OW29317   2.733   4.714   2.553  0.4694  0.2911 -0.1095
 5952SOL    HW129318   2.753   4.625   2.524 -2.3178 -0.4891  0.3060
 5952SOL    HW229319   2.694   0.017   2.468  1.2347  0.2891 -0.4576
 5953SOL     OW29320   3.727   0.253   0.836  0.3168  0.5610  0.1762
 5953SOL    HW129321   3.760   0.261   0.925 -0.2013  0.1747  0.4071
 5953SOL    HW229322   3.808   0.281   0.794  0.9205  3.1022  3.0549
 5954SOL     OW29323   0.820   1.441   3.773  0.0424 -0.4696  0.1452
 5954SOL    HW129324   0.873   1.499   3.827 -0.9036 -0.1073  0.6821
 5954SOL    HW229325   0.729   1.454   3.801 -0.5967 -0.3294 -1.9429
 5955SOL     OW29326   2.167   1.285   4.275  0.4891 -0.0916 -0.0669
 5955SOL    HW129327   2.213   1.312   4.355  0.1288  4.1236 -1.3018
 5955SOL    HW229328   2.175   1.190   4.288 -1.6483 -0.2289  0.2559
 5956SOL     OW29329   3.113   3.683   4.528  0.0976 -0.3248  0.5120
 5956SOL    HW129330   3.033   3.639   4.556 -1.2359  1.7541  0.0033
 5956SOL    HW229331   3.168   3.652   4.599  2.9261 -0.5825 -1.8000
 5957SOL     OW29332   2.713   3.729   8.452  0.4696 -0.6767  0.2323
 5957SOL    HW129333   2.642   3.665   8.457  0.7445 -0.9761  0.3472
 5957SOL    HW229334   2.691   3.791   8.521  1.3325 -0.5251  0.3678
 5958SOL     OW29335   1.004   4.705  17.647 -0.1505  0.9624 -0.1284
 5958SOL    HW129336   0.997   4.651   0.052 -1.8497  0.0060 -0.9220
 5958SOL    HW229337   0.912   4.708  17.623 -0.4851 -1.7463  0.7510
 5959SOL     OW29338   0.446   2.453   3.090  0.4941 -0.4488 -0.1088
 5959SOL    HW129339   0.472   2.376   3.141 -1.9838  0.4918  2.6242
 5959SOL    HW229340   0.521   2.513   3.089  1.3124 -1.4252  2.1803
 5960SOL     OW29341   2.879   4.071   2.750  0.1903 -0.2799  0.1320
 5960SOL    HW129342   2.890   3.976   2.757 -0.9774 -0.3847  0.4740
 5960SOL    HW229343   2.885   4.096   2.842  0.6482  0.3943 -0.0792
 5961SOL     OW29344   1.028   2.622   9.657  0.3407  0.0827  0.6668
 5961SOL    HW129345   1.121   2.603   9.660  0.4386  0.2810 -1.5114
 5961SOL    HW229346   1.012   2.648   9.748 -0.6540  0.3988  0.4039
 5962SOL     OW29347   0.702   2.367   4.921 -0.3291 -0.4822  0.7126
 5962SOL    HW129348   0.765   2.438   4.923 -0.9384  0.1411 -3.3985
 5962SOL    HW229349   0.741   2.306   4.858 -1.6478 -0.1662 -0.4114
 5963SOL     OW29350   0.387   2.419   2.381  0.2526  0.4317 -0.2696
 5963SOL    HW129351   0.339   2.451   2.305 -0.2052 -0.1985 -0.2440
 5963SOL    HW229352   0.444   2.357   2.335 -0.5598 -1.2886  1.0348
 5964SOL     OW29353   2.613   2.746  17.563 -0.0321  0.2473 -0.2370
 5964SOL    HW129354   2.632   2.733  17.470  1.2437 -3.3655  0.5327
 5964SOL    HW229355   2.617   2.842  17.564 -1.3793  0.2744  2.7133
 5965SOL     OW29356   3.395   4.703   4.523 -0.2055 -0.0522  0.1422
 5965SOL    HW129357   3.428   0.067   4.486 -1.1048  0.3596  0.2445
 5965SOL    HW229358   3.325   0.018   4.580  0.6957 -0.4477  1.4833
 5966SOL     OW29359   2.222   1.470   4.699 -0.1985 -0.5028  0.4805
 5966SOL    HW129360   2.190   1.559   4.684  3.3557  0.6939  0.2163
 5966SOL    HW229361   2.136   1.429   4.715  0.7211 -2.4154  0.5583
 5967SOL     OW29362   4.500   3.673   2.899  0.6030  0.3305 -0.0704
 5967SOL    HW129363   4.567   3.620   2.944 -0.6744 -0.3212  1.0499
 5967SOL    HW229364   4.478   3.614   2.828  0.4896  0.1258  0.1331
 5968SOL     OW29365   0.675   0.115   4.018  0.4288 -0.3195  0.1510
 5968SOL    HW129366   0.744   0.054   3.992 -0.7331 -1.4355 -0.3024
 5968SOL    HW229367   0.716   0.143   4.100 -1.7597 -1.2907  1.5478
 5969SOL     OW29368   2.255   0.138   1.274  0.4448  0.0869 -0.5317
 5969SOL    HW129369   2.291   0.142   1.362  1.9234 -0.5365 -1.1123
 5969SOL    HW229370   2.213   0.224   1.274  0.2718 -0.0022  0.8006
 5970SOL     OW29371   4.199   4.576   5.144 -0.2347 -0.0780 -0.4013
 5970SOL    HW129372   4.115   4.564   5.188  0.0738  2.0330  0.8057
 5970SOL    HW229373   4.265   4.512   5.169 -0.3607  0.0549  0.2569
 5971SOL     OW29374   0.908   1.648   5.352  0.5883 -0.2085  0.2697
 5971SOL    HW129375   0.816   1.671   5.359  0.9253  1.4378 -0.7362
 5971SOL    HW229376   0.951   1.727   5.321 -1.2668  1.5635  2.2553
 5972SOL     OW29377   1.924   3.605  14.382  0.3545 -0.2723  0.0476
 5972SOL    HW129378   1.850   3.665  14.390  1.7021  1.6313 -1.6072
 5972SOL    HW229379   1.988   3.656  14.432  2.0102 -2.2477 -0.0567
 5973SOL     OW29380   1.537   1.166  12.279  0.1914 -0.6101  0.2290
 5973SOL    HW129381   1.573   1.084  12.244  1.0147 -0.3759  0.5238
 5973SOL    HW229382   1.499   1.144  12.364  0.5101  0.7217  0.7266
 5974SOL     OW29383   2.717   2.072  12.764 -0.2651 -0.0303 -0.0126
 5974SOL    HW129384   2.679   2.160  12.761  2.6822  1.2372 -0.2122
 5974SOL    HW229385   2.668   2.032  12.836 -1.5208  0.9428 -0.3279
 5975SOL     OW29386   3.289   0.333   0.080  0.0885 -0.1948 -0.5919
 5975SOL    HW129387   3.339   0.392   0.137 -3.7465  1.2790  1.2461
 5975SOL    HW229388   3.241   0.395   0.026  0.3886  0.2167 -0.3888
 5976SOL     OW29389   2.193   3.646   7.224  0.1124 -0.0052  0.5806
 5976SOL    HW129390   2.102   3.615   7.227  0.6810 -1.4239  2.9324
 5976SOL    HW229391   2.174   3.723   7.170 -1.7892 -0.7813  0.1430
 5977SOL     OW29392   1.764   2.605   9.030  0.1922  0.5782 -0.5249
 5977SOL    HW129393   1.778   2.517   8.997 -1.7654  0.8225 -2.0937
 5977SOL    HW229394   1.831   2.650   8.978  1.9231 -0.0782  1.1555
 5978SOL     OW29395   1.187   3.889   1.592  0.4149 -0.5730  0.1103
 5978SOL    HW129396   1.279   3.913   1.607  0.2702 -0.2922  0.5507
 5978SOL    HW229397   1.157   3.861   1.678  1.4373 -2.5895 -0.1918
 5979SOL     OW29398   2.099   4.674   4.970 -0.1415 -0.5981 -0.6768
 5979SOL    HW129399   2.132   4.610   4.908  3.0701  1.4595 -1.1041
 5979SOL    HW229400   2.171   4.695   5.029 -1.0356  2.0846 -0.5333
 5980SOL     OW29401   0.419   3.745  10.454 -0.1805 -0.8115 -0.1749
 5980SOL    HW129402   0.454   3.690  10.384  2.1330  1.5966 -0.9248
 5980SOL    HW229403   0.327   3.748  10.427 -0.3015  0.1514  0.3198
 5981SOL     OW29404   3.118   3.473   2.630 -0.2148  0.6300 -0.5237
 5981SOL    HW129405   3.087   3.384   2.648 -1.3061  1.2151  0.4815
 5981SOL    HW229406   3.182   3.479   2.700  0.4576 -3.2234 -0.8218
 5982SOL     OW29407   0.702   4.051   4.899 -0.4532 -0.0188  0.1731
 5982SOL    HW129408   0.774   3.991   4.876 -0.7318 -0.5721  0.7531
 5982SOL    HW229409   0.627   4.015   4.851 -0.6152 -0.4772  0.7659
 5983SOL     OW29410   2.920   3.300   0.726  0.0065 -0.5490 -0.0764
 5983SOL    HW129411   2.877   3.381   0.755  0.2508 -0.7405  0.8107
 5983SOL    HW229412   2.913   3.309   0.631  0.6373 -0.9327 -0.1567
 5984SOL     OW29413   2.464   2.459  14.341  0.2420  0.3097 -0.5618
 5984SOL    HW129414   2.460   2.506  14.257 -0.1648 -0.1545 -0.8009
 5984SOL    HW229415   2.513   2.381  14.314  2.1391 -0.2003  4.4523
 5985SOL     OW29416   2.254   4.364  10.521  0.4109  0.2194  0.0874
 5985SOL    HW129417   2.257   4.273  10.551 -2.5823  0.3590  0.8310
 5985SOL    HW229418   2.343   4.399  10.528  1.9120 -4.5107  4.3404
 5986SOL     OW29419   1.058   3.841   3.310 -0.3144 -0.0455 -0.0635
 5986SOL    HW129420   0.971   3.833   3.348  1.2515 -0.0254  3.4753
 5986SOL    HW229421   1.045   3.800   3.224 -0.4710 -1.4008  0.6063
 5987SOL     OW29422   1.403   2.955   3.149 -0.1381  0.4286  0.2186
 5987SOL    HW129423   1.390   3.017   3.221  0.2922 -0.2191  0.8623
 5987SOL    HW229424   1.496   2.963   3.129 -0.6861 -2.0754 -3.2706
 5988SOL     OW29425   1.910   2.008   9.124 -0.6104 -1.0009  0.0117
 5988SOL    HW129426   1.959   2.039   9.201 -2.2695 -1.1012  1.0930
 5988SOL    HW229427   1.819   2.004   9.154 -0.3844 -2.2354  0.5096
 5989SOL     OW29428   0.774   1.810   2.467 -0.1978 -0.1581 -0.7260
 5989SOL    HW129429   0.764   1.879   2.532  0.3902 -1.7410  1.0611
 5989SOL    HW229430   0.847   1.761   2.504 -0.4764 -0.3131 -0.3856
 5990SOL     OW29431   0.706   0.520   1.307 -0.6405 -0.1569 -0.2619
 5990SOL    HW129432   0.640   0.588   1.314 -1.6460 -1.0478 -1.0402
 5990SOL    HW229433   0.659   0.439   1.329 -1.2209 -0.3108 -2.0258
 5991SOL     OW29434   2.932   2.201   3.903  0.1592  0.0636 -0.5245
 5991SOL    HW129435   3.000   2.264   3.928  1.0620 -0.9736 -0.3688
 5991SOL    HW229436   2.853   2.254   3.907  1.3579  1.8279 -0.2258
 5992SOL     OW29437   2.457   0.714   3.183 -0.3309  0.1929  0.4761
 5992SOL    HW129438   2.388   0.730   3.248 -1.0910  3.2780 -1.0456
 5992SOL    HW229439   2.426   0.646   3.123  0.9173  0.9666 -1.0451
 5993SOL     OW29440   2.495   0.764   0.528 -0.0047  0.2500 -0.3714
 5993SOL    HW129441   2.551   0.841   0.515  0.6978 -0.3612 -0.9507
 5993SOL    HW229442   2.542   0.695   0.481  0.8505 -0.0116  0.8890
 5994SOL     OW29443   4.491   2.048   6.254  0.0021  0.5726 -0.2731
 5994SOL    HW129444   4.584   2.034   6.240 -0.6413 -3.2997 -0.6287
 5994SOL    HW229445   4.476   2.131   6.209 -1.0649 -0.4075 -1.7274
 5995SOL     OW29446   4.609   4.018   1.630 -0.5746  0.2301 -0.4878
 5995SOL    HW129447   4.681   4.040   1.689  0.4168 -0.6103 -1.3845
 5995SOL    HW229448   4.628   3.926   1.612 -0.8750  0.4308 -1.8402
 5996SOL     OW29449   4.484   3.391   8.668  0.4307 -0.1076  0.0082
 5996SOL    HW129450   4.506   3.313   8.719  2.6043 -0.4351 -1.4089
 5996SOL    HW229451   4.564   3.443   8.678 -0.6082  1.4806  0.0331
 5997SOL     OW29452   2.342   0.602   5.010 -0.5893  0.2553 -1.1317
 5997SOL    HW129453   2.319   0.521   5.055 -1.5619  1.2063  0.0994
 5997SOL    HW229454   2.385   0.566   4.933 -1.1198 -2.4611 -0.1480
 5998SOL     OW29455   2.654   3.175  16.924 -0.4466 -0.5893  0.1898
 5998SOL    HW129456   2.621   3.195  16.836 -0.0777  3.8228  1.0289
 5998SOL    HW229457   2.575   3.141  16.965 -1.1200 -0.6861 -1.1748
 5999SOL     OW29458   2.791   2.785   9.114 -0.2398 -0.7323 -0.5630
 5999SOL    HW129459   2.799   2.731   9.192  2.5496  0.3461 -0.1118
 5999SOL    HW229460   2.880   2.817   9.102 -0.0852 -1.4666 -1.3689
 6000SOL     OW29461   1.949   1.855   2.344  0.4131 -0.3514 -0.3095
 6000SOL    HW129462   1.873   1.797   2.344  0.2580 -0.1518 -1.0270
 6000SOL    HW229463   1.910   1.939   2.368  1.1611  0.2822 -1.2987
 6001SOL     OW29464   1.595   2.129   8.424 -0.3166  0.1279 -0.5616
 6001SOL    HW129465   1.671   2.107   8.371 -0.0601 -0.0509 -0.1248
 6001SOL    HW229466   1.564   2.210   8.384 -2.2649 -1.1236 -1.6076
 6002SOL     OW29467   3.151   2.326   4.012 -0.1662  0.1069 -0.3961
 6002SOL    HW129468   3.165   2.289   4.099  0.7660  0.6907 -0.3034
 6002SOL    HW229469   3.241   2.330   3.981 -0.4039 -0.3786 -1.1452
 6003SOL     OW29470   3.131   0.141   7.899  0.5197 -0.1219 -0.1913
 6003SOL    HW129471   3.181   0.120   7.978  0.4978  1.1360  0.1510
 6003SOL    HW229472   3.058   0.079   7.906 -0.7346  1.2123 -1.5979
 6004SOL     OW29473   1.811   0.945   5.550 -0.1000  0.2402  0.2829
 6004SOL    HW129474   1.858   0.878   5.500  1.8475 -0.1038  2.5690
 6004SOL    HW229475   1.875   1.015   5.565 -0.1193  0.6304 -1.4642
 6005SOL     OW29476   4.343   3.029   4.972  0.4601  0.2850  0.6899
 6005SOL    HW129477   4.419   2.971   4.970  0.7625  0.5867  2.5457
 6005SOL    HW229478   4.348   3.068   4.885 -0.7061  0.0010  0.4917
 6006SOL     OW29479   0.190   1.292   7.786 -0.0347 -0.1058  0.0324
 6006SOL    HW129480   0.099   1.316   7.766 -0.6440 -1.1420  1.4552
 6006SOL    HW229481   0.220   1.272   7.698 -0.4246  0.2837 -0.1909
 6007SOL     OW29482   2.720   0.826   4.803 -0.0281 -1.1168  0.0353
 6007SOL    HW129483   2.690   0.909   4.767 -0.1498 -1.3680 -0.4436
 6007SOL    HW229484   2.733   0.835   4.898  1.8322 -0.1095 -0.3116
 6008SOL     OW29485   0.807   2.751  13.432  0.0819 -0.0588  0.0875
 6008SOL    HW129486   0.716   2.739  13.406  0.2304  0.6464 -0.7278
 6008SOL    HW229487   0.805   2.715  13.521  0.6340 -2.3388 -0.8248
 6009SOL     OW29488   3.770   1.265   5.490  0.2893 -0.7969 -0.1615
 6009SOL    HW129489   3.841   1.206   5.517 -0.1007 -0.6189  1.2300
 6009SOL    HW229490   3.818   1.333   5.443  1.5831 -1.1992  0.5792
 6010SOL     OW29491   0.684   0.204  16.659 -0.3948 -0.6310  0.2703
 6010SOL    HW129492   0.672   0.284  16.609  0.1274 -0.5677  0.2414
 6010SOL    HW229493   0.651   0.236  16.743  2.3236 -0.5528  1.3248
 6011SOL     OW29494   4.230   1.629  12.944  0.2225 -0.7781 -0.3757
 6011SOL    HW129495   4.210   1.677  12.864  0.1440  0.8307  0.6047
 6011SOL    HW229496   4.148   1.584  12.963 -0.5150  1.3776  1.4781
 6012SOL     OW29497   2.981   4.067   3.425  0.4493 -0.9732  0.1772
 6012SOL    HW129498   3.071   4.038   3.443  0.6118  0.2030  1.2533
 6012SOL    HW229499   2.924   4.017   3.483 -2.3763  0.8659 -1.0121
 6013SOL     OW29500   0.624   4.445  10.539 -0.2286 -0.0534 -0.4545
 6013SOL    HW129501   0.544   4.493  10.562  0.6388  0.1510  2.1918
 6013SOL    HW229502   0.598   4.356  10.565 -1.8428  0.5072 -0.1375
 6014SOL     OW29503   0.295   0.739  16.665 -0.2638  0.5047  1.1341
 6014SOL    HW129504   0.339   0.687  16.598 -1.9200 -1.6604  1.6983
 6014SOL    HW229505   0.202   0.733  16.643 -0.0502  1.1758  0.0565
 6015SOL     OW29506   2.289   1.109   5.401  0.6940 -0.4529  0.0683
 6015SOL    HW129507   2.232   1.142   5.332  1.0652  0.0399 -0.0063
 6015SOL    HW229508   2.301   1.016   5.381  0.4847 -0.2687 -0.9428
 6016SOL     OW29509   3.977   3.469   9.999 -0.6544 -0.1195 -0.4666
 6016SOL    HW129510   3.954   3.561  10.012  1.1111 -0.1316  2.7849
 6016SOL    HW229511   4.055   3.476  10.055  0.8758 -0.7645 -2.5205
 6017SOL     OW29512   2.713   3.472   6.001  0.4882 -0.4768 -0.3754
 6017SOL    HW129513   2.635   3.458   5.947  0.0806 -1.2686  0.4067
 6017SOL    HW229514   2.683   3.445   6.088 -1.3497 -1.0643 -1.2045
 6018SOL     OW29515   2.821   4.415  10.163  0.0093  0.2236  0.4114
 6018SOL    HW129516   2.874   4.495  10.168 -1.6510  1.3841 -1.0670
 6018SOL    HW229517   2.868   4.349  10.112 -1.0306  2.1673 -3.0096
 6019SOL     OW29518   2.561   2.227   7.967  0.0968  0.5619  0.4036
 6019SOL    HW129519   2.524   2.316   7.966 -0.5986  0.2676 -0.1815
 6019SOL    HW229520   2.477   2.188   7.993  0.9885 -1.0512  0.8604
 6020SOL     OW29521   1.125   4.714   0.630 -0.6540 -0.2502 -0.3137
 6020SOL    HW129522   1.089   0.067   0.683  1.1475  0.0404  0.5303
 6020SOL    HW229523   1.164   0.044   0.557  2.0790 -0.0352  1.2819
 6021SOL     OW29524   2.035   3.951  11.734  0.1354  0.1668 -0.5118
 6021SOL    HW129525   1.997   3.991  11.813  0.1004  0.6926 -0.7968
 6021SOL    HW229526   1.988   4.016  11.682  0.4796  1.4668  0.7996
 6022SOL     OW29527   4.674   3.828   0.694 -0.2240 -0.1621  0.2752
 6022SOL    HW129528   4.666   3.802   0.786 -1.3071  1.2348  0.5877
 6022SOL    HW229529   4.648   3.921   0.692 -0.4437 -0.2676 -1.7033
 6023SOL     OW29530   2.319   4.508   7.673 -0.3388  0.1752 -0.3646
 6023SOL    HW129531   2.360   4.494   7.758 -1.4809  1.8533  0.4560
 6023SOL    HW229532   2.224   4.493   7.677 -0.1840 -0.6092  0.3851
 6024SOL     OW29533   4.155   2.820   9.966 -0.8726 -0.3077 -0.6624
 6024SOL    HW129534   4.228   2.872  10.000 -0.9395 -1.9457  1.9504
 6024SOL    HW229535   4.177   2.733   9.998  1.6820  0.6216  0.0845
 6025SOL     OW29536   4.700   3.218   1.135 -0.6908  0.2936  0.3902
 6025SOL    HW129537   4.668   3.247   1.221 -1.0624  1.3893 -0.1135
 6025SOL    HW229538   4.636   3.156   1.102 -1.2023  0.3863  1.1933
 6026SOL     OW29539   1.437   0.050   0.777 -0.0609 -0.5739 -0.1279
 6026SOL    HW129540   1.392   4.685   0.758 -4.4111  2.3545 -2.5028
 6026SOL    HW229541   1.489   0.026   0.854  0.2683 -0.8304 -0.4311
 6027SOL     OW29542   1.603   1.014   3.175 -0.0259  0.5926 -0.0818
 6027SOL    HW129543   1.520   1.005   3.222  0.8969  1.7874  1.8031
 6027SOL    HW229544   1.610   0.935   3.123  0.5489  1.5742 -1.4958
 6028SOL     OW29545   1.167   4.468  13.988  0.7089 -0.5046 -0.2581
 6028SOL    HW129546   1.188   4.558  14.012  0.5404 -0.2480 -1.0601
 6028SOL    HW229547   1.248   4.420  14.007  0.0339 -1.5380  0.0526
 6029SOL     OW29548   0.743   4.276   4.507  0.8911  1.0877 -0.3639
 6029SOL    HW129549   0.754   4.356   4.559  1.5799  1.8306 -1.6471
 6029SOL    HW229550   0.781   4.211   4.566 -0.4556  1.9405  1.4577
 6030SOL     OW29551   4.218   0.362  16.545 -0.6269 -0.2285 -0.2437
 6030SOL    HW129552   4.179   0.281  16.578  0.6827 -0.4008  0.8522
 6030SOL    HW229553   4.151   0.406  16.492  0.6495 -0.3223 -1.9254
 6031SOL     OW29554   1.289   2.668   3.489  0.4022 -0.1429 -0.5728
 6031SOL    HW129555   1.214   2.648   3.546  1.2581 -1.9618 -0.0628
 6031SOL    HW229556   1.321   2.746   3.534 -0.8538  0.5208 -0.8414
 6032SOL     OW29557   4.168   4.630   4.670 -0.4731  0.1707 -0.4801
 6032SOL    HW129558   4.260   4.602   4.670 -0.8351 -0.9777 -1.9257
 6032SOL    HW229559   4.152   4.668   4.756 -0.4179 -3.6117  1.2194
 6033SOL     OW29560   2.504   1.667   0.278 -0.1895 -0.1161 -0.2904
 6033SOL    HW129561   2.474   1.675   0.368  0.9619 -0.5650  0.1307
 6033SOL    HW229562   2.574   1.605   0.297 -0.4389 -0.5854 -0.8770
 6034SOL     OW29563   3.108   1.182   0.947  0.1854 -0.0271 -0.4188
 6034SOL    HW129564   3.019   1.147   0.946 -0.2959  1.2499 -2.4359
 6034SOL    HW229565   3.090   1.248   0.879  0.2570  0.6407  0.2030
 6035SOL     OW29566   4.153   1.481   4.164 -0.1402  0.0426  0.2945
 6035SOL    HW129567   4.142   1.570   4.199  3.0390  1.3493 -2.0305
 6035SOL    HW229568   4.084   1.431   4.207  0.3605 -0.1206  0.9097
 6036SOL     OW29569   3.220   4.236  13.309 -0.1561  0.2386  0.4772
 6036SOL    HW129570   3.261   4.289  13.240  0.0151 -0.1424  0.2851
 6036SOL    HW229571   3.137   4.228  13.262  1.1867 -0.5398 -1.8117
 6037SOL     OW29572   3.469   0.730   7.589  0.1183 -0.4595  0.2388
 6037SOL    HW129573   3.544   0.788   7.600  0.2349 -0.8537  1.4535
 6037SOL    HW229574   3.414   0.783   7.531  1.9075 -1.4594 -2.3988
 6038SOL     OW29575   4.126   1.783   7.037  0.5528  0.0697 -0.2845
 6038SOL    HW129576   4.128   1.687   7.046  0.8328 -0.0097 -1.2311
 6038SOL    HW229577   4.200   1.796   6.977  0.8254 -2.7858 -0.5858
 6039SOL     OW29578   4.077   2.011   9.359  0.0121  0.5255  0.1044
 6039SOL    HW129579   4.084   1.972   9.446 -2.9089 -0.1461  0.0147
 6039SOL    HW229580   3.982   2.014   9.348 -0.0841  0.1328  0.7891
 6040SOL     OW29581   4.529   2.765   9.557  0.3059 -0.2920 -0.2420
 6040SOL    HW129582   4.516   2.693   9.619  0.9286  0.0528  0.2938
 6040SOL    HW229583   4.507   2.845   9.604 -2.6233 -0.5125 -1.2944
 6041SOL     OW29584   0.575   2.087  12.794  0.1608 -0.1760 -0.1419
 6041SOL    HW129585   0.596   2.091  12.887 -1.3695 -2.4221  0.3066
 6041SOL    HW229586   0.480   2.086  12.807 -0.1997 -1.3797 -2.8343
 6042SOL     OW29587   0.221   2.781   9.465 -0.4008  0.9447 -0.4636
 6042SOL    HW129588   0.230   2.864   9.418  0.6032  1.9833  1.5738
 6042SOL    HW229589   0.228   2.822   9.552 -0.3094 -0.1040  0.0211
 6043SOL     OW29590   4.466   2.324   6.210 -0.3811  0.6849  0.0961
 6043SOL    HW129591   4.410   2.385   6.256 -0.9793 -0.3000  0.6710
 6043SOL    HW229592   4.500   2.386   6.145 -0.8253  1.3208  0.4856
 6044SOL     OW29593   3.348   2.165  16.172  0.1143  0.1136  0.8565
 6044SOL    HW129594   3.324   2.257  16.165  0.2668 -0.0321 -1.4828
 6044SOL    HW229595   3.346   2.139  16.080 -0.3141  0.5077  0.7537
 6045SOL     OW29596   2.241   4.323   1.396 -0.3247  1.1985 -0.1633
 6045SOL    HW129597   2.255   4.358   1.484  0.2779  0.9284 -0.1543
 6045SOL    HW229598   2.200   4.401   1.359 -0.9355  1.3977  0.9265
 6046SOL     OW29599   2.700   3.894  14.758 -0.4892  0.0949  0.2552
 6046SOL    HW129600   2.669   3.981  14.783 -1.9898 -0.1285 -0.8616
 6046SOL    HW229601   2.761   3.910  14.686 -0.7666 -0.5507 -0.1166
 6047SOL     OW29602   3.598   4.449   7.461  0.7828 -0.1275  0.1646
 6047SOL    HW129603   3.600   4.422   7.370  0.8153  4.3428 -1.1696
 6047SOL    HW229604   3.539   4.524   7.461 -1.6654 -2.0487  1.5284
 6048SOL     OW29605   0.383   0.270   7.151  0.1282  0.4301  0.0209
 6048SOL    HW129606   0.320   0.333   7.116 -0.4973 -0.7877 -1.0806
 6048SOL    HW229607   0.462   0.281   7.097  0.5566 -1.0634  0.3438
 6049SOL     OW29608   0.900   2.047   9.531  0.1861  0.5455  0.4180
 6049SOL    HW129609   0.871   2.115   9.592 -1.5776 -2.3219  2.7814
 6049SOL    HW229610   0.871   2.082   9.446  1.2491  2.0642  0.6892
 6050SOL     OW29611   2.644   1.291   6.093  0.3885 -0.8316  0.3252
 6050SOL    HW129612   2.645   1.318   6.001 -0.6616 -2.0572 -0.0478
 6050SOL    HW229613   2.638   1.376   6.137 -0.0164 -2.1376  2.8103
 6051SOL     OW29614   4.440   1.368   6.004 -0.0853 -0.2838 -0.0603
 6051SOL    HW129615   4.416   1.312   6.078  1.4295  0.2444  0.8407
 6051SOL    HW229616   4.420   1.308   5.932  0.5985 -2.3750  1.4684
 6052SOL     OW29617   3.390   0.738   8.957 -0.5254  0.1755  0.0603
 6052SOL    HW129618   3.345   0.784   8.886 -1.5480  0.2682  0.7705
 6052SOL    HW229619   3.429   0.805   9.013  0.2185  0.0827 -0.3457
 6053SOL     OW29620   3.935   2.859   7.962 -0.1827 -0.5167  0.2125
 6053SOL    HW129621   3.846   2.894   7.953 -1.5049 -4.0669 -0.2460
 6053SOL    HW229622   3.996   2.932   7.970  0.6560 -0.6772 -4.8176
 6054SOL     OW29623   1.057   1.269  14.368  0.2545  0.5123  0.3246
 6054SOL    HW129624   1.134   1.269  14.425  0.6767 -0.4274 -0.2479
 6054SOL    HW229625   0.995   1.324  14.416  1.5452 -0.3188  3.0046
 6055SOL     OW29626   4.244   3.506   3.697 -0.1733  0.2181  0.4018
 6055SOL    HW129627   4.242   3.474   3.787 -0.2058  0.0146  0.3281
 6055SOL    HW229628   4.150   3.493   3.688 -0.3146  1.7409 -0.4735
 6056SOL     OW29629   3.227   1.423   7.777 -0.5535 -0.1315  0.0312
 6056SOL    HW129630   3.262   1.358   7.716 -0.1422 -0.5406  0.7074
 6056SOL    HW229631   3.304   1.468   7.813 -0.5477 -0.6815  0.7018
 6057SOL     OW29632   0.372   3.514   0.250  0.2605  0.0624 -0.3369
 6057SOL    HW129633   0.459   3.503   0.288  1.9721  2.0810 -3.6250
 6057SOL    HW229634   0.316   3.511   0.328  0.0406 -0.2545 -0.5026
 6058SOL     OW29635   1.394   3.119   3.362  0.3251  0.4135  0.7415
 6058SOL    HW129636   1.392   3.201   3.313  2.3028 -1.6176 -2.7868
 6058SOL    HW229637   1.473   3.133   3.414  0.3707  0.4725  0.6568
 6059SOL     OW29638   1.740   2.445  15.147  0.4296 -0.3067  0.0547
 6059SOL    HW129639   1.674   2.491  15.095  1.3370  2.6901  1.5328
 6059SOL    HW229640   1.713   2.354  15.137 -2.1044  0.3878  0.4860
 6060SOL     OW29641   1.349   2.263  13.316  0.2342  0.4161  0.6521
 6060SOL    HW129642   1.283   2.322  13.279  1.2411 -0.2120 -2.1183
 6060SOL    HW229643   1.413   2.265  13.245 -0.1985 -1.9143  0.1889
 6061SOL     OW29644   3.886   2.942   9.887 -0.2435  0.3776 -0.3397
 6061SOL    HW129645   3.880   2.877   9.817  2.1652 -0.4374  0.2288
 6061SOL    HW229646   3.971   2.916   9.921 -0.7613  0.5770  1.1139
 6062SOL     OW29647   0.263   3.830   3.708 -0.2266  1.0957 -0.0262
 6062SOL    HW129648   0.301   3.856   3.625  0.7477  0.6215  0.2709
 6062SOL    HW229649   0.350   3.832   3.748 -0.5312  3.0269  0.5508
 6063SOL     OW29650   3.704   4.197   6.474 -0.1528 -0.4992  0.4200
 6063SOL    HW129651   3.719   4.108   6.506 -0.1634 -0.5934  0.1603
 6063SOL    HW229652   3.609   4.202   6.463  0.1068  2.3662 -0.3260
 6064SOL     OW29653   4.330   1.847   1.863  0.1787 -0.4754  0.1801
 6064SOL    HW129654   4.409   1.901   1.866  1.0116 -1.5200 -3.3301
 6064SOL    HW229655   4.285   1.880   1.940  2.1374 -1.0070  1.5743
 6065SOL     OW29656   3.194   4.324   3.516  0.2346  0.3688  0.7343
 6065SOL    HW129657   3.239   4.248   3.554  0.0091 -0.4387 -0.5852
 6065SOL    HW229658   3.202   4.399   3.575  0.3601  0.9789 -0.0568
 6066SOL     OW29659   1.026   2.559   0.808 -0.3302 -0.6261  0.4625
 6066SOL    HW129660   1.052   2.488   0.867  0.1505 -1.7022 -1.0519
 6066SOL    HW229661   1.068   2.627   0.861  1.1621 -2.2559  1.3644
 6067SOL     OW29662   4.691   3.435  16.944 -0.0094  0.3801 -0.3231
 6067SOL    HW129663   4.683   3.490  17.021  0.7745 -0.2592  0.2102
 6067SOL    HW229664   4.666   3.503  16.882 -0.2212  1.5131  1.0283
 6068SOL     OW29665   2.394   1.960   6.803  0.0559  0.6661  0.9761
 6068SOL    HW129666   2.374   1.877   6.760 -2.0470  2.4305 -1.4540
 6068SOL    HW229667   2.428   2.017   6.733  1.1490  0.0737  1.0287
 6069SOL     OW29668   3.747   0.150  14.007  0.2314 -0.6123 -0.3382
 6069SOL    HW129669   3.828   0.138  13.958  1.6233  2.2276  1.2684
 6069SOL    HW229670   3.736   0.067  14.054 -0.1028 -0.3426  0.0511
 6070SOL     OW29671   4.615   2.770  13.771  0.2717  0.2330  0.4425
 6070SOL    HW129672   4.696   2.778  13.822  1.2486  0.6171 -1.1813
 6070SOL    HW229673   4.617   2.678  13.743 -1.2403  0.3675 -0.1157
 6071SOL     OW29674   3.097   3.019  10.268  0.2069  0.6270 -0.2660
 6071SOL    HW129675   3.149   2.961  10.323 -0.2149  0.8770  0.3888
 6071SOL    HW229676   3.108   2.965  10.189  1.4367  0.7573 -0.1839
 6072SOL     OW29677   4.597   4.170   3.489  0.2845  0.8129  0.1145
 6072SOL    HW129678   4.535   4.205   3.424  0.9754  2.8485  0.5492
 6072SOL    HW229679   4.621   4.259   3.514  0.8854  0.2174  1.6668
 6073SOL     OW29680   0.210   4.017  10.398  0.0727 -0.0156  0.2779
 6073SOL    HW129681   0.249   3.971  10.323  0.3035  1.4502 -0.4900
 6073SOL    HW229682   0.156   3.944  10.430  0.4377 -0.7850 -0.8330
 6074SOL     OW29683   3.834   1.691   2.941  0.1325  0.1989  0.4697
 6074SOL    HW129684   3.797   1.608   2.912 -1.1192  0.0502  2.5002
 6074SOL    HW229685   3.801   1.687   3.031 -0.6412 -0.9431  0.1243
 6075SOL     OW29686   3.994   0.733   4.046  0.0168 -0.6015 -0.3739
 6075SOL    HW129687   3.972   0.824   4.026  1.1117 -0.0331  1.0225
 6075SOL    HW229688   3.918   0.707   4.097 -1.8673  2.5821 -1.5509
 6076SOL     OW29689   0.032   2.601   3.257  0.0655 -0.4022  0.0234
 6076SOL    HW129690   0.065   2.651   3.182  0.3490  0.3774  0.6655
 6076SOL    HW229691   0.050   2.658   3.332 -0.9063  2.4224 -1.8755
 6077SOL     OW29692   3.578   2.098   7.433  0.5485  0.0921  0.2145
 6077SOL    HW129693   3.530   2.015   7.425  0.6890 -0.2859  3.2340
 6077SOL    HW229694   3.606   2.088   7.524  2.3961 -3.3913 -0.7452
 6078SOL     OW29695   4.034   3.308   3.392  0.3611 -0.3622 -0.5221
 6078SOL    HW129696   4.065   3.396   3.412  1.3878 -0.8532  0.0086
 6078SOL    HW229697   3.941   3.325   3.378 -0.3123 -1.3109  2.6633
 6079SOL     OW29698   3.507   4.686  11.653  0.1229 -0.5820 -0.5258
 6079SOL    HW129699   3.468   4.707  11.738 -2.0060 -1.1196 -1.3642
 6079SOL    HW229700   3.436   4.687  11.588 -1.3749  0.8003  1.1028
 6080SOL     OW29701   2.418   4.632  16.149  0.2739  0.8047 -0.3536
 6080SOL    HW129702   2.494   4.598  16.197 -0.6357  0.2632  0.6783
 6080SOL    HW229703   2.447   4.651  16.059 -2.9092 -0.0339 -1.5356
 6081SOL     OW29704   0.682   4.449   4.118  0.1316 -0.2617 -0.0406
 6081SOL    HW129705   0.771   4.424   4.144  0.2322  1.1989  1.0098
 6081SOL    HW229706   0.665   4.529   4.167  0.1095 -2.3110  3.3630
 6082SOL     OW29707   0.742   2.227  14.901 -0.3607 -0.2018 -0.4248
 6082SOL    HW129708   0.786   2.193  14.978 -0.3983 -0.5275 -0.5443
 6082SOL    HW229709   0.803   2.278  14.849 -0.5343 -0.7846 -1.2022
 6083SOL     OW29710   1.697   0.215   1.650 -0.7141  0.0927 -0.2762
 6083SOL    HW129711   1.625   0.214   1.586 -0.7567 -2.2651 -0.1705
 6083SOL    HW229712   1.641   0.230   1.726 -0.4178  0.2425 -0.0888
 6084SOL     OW29713   3.931   0.241   2.846  0.8807  0.3680 -0.1500
 6084SOL    HW129714   3.992   0.219   2.915  0.7570 -0.0095 -0.1622
 6084SOL    HW229715   3.970   0.180   2.783  0.1892  0.9227 -1.1276
 6085SOL     OW29716   2.287   0.353   5.938  0.2123  0.4959 -0.4108
 6085SOL    HW129717   2.353   0.365   6.006 -0.5620  0.6532  0.3099
 6085SOL    HW229718   2.331   0.392   5.862 -0.1500 -0.9145 -1.3457
 6086SOL     OW29719   2.562   1.589   5.266  0.3985 -0.1296  0.6837
 6086SOL    HW129720   2.602   1.640   5.336 -0.4535  2.0816 -0.4293
 6086SOL    HW229721   2.627   1.601   5.196  0.2588 -5.2132 -0.3754
 6087SOL     OW29722   2.271   3.443   4.625  0.4749 -0.2696  0.8243
 6087SOL    HW129723   2.210   3.516   4.612 -0.2036 -1.2339 -1.4954
 6087SOL    HW229724   2.351   3.482   4.591 -0.6597 -1.8520 -3.6554
 6088SOL     OW29725   0.674   2.628   6.538 -0.2853 -0.2669  0.0394
 6088SOL    HW129726   0.708   2.716   6.557 -1.0113 -0.2598  1.2832
 6088SOL    HW229727   0.583   2.643   6.513 -1.0495 -0.0288  2.9489
 6089SOL     OW29728   2.003   0.358  11.604  0.2607  0.1062 -0.3560
 6089SOL    HW129729   1.918   0.347  11.647  0.4520  0.9648  0.2409
 6089SOL    HW229730   2.055   0.386  11.679  0.6068 -0.1890 -0.4890
 6090SOL     OW29731   0.461   0.892   7.687  0.6918  0.9972  0.0730
 6090SOL    HW129732   0.521   0.886   7.613 -0.4196 -1.9597 -0.6019
 6090SOL    HW229733   0.525   0.887   7.758  2.2808  0.7214 -1.3811
 6091SOL     OW29734   0.313   2.278   6.645  0.0963  0.5588 -0.6001
 6091SOL    HW129735   0.228   2.235   6.653 -0.8002  2.6904  1.0875
 6091SOL    HW229736   0.305   2.315   6.557 -1.1566  0.7915 -0.3881
 6092SOL     OW29737   3.857   1.439  13.301  0.3384  0.5248 -0.3256
 6092SOL    HW129738   3.863   1.486  13.384  0.3122  0.2664 -0.1755
 6092SOL    HW229739   3.947   1.410  13.289  0.8091  0.9071  2.2598
 6093SOL     OW29740   4.631   2.471   5.406 -0.2247  0.1292 -0.1841
 6093SOL    HW129741   4.574   2.431   5.341  0.5677 -1.5339  0.1611
 6093SOL    HW229742   4.676   2.389   5.424  1.1170  0.6408 -1.1603
 6094SOL     OW29743   1.911   4.285   3.128 -0.3211  0.2560  0.2482
 6094SOL    HW129744   1.869   4.223   3.187  1.0245  2.8156  3.8860
 6094SOL    HW229745   1.942   4.351   3.190  1.2728 -1.2677  1.0533
 6095SOL     OW29746   4.057   2.323   5.176 -0.1091 -0.1811 -0.0877
 6095SOL    HW129747   4.076   2.290   5.264  0.4043 -0.7505 -0.4119
 6095SOL    HW229748   4.052   2.243   5.124  1.5650  1.8761 -3.4179
 6096SOL     OW29749   2.268   4.377  15.016  0.1058  0.5016 -0.1076
 6096SOL    HW129750   2.262   4.282  15.008 -1.2016  0.6043 -0.2915
 6096SOL    HW229751   2.351   4.399  14.972  0.3859  2.0556  1.1995
 6097SOL     OW29752   1.245   0.365  14.260  0.6575  0.0207 -0.1669
 6097SOL    HW129753   1.279   0.413  14.184 -2.1922  1.1794 -0.7036
 6097SOL    HW229754   1.314   0.300  14.248  1.0047  0.5106 -0.8093
 6098SOL     OW29755   0.877   2.682   2.967  0.1286 -0.7829 -0.3174
 6098SOL    HW129756   0.892   2.642   2.881 -1.3235  0.7973 -1.3147
 6098SOL    HW229757   0.807   2.740   2.937 -0.1408 -2.4090 -2.7911
 6099SOL     OW29758   4.697   3.866  15.261 -0.2521 -0.4577 -0.0589
 6099SOL    HW129759   0.058   3.825  15.296  0.6108  1.5585  0.3958
 6099SOL    HW229760   4.688   3.828  15.174 -0.2230  0.3008 -0.3947
 6100SOL     OW29761   0.825   2.106   7.242  0.6921  0.3308  0.3658
 6100SOL    HW129762   0.851   2.197   7.254  3.7701 -0.7737  1.9367
 6100SOL    HW229763   0.867   2.064   7.316  2.0220 -1.0013 -1.1590
 6101SOL     OW29764   3.076   3.907   8.577  0.0255  0.1977  0.3222
 6101SOL    HW129765   3.047   3.818   8.598 -3.2192  1.1639 -0.1142
 6101SOL    HW229766   3.069   3.904   8.482 -1.5667 -0.0666  0.4496
 6102SOL     OW29767   4.053   4.404  12.331  0.3201  0.1058  0.1129
 6102SOL    HW129768   4.035   4.371  12.419  1.3629 -1.6495 -0.3413
 6102SOL    HW229769   4.127   4.460  12.352 -0.5592  1.3432 -0.0924
 6103SOL     OW29770   0.401   3.284   2.985  0.2524 -0.0607 -0.3678
 6103SOL    HW129771   0.434   3.370   3.011 -0.2775 -0.2644  1.0138
 6103SOL    HW229772   0.358   3.299   2.901 -0.9360  0.8248  0.4032
 6104SOL     OW29773   0.079   3.089  17.644  0.4018 -0.3773  0.2351
 6104SOL    HW129774   0.088   3.130   0.056  3.3016 -0.6742  0.0733
 6104SOL    HW229775   4.710   3.124  17.624  0.3195  0.5004  2.1023
 6105SOL     OW29776   1.314   1.036   8.067 -0.5523  0.6024  0.1538
 6105SOL    HW129777   1.339   1.110   8.123  3.5657 -0.9091  0.3037
 6105SOL    HW229778   1.391   0.979   8.069 -0.2612  0.9737 -0.6831
 6106SOL     OW29779   0.806   2.706   3.547  0.0821 -0.5431  0.6087
 6106SOL    HW129780   0.733   2.668   3.596 -0.1211  0.2158  0.8881
 6106SOL    HW229781   0.876   2.640   3.546  0.1589 -0.4772  3.2149
 6107SOL     OW29782   0.297   0.783   0.549 -0.1056  0.1520 -0.7263
 6107SOL    HW129783   0.260   0.727   0.481 -0.1936 -0.0738 -0.4943
 6107SOL    HW229784   0.225   0.772   0.611  2.3329  1.1032  2.2855
 6108SOL     OW29785   1.779   3.683  13.963 -0.4657 -0.2424 -0.7027
 6108SOL    HW129786   1.728   3.764  13.957  0.8689  0.7297  1.4634
 6108SOL    HW229787   1.854   3.705  14.017 -1.5498  1.2046  0.2221
 6109SOL     OW29788   3.985   3.863   8.954 -0.5614 -0.2463 -0.3979
 6109SOL    HW129789   3.908   3.852   8.899 -2.3138 -0.6411  2.1189
 6109SOL    HW229790   3.963   3.792   9.015  1.5458  0.4805  1.2234
 6110SOL     OW29791   3.713   4.679   1.601 -0.1675  0.7533  0.1141
 6110SOL    HW129792   3.776   0.022   1.563  1.0296 -1.3942 -1.3801
 6110SOL    HW229793   3.683   4.634   1.522  0.4479  1.6702 -0.6351
 6111SOL     OW29794   0.285   1.687   2.605 -0.6286  0.2740  0.2392
 6111SOL    HW129795   0.329   1.613   2.648 -0.8206  0.5063  0.8458
 6111SOL    HW229796   0.257   1.640   2.527  0.1483  1.6416 -0.8518
 6112SOL     OW29797   2.119   4.092   4.624  0.8360  0.5677  0.4582
 6112SOL    HW129798   2.161   4.050   4.700  1.4730  0.3102 -0.0338
 6112SOL    HW229799   2.062   4.153   4.671 -0.2186  0.4149 -0.6467
 6113SOL     OW29800   3.961   0.543   6.948 -0.0225 -0.0999 -0.3124
 6113SOL    HW129801   4.054   0.533   6.928 -0.4407 -2.5556 -0.9837
 6113SOL    HW229802   3.929   0.486   6.878 -2.1593 -0.5130  0.9897
 6114SOL     OW29803   1.443   2.814  14.636 -1.0308  0.0597 -0.4172
 6114SOL    HW129804   1.386   2.742  14.660 -2.5192  0.5368 -2.4878
 6114SOL    HW229805   1.457   2.783  14.547 -0.4399 -2.3496  0.5231
 6115SOL     OW29806   0.555   1.060   8.894 -0.1428 -0.5278 -0.0864
 6115SOL    HW129807   0.595   1.114   8.962 -0.6003 -0.5157  0.1773
 6115SOL    HW229808   0.522   1.130   8.838  0.8629 -0.0163 -0.0307
 6116SOL     OW29809   2.591   0.342  10.378 -0.7471  0.0815  0.0863
 6116SOL    HW129810   2.595   0.386  10.293  0.8920 -0.5795 -0.1786
 6116SOL    HW229811   2.594   0.250  10.352 -2.9639 -0.0024  0.1635
 6117SOL     OW29812   1.980   2.144   2.090 -0.4129 -0.1196  0.0285
 6117SOL    HW129813   1.900   2.102   2.120 -0.5993 -1.3744 -2.2513
 6117SOL    HW229814   2.037   2.069   2.075  1.9757  1.4152  1.3023
 6118SOL     OW29815   2.482   0.652  14.158 -0.5526  0.2833 -0.5196
 6118SOL    HW129816   2.478   0.594  14.235  1.5911  1.4989  0.5125
 6118SOL    HW229817   2.567   0.629  14.119 -0.1253  2.6387 -0.9592
 6119SOL     OW29818   3.837   3.074  10.207  0.3022  0.4257 -0.3853
 6119SOL    HW129819   3.933   3.076  10.209  0.3743 -0.7939 -2.1955
 6119SOL    HW229820   3.828   3.085  10.112  1.7016  0.3231 -0.5281
 6120SOL     OW29821   3.128   1.780   7.221 -0.1638  0.3572 -0.6912
 6120SOL    HW129822   3.075   1.827   7.156 -0.3885 -2.0087 -2.2027
 6120SOL    HW229823   3.096   1.691   7.212  1.5078 -0.2861 -0.1751
 6121SOL     OW29824   3.223   3.987   3.525 -0.1709  0.3992 -0.7178
 6121SOL    HW129825   3.310   4.025   3.535  0.1070 -0.4099 -0.0031
 6121SOL    HW229826   3.194   4.016   3.611 -0.3907 -0.2974 -0.5537
 6122SOL     OW29827   1.512   3.492  16.335 -0.4858 -0.2879  0.1246
 6122SOL    HW129828   1.522   3.500  16.240 -1.8674 -1.8121 -0.1492
 6122SOL    HW229829   1.553   3.574  16.363  0.6067 -0.4748 -0.9300
 6123SOL     OW29830   4.344   3.786   2.089  0.5519 -0.1881 -0.4101
 6123SOL    HW129831   4.420   3.767   2.145  0.9993  2.4954 -0.1096
 6123SOL    HW229832   4.384   3.861   2.046 -1.0326 -1.4071 -3.9774
 6124SOL     OW29833   2.768   0.064  16.081 -0.4628  0.0745  0.3650
 6124SOL    HW129834   2.710   0.087  16.153 -2.3652 -1.5053 -0.6754
 6124SOL    HW229835   2.716   0.001  16.031  1.6742 -1.3280 -0.1115
 6125SOL     OW29836   3.521   2.536   6.656 -0.2589  0.4850 -0.0753
 6125SOL    HW129837   3.486   2.525   6.568 -0.4709  0.2633  0.0346
 6125SOL    HW229838   3.552   2.447   6.668  0.7046  0.7998 -0.2284
 6126SOL     OW29839   1.641   0.776   4.498  0.3753  0.4354  0.4781
 6126SOL    HW129840   1.721   0.798   4.547  2.3036 -0.7226 -2.1584
 6126SOL    HW229841   1.581   0.774   4.573  0.5131  0.7139  0.5942
 6127SOL     OW29842   3.133   2.359   6.840 -0.1357  0.1687 -0.2897
 6127SOL    HW129843   3.136   2.267   6.865  0.1672 -0.0886 -1.2927
 6127SOL    HW229844   3.080   2.350   6.761 -0.4583 -1.7473  0.1562
 6128SOL     OW29845   2.906   1.829   5.141  0.4345  0.3961 -0.4670
 6128SOL    HW129846   2.945   1.859   5.059  0.1361  0.8564 -0.4355
 6128SOL    HW229847   2.825   1.879   5.146  0.2330 -0.2215  2.3766
 6129SOL     OW29848   2.756   2.646   2.354  0.5783 -0.0506  0.0573
 6129SOL    HW129849   2.704   2.654   2.273 -0.5916 -1.8716  0.6328
 6129SOL    HW229850   2.795   2.561   2.333 -1.6933 -1.2716  0.8114
 6130SOL     OW29851   3.614   1.998   5.813 -0.7185  0.2526 -0.4004
 6130SOL    HW129852   3.669   2.050   5.755  0.5153 -0.2005  0.3682
 6130SOL    HW229853   3.534   1.983   5.763 -1.4466 -0.0037  0.8453
 6131SOL     OW29854   0.170   2.444   1.550 -0.0842  0.5085 -0.2944
 6131SOL    HW129855   0.123   2.501   1.610  1.1046  0.8374  0.3217
 6131SOL    HW229856   0.257   2.464   1.585 -0.0742  1.7225 -1.0116
 6132SOL     OW29857   3.278   0.408   5.129  0.1788  0.5093 -0.3356
 6132SOL    HW129858   3.265   0.481   5.190 -1.1548  0.1816 -0.2255
 6132SOL    HW229859   3.211   0.342   5.148  1.9514 -1.1559  0.1104
 6133SOL     OW29860   3.495   0.146  13.865 -0.2280  0.1811  0.2982
 6133SOL    HW129861   3.424   0.202  13.896 -0.0781 -0.8405  2.4969
 6133SOL    HW229862   3.564   0.190  13.915 -1.2396  0.8273  1.1114
 6134SOL     OW29863   1.537   1.074   5.768 -0.2975  0.3068 -0.1863
 6134SOL    HW129864   1.523   1.168   5.775  0.2776  0.4813 -1.3699
 6134SOL    HW229865   1.512   1.045   5.856 -0.9594 -0.0532 -0.4907
 6135SOL     OW29866   3.034   0.390  12.782 -0.0831 -0.2069 -1.0362
 6135SOL    HW129867   3.094   0.320  12.808  2.4812  2.0666 -0.8943
 6135SOL    HW229868   3.079   0.423  12.704 -3.0291  3.9868 -0.9542
 6136SOL     OW29869   1.576   4.208  17.364 -0.1239  0.3496  0.4795
 6136SOL    HW129870   1.667   4.189  17.391  0.5007 -0.2049 -2.0235
 6136SOL    HW229871   1.576   4.176  17.274  0.8640  2.0663 -0.1304
 6137SOL     OW29872   4.491   3.621  12.392 -0.1957 -0.3663 -0.0409
 6137SOL    HW129873   4.566   3.643  12.447  0.1916  0.4244 -0.8893
 6137SOL    HW229874   4.425   3.610  12.461  0.3794  2.1398  0.8957
 6138SOL     OW29875   2.045   3.536   7.998  0.8209  0.4914  0.4531
 6138SOL    HW129876   2.014   3.453   8.034  0.1237  0.7848  0.5455
 6138SOL    HW229877   2.127   3.562   8.040 -0.2171  1.6978  1.7471
 6139SOL     OW29878   4.570   3.473   6.366  0.4732  0.5928 -0.0931
 6139SOL    HW129879   4.510   3.548   6.368 -2.3468 -1.6728  0.1157
 6139SOL    HW229880   4.621   3.490   6.445  0.2336 -0.9313  0.3958
 6140SOL     OW29881   4.654   2.374   6.001  0.2888 -0.0272 -0.0219
 6140SOL    HW129882   4.610   2.321   5.934  1.2125  1.0475 -1.4807
 6140SOL    HW229883   0.028   2.355   5.981 -0.0090  0.8838 -2.2562
 6141SOL     OW29884   3.541   0.481  11.517 -0.2685 -0.3899 -0.0418
 6141SOL    HW129885   3.463   0.519  11.557 -0.3863 -1.2131  0.5152
 6141SOL    HW229886   3.609   0.523  11.570 -0.9208 -0.7140  1.0395
 6142SOL     OW29887   3.907   1.777   1.518 -0.2036  0.2305  0.3730
 6142SOL    HW129888   3.924   1.779   1.612 -0.0133 -1.8133  0.3994
 6142SOL    HW229889   3.839   1.843   1.508 -0.4256 -0.1372 -0.5449
 6143SOL     OW29890   3.628   2.472   3.709  0.3838 -0.4248  0.9790
 6143SOL    HW129891   3.710   2.423   3.708  0.2524 -0.6421  1.0991
 6143SOL    HW229892   3.610   2.485   3.802 -0.1627 -0.8470  0.9272
 6144SOL     OW29893   3.441   3.599   6.728 -0.0779 -0.5555  0.2055
 6144SOL    HW129894   3.497   3.590   6.805  0.4274 -3.8579 -0.5278
 6144SOL    HW229895   3.372   3.538   6.755 -1.6113  0.3927 -1.5003
 6145SOL     OW29896   4.449   2.466  12.694  0.2582  0.4521 -0.0575
 6145SOL    HW129897   4.532   2.421  12.676  0.3796  0.4811  0.4285
 6145SOL    HW229898   4.461   2.485  12.787  1.7566  1.8539 -0.5366
 6146SOL     OW29899   1.322   0.925   4.848  0.1300  0.6670 -0.1128
 6146SOL    HW129900   1.253   0.989   4.862 -0.7730 -0.6399  1.4346
 6146SOL    HW229901   1.378   0.977   4.790  0.3162 -1.2331 -1.6811
 6147SOL     OW29902   3.164   0.873  13.595  0.1648  0.1056 -0.3664
 6147SOL    HW129903   3.105   0.943  13.624  1.9162  3.3742 -4.8065
 6147SOL    HW229904   3.170   0.878  13.500  0.4206  1.0895 -0.3016
 6148SOL     OW29905   4.376   1.199   5.781 -0.0641 -0.3131  0.2523
 6148SOL    HW129906   4.464   1.206   5.745 -0.5957  0.7184 -0.8244
 6148SOL    HW229907   4.324   1.263   5.733  1.0268  1.1234  1.0007
 6149SOL     OW29908   1.310   2.394   4.533  0.3185  0.2749  0.0144
 6149SOL    HW129909   1.257   2.326   4.493  2.4406 -1.2457 -0.2205
 6149SOL    HW229910   1.313   2.365   4.624 -0.2867 -1.5708 -0.5612
 6150SOL     OW29911   1.382   2.481   2.665 -0.1711 -0.3631 -0.2898
 6150SOL    HW129912   1.429   2.415   2.715  1.3414 -0.4119 -1.7466
 6150SOL    HW229913   1.444   2.550   2.643  1.4749 -1.6569  0.2533
 6151SOL     OW29914   2.392   3.604   1.242  0.3891 -0.3783  0.8850
 6151SOL    HW129915   2.465   3.656   1.277 -0.2334  0.4046  0.9950
 6151SOL    HW229916   2.429   3.515   1.242 -1.1280 -0.9954 -0.1579
 6152SOL     OW29917   2.221   0.574  14.081 -0.6643 -0.0743  0.1291
 6152SOL    HW129918   2.310   0.607  14.093 -0.3055 -0.0546 -2.5932
 6152SOL    HW229919   2.239   0.480  14.071  0.5418  0.1896 -0.2423
 6153SOL     OW29920   4.317   3.158   0.012  0.0313 -0.5251 -0.1784
 6153SOL    HW129921   4.296   3.231   0.070  0.2477 -0.9055  0.3837
 6153SOL    HW229922   4.271   3.085   0.053 -2.0286 -0.2357 -2.0102
 6154SOL     OW29923   1.169   3.863   5.479  0.6926  0.1013  0.0421
 6154SOL    HW129924   1.226   3.938   5.499 -1.0032  1.5813 -0.7050
 6154SOL    HW229925   1.150   3.881   5.387  2.3589  2.4417  0.1224
 6155SOL     OW29926   4.431   2.192   4.177  0.4322 -0.6386 -0.1209
 6155SOL    HW129927   4.383   2.273   4.194  0.4743 -1.4132  3.5385
 6155SOL    HW229928   4.455   2.206   4.085 -0.3446  0.7754 -0.1132
 6156SOL     OW29929   2.763   0.115   0.683 -0.1549  0.0117  0.3164
 6156SOL    HW129930   2.770   0.081   0.772  1.4403  1.3206  0.6777
 6156SOL    HW229931   2.854   0.107   0.656  0.4174  1.1367  1.9263
 6157SOL     OW29932   3.757   0.747   4.973 -0.3262 -0.6316 -0.7021
 6157SOL    HW129933   3.767   0.745   4.878 -1.4279 -0.0467 -0.8318
 6157SOL    HW229934   3.847   0.737   5.003 -1.2925 -3.4227  1.3443
 6158SOL     OW29935   1.859   2.581   0.018 -0.9008  0.1275 -0.8072
 6158SOL    HW129936   1.947   2.609  17.665 -0.6271  0.6910  0.6238
 6158SOL    HW229937   1.819   2.570  17.606  0.6976  1.0872 -1.6761
 6159SOL     OW29938   1.057   0.219   0.745  0.4111  0.6830 -0.4347
 6159SOL    HW129939   0.999   0.286   0.709  0.3397  0.2576 -1.1000
 6159SOL    HW229940   1.015   0.216   0.832  2.6840  0.9671  0.6592
 6160SOL     OW29941   2.219   3.242   9.436 -0.0461  0.6245 -0.1878
 6160SOL    HW129942   2.293   3.197   9.395  0.3793  0.5013  0.7179
 6160SOL    HW229943   2.175   3.263   9.353  1.0660  0.5461 -0.7986
 6161SOL     OW29944   2.610   2.796   8.622 -0.3908 -0.1130 -0.8561
 6161SOL    HW129945   2.659   2.878   8.608 -1.6942  0.3521 -2.7604
 6161SOL    HW229946   2.546   2.816   8.690  0.2220 -1.7013  0.1657
 6162SOL     OW29947   4.188   2.811   1.093  0.2171 -0.6876 -0.1120
 6162SOL    HW129948   4.179   2.906   1.085 -1.5062 -0.9860 -1.8239
 6162SOL    HW229949   4.109   2.791   1.142 -2.0721  3.7039 -2.0215
 6163SOL     OW29950   4.362   2.735   6.807  0.4410 -0.6064  0.1609
 6163SOL    HW129951   4.331   2.649   6.835 -0.6050  0.3472  1.9386
 6163SOL    HW229952   4.290   2.795   6.824  1.2821  0.9373 -1.7485
 6164SOL     OW29953   1.386   1.077   6.986  0.0540  0.1108 -0.5970
 6164SOL    HW129954   1.398   0.991   7.027 -0.1828  0.7906  0.9151
 6164SOL    HW229955   1.430   1.132   7.051  1.8310 -2.0828  0.0567
 6165SOL     OW29956   0.900   0.283   1.262 -0.4894 -0.2052  0.4938
 6165SOL    HW129957   0.807   0.307   1.265 -1.2001 -2.8727  0.4287
 6165SOL    HW229958   0.898   0.206   1.320  2.3209 -0.0253  0.8285
 6166SOL     OW29959   0.995   2.539   3.272 -0.1720  0.2205 -0.1897
 6166SOL    HW129960   0.999   2.444   3.278  1.5459  0.6121  4.2038
 6166SOL    HW229961   1.047   2.571   3.345  2.3394 -1.4689 -1.2693
 6167SOL     OW29962   1.253   3.063  17.285  0.1930 -0.2041 -0.5728
 6167SOL    HW129963   1.262   3.156  17.264  0.1585 -0.3021 -1.0174
 6167SOL    HW229964   1.276   3.067  17.378 -0.9493  0.9300 -0.3395
 6168SOL     OW29965   1.494   0.184   3.607  0.3324  0.9493 -0.2436
 6168SOL    HW129966   1.553   0.110   3.596 -2.1893 -1.4084  2.0954
 6168SOL    HW229967   1.415   0.158   3.558 -0.2392  1.4264  0.4301
 6169SOL     OW29968   4.033   3.121  15.423 -0.5206 -0.2599 -0.1487
 6169SOL    HW129969   4.053   3.049  15.483 -2.8832  0.4594  1.4987
 6169SOL    HW229970   4.119   3.158  15.405 -0.7252  1.5093  2.5165
 6170SOL     OW29971   4.083   2.431  14.799  0.1151  0.0910 -0.8414
 6170SOL    HW129972   4.075   2.523  14.774  0.8067  0.4243  0.1431
 6170SOL    HW229973   4.123   2.396  14.720  2.7554  1.9712 -0.3375
 6171SOL     OW29974   1.204   2.721   2.659 -0.1816  0.7682 -0.6870
 6171SOL    HW129975   1.217   2.678   2.744  1.8917  1.7463 -0.5023
 6171SOL    HW229976   1.180   2.649   2.601 -0.2060  0.6854 -0.5749
 6172SOL     OW29977   0.625   2.677   0.885 -0.0275  0.3745 -0.3748
 6172SOL    HW129978   0.575   2.698   0.806  2.7071 -0.2381 -2.2473
 6172SOL    HW229979   0.673   2.759   0.902  0.9165 -0.3977  0.6900
 6173SOL     OW29980   3.716   2.319   6.566 -0.1027  0.5756 -0.3857
 6173SOL    HW129981   3.676   2.395   6.524 -0.3967 -0.5936 -2.2467
 6173SOL    HW229982   3.726   2.263   6.489 -2.0048  1.4334 -1.2525
 6174SOL     OW29983   1.194   3.732  11.219 -0.1924  0.2215  0.0110
 6174SOL    HW129984   1.161   3.756  11.132 -0.5543  0.3643  0.1887
 6174SOL    HW229985   1.118   3.751  11.275 -0.8634 -0.9656 -0.4890
 6175SOL     OW29986   3.034   1.002  12.425  0.2773 -0.4826  0.0858
 6175SOL    HW129987   2.950   0.993  12.471 -0.5746 -0.0200 -1.3860
 6175SOL    HW229988   3.088   1.049  12.488 -1.1455  0.0924  0.8975
 6176SOL     OW29989   0.729   2.769  11.176  0.2941  0.0459  0.2333
 6176SOL    HW129990   0.643   2.809  11.163 -1.7086 -3.7207  2.0079
 6176SOL    HW229991   0.731   2.706  11.104  1.1845  0.0764  0.2217
 6177SOL     OW29992   0.599   2.095   3.341  0.8331 -0.3509  0.5139
 6177SOL    HW129993   0.625   2.133   3.257  2.1944 -0.3737  0.9281
 6177SOL    HW229994   0.614   2.159   3.411  0.0982  0.0864  0.2703
 6178SOL     OW29995   4.224   2.462   8.027  0.2956  0.7189  0.0848
 6178SOL    HW129996   4.197   2.376   7.996 -0.2838  1.7276 -2.2687
 6178SOL    HW229997   4.162   2.515   7.975  0.8937  0.5021 -0.8459
 6179SOL     OW29998   1.453   4.063   8.111 -0.2338 -0.1717 -0.2207
 6179SOL    HW129999   1.389   4.120   8.153  0.4299  0.5092 -0.1270
 6179SOL    HW230000   1.483   4.016   8.188 -0.7976 -0.3631 -0.1181
 6180SOL     OW30001   3.063   1.634   4.797  0.2217 -0.4749  0.3587
 6180SOL    HW130002   3.126   1.644   4.725 -0.1226 -0.1854  0.1003
 6180SOL    HW230003   3.097   1.556   4.841 -1.5078 -1.6601 -0.4455
 6181SOL     OW30004   3.350   1.022  16.351 -0.5971  0.1959  0.1341
 6181SOL    HW130005   3.286   1.016  16.422 -0.4029  0.1749  0.3093
 6181SOL    HW230006   3.425   0.987  16.399  0.3491  1.2227 -0.6131
 6182SOL     OW30007   2.122   0.525   7.851 -0.1275  0.1541 -0.1961
 6182SOL    HW130008   2.158   0.477   7.925  2.0205 -0.3843 -1.5815
 6182SOL    HW230009   2.208   0.535   7.810 -0.4793  0.6156 -0.8233
 6183SOL     OW30010   3.894   1.829   7.175 -0.3551 -0.4702 -0.0098
 6183SOL    HW130011   3.852   1.827   7.089 -2.4009  1.1210  0.9639
 6183SOL    HW230012   3.981   1.863   7.155 -0.5411 -0.8027 -1.3981
 6184SOL     OW30013   2.322   4.504   2.455  0.2398 -0.3530  0.3090
 6184SOL    HW130014   2.346   4.597   2.451 -0.3977 -0.1322  1.6041
 6184SOL    HW230015   2.397   4.481   2.400  0.2833  2.2758 -0.7364
 6185SOL     OW30016   1.829   1.236   6.471  0.4588  0.3563  0.1996
 6185SOL    HW130017   1.777   1.156   6.464  1.8397 -0.3277 -2.0402
 6185SOL    HW230018   1.801   1.289   6.396  0.0756 -0.0948  0.0213
 6186SOL     OW30019   1.676   3.025   3.996  0.5494  0.3199 -0.0285
 6186SOL    HW130020   1.724   2.958   3.948 -0.7652 -0.8782  0.3212
 6186SOL    HW230021   1.588   2.996   3.972 -0.0556  1.0558  1.3385
 6187SOL     OW30022   4.466   4.454   6.466 -0.4556 -0.2258 -0.0539
 6187SOL    HW130023   4.479   4.361   6.452  0.5511  0.3447 -2.9010
 6187SOL    HW230024   4.376   4.444   6.495 -0.3814 -1.9405 -0.4293
 6188SOL     OW30025   1.148   2.160  13.476 -0.2860 -0.0295  0.3740
 6188SOL    HW130026   1.154   2.077  13.429  1.4601 -0.3649  1.2024
 6188SOL    HW230027   1.220   2.205  13.432 -0.0355 -0.8482 -0.0516
 6189SOL     OW30028   0.858   0.431   4.562  0.3136 -0.3005  0.3232
 6189SOL    HW130029   0.809   0.481   4.497  0.6751  0.3763  0.5676
 6189SOL    HW230030   0.893   0.497   4.622 -0.2424  0.1001  0.2021
 6190SOL     OW30031   1.009   4.029   2.068 -0.0877  0.0488  0.5992
 6190SOL    HW130032   0.965   3.972   2.131  0.0988 -1.5633 -0.7142
 6190SOL    HW230033   0.939   4.092   2.050  0.2053  0.0729 -0.4436
 6191SOL     OW30034   3.044   3.869   4.762  0.0738 -0.1738 -0.3703
 6191SOL    HW130035   3.090   3.919   4.694 -1.9506 -1.4127 -2.6367
 6191SOL    HW230036   3.119   3.859   4.821 -2.0016 -2.0552  1.9720
 6192SOL     OW30037   3.953   2.222  14.617 -0.3678  0.1793  0.2037
 6192SOL    HW130038   3.961   2.232  14.711  1.4692 -1.9519  0.2561
 6192SOL    HW230039   4.041   2.193  14.593 -1.0084  0.8000 -2.8644
 6193SOL     OW30040   2.041   2.333   5.777 -0.2060 -0.2127 -0.0863
 6193SOL    HW130041   2.106   2.290   5.833 -0.4607 -0.4326  0.0445
 6193SOL    HW230042   2.049   2.276   5.701  1.2373 -2.3009  1.6158
 6194SOL     OW30043   1.706   2.457   7.033  0.1464 -0.2212 -0.4581
 6194SOL    HW130044   1.757   2.519   7.086 -0.9882  0.1538  0.1866
 6194SOL    HW230045   1.780   2.396   7.023 -1.3939 -2.0210 -0.8068
 6195SOL     OW30046   0.726   1.188   5.599 -0.2324 -0.5917 -0.1457
 6195SOL    HW130047   0.782   1.231   5.664 -0.9208  0.5888 -0.3173
 6195SOL    HW230048   0.673   1.263   5.571  0.3391 -0.3234 -0.5238
 6196SOL     OW30049   2.867   3.000  15.214  0.4877 -0.5153  0.0402
 6196SOL    HW130050   2.890   2.933  15.278 -1.8292 -0.4737  0.8861
 6196SOL    HW230051   2.819   2.949  15.148  0.7997 -0.9380  0.1393
 6197SOL     OW30052   0.479   4.455  13.707  0.0319 -0.0761  0.3512
 6197SOL    HW130053   0.539   4.490  13.773 -1.6919  2.9324  0.3392
 6197SOL    HW230054   0.429   4.392  13.759  0.5383 -1.0689 -0.3800
 6198SOL     OW30055   2.517   2.408   5.353 -0.4453 -0.0487 -0.1523
 6198SOL    HW130056   2.484   2.498   5.362  0.4539  0.3365 -0.7568
 6198SOL    HW230057   2.568   2.408   5.434 -0.8765 -2.3932  0.1241
 6199SOL     OW30058   0.955   0.171   4.510 -0.4567  0.5711  0.4993
 6199SOL    HW130059   1.006   0.178   4.429 -0.9418 -1.7985 -0.0075
 6199SOL    HW230060   0.915   0.258   4.517 -2.6093 -0.4076  0.5681
 6200SOL     OW30061   0.667   3.050  13.221  0.0809  0.1045  0.1381
 6200SOL    HW130062   0.595   3.021  13.277 -0.5529 -0.0762 -0.7543
 6200SOL    HW230063   0.623   3.022  13.140  0.3162 -0.6956  0.2809
 6201SOL     OW30064   1.450   2.907   4.750 -0.0310 -0.0639 -0.1534
 6201SOL    HW130065   1.507   2.980   4.774  0.2987 -0.2738 -0.2976
 6201SOL    HW230066   1.409   2.953   4.677  0.5565 -2.2536 -1.8761
 6202SOL     OW30067   0.613   0.567   3.533 -0.3913 -0.0669 -0.3205
 6202SOL    HW130068   0.526   0.548   3.500 -0.4394  0.1982 -0.3457
 6202SOL    HW230069   0.591   0.605   3.618  1.6296  1.9549 -0.6847
 6203SOL     OW30070   3.479   0.039   9.125 -0.0628  0.5757 -0.8526
 6203SOL    HW130071   3.493   0.045   9.219 -0.0637 -0.0031 -0.8138
 6203SOL    HW230072   3.415   4.685   9.130  0.1442  0.5139  0.7881
 6204SOL     OW30073   0.989   1.851   3.345  0.4605 -0.1412  0.0138
 6204SOL    HW130074   0.922   1.906   3.303  1.5841  0.7472 -0.6435
 6204SOL    HW230075   1.068   1.903   3.356  1.0938 -1.4983  1.8188
 6205SOL     OW30076   0.302   3.453  12.161 -0.0205 -0.1268  0.2277
 6205SOL    HW130077   0.354   3.463  12.241 -0.2271  1.5573  0.1534
 6205SOL    HW230078   0.234   3.390  12.185  0.4328  0.2893  2.6276
 6206SOL     OW30079   4.650   4.010   6.772 -0.3477  0.7161 -0.0476
 6206SOL    HW130080   4.675   3.980   6.685 -0.8816  0.0825  0.0152
 6206SOL    HW230081   4.649   4.105   6.764  2.7053  0.7799  0.1976
 6207SOL     OW30082   4.134   4.245  16.656 -0.3766  0.2207  0.1650
 6207SOL    HW130083   4.066   4.311  16.662  0.4317  0.6387  4.3987
 6207SOL    HW230084   4.197   4.305  16.614  0.0564  1.2985  2.3730
 6208SOL     OW30085   2.892   0.600  10.235 -0.3706 -0.1216  0.0696
 6208SOL    HW130086   2.875   0.636  10.322 -0.4666  0.8861 -0.3664
 6208SOL    HW230087   2.974   0.646  10.217 -0.5522  0.1940  0.0452
 6209SOL     OW30088   1.487   0.380   0.371 -0.6244 -0.1830  0.0267
 6209SOL    HW130089   1.487   0.289   0.402 -0.4919  0.3156  1.4499
 6209SOL    HW230090   1.393   0.399   0.373 -1.0293 -2.2931  0.9092
 6210SOL     OW30091   2.731   2.298   2.464 -0.0076 -0.2028 -0.3514
 6210SOL    HW130092   2.643   2.336   2.472  0.3568  0.0764  2.3206
 6210SOL    HW230093   2.777   2.330   2.386  0.0031  2.5006  0.7856
 6211SOL     OW30094   0.634   0.264   1.322 -0.4830 -0.0413 -0.1529
 6211SOL    HW130095   0.634   0.171   1.344  0.4926  0.2401  1.0268
 6211SOL    HW230096   0.567   0.267   1.254  0.7481  0.8204 -1.3204
 6212SOL     OW30097   0.206   4.518   5.892  0.2306 -0.9407  0.7701
 6212SOL    HW130098   0.254   4.466   5.957  2.9673  0.6024 -0.0327
 6212SOL    HW230099   0.128   4.462   5.888 -1.4379  1.3522  0.9676
 6213SOL     OW30100   2.921   2.858   6.107  0.9826 -0.0031 -0.2091
 6213SOL    HW130101   2.846   2.837   6.162  1.1458 -0.5493 -0.1924
 6213SOL    HW230102   2.956   2.932   6.156 -0.5757 -0.1581  1.1417
 6214SOL     OW30103   3.626   4.118   3.417 -0.1070  0.7703 -0.6211
 6214SOL    HW130104   3.630   4.067   3.336  1.6697 -0.2377  0.0936
 6214SOL    HW230105   3.668   4.202   3.396 -0.9920  1.4619  0.3754
 6215SOL     OW30106   3.755   2.783   3.391 -0.2322  0.7149 -0.2482
 6215SOL    HW130107   3.801   2.744   3.316 -0.7360  1.2927 -0.8491
 6215SOL    HW230108   3.820   2.826   3.447  0.1304 -1.5321  1.0843
 6216SOL     OW30109   3.565   4.260   8.856  0.3478 -0.1180  0.0448
 6216SOL    HW130110   3.622   4.183   8.865  1.2145  0.1714 -2.9507
 6216SOL    HW230111   3.488   4.237   8.908 -0.1448 -1.0797 -1.0901
 6217SOL     OW30112   2.111   1.165   4.601 -0.3356  0.0622  0.2831
 6217SOL    HW130113   2.041   1.174   4.536 -0.7827  2.3313  1.0637
 6217SOL    HW230114   2.057   1.153   4.679 -0.2692 -1.2445  0.1227
 6218SOL     OW30115   2.543   1.818   7.349  0.4594 -0.0765 -0.5504
 6218SOL    HW130116   2.608   1.763   7.306  1.5268  0.5957  0.2188
 6218SOL    HW230117   2.469   1.759   7.365  1.5040 -1.2026  0.0480
 6219SOL     OW30118   1.341   4.106  16.354  0.3707  0.2621  0.1644
 6219SOL    HW130119   1.388   4.025  16.332  1.5176  1.0335 -0.2144
 6219SOL    HW230120   1.397   4.142  16.422 -1.4501  0.6241  1.4612
 6220SOL     OW30121   0.081   3.631   6.970  0.0687  0.0775 -0.2918
 6220SOL    HW130122   0.133   3.707   6.944  0.0887  0.7840  1.8481
 6220SOL    HW230123   0.105   3.624   7.062 -2.0944  0.3876  0.2962
 6221SOL     OW30124   2.825   3.898  17.158 -0.1401  0.4409  0.2492
 6221SOL    HW130125   2.886   3.961  17.195 -1.7606  1.3511  1.3832
 6221SOL    HW230126   2.744   3.912  17.208 -0.6824 -0.3913 -0.4029
 6222SOL     OW30127   1.522   4.533   8.151  0.3795  0.7801  0.3421
 6222SOL    HW130128   1.582   4.486   8.208 -0.4246 -0.4912  0.1419
 6222SOL    HW230129   1.594   4.583   8.112  0.6165  0.2223  0.0639
 6223SOL     OW30130   1.535   4.068   6.297  0.4644 -0.3569 -0.2652
 6223SOL    HW130131   1.572   4.095   6.213  0.6249 -2.1471 -0.7689
 6223SOL    HW230132   1.530   4.152   6.343 -2.5931 -0.4576 -0.4744
 6224SOL     OW30133   0.499   0.142   1.860 -0.4098  0.5443  0.1649
 6224SOL    HW130134   0.458   0.096   1.933 -1.3481 -0.2331 -0.8489
 6224SOL    HW230135   0.425   0.199   1.841 -2.8193 -2.3863  0.8298
 6225SOL     OW30136   1.784   1.730  16.530 -0.3254 -0.0327 -0.2566
 6225SOL    HW130137   1.798   1.820  16.560  0.2407 -0.5081  0.9355
 6225SOL    HW230138   1.828   1.720  16.445 -2.0018  0.6537 -1.1862
 6226SOL     OW30139   4.712   2.913  10.472 -0.0938 -0.3461 -0.7567
 6226SOL    HW130140   0.070   2.892  10.526 -0.3271 -0.6862 -0.5587
 6226SOL    HW230141   0.024   2.991  10.425 -0.0391 -0.2789 -0.6119
 6227SOL     OW30142   1.897   2.177   4.972 -0.0267  0.1197  0.5319
 6227SOL    HW130143   1.953   2.106   4.942  0.1271  1.1669 -1.6055
 6227SOL    HW230144   1.937   2.254   4.931 -0.7214  0.7527  1.0171
 6228SOL     OW30145   3.250   3.735  16.427  0.1732  0.0838 -0.6095
 6228SOL    HW130146   3.161   3.753  16.397  0.1550 -2.0421 -1.8158
 6228SOL    HW230147   3.264   3.795  16.500 -0.0467 -2.5882  1.6068
 6229SOL     OW30148   0.482   1.595   6.876  0.4885 -0.2509  0.9286
 6229SOL    HW130149   0.477   1.590   6.971 -0.1941 -0.5650  0.8747
 6229SOL    HW230150   0.442   1.681   6.862  0.6345 -0.1384  1.1942
 6230SOL     OW30151   1.950   3.156   4.587 -0.2293 -0.3431 -0.6213
 6230SOL    HW130152   1.944   3.233   4.531  1.6490  1.7409  1.9781
 6230SOL    HW230153   1.882   3.103   4.546 -0.8350  0.3594 -0.5353
 6231SOL     OW30154   0.092   3.706   5.125 -0.3930 -0.3577 -0.0627
 6231SOL    HW130155   0.156   3.636   5.140 -0.7911 -0.7719 -0.2934
 6231SOL    HW230156   0.153   3.779   5.131  2.0387 -2.3025 -1.1176
 6232SOL     OW30157   2.895   3.432   8.008  0.5098  0.2128 -0.0054
 6232SOL    HW130158   2.851   3.516   7.994 -1.7515 -1.2420 -1.5543
 6232SOL    HW230159   2.919   3.409   7.918 -2.2560  1.8075 -1.1448
 6233SOL     OW30160   2.012   0.760   5.986 -0.6529 -0.0559  0.1026
 6233SOL    HW130161   1.953   0.757   6.061 -0.3905 -0.6171  0.2823
 6233SOL    HW230162   1.952   0.813   5.932  0.4499 -0.2871 -1.3415
 6234SOL     OW30163   3.795   1.655   4.466  0.0795  0.2862  0.0430
 6234SOL    HW130164   3.772   1.740   4.502 -1.8630  0.0656 -0.6233
 6234SOL    HW230165   3.738   1.655   4.389  2.9035  0.6906 -2.0462
 6235SOL     OW30166   4.465   0.674  12.021  0.5740  0.2275  0.2815
 6235SOL    HW130167   4.382   0.627  12.029  0.7219 -0.2614 -1.1018
 6235SOL    HW230168   4.517   0.594  12.010  2.6163  1.5210  0.4688
 6236SOL     OW30169   2.400   0.424  14.298  0.8892  0.2962 -0.2376
 6236SOL    HW130170   2.454   0.353  14.332 -0.8939 -0.7191  0.4413
 6236SOL    HW230171   2.380   0.382  14.215  1.1892 -1.4402  0.5627
 6237SOL     OW30172   1.353   4.563   3.265  0.3029  0.0895 -0.2651
 6237SOL    HW130173   1.352   4.636   3.204 -2.6447  0.7359  0.5869
 6237SOL    HW230174   1.266   4.524   3.266  1.0072 -1.4780  0.2673
 6238SOL     OW30175   3.271   3.638  16.149  0.4325 -0.2966  0.4196
 6238SOL    HW130176   3.301   3.680  16.229 -0.2165 -0.6836  0.8599
 6238SOL    HW230177   3.276   3.717  16.095 -0.5085  0.1634  1.0185
 6239SOL     OW30178   2.211   1.888  10.862 -0.0515  0.3711  0.4751
 6239SOL    HW130179   2.116   1.900  10.855  0.0301  0.5893 -0.3018
 6239SOL    HW230180   2.220   1.908  10.955 -0.0665  1.9248  0.1452
 6240SOL     OW30181   0.515   0.988   9.826  0.0174 -0.3831  0.7579
 6240SOL    HW130182   0.465   1.037   9.892 -2.1370 -1.3604 -0.1189
 6240SOL    HW230183   0.579   0.940   9.878  1.2634 -0.0837 -0.5259
 6241SOL     OW30184   2.010   4.295   5.417  0.1004 -0.4588 -0.3224
 6241SOL    HW130185   2.057   4.338   5.345 -1.1676  0.2017 -0.7518
 6241SOL    HW230186   2.038   4.355   5.485 -0.7035 -0.3320 -0.1039
 6242SOL     OW30187   3.080   3.281   3.962  0.4967 -0.3494  0.3585
 6242SOL    HW130188   3.156   3.338   3.948  1.3125 -1.4182  0.4577
 6242SOL    HW230189   3.070   3.233   3.880 -0.7643 -0.3289  0.4995
 6243SOL     OW30190   0.899   0.919   8.105  0.8490  0.1779  0.3786
 6243SOL    HW130191   0.963   0.949   8.040  2.7293 -0.9331  1.7181
 6243SOL    HW230192   0.931   0.829   8.112  1.1060  0.3220  1.0060
 6244SOL     OW30193   1.958   0.903   4.295 -0.3471 -0.4106  0.9132
 6244SOL    HW130194   1.973   0.883   4.203 -2.3951 -1.8122  0.8837
 6244SOL    HW230195   1.878   0.954   4.298 -0.2131 -0.0877 -1.2297
 6245SOL     OW30196   1.710   1.179   7.929 -0.2788  0.7634 -0.4554
 6245SOL    HW130197   1.664   1.263   7.923  0.4815  1.2418  0.5360
 6245SOL    HW230198   1.787   1.197   7.983 -2.2217 -0.5816  2.7370
 6246SOL     OW30199   1.584   4.717   6.144  0.4565  0.3765 -0.2099
 6246SOL    HW130200   1.627   4.703   6.228 -0.0014  0.5782  0.0602
 6246SOL    HW230201   1.495   0.010   6.178  0.9634  2.6824  0.3944
 6247SOL     OW30202   2.301   4.477  14.553  0.2622 -0.0761 -0.1658
 6247SOL    HW130203   2.304   4.567  14.519 -0.0006  0.0736  0.2103
 6247SOL    HW230204   2.322   4.502  14.643 -0.5092  1.1461 -0.3228
 6248SOL     OW30205   4.055   0.687   8.612  0.2348  0.1401  0.1228
 6248SOL    HW130206   3.960   0.696   8.598 -0.0202 -2.0396  0.4627
 6248SOL    HW230207   4.057   0.679   8.707  1.3063 -0.2176  0.0679
 6249SOL     OW30208   1.416   3.937   4.037  0.7779 -0.1458  0.3626
 6249SOL    HW130209   1.404   3.953   3.944 -2.1843 -2.8866  0.2567
 6249SOL    HW230210   1.498   3.981   4.054  2.2073 -2.5426 -0.2814
 6250SOL     OW30211   1.172   1.980   4.104  0.3570  0.1295 -0.3725
 6250SOL    HW130212   1.179   1.888   4.131 -0.2625  0.2669  0.2657
 6250SOL    HW230213   1.181   2.024   4.189 -0.3955  1.0251 -0.7694
 6251SOL     OW30214   1.687   3.363   5.272  0.5328  0.4648 -0.3400
 6251SOL    HW130215   1.653   3.303   5.206  0.3393  1.4897 -1.1731
 6251SOL    HW230216   1.782   3.346   5.273  0.2938 -0.8649 -0.0849
 6252SOL     OW30217   0.454   3.460   7.509  0.6644 -0.1378 -0.2861
 6252SOL    HW130218   0.449   3.490   7.599  0.1659 -0.6702 -0.1362
 6252SOL    HW230219   0.488   3.370   7.508 -2.7056 -1.4127 -1.1336
 6253SOL     OW30220   2.648   3.016   4.662 -0.1346  0.1147 -0.1730
 6253SOL    HW130221   2.602   2.951   4.716 -0.7268  0.8452  0.1931
 6253SOL    HW230222   2.582   3.065   4.613  0.0166  1.3764  0.8885
 6254SOL     OW30223   1.413   0.588  17.484 -0.3122  0.2359  0.2991
 6254SOL    HW130224   1.392   0.495  17.473 -0.8590  0.4198 -0.1507
 6254SOL    HW230225   1.351   0.642  17.435 -1.2334 -0.0630  1.1371
 6255SOL     OW30226   0.589   0.003   8.553  0.1606 -0.2236  0.7042
 6255SOL    HW130227   0.552   4.633   8.559 -0.8872  0.1066 -1.0419
 6255SOL    HW230228   0.562   0.023   8.463 -1.9037 -2.3389  0.8515
 6256SOL     OW30229   0.626   0.535   7.595 -0.0802 -0.1495 -0.2154
 6256SOL    HW130230   0.669   0.519   7.510 -1.6589  0.0772 -1.0612
 6256SOL    HW230231   0.641   0.454   7.644 -0.1993  0.3094  0.5734
 6257SOL     OW30232   3.434   0.039   8.622  0.4056  0.3483  0.7607
 6257SOL    HW130233   3.506   0.101   8.630  1.0488  0.1459 -3.3292
 6257SOL    HW230234   3.378   0.083   8.686 -0.6505  0.3181 -0.1324
 6258SOL     OW30235   2.951   4.171   9.206  0.5842 -0.1365 -0.0551
 6258SOL    HW130236   2.946   4.078   9.227 -1.4399  0.1317  0.6553
 6258SOL    HW230237   2.967   4.182   9.113  0.2550  1.3521  0.0632
 6259SOL     OW30238   4.448   2.168   6.510  0.9163  0.1101 -0.2958
 6259SOL    HW130239   4.405   2.088   6.541 -1.2226  1.8357  1.1501
 6259SOL    HW230240   4.439   2.161   6.415  1.6417 -0.8725 -0.2862
 6260SOL     OW30241   3.038   3.058  16.321 -0.1117 -0.0118 -0.7865
 6260SOL    HW130242   3.092   3.076  16.244  2.0493  1.2166  0.9779
 6260SOL    HW230243   3.060   3.133  16.377  0.2908 -0.8993  0.2570
 6261SOL     OW30244   3.322   0.333   6.950 -0.2714 -0.7104 -0.1105
 6261SOL    HW130245   3.230   0.331   6.974 -0.2442 -0.9976 -0.0296
 6261SOL    HW230246   3.329   0.420   6.912 -0.6100 -0.4601  0.3988
 6262SOL     OW30247   1.481   1.730   0.617  0.3300 -0.2186  0.1730
 6262SOL    HW130248   1.390   1.753   0.632 -0.3468 -3.0972  0.3320
 6262SOL    HW230249   1.478   1.640   0.585 -0.2011 -0.5649  1.1843
 6263SOL     OW30250   3.974   2.921   9.093  0.1874 -0.5314  0.4761
 6263SOL    HW130251   3.928   2.974   9.028  1.5158  1.0150  0.8033
 6263SOL    HW230252   4.052   2.976   9.099 -0.9085  1.0916 -0.4233
 6264SOL     OW30253   0.957   0.313  11.917 -0.1707  0.4548 -0.2785
 6264SOL    HW130254   0.868   0.349  11.916 -0.0154  0.7804 -2.6523
 6264SOL    HW230255   0.946   0.235  11.863  1.1974  1.3937 -1.9063
 6265SOL     OW30256   0.176   2.979   3.514 -0.6264 -0.6466  0.6056
 6265SOL    HW130257   0.247   2.964   3.452 -0.6588  1.1684  0.1143
 6265SOL    HW230258   0.121   3.048   3.476  0.0742 -0.3068  0.2095
 6266SOL     OW30259   3.204   3.766   5.566 -0.1920  0.1911 -0.2144
 6266SOL    HW130260   3.148   3.828   5.611  0.8388  1.1922 -0.3018
 6266SOL    HW230261   3.237   3.714   5.639 -2.1247 -0.9848 -0.1734
 6267SOL     OW30262   4.081   0.358  10.662  0.3015 -0.0762  0.3178
 6267SOL    HW130263   4.013   0.388  10.723 -1.1984 -0.2819 -1.2844
 6267SOL    HW230264   4.147   0.420  10.695 -0.2422  0.3014  0.6972
 6268SOL     OW30265   0.647   2.745   9.810  0.1414  0.1148  0.0868
 6268SOL    HW130266   0.575   2.807   9.813  1.3755  1.5600 -0.1129
 6268SOL    HW230267   0.638   2.710   9.721 -0.6448  1.9703 -0.5546
 6269SOL     OW30268   4.237   4.319   6.274 -0.1547 -0.1909  0.4432
 6269SOL    HW130269   4.185   4.398   6.291  1.2169  1.0563 -1.2323
 6269SOL    HW230270   4.218   4.266   6.352 -2.6481  1.0950  0.7168
 6270SOL     OW30271   1.610   3.287   8.467  0.0952 -0.2171  0.4963
 6270SOL    HW130272   1.534   3.305   8.522 -0.4457  0.6951 -0.5376
 6270SOL    HW230273   1.632   3.197   8.488 -0.6685 -0.6455 -0.5050
 6271SOL     OW30274   0.955   1.888   5.211 -0.5540  0.3636  0.7708
 6271SOL    HW130275   0.975   1.865   5.120  1.2805  1.5891  0.8652
 6271SOL    HW230276   1.042   1.893   5.249  0.2002 -0.9925 -0.7808
 6272SOL     OW30277   1.846   3.465   1.222 -0.0156  0.0688  0.6319
 6272SOL    HW130278   1.876   3.379   1.194  1.5117  0.1033  2.1734
 6272SOL    HW230279   1.926   3.517   1.227 -1.3080  1.9954  1.6778
 6273SOL     OW30280   0.068   3.822  11.460 -0.5223 -0.2230 -0.2785
 6273SOL    HW130281   0.001   3.815  11.393 -1.3658 -0.4620  0.5879
 6273SOL    HW230282   0.048   3.749  11.519 -2.4149  0.7557  0.2996
 6274SOL     OW30283   1.704   4.639   3.758 -0.3803  0.2595 -0.2497
 6274SOL    HW130284   1.669   4.551   3.767 -2.7270  1.3612  1.4101
 6274SOL    HW230285   1.697   4.671   3.848 -0.5540 -2.2891  0.6241
 6275SOL     OW30286   2.104   2.511   9.325  0.3165 -0.0008  0.4541
 6275SOL    HW130287   2.019   2.466   9.321 -1.0736  2.3650  3.1859
 6275SOL    HW230288   2.116   2.528   9.419 -0.1876  0.5412  0.4227
 6276SOL     OW30289   0.543   2.544  12.183  0.4400  0.0862 -0.2432
 6276SOL    HW130290   0.579   2.545  12.272 -0.0695  0.6256 -0.0407
 6276SOL    HW230291   0.479   2.473  12.192 -0.7752  1.2198  0.0806
 6277SOL     OW30292   3.496   1.155   6.710  0.1285 -0.5839 -0.6738
 6277SOL    HW130293   3.487   1.163   6.615  2.2351  0.0160 -0.8274
 6277SOL    HW230294   3.567   1.092   6.721  0.6147 -0.2520 -1.8272
 6278SOL     OW30295   3.465   4.411  14.199  0.0712  0.6287 -0.1280
 6278SOL    HW130296   3.381   4.455  14.206 -1.3757 -1.8708 -1.7093
 6278SOL    HW230297   3.507   4.414  14.285  1.9957 -0.0960 -1.0314
 6279SOL     OW30298   3.635   1.119   8.303 -1.0249  0.2498 -0.2203
 6279SOL    HW130299   3.595   1.036   8.278  1.0451 -0.6316 -0.6213
 6279SOL    HW230300   3.653   1.105   8.396 -2.8600  0.1360  0.1136
 6280SOL     OW30301   1.408   3.821   7.525 -0.1644  0.4949  0.3482
 6280SOL    HW130302   1.437   3.851   7.612 -2.7181  0.8036  1.1085
 6280SOL    HW230303   1.453   3.885   7.470 -0.2857 -0.6733 -1.1075
 6281SOL     OW30304   0.792   3.529   4.428  0.8534  0.1462 -0.4051
 6281SOL    HW130305   0.886   3.532   4.448  0.4574 -0.2246  1.4604
 6281SOL    HW230306   0.783   3.608   4.374  1.6847  0.7327  0.3099
 6282SOL     OW30307   1.252   0.489  11.589 -0.4051  0.0267  0.3784
 6282SOL    HW130308   1.277   0.483  11.497 -0.1245 -0.5421  0.4916
 6282SOL    HW230309   1.173   0.542  11.600 -0.2231  0.1969  0.8923
 6283SOL     OW30310   1.095   2.178   6.739  0.1383 -0.3929  0.5448
 6283SOL    HW130311   1.167   2.202   6.797  1.6231 -1.3375 -0.9251
 6283SOL    HW230312   1.041   2.257   6.745  0.0659 -0.3862 -0.2310
 6284SOL     OW30313   0.364   3.533   8.602  0.0260  0.9854 -0.0347
 6284SOL    HW130314   0.451   3.539   8.641  0.0430  0.0330  0.0866
 6284SOL    HW230315   0.319   3.612   8.631 -1.3638  0.8081 -1.7821
 6285SOL     OW30316   2.000   4.335   0.788  0.4129  0.2875  0.1618
 6285SOL    HW130317   2.051   4.364   0.713  0.9874  1.7944  1.1242
 6285SOL    HW230318   1.919   4.384   0.772  0.6553  1.2494  1.8460
 6286SOL     OW30319   0.297   1.626  16.928  0.4799  0.2534  0.0138
 6286SOL    HW130320   0.232   1.584  16.872  0.7127 -0.4942  0.3074
 6286SOL    HW230321   0.374   1.619  16.871  0.3990  0.1834 -0.0854
 6287SOL     OW30322   3.244   0.561   6.491 -0.2225 -0.3455  0.4631
 6287SOL    HW130323   3.289   0.495   6.438  0.2189  0.6752 -0.4251
 6287SOL    HW230324   3.278   0.641   6.450 -1.0832 -0.4158 -0.3975
 6288SOL     OW30325   2.671   1.726   2.893  0.2454  0.6697 -0.3487
 6288SOL    HW130326   2.698   1.793   2.830  0.2443 -2.5442 -3.7277
 6288SOL    HW230327   2.669   1.774   2.977  0.4307 -0.8626  0.5221
 6289SOL     OW30328   1.029   2.848   1.748  0.3173  0.1526  0.1603
 6289SOL    HW130329   0.997   2.928   1.791 -1.0272 -1.6484  2.5259
 6289SOL    HW230330   1.110   2.833   1.798  0.8313 -1.7599 -1.2568
 6290SOL     OW30331   2.067   3.249   2.984 -0.2344 -0.4466  0.2948
 6290SOL    HW130332   2.028   3.163   2.999  1.7723 -1.4466 -0.2943
 6290SOL    HW230333   2.054   3.297   3.066 -0.7179 -2.0847  1.1790
 6291SOL     OW30334   1.882   3.169   1.347  0.1700  0.4611 -0.3253
 6291SOL    HW130335   1.905   3.214   1.266 -1.3216 -0.3459 -1.2085
 6291SOL    HW230336   1.893   3.078   1.317  2.1361  0.4905  0.3410
 6292SOL     OW30337   1.707   3.763   4.608  0.2096 -0.4002  0.4843
 6292SOL    HW130338   1.659   3.781   4.527  2.0761 -1.4081 -0.8540
 6292SOL    HW230339   1.789   3.811   4.602 -0.6717  1.0378 -0.0678
 6293SOL     OW30340   3.064   3.340   2.940 -0.0540  0.0284  0.2036
 6293SOL    HW130341   3.050   3.300   2.853  0.2879  0.1946  0.0711
 6293SOL    HW230342   3.076   3.253   2.979 -1.2314 -0.1636  0.1573
 6294SOL     OW30343   1.191   1.359   4.592  0.1955  0.1474  0.7976
 6294SOL    HW130344   1.205   1.338   4.499  2.1628  0.0258  1.1355
 6294SOL    HW230345   1.231   1.281   4.631  0.1588 -0.4432 -0.3379
 6295SOL     OW30346   4.005   4.557   6.531 -0.2498 -0.1280 -0.0211
 6295SOL    HW130347   4.016   4.584   6.440 -1.1804  3.7560  1.0033
 6295SOL    HW230348   3.948   4.626   6.567 -1.1238 -1.2959  0.8306
 6296SOL     OW30349   0.336   1.413   2.611  0.3546  0.1971  0.5375
 6296SOL    HW130350   0.268   1.384   2.551  3.8646 -0.0954 -3.2706
 6296SOL    HW230351   0.412   1.363   2.583  0.0357 -0.1757  0.3449
 6297SOL     OW30352   3.053   1.936  10.859  0.8429  0.2181 -0.3039
 6297SOL    HW130353   3.102   1.928  10.941  2.4535 -0.8295 -1.3467
 6297SOL    HW230354   3.011   2.021  10.862  0.9766  0.3202 -1.4033
 6298SOL     OW30355   4.076   4.186  14.721 -0.4024 -0.6071  0.1158
 6298SOL    HW130356   4.120   4.102  14.731 -1.1357 -1.0031  0.0391
 6298SOL    HW230357   4.132   4.238  14.778 -1.4698  0.8490 -0.1585
 6299SOL     OW30358   4.221   2.750   1.764  0.2702 -0.1160 -0.1500
 6299SOL    HW130359   4.313   2.770   1.781  0.4534 -0.6145 -0.5585
 6299SOL    HW230360   4.189   2.826   1.716 -0.1214  0.9073  1.7160
 6300SOL     OW30361   0.808   0.546   9.856 -0.3875  0.2753  0.6591
 6300SOL    HW130362   0.784   0.591   9.775 -0.9736 -0.3084  0.5084
 6300SOL    HW230363   0.902   0.538   9.842 -0.3891  1.7779 -0.2278
 6301SOL     OW30364   4.183   1.048   4.666 -0.2426 -0.2561  0.3360
 6301SOL    HW130365   4.209   1.140   4.679  1.4908 -1.0931  2.7602
 6301SOL    HW230366   4.270   1.018   4.693  0.0119 -1.1970 -1.5022
 6302SOL     OW30367   0.144   1.536   7.928  0.0468 -0.5268 -0.0546
 6302SOL    HW130368   0.062   1.490   7.944 -0.4313 -0.0972 -1.2681
 6302SOL    HW230369   0.184   1.479   7.862 -1.8636 -3.2556  1.1513
 6303SOL     OW30370   0.064   0.437   4.683  0.1665  0.0741  0.3051
 6303SOL    HW130371   0.061   0.343   4.666  0.4064 -0.2497  2.1417
 6303SOL    HW230372   4.701   0.477   4.652 -0.2609 -0.1892  1.0999
 6304SOL     OW30373   3.613   1.399   8.577 -0.2443  0.3673  0.4569
 6304SOL    HW130374   3.591   1.485   8.542  2.8941  0.3941 -1.4567
 6304SOL    HW230375   3.604   1.422   8.670 -2.1372  0.3440  0.2784
 6305SOL     OW30376   1.450   3.645  13.594 -0.6094 -0.2065  0.1010
 6305SOL    HW130377   1.437   3.579  13.662 -2.3197 -0.8721 -0.8728
 6305SOL    HW230378   1.456   3.595  13.512  0.4259 -1.6648  1.0608
 6306SOL     OW30379   4.226   0.967   9.115  0.5494  0.3421  0.3706
 6306SOL    HW130380   4.274   1.047   9.097 -0.2616  0.5168 -0.9594
 6306SOL    HW230381   4.285   0.896   9.089 -0.6072 -0.8333  0.9469
 6307SOL     OW30382   2.554   3.017   7.142  0.1754 -0.4462  0.2033
 6307SOL    HW130383   2.473   3.013   7.193  0.3314 -1.7148  0.3562
 6307SOL    HW230384   2.545   3.081   7.072  0.2060  0.8727  1.4160
 6308SOL     OW30385   2.602   2.309   4.327  0.0879  0.6097  0.3065
 6308SOL    HW130386   2.564   2.269   4.405  1.0506 -0.6166  0.1282
 6308SOL    HW230387   2.586   2.403   4.336  1.0980  0.8762 -0.6473
 6309SOL     OW30388   2.185   3.950  17.362  0.3213  0.2050 -0.6471
 6309SOL    HW130389   2.131   3.893  17.417 -0.1070  0.9057 -0.3401
 6309SOL    HW230390   2.211   3.877  17.306 -0.5282 -0.1729 -0.5569
 6310SOL     OW30391   3.418   3.382   8.524 -0.0066  0.2433  0.4828
 6310SOL    HW130392   3.357   3.429   8.468 -0.9794 -1.0646  0.4384
 6310SOL    HW230393   3.454   3.451   8.579 -0.9741 -0.1032  1.5574
 6311SOL     OW30394   0.540   1.068  16.289 -0.0590  0.5072 -0.4972
 6311SOL    HW130395   0.613   1.051  16.230  0.0741  0.2244 -0.2491
 6311SOL    HW230396   0.462   1.047  16.236 -0.1542 -1.0802  0.2582
 6312SOL     OW30397   4.707   2.568   4.784  0.2998  0.5168 -0.1069
 6312SOL    HW130398   0.062   2.593   4.727  1.7870  0.3109  1.6880
 6312SOL    HW230399   0.027   2.522   4.859  0.0870 -0.7469 -0.7784
 6313SOL     OW30400   2.935   4.227   7.794  0.5742  0.3719  0.2982
 6313SOL    HW130401   2.986   4.292   7.746 -0.6026 -0.9402 -2.7533
 6313SOL    HW230402   2.920   4.289   7.865  3.3827  0.5152  0.7555
 6314SOL     OW30403   0.437   1.932  12.520 -0.1839  0.3413 -0.1912
 6314SOL    HW130404   0.507   1.991  12.492  1.2646 -0.9608  0.7048
 6314SOL    HW230405   0.398   1.981  12.592  0.2974  0.4319  0.0099
 6315SOL     OW30406   0.830   4.268   2.490  0.0311  0.3292 -0.5985
 6315SOL    HW130407   0.770   4.229   2.428 -1.2088  3.6452 -1.4899
 6315SOL    HW230408   0.903   4.217   2.454 -1.6592 -1.8058 -0.9814
 6316SOL     OW30409   3.433   4.197   5.426 -0.5535 -0.2160 -0.4189
 6316SOL    HW130410   3.443   4.104   5.448  0.0536 -0.0560 -0.0267
 6316SOL    HW230411   3.401   4.195   5.336  1.0357  1.7316 -1.0207
 6317SOL     OW30412   4.688   1.801   8.098  0.4425 -0.0079  0.4668
 6317SOL    HW130413   4.597   1.772   8.102  0.5005  0.3077  3.5292
 6317SOL    HW230414   0.010   1.752   8.170 -0.5128  2.0838  2.3932
 6318SOL     OW30415   1.397   4.038   6.576 -0.1777  0.0773 -0.8518
 6318SOL    HW130416   1.334   4.105   6.551  0.6847  2.2316  2.6098
 6318SOL    HW230417   1.384   3.963   6.518 -1.9150 -0.3663  0.1145
 6319SOL     OW30418   3.530   4.064   7.405 -0.1225  0.3039  0.2770
 6319SOL    HW130419   3.526   4.112   7.322  0.0525 -0.8781 -0.4129
 6319SOL    HW230420   3.584   4.124   7.457 -0.1888 -1.0626  1.9301
 6320SOL     OW30421   0.209   1.027  16.565 -0.0245  0.1417 -0.3627
 6320SOL    HW130422   0.265   0.955  16.594 -1.1615 -0.1772  1.0297
 6320SOL    HW230423   0.158   1.049  16.643 -0.1623  1.9917 -0.9744
 6321SOL     OW30424   0.501   4.080   6.054  0.5896  0.2520  0.1115
 6321SOL    HW130425   0.409   4.056   6.048  0.4620  0.4190  1.3958
 6321SOL    HW230426   0.517   4.088   5.960  0.2140 -0.9346 -0.0482
 6322SOL     OW30427   0.269   2.739   8.117 -0.4105  0.0946  0.2432
 6322SOL    HW130428   0.173   2.742   8.126 -0.7643 -2.1428 -2.6992
 6322SOL    HW230429   0.279   2.825   8.157 -0.7411  0.7081 -0.9960
 6323SOL     OW30430   1.771   2.009   7.782  0.0348 -0.3869  0.2401
 6323SOL    HW130431   1.720   2.090   7.768  2.5808  1.3992  1.3312
 6323SOL    HW230432   1.840   2.024   7.717  1.2487  1.6122  1.9873
 6324SOL     OW30433   2.681   1.924   6.000  0.4313 -0.6923  0.0376
 6324SOL    HW130434   2.657   2.010   5.964  0.2213 -0.4870  0.6592
 6324SOL    HW230435   2.776   1.931   5.996  0.2341  1.4335 -0.7960
 6325SOL     OW30436   4.212   4.246   2.969 -0.5130 -0.0157 -0.4301
 6325SOL    HW130437   4.245   4.173   2.916 -0.8668 -1.3283  1.1296
 6325SOL    HW230438   4.273   4.316   2.944  0.2261 -0.3634  0.3740
 6326SOL     OW30439   2.837   1.211  13.460  0.0534 -0.5102 -0.1945
 6326SOL    HW130440   2.836   1.220  13.364  1.2331 -0.2940 -0.1893
 6326SOL    HW230441   2.746   1.209  13.490  0.0266 -1.3560 -0.3171
 6327SOL     OW30442   0.802   0.277   5.547 -0.0783  0.1363  0.7491
 6327SOL    HW130443   0.778   0.188   5.521 -0.7403  0.0017  1.7941
 6327SOL    HW230444   0.718   0.312   5.577  0.2573 -0.4020  2.3357
 6328SOL     OW30445   0.553   3.553   6.287  0.5692 -0.2309 -0.6481
 6328SOL    HW130446   0.577   3.530   6.197  3.3823  1.2589 -0.2803
 6328SOL    HW230447   0.614   3.625   6.305  1.3281 -1.3635  1.3404
 6329SOL     OW30448   0.356   0.167   4.732  0.0415  0.5702  0.1397
 6329SOL    HW130449   0.282   0.108   4.741  1.3241 -1.2137 -1.0724
 6329SOL    HW230450   0.413   0.106   4.684  2.3120  0.8294  2.4622
 6330SOL     OW30451   3.570   4.210   4.760  0.0514 -0.2413  0.1440
 6330SOL    HW130452   3.659   4.197   4.728  0.1958  2.9458 -0.7263
 6330SOL    HW230453   3.570   4.301   4.791 -3.4935 -0.6999  1.5732
 6331SOL     OW30454   4.360   3.667   6.416 -0.2731 -0.0001  0.8778
 6331SOL    HW130455   4.290   3.608   6.444 -3.2906  2.4288 -1.5229
 6331SOL    HW230456   4.315   3.750   6.398  0.4435  0.3607  0.7624
 6332SOL     OW30457   1.176   4.301   5.639  0.1729 -0.4801  0.0435
 6332SOL    HW130458   1.145   4.383   5.600  1.1078  0.7652  1.9188
 6332SOL    HW230459   1.211   4.332   5.723  0.2846 -0.4983  0.0042
 6333SOL     OW30460   2.624   2.919  12.059 -0.2666  0.5888  0.0852
 6333SOL    HW130461   2.590   2.988  12.116 -2.6506 -0.3437 -0.2183
 6333SOL    HW230462   2.710   2.959  12.045  0.0168 -0.1821 -0.3888
 6334SOL     OW30463   3.670   1.727   9.536  0.1151  0.5549  0.0917
 6334SOL    HW130464   3.731   1.689   9.473 -0.6718  1.6020 -1.2937
 6334SOL    HW230465   3.612   1.770   9.473 -0.0750 -0.5695 -0.4971
 6335SOL     OW30466   0.417   0.431   0.953 -0.3489 -0.1723 -0.3155
 6335SOL    HW130467   0.344   0.464   1.005 -0.0058  1.1308 -0.6614
 6335SOL    HW230468   0.460   0.372   1.015 -0.2045 -1.4682 -1.6516
 6336SOL     OW30469   2.638   0.478   3.343 -0.0969 -0.3682  0.2285
 6336SOL    HW130470   2.549   0.476   3.376 -0.0696 -0.3266  0.3063
 6336SOL    HW230471   2.660   0.387   3.324  2.2581  0.5065 -1.3072
 6337SOL     OW30472   4.328   2.495  11.109 -0.2338  0.5760 -0.1063
 6337SOL    HW130473   4.367   2.416  11.071 -1.5702 -1.3678  2.5330
 6337SOL    HW230474   4.393   2.557  11.077  2.0757 -1.6259  0.3370
 6338SOL     OW30475   3.571   1.353  16.857  0.5295 -0.8774 -0.0186
 6338SOL    HW130476   3.478   1.346  16.833  0.7262 -1.3169 -0.6600
 6338SOL    HW230477   3.600   1.286  16.794  2.5781  1.5211 -1.5826
 6339SOL     OW30478   4.479   1.095  17.176 -0.7679  0.0360 -0.1809
 6339SOL    HW130479   4.449   1.164  17.234  1.3577 -0.5513  1.6006
 6339SOL    HW230480   4.573   1.109  17.162 -0.9809  0.7120 -0.9257
 6340SOL     OW30481   0.187   3.818   5.445  0.4848  0.2814 -0.1366
 6340SOL    HW130482   0.272   3.820   5.400 -0.8831 -1.7401 -2.7977
 6340SOL    HW230483   0.212   3.827   5.537 -0.3427  0.8715  0.0304
 6341SOL     OW30484   0.263   4.604   5.237  0.4509 -0.0214  0.0955
 6341SOL    HW130485   0.172   4.574   5.234  0.1166  1.1728 -1.7180
 6341SOL    HW230486   0.315   4.540   5.189 -0.0141 -0.5236  0.2644
 6342SOL     OW30487   4.658   3.568   8.766 -0.4491  0.6878  0.2155
 6342SOL    HW130488   0.010   3.576   8.831 -1.2731  1.9833  0.9396
 6342SOL    HW230489   4.590   3.620   8.809 -1.6712 -0.9051  0.1868
 6343SOL     OW30490   4.561   0.207  12.818 -1.1341 -0.0385  0.4247
 6343SOL    HW130491   4.643   0.238  12.780 -0.2400  0.3522  2.6454
 6343SOL    HW230492   4.506   0.189  12.742 -1.1994 -0.8561  0.6653
 6344SOL     OW30493   1.821   3.993  13.690  0.2360  0.0467 -0.6344
 6344SOL    HW130494   1.910   4.011  13.658 -0.7611 -0.2074 -3.5451
 6344SOL    HW230495   1.802   3.905  13.657 -0.2379  0.4281 -1.3664
 6345SOL     OW30496   1.609   1.320   6.145 -0.1058 -0.1376  0.1185
 6345SOL    HW130497   1.522   1.324   6.187 -0.8016 -0.7086 -1.2866
 6345SOL    HW230498   1.594   1.368   6.064  0.0284 -0.5988 -0.1756
 6346SOL     OW30499   1.720   0.107  17.129 -0.2230  0.0209 -0.1640
 6346SOL    HW130500   1.781   0.048  17.173  0.8202  2.0957  1.1690
 6346SOL    HW230501   1.735   0.082  17.038 -1.2069  1.2864 -0.6848
 6347SOL     OW30502   1.354   2.993   4.466  0.6093  0.2528  0.1489
 6347SOL    HW130503   1.408   2.956   4.396  0.5099  0.9175 -0.2799
 6347SOL    HW230504   1.385   3.084   4.465  1.2708  0.0092 -1.9443
 6348SOL     OW30505   4.678   2.375   3.519  0.8018 -0.8329  0.2947
 6348SOL    HW130506   4.650   2.286   3.498 -0.6886 -0.6075  1.2852
 6348SOL    HW230507   4.670   2.380   3.614 -1.7606  1.2008 -0.0202
 6349SOL     OW30508   2.566   1.288   0.074  0.7260  0.1955 -0.1980
 6349SOL    HW130509   2.566   1.286   0.170  0.1251 -2.4523 -0.2532
 6349SOL    HW230510   2.518   1.370   0.064 -1.1776 -0.7228  1.2040
 6350SOL     OW30511   1.928   3.182   6.377 -0.1198 -0.2890 -0.1416
 6350SOL    HW130512   1.988   3.152   6.446 -0.1776 -0.5329 -0.1969
 6350SOL    HW230513   1.845   3.162   6.420  1.4745 -1.3500  2.5026
 6351SOL     OW30514   2.891   3.170   1.314  0.4400 -0.0909  0.5056
 6351SOL    HW130515   2.885   3.173   1.410 -1.2152 -0.9836  0.4265
 6351SOL    HW230516   2.984   3.173   1.291  0.0511  3.1850 -0.6562
 6352SOL     OW30517   3.188   0.258   5.900  0.1812 -0.4786 -0.2933
 6352SOL    HW130518   3.107   0.233   5.945  0.1400  0.0607 -0.0539
 6352SOL    HW230519   3.261   0.221   5.949 -1.0039 -0.6674  1.3724
 6353SOL     OW30520   2.271   1.996  17.011 -0.3554 -0.3497  0.0856
 6353SOL    HW130521   2.190   1.987  17.061  0.8533  0.7541  2.2474
 6353SOL    HW230522   2.287   1.903  16.998  0.2959 -0.2940  0.4775
 6354SOL     OW30523   3.384   4.698   9.394  0.2115 -0.4846 -0.0646
 6354SOL    HW130524   3.349   4.612   9.372 -0.4254 -0.3335  0.3429
 6354SOL    HW230525   3.426   4.684   9.479 -1.9062 -2.1310  0.7151
 6355SOL     OW30526   2.479   4.412   7.884 -0.4016 -0.7294  0.3489
 6355SOL    HW130527   2.565   4.382   7.857 -0.1021  2.1261 -1.7513
 6355SOL    HW230528   2.424   4.338   7.858 -0.7727 -0.7279  1.1126
 6356SOL     OW30529   3.342   3.433   5.543  0.0211  0.5510 -0.5058
 6356SOL    HW130530   3.293   3.473   5.615 -0.8051 -2.4053  0.5903
 6356SOL    HW230531   3.263   3.407   5.496  0.6787 -0.9115 -0.8114
 6357SOL     OW30532   1.858   2.436  11.185  0.1162 -0.3543 -0.0562
 6357SOL    HW130533   1.941   2.389  11.174  0.3294 -0.2148  0.9862
 6357SOL    HW230534   1.819   2.374  11.247  1.3367 -0.1574  0.8992
 6358SOL     OW30535   0.127   0.490   8.114 -0.1598  0.2482 -0.6219
 6358SOL    HW130536   0.128   0.456   8.204 -0.6093 -1.1904 -1.1641
 6358SOL    HW230537   0.070   0.565   8.133 -0.5948 -0.6691  1.7192
 6359SOL     OW30538   2.759   0.413  13.298 -0.1807 -0.4270  0.1592
 6359SOL    HW130539   2.751   0.455  13.384  1.8397 -0.9690  0.6024
 6359SOL    HW230540   2.736   0.321  13.311 -0.2278 -0.5654 -0.9027
 6360SOL     OW30541   4.395   0.203  10.555  0.7216  0.0316  0.1958
 6360SOL    HW130542   4.425   0.118  10.588  0.4946 -0.0065  0.3029
 6360SOL    HW230543   4.300   0.199  10.566  0.5539  0.0899 -1.2073
 6361SOL     OW30544   0.565   2.474  13.445 -0.4384  0.1721  0.4421
 6361SOL    HW130545   0.552   2.565  13.420 -1.1379  0.1050  0.5531
 6361SOL    HW230546   0.622   2.485  13.521 -0.5485 -0.2809  0.5932
 6362SOL     OW30547   3.216   3.000   3.178  0.4833 -0.4231  0.5666
 6362SOL    HW130548   3.137   3.030   3.133  0.2436 -1.5601  0.2164
 6362SOL    HW230549   3.172   2.927   3.221 -0.4840 -0.1144  0.1203
 6363SOL     OW30550   3.275   1.292  16.859  0.4072 -0.1121 -0.1630
 6363SOL    HW130551   3.292   1.207  16.898 -0.2066 -0.2238 -0.1417
 6363SOL    HW230552   3.217   1.267  16.787 -1.8469  1.5019  1.1012
 6364SOL     OW30553   2.715   2.143   4.717 -0.3519  0.1278  0.4310
 6364SOL    HW130554   2.774   2.203   4.762 -1.7030  0.0692  2.2562
 6364SOL    HW230555   2.758   2.058   4.731 -2.0659 -0.5459  1.6063
 6365SOL     OW30556   3.831   4.432   0.589 -0.2725 -0.0097  0.1148
 6365SOL    HW130557   3.805   4.430   0.681 -0.3218  3.7877  0.2015
 6365SOL    HW230558   3.917   4.473   0.586  0.0554 -0.6115  1.0383
 6366SOL     OW30559   4.499   0.886   0.956 -0.2484  0.5864  0.0233
 6366SOL    HW130560   4.500   0.955   0.889 -0.2549 -0.0126 -0.5988
 6366SOL    HW230561   4.557   0.818   0.922 -0.4235 -0.2981  1.5076
 6367SOL     OW30562   2.580   4.427   2.341 -0.0274  0.2056 -0.0190
 6367SOL    HW130563   2.668   4.466   2.342  0.1250 -0.1671  0.9416
 6367SOL    HW230564   2.603   4.351   2.287  0.7566 -0.6836  1.5502
 6368SOL     OW30565   4.131   3.594   6.230  0.5311  0.0983  0.4106
 6368SOL    HW130566   4.140   3.689   6.220  3.3130 -0.2258 -0.3107
 6368SOL    HW230567   4.222   3.567   6.213  1.0873  0.7060  2.4008
 6369SOL     OW30568   1.273   2.222   6.215  0.6455 -0.6258 -0.1829
 6369SOL    HW130569   1.290   2.315   6.199 -1.7459 -0.0374  0.7242
 6369SOL    HW230570   1.188   2.221   6.260  1.1465 -1.6893  0.7628
 6370SOL     OW30571   2.730   3.276   8.833  0.3309  0.5850  0.0620
 6370SOL    HW130572   2.745   3.290   8.739  0.0886 -1.9858 -0.3488
 6370SOL    HW230573   2.638   3.302   8.843  0.3091  0.4135  0.3084
 6371SOL     OW30574   1.413   3.243   4.051 -0.1497 -0.1275 -0.0046
 6371SOL    HW130575   1.335   3.269   4.001  1.7945 -0.5175 -3.2063
 6371SOL    HW230576   1.452   3.175   3.996 -1.3678 -1.2492  0.4983
 6372SOL     OW30577   3.851   0.389  10.184 -0.5568 -0.2943 -0.1029
 6372SOL    HW130578   3.894   0.348  10.109  0.3163  0.0816  0.1949
 6372SOL    HW230579   3.866   0.331  10.259  0.6055  0.5132  0.2986
 6373SOL     OW30580   2.762   3.617   5.748 -0.2630  0.8214 -0.0330
 6373SOL    HW130581   2.680   3.660   5.771 -2.2738 -2.8849 -0.3951
 6373SOL    HW230582   2.793   3.595   5.836 -0.6769 -0.0994 -0.1196
 6374SOL     OW30583   3.430   3.701  17.009  0.1902  0.3566 -0.0391
 6374SOL    HW130584   3.511   3.752  17.005 -1.0551  2.4847  1.3624
 6374SOL    HW230585   3.462   3.611  17.010 -4.1870 -1.1651  0.3467
 6375SOL     OW30586   2.075   1.715   3.684 -0.3524 -0.8611  0.4549
 6375SOL    HW130587   2.013   1.667   3.628  0.1699  1.4318 -2.0544
 6375SOL    HW230588   2.130   1.648   3.725  1.8826  0.3646 -0.6050
 6376SOL     OW30589   2.119   3.572   1.147  0.0309  0.1609 -0.2227
 6376SOL    HW130590   2.194   3.569   1.207 -0.0181 -0.0278 -0.1692
 6376SOL    HW230591   2.140   3.490   1.102  0.7447  0.0043  0.3834
 6377SOL     OW30592   1.473   0.338  14.611  0.2570 -0.7013 -0.5751
 6377SOL    HW130593   1.540   0.357  14.545 -0.4386 -0.2371 -1.1493
 6377SOL    HW230594   1.508   0.357  14.698 -0.9415 -1.0415 -0.0174
 6378SOL     OW30595   2.312   1.133   4.959 -0.1625  0.1354  0.2315
 6378SOL    HW130596   2.245   1.140   4.891  1.9896  0.3490 -1.8521
 6378SOL    HW230597   2.315   1.038   4.970 -3.0026 -0.2778 -2.3752
 6379SOL     OW30598   0.570   2.630   3.715 -0.1672  0.1469  0.3426
 6379SOL    HW130599   0.593   2.663   3.802  1.1660 -1.6537  0.6679
 6379SOL    HW230600   0.510   2.700   3.690 -1.4414 -0.7132  1.0091
 6380SOL     OW30601   0.934   1.963   7.440  0.4660 -0.1436  0.0066
 6380SOL    HW130602   0.955   2.025   7.510  1.4333  1.7944 -1.9913
 6380SOL    HW230603   0.855   1.927   7.480  0.2146  2.0402  1.4559
 6381SOL     OW30604   4.103   2.355   7.249 -0.1013 -0.3835  0.3313
 6381SOL    HW130605   4.142   2.322   7.330 -0.4574 -0.8533  0.3168
 6381SOL    HW230606   4.014   2.371   7.281 -1.7623  0.2580 -4.6020
 6382SOL     OW30607   1.990   2.100  14.647  0.5235 -0.0218  0.0138
 6382SOL    HW130608   2.077   2.085  14.610  1.3214  0.0542  1.8868
 6382SOL    HW230609   1.946   2.016  14.630  0.0572  0.4989 -1.3328
 6383SOL     OW30610   0.877   1.725   3.563 -0.0950 -0.6078 -0.2921
 6383SOL    HW130611   0.795   1.774   3.551 -0.1157 -0.7115 -0.5775
 6383SOL    HW230612   0.933   1.752   3.490 -0.3593  0.2377 -0.1844
 6384SOL     OW30613   0.591   1.242  15.928 -0.1645 -0.4479 -0.0004
 6384SOL    HW130614   0.556   1.203  15.847  4.2956  0.8541 -2.5884
 6384SOL    HW230615   0.657   1.306  15.902 -2.6904  2.1150 -0.1601
 6385SOL     OW30616   0.654   0.618   8.311 -0.0029 -0.4615 -0.1121
 6385SOL    HW130617   0.721   0.676   8.345  0.1031 -0.0413 -1.0214
 6385SOL    HW230618   0.620   0.577   8.391 -3.1305 -0.1033 -1.2451
 6386SOL     OW30619   0.781   4.056   2.853 -0.0509  0.0287 -0.1244
 6386SOL    HW130620   0.733   3.975   2.867  0.2774  0.0710  1.1759
 6386SOL    HW230621   0.864   4.031   2.893 -0.4084 -0.9724 -0.0130
 6387SOL     OW30622   1.975   0.913   4.029 -0.0391 -0.0742 -0.0668
 6387SOL    HW130623   2.055   0.870   4.000  0.2245 -0.0734  0.6512
 6387SOL    HW230624   1.974   0.974   3.956 -1.6318 -0.4295 -0.3513
 6388SOL     OW30625   2.776   3.556   5.149 -0.1162 -0.1841  0.2534
 6388SOL    HW130626   2.837   3.542   5.221 -2.2065  0.7279  2.2381
 6388SOL    HW230627   2.827   3.556   5.068  1.2328 -2.4374  1.1010
 6389SOL     OW30628   1.546   4.526   0.611  0.5637 -0.4363  0.1495
 6389SOL    HW130629   1.532   4.554   0.520  0.3574 -0.8786  0.0456
 6389SOL    HW230630   1.457   4.534   0.646  0.9322  0.2886  0.9186
 6390SOL     OW30631   0.197   0.426   5.704  0.5086  0.3287 -0.1497
 6390SOL    HW130632   0.196   0.520   5.684  0.9993  0.4300  0.3096
 6390SOL    HW230633   0.102   0.417   5.715  0.2125  0.8372 -2.3162
 6391SOL     OW30634   0.533   1.748   5.406  0.1213 -0.3842  0.1372
 6391SOL    HW130635   0.558   1.667   5.361  0.6058  0.5085 -1.1696
 6391SOL    HW230636   0.608   1.806   5.396  0.1446 -0.8846 -2.4657
 6392SOL     OW30637   2.250   4.339  14.293 -0.6487 -0.3690 -0.0214
 6392SOL    HW130638   2.272   4.372  14.380 -1.4258  1.5469 -0.5444
 6392SOL    HW230639   2.266   4.245  14.295 -0.5669 -0.3796 -1.0141
 6393SOL     OW30640   1.673   2.459  12.906  0.4252 -0.4255  0.5986
 6393SOL    HW130641   1.763   2.461  12.876 -0.1734  0.7718 -1.1345
 6393SOL    HW230642   1.676   2.489  12.997  1.0968  0.1351  0.3883
 6394SOL     OW30643   2.894   3.517   8.314  0.3985 -0.2394 -0.8176
 6394SOL    HW130644   2.905   3.473   8.230  1.3562 -1.4949 -0.0332
 6394SOL    HW230645   2.855   3.604   8.305  0.6595 -0.0170  0.2659
 6395SOL     OW30646   4.009   2.562  15.101 -0.3870  0.5462 -0.1822
 6395SOL    HW130647   4.012   2.479  15.052  1.2456 -0.1677  1.1566
 6395SOL    HW230648   4.000   2.622  15.027 -1.7558  0.1421 -0.3484
 6396SOL     OW30649   0.553   1.414  13.342  0.1882  0.5332  0.1968
 6396SOL    HW130650   0.541   1.451  13.430  0.3002  0.1196  0.3846
 6396SOL    HW230651   0.638   1.370  13.353 -0.1434 -0.4745 -1.2996
 6397SOL     OW30652   3.256   1.449   2.404 -0.0126  0.4006  0.0734
 6397SOL    HW130653   3.316   1.395   2.457 -0.3743 -0.3730 -0.2969
 6397SOL    HW230654   3.313   1.514   2.365 -1.0567  0.8629 -0.6807
 6398SOL     OW30655   4.493   3.030  15.634  0.2312 -0.1972 -0.2290
 6398SOL    HW130656   4.439   3.002  15.560 -1.8686  0.0157  1.2412
 6398SOL    HW230657   4.461   3.118  15.650  0.5400 -0.4177  1.5302
 6399SOL     OW30658   1.054   1.938  10.510  0.0238  0.3673 -0.3455
 6399SOL    HW130659   1.027   1.960  10.600 -0.4079  2.0849 -0.8911
 6399SOL    HW230660   0.972   1.913  10.468  0.8158 -2.9880  0.1323
 6400SOL     OW30661   1.697   2.301  10.210  0.6038 -0.0839 -0.0870
 6400SOL    HW130662   1.744   2.329  10.289  1.0530 -2.5588  0.5232
 6400SOL    HW230663   1.622   2.257  10.249  0.3774  0.9786  0.6822
 6401SOL     OW30664   3.680   0.878  11.040  0.2926 -0.6751  0.4497
 6401SOL    HW130665   3.590   0.895  11.013 -0.4841 -0.8100  2.9682
 6401SOL    HW230666   3.727   0.911  10.963  0.2583 -0.3934  0.5470
 6402SOL     OW30667   3.311   3.111   6.922  0.8506 -0.1112  0.3421
 6402SOL    HW130668   3.379   3.046   6.939  1.5075  0.6846  0.7482
 6402SOL    HW230669   3.244   3.078   6.982  0.0367 -1.2257 -1.1662
 6403SOL     OW30670   0.842   1.601   4.546  0.1836 -0.5677  0.6814
 6403SOL    HW130671   0.796   1.518   4.549  1.1818 -1.1227  0.5918
 6403SOL    HW230672   0.877   1.608   4.457 -0.3429  0.5643  0.5564
 6404SOL     OW30673   4.559   0.153   8.517 -0.3787  0.6795  0.3616
 6404SOL    HW130674   4.546   0.245   8.541  0.0583  0.3647  1.8233
 6404SOL    HW230675   4.564   0.160   8.422  3.3209  0.8603  0.5954
 6405SOL     OW30676   2.550   2.921  16.063  0.0390 -0.3425  0.6896
 6405SOL    HW130677   2.599   2.974  16.127 -2.9796 -0.5624  3.1865
 6405SOL    HW230678   2.612   2.916  15.990 -0.9114  2.3144 -0.2931
 6406SOL     OW30679   0.013   3.634   3.938 -0.0329 -0.8734  0.2147
 6406SOL    HW130680   4.664   3.702   3.948 -0.6890 -1.8921  2.8406
 6406SOL    HW230681   0.090   3.684   3.963 -0.1671 -1.3186  1.5034
 6407SOL     OW30682   0.280   0.297   7.567 -0.7231 -0.6620  0.2861
 6407SOL    HW130683   0.231   0.216   7.579  1.0133 -1.6816  0.5460
 6407SOL    HW230684   0.356   0.263   7.520  0.0706  1.3201  0.1182
 6408SOL     OW30685   0.637   1.519   5.258 -0.9712 -0.0002 -0.1057
 6408SOL    HW130686   0.580   1.495   5.185  0.0853  0.9405 -1.2413
 6408SOL    HW230687   0.673   1.434   5.285 -0.1586  1.5921  3.8559
 6409SOL     OW30688   0.241   3.189   2.129 -0.7346  0.3333  0.3054
 6409SOL    HW130689   0.236   3.144   2.214 -0.0370 -1.4016 -0.5814
 6409SOL    HW230690   0.240   3.279   2.163 -0.1571 -0.2702  1.8911
 6410SOL     OW30691   2.690   4.592   8.482  0.0528 -0.3120  0.5519
 6410SOL    HW130692   2.684   4.664   8.544  1.6306  0.6769 -0.4386
 6410SOL    HW230693   2.644   4.528   8.537 -1.4807 -1.0568 -1.5885
 6411SOL     OW30694   0.013   3.539   2.934  0.1512  0.2830 -0.3117
 6411SOL    HW130695   0.078   3.555   3.001  2.5372 -3.6875 -1.6718
 6411SOL    HW230696   0.040   3.600   2.865  0.5856 -0.9874 -1.2592
 6412SOL     OW30697   0.002   2.306   6.325 -0.2046 -0.1663 -0.7162
 6412SOL    HW130698   0.051   2.280   6.247 -1.4178 -0.6396 -1.3190
 6412SOL    HW230699   4.641   2.336   6.279 -0.9007 -3.5902 -1.7625
 6413SOL     OW30700   1.767   2.789   4.688  0.2426  0.0913 -0.2668
 6413SOL    HW130701   1.821   2.818   4.615  2.1135 -0.5481  0.8489
 6413SOL    HW230702   1.685   2.784   4.638  1.3438 -0.2231 -2.0347
 6414SOL     OW30703   1.813   1.638   3.247 -0.0167  0.7476  0.3868
 6414SOL    HW130704   1.718   1.651   3.256 -0.3755 -0.3384 -1.8626
 6414SOL    HW230705   1.811   1.573   3.176  0.1312  1.5747 -0.3723
 6415SOL     OW30706   1.607   1.547   3.936 -0.2698 -0.6983 -0.3186
 6415SOL    HW130707   1.534   1.604   3.912  0.2086 -0.3977 -1.0709
 6415SOL    HW230708   1.626   1.499   3.855 -1.3645  0.3609 -1.2054
 6416SOL     OW30709   0.259   0.639   7.756 -0.3176  0.1400 -0.4008
 6416SOL    HW130710   0.225   0.620   7.668 -0.3227 -1.5828 -0.0187
 6416SOL    HW230711   0.321   0.712   7.745 -1.2794  1.2318  1.4431
 6417SOL     OW30712   2.578   1.988  14.272  0.3801 -0.9784 -0.0880
 6417SOL    HW130713   2.543   1.941  14.348 -0.1437 -2.3801 -1.1851
 6417SOL    HW230714   2.624   1.920  14.223  0.9074 -0.4718 -0.2899
 6418SOL     OW30715   3.753   1.618   8.754  0.2500 -0.0064 -0.0165
 6418SOL    HW130716   3.749   1.544   8.814 -0.2304  0.8951  1.0693
 6418SOL    HW230717   3.846   1.637   8.746  0.4682 -1.0660 -0.0162
 6419SOL     OW30718   2.474   4.594  10.180 -0.3346 -0.5873  0.6270
 6419SOL    HW130719   2.439   4.611  10.093  0.9434  4.2586  1.0878
 6419SOL    HW230720   2.492   4.500  10.185 -0.7125 -0.6910  0.0141
 6420SOL     OW30721   4.203   0.451   7.136 -0.0098  0.0351 -0.5359
 6420SOL    HW130722   4.119   0.491   7.116  0.0873  1.8662  2.6946
 6420SOL    HW230723   4.216   0.460   7.230 -0.0326 -2.3397 -0.2944
 6421SOL     OW30724   3.784   0.762   8.650  0.0496 -0.2598  0.0588
 6421SOL    HW130725   3.767   0.727   8.737  1.1559  0.1969  0.4660
 6421SOL    HW230726   3.698   0.779   8.613  0.4126  1.4736 -0.0051
 6422SOL     OW30727   2.709   3.766   6.948  0.6772  0.0301 -0.2439
 6422SOL    HW130728   2.731   3.745   7.039  0.7086  0.8306 -0.0693
 6422SOL    HW230729   2.795   3.793   6.917  0.2779 -0.1093 -1.4755
 6423SOL     OW30730   2.809   2.863  12.414  0.0125  0.8376  0.1895
 6423SOL    HW130731   2.853   2.912  12.345  1.3698 -0.8348 -0.1231
 6423SOL    HW230732   2.875   2.867  12.484  0.0685  3.3969 -0.0096
 6424SOL     OW30733   1.786   0.129   0.530 -0.1949 -0.2770 -0.3348
 6424SOL    HW130734   1.799   0.121   0.625  2.4036 -0.1709 -0.6848
 6424SOL    HW230735   1.847   0.200   0.512 -1.0900  1.0694  1.9026
 6425SOL     OW30736   2.807   1.802   8.256 -0.3824 -0.2939  0.2803
 6425SOL    HW130737   2.807   1.711   8.282  3.2573 -0.5755 -0.6678
 6425SOL    HW230738   2.877   1.825   8.317  1.6665  0.1454 -2.1855
 6426SOL     OW30739   4.456   2.319   0.309 -0.7149  0.1577 -0.5519
 6426SOL    HW130740   4.498   2.367   0.381 -2.4299  0.2569  0.3790
 6426SOL    HW230741   4.530   2.311   0.248 -0.6464 -0.8279 -0.3465
 6427SOL     OW30742   4.076   0.310  14.309  0.1368  0.1552 -0.0267
 6427SOL    HW130743   4.071   0.369  14.385  1.7124 -2.3734  2.0248
 6427SOL    HW230744   4.015   0.354  14.250  0.8410  1.2286  0.0444
 6428SOL     OW30745   1.457   3.366  10.624  0.1548 -0.0069 -0.1827
 6428SOL    HW130746   1.385   3.332  10.571  0.9257  0.5517 -1.5953
 6428SOL    HW230747   1.423   3.350  10.712  0.2414 -2.1004 -0.5445
 6429SOL     OW30748   0.622   1.267   4.099 -0.3576  0.0333 -0.0360
 6429SOL    HW130749   0.679   1.192   4.086  0.8627  0.8427  0.6264
 6429SOL    HW230750   0.578   1.278   4.014  0.6280  0.4416 -0.4932
 6430SOL     OW30751   2.985   2.106  13.229 -0.3263  0.3286  0.0402
 6430SOL    HW130752   2.912   2.134  13.285  1.1264 -1.4723  2.8431
 6430SOL    HW230753   3.060   2.109  13.288 -1.1702 -0.6582  1.1701
 6431SOL     OW30754   4.444   3.748   3.817  0.1419 -0.5193 -0.8659
 6431SOL    HW130755   4.370   3.696   3.848 -1.2978  0.4133 -2.7822
 6431SOL    HW230756   4.393   3.820   3.780  0.8218  0.1365 -0.5088
 6432SOL     OW30757   3.376   2.101  15.876  0.4576  0.3891 -0.1891
 6432SOL    HW130758   3.372   2.103  15.780 -1.8574 -1.4525 -0.1322
 6432SOL    HW230759   3.459   2.144  15.895  0.3001  1.2710 -1.5046
 6433SOL     OW30760   3.625   0.214  11.571 -0.1495  0.7280 -0.5148
 6433SOL    HW130761   3.588   0.283  11.626  0.2856  1.0066 -0.5749
 6433SOL    HW230762   3.590   0.133  11.608 -2.2259  1.4742 -0.8368
 6434SOL     OW30763   2.266   0.362   4.769  0.5111  0.0379  0.3632
 6434SOL    HW130764   2.175   0.363   4.796 -0.3509  0.5641 -2.5746
 6434SOL    HW230765   2.297   0.290   4.824  0.9863 -0.4402 -0.5408
 6435SOL     OW30766   2.560   1.994   3.354 -0.7654 -0.2058 -0.1878
 6435SOL    HW130767   2.503   2.003   3.277  0.1391  1.4144 -0.6530
 6435SOL    HW230768   2.497   2.000   3.427  0.9098  0.9190  1.1638
 6436SOL     OW30769   4.668   0.011  12.996 -0.5439 -0.1863 -0.1120
 6436SOL    HW130770   0.034   0.028  12.953  0.3294 -0.1899  1.6344
 6436SOL    HW230771   4.617   0.067  12.936 -0.6218  0.6108  0.7000
 6437SOL     OW30772   1.380   3.669  17.366  0.2488  0.3103 -0.4274
 6437SOL    HW130773   1.298   3.672  17.317 -0.9103  0.4695  1.5117
 6437SOL    HW230774   1.423   3.588  17.338  0.9220  0.3905  0.3644
 6438SOL     OW30775   2.068   4.698   8.770  0.5022  0.1845  0.4220
 6438SOL    HW130776   1.998   4.714   8.708  1.1870 -1.2702 -0.7386
 6438SOL    HW230777   2.032   4.625   8.821  1.0731 -1.5439 -1.6293
 6439SOL     OW30778   4.293   2.851  12.918 -0.8059 -1.1103  0.3864
 6439SOL    HW130779   4.324   2.845  13.008  1.7768  1.9909 -0.2993
 6439SOL    HW230780   4.359   2.799  12.873 -0.9456 -1.0412  0.0994
 6440SOL     OW30781   2.960   4.603   3.266  0.3115  0.8577 -0.2937
 6440SOL    HW130782   3.046   4.628   3.232 -0.2165  1.0468 -1.4950
 6440SOL    HW230783   2.954   4.510   3.243  0.9309  0.0700  2.8476
 6441SOL     OW30784   4.138   0.184   3.014 -0.0040  0.3731  0.4651
 6441SOL    HW130785   4.113   0.101   3.053 -0.9533  0.3754 -0.1412
 6441SOL    HW230786   4.224   0.189   3.055 -0.8863 -1.5493  2.4992
 6442SOL     OW30787   3.060   2.552   7.916 -0.6783  0.7190  0.2986
 6442SOL    HW130788   3.099   2.475   7.875 -0.5722  0.9629 -0.0597
 6442SOL    HW230789   3.080   2.615   7.846 -2.2242  0.2407 -0.5805
 6443SOL     OW30790   0.666   4.196   1.384 -0.0075  0.1296  0.0133
 6443SOL    HW130791   0.755   4.166   1.367  0.2104  2.1253 -2.3628
 6443SOL    HW230792   0.642   4.137   1.455 -1.6570 -0.8234 -1.3428
 6444SOL     OW30793   0.690   4.715  10.526 -0.3026 -0.5212  0.2000
 6444SOL    HW130794   0.654   4.627  10.529  0.4964 -0.8056  1.3974
 6444SOL    HW230795   0.749   4.707  10.451 -0.4166 -0.4499  0.1022
 6445SOL     OW30796   2.181   0.877   7.057 -0.5966 -0.0594 -0.3296
 6445SOL    HW130797   2.115   0.925   7.006 -2.8273 -1.1661  1.5279
 6445SOL    HW230798   2.207   0.825   6.981 -0.0829 -1.3252  0.7123
 6446SOL     OW30799   1.264   0.084   3.495 -0.0525  0.2750  0.7481
 6446SOL    HW130800   1.173   0.101   3.469 -0.0432  2.1388  1.9234
 6446SOL    HW230801   1.271   4.709   3.474 -1.4633  0.2419  0.4082
 6447SOL     OW30802   2.319   3.682   2.001 -0.1853  0.1436 -0.3141
 6447SOL    HW130803   2.281   3.744   1.938 -0.8325 -0.9885 -1.0453
 6447SOL    HW230804   2.368   3.629   1.938  0.9896 -0.3421  1.0196
 6448SOL     OW30805   4.400   3.536  11.832  0.5229  0.4482 -0.1751
 6448SOL    HW130806   4.427   3.597  11.763 -0.8053 -0.0513 -1.1516
 6448SOL    HW230807   4.481   3.485  11.828 -1.7479 -3.0188 -1.7876
 6449SOL     OW30808   4.488   0.347   3.665  0.1321  0.3410  0.3770
 6449SOL    HW130809   4.574   0.322   3.630 -0.0911  0.6624 -0.3992
 6449SOL    HW230810   4.461   0.406   3.594  1.7481  0.3318 -0.2321
 6450SOL     OW30811   1.847   2.886  16.141  0.2569 -0.3553 -0.0831
 6450SOL    HW130812   1.883   2.902  16.053  0.5224  1.7329  0.4198
 6450SOL    HW230813   1.925   2.853  16.187 -0.7402 -1.8133  0.5688
 6451SOL     OW30814   3.424   4.170   6.455  0.1789 -0.1563 -0.3631
 6451SOL    HW130815   3.457   4.132   6.374 -0.1500 -1.2977  0.0270
 6451SOL    HW230816   3.356   4.228   6.421  0.7655  0.4489 -0.4916
 6452SOL     OW30817   0.381   2.455   7.134 -0.3303 -0.2308  0.2694
 6452SOL    HW130818   0.286   2.449   7.121 -0.0189 -4.6335 -0.1543
 6452SOL    HW230819   0.376   2.473   7.227 -2.5753 -1.7288  0.4572
 6453SOL     OW30820   3.626   2.062  17.175 -0.3305  0.1082 -0.3840
 6453SOL    HW130821   3.700   2.026  17.126  0.5877  0.3713  0.7863
 6453SOL    HW230822   3.597   1.976  17.204  3.1865 -0.6880  0.7330
 6454SOL     OW30823   2.802   0.212   8.217 -0.0864  0.3797 -0.3032
 6454SOL    HW130824   2.728   0.239   8.272  0.8983 -1.9631  2.1727
 6454SOL    HW230825   2.867   0.166   8.271 -0.3963  0.3086  0.0152
 6455SOL     OW30826   0.052   4.673   5.552 -0.3598 -0.2676  0.2394
 6455SOL    HW130827   0.064   0.046   5.580  1.4191 -0.0275 -1.3399
 6455SOL    HW230828   0.138   4.638   5.574 -0.4078 -1.1701 -1.0228
 6456SOL     OW30829   1.710   3.366   3.914  0.4148  0.4767  0.4284
 6456SOL    HW130830   1.654   3.443   3.925 -2.3022 -1.8422  2.8150
 6456SOL    HW230831   1.751   3.386   3.830  1.9995  0.9230  1.3049
 6457SOL     OW30832   4.620   3.237   8.874 -0.0549 -0.0518  0.2644
 6457SOL    HW130833   4.671   3.293   8.933 -0.1521  1.1707 -0.8031
 6457SOL    HW230834   4.618   3.150   8.915  0.3977 -0.1018  0.1875
 6458SOL     OW30835   3.290   2.481  10.908 -0.0674  0.1481 -0.4593
 6458SOL    HW130836   3.378   2.446  10.893  1.1255  3.7063 -1.8480
 6458SOL    HW230837   3.299   2.557  10.850 -0.4573 -0.7144 -1.6588
 6459SOL     OW30838   2.961   1.401  10.534 -0.0473  0.4692  0.0994
 6459SOL    HW130839   2.938   1.488  10.501 -0.2096  0.5813  0.5049
 6459SOL    HW230840   3.056   1.405  10.539  0.1189  1.2416 -3.5877
 6460SOL     OW30841   1.518   2.313  16.502 -0.5760  0.2868 -0.6135
 6460SOL    HW130842   1.438   2.363  16.482 -0.1428  1.5345  0.8142
 6460SOL    HW230843   1.548   2.303  16.411  1.0726 -1.1938  0.0994
 6461SOL     OW30844   2.698   1.564  17.510 -0.3519  0.3077  0.2803
 6461SOL    HW130845   2.674   1.629  17.576  1.1188  0.8212  0.3016
 6461SOL    HW230846   2.616   1.557  17.461 -0.5101  0.2151  0.5577
 6462SOL     OW30847   1.087   2.532   7.954  0.5278 -0.2149 -0.9654
 6462SOL    HW130848   1.029   2.531   7.877  2.5414 -0.7689 -2.4980
 6462SOL    HW230849   1.071   2.622   7.982  0.9933 -1.4406  3.1698
 6463SOL     OW30850   1.964   2.313   3.274  0.0417  0.8092  0.1817
 6463SOL    HW130851   1.918   2.335   3.355 -2.3463 -1.9061 -0.4544
 6463SOL    HW230852   1.952   2.391   3.220 -0.4575 -0.4177 -1.4673
 6464SOL     OW30853   2.359   1.867  17.311  0.4292  0.6520  0.0796
 6464SOL    HW130854   2.291   1.930  17.333  0.2272  0.5473 -0.2363
 6464SOL    HW230855   2.423   1.923  17.269  0.7724 -0.9162 -1.5215
 6465SOL     OW30856   3.600   2.536   5.284 -0.5064 -0.2607  0.0324
 6465SOL    HW130857   3.681   2.582   5.301  0.9656 -1.9547 -2.3771
 6465SOL    HW230858   3.626   2.476   5.214 -1.3804 -0.2290 -0.3256
 6466SOL     OW30859   4.100   3.389   1.961  0.2165  0.1582  0.0188
 6466SOL    HW130860   4.021   3.363   2.008  0.3483  0.1200  0.2168
 6466SOL    HW230861   4.126   3.472   2.001 -0.6187  1.0559 -1.2864
 6467SOL     OW30862   2.621   1.276   2.093 -0.1909 -0.1136 -0.4163
 6467SOL    HW130863   2.711   1.262   2.122  0.0601  1.9415 -0.1488
 6467SOL    HW230864   2.572   1.304   2.171  1.3735 -0.0584  0.5648
 6468SOL     OW30865   0.941   2.358  11.429 -0.1079 -0.6573  0.5529
 6468SOL    HW130866   0.909   2.287  11.373 -2.8647  1.7555 -0.9331
 6468SOL    HW230867   0.911   2.430  11.373 -0.9401 -0.6417  1.0133
 6469SOL     OW30868   0.864   3.358   8.159  0.6567  0.2658 -0.0905
 6469SOL    HW130869   0.835   3.438   8.116  1.3536 -0.4029 -1.7703
 6469SOL    HW230870   0.790   3.299   8.145 -0.4561  1.7244 -0.3539
 6470SOL     OW30871   0.267   2.163   2.838 -0.0246  0.0377 -0.0445
 6470SOL    HW130872   0.302   2.083   2.799  1.5436  0.9041 -0.4243
 6470SOL    HW230873   0.244   2.123   2.921  0.2965  0.5797  0.3088
 6471SOL     OW30874   2.282   4.004   1.216 -0.0321  0.0633  0.4179
 6471SOL    HW130875   2.239   4.074   1.264  0.2075  0.5048 -0.0164
 6471SOL    HW230876   2.245   3.929   1.263  0.3153 -0.8985 -0.8412
 6472SOL     OW30877   3.023   4.446   6.979 -0.4791 -0.1171  0.1012
 6472SOL    HW130878   3.087   4.400   6.926 -0.3556 -1.2506  1.2491
 6472SOL    HW230879   3.028   4.537   6.949 -1.1979 -0.3560 -0.7489
 6473SOL     OW30880   3.729   1.177   7.136 -0.0656  0.5152  0.1181
 6473SOL    HW130881   3.643   1.216   7.119 -0.1141  1.1109  1.7692
 6473SOL    HW230882   3.716   1.084   7.117 -1.5891  0.5179  1.1184
 6474SOL     OW30883   1.352   0.889   1.622  0.5775 -0.1591  0.2301
 6474SOL    HW130884   1.325   0.931   1.541 -1.6107 -0.7261  0.6825
 6474SOL    HW230885   1.408   0.823   1.581  0.4798  1.5936 -2.7087
 6475SOL     OW30886   3.828   3.617   0.881 -0.3324  0.3181 -0.0476
 6475SOL    HW130887   3.772   3.642   0.807 -1.1110 -0.9774  0.1051
 6475SOL    HW230888   3.786   3.534   0.903  2.2161 -1.4625 -1.8244
 6476SOL     OW30889   3.845   3.560   4.303  0.3301  0.1769 -0.4253
 6476SOL    HW130890   3.806   3.475   4.282  2.0726 -0.4886 -0.9235
 6476SOL    HW230891   3.779   3.593   4.364 -0.4532  1.3503 -1.8997
 6477SOL     OW30892   0.429   3.718  13.877  0.0025  0.3200 -0.2840
 6477SOL    HW130893   0.518   3.730  13.844 -0.9923  2.1660 -2.3018
 6477SOL    HW230894   0.430   3.628  13.844 -0.0116  0.2697 -0.1499
 6478SOL     OW30895   2.171   4.203   2.746  0.2098 -0.0672  0.3250
 6478SOL    HW130896   2.208   4.284   2.711 -1.1005  0.7156  0.7575
 6478SOL    HW230897   2.221   4.146   2.688  2.3771  0.7098  1.4210
 6479SOL     OW30898   2.778   3.874   7.321 -0.0451 -0.1309 -0.1107
 6479SOL    HW130899   2.833   3.836   7.389 -1.0898 -0.2087  0.7027
 6479SOL    HW230900   2.772   3.800   7.261  1.4217  0.8073 -1.4073
 6480SOL     OW30901   0.864   3.702  12.584  0.3669 -0.2328 -0.4058
 6480SOL    HW130902   0.841   3.618  12.624  0.7468  1.1308  2.6864
 6480SOL    HW230903   0.843   3.685  12.493  0.8118 -1.0808 -0.3503
 6481SOL     OW30904   3.307   0.707   0.743  0.1886 -0.1589 -0.5263
 6481SOL    HW130905   3.394   0.747   0.742  0.4887 -0.7276  3.8109
 6481SOL    HW230906   3.258   0.783   0.711 -0.1500 -0.7382 -1.3988
 6482SOL     OW30907   3.862   2.819   5.033 -0.0069  0.1897  0.4349
 6482SOL    HW130908   3.793   2.839   5.096 -1.5698 -2.3454 -0.4962
 6482SOL    HW230909   3.892   2.910   5.030  0.0504  0.2745  3.0762
 6483SOL     OW30910   0.475   4.312   5.347  0.5238 -0.3698 -0.3245
 6483SOL    HW130911   0.434   4.323   5.433 -1.0618 -0.2496 -1.1097
 6483SOL    HW230912   0.449   4.391   5.300 -1.7789 -0.0632  1.4437
 6484SOL     OW30913   1.333   3.506   2.704 -0.2228  0.5381 -0.3057
 6484SOL    HW130914   1.416   3.502   2.656  0.0431 -0.3056  0.2208
 6484SOL    HW230915   1.341   3.593   2.743  0.8393  0.3573 -0.1190
 6485SOL     OW30916   1.548   0.952   2.451  0.2439  0.1725  0.4905
 6485SOL    HW130917   1.533   0.866   2.490 -2.1640 -0.3669 -1.6711
 6485SOL    HW230918   1.579   0.929   2.364 -0.8529  1.5151 -0.2481
 6486SOL     OW30919   3.503   0.536   7.781  0.1027 -0.1519  0.0327
 6486SOL    HW130920   3.472   0.579   7.860  0.2759 -0.7718  0.4401
 6486SOL    HW230921   3.470   0.593   7.711 -0.6197  0.2777  0.7219
 6487SOL     OW30922   3.992   2.719   7.656  0.6376 -0.5171  0.2160
 6487SOL    HW130923   4.018   2.680   7.739  0.6008 -1.4648 -0.2271
 6487SOL    HW230924   4.076   2.726   7.611  0.6377 -1.7234  0.0495
 6488SOL     OW30925   2.502   4.695   8.909  0.0668  0.4491 -0.1608
 6488SOL    HW130926   2.466   4.674   8.995 -1.1995  0.9398 -0.5601
 6488SOL    HW230927   2.461   4.630   8.852 -0.4971  0.0415  0.7076
 6489SOL     OW30928   1.431   0.550  16.159 -0.4053 -0.1639 -0.4431
 6489SOL    HW130929   1.402   0.467  16.196  1.5499 -0.9235 -0.5838
 6489SOL    HW230930   1.433   0.607  16.236 -2.0178  0.7201 -1.0611
 6490SOL     OW30931   4.097   2.064   8.181 -0.1290 -0.3819  0.0941
 6490SOL    HW130932   4.137   2.034   8.263 -0.8345 -1.1001  0.1738
 6490SOL    HW230933   4.163   2.088   8.116  2.8313 -2.6045  2.2777
 6491SOL     OW30934   4.192   2.489  15.530 -0.1660  0.4945 -0.0048
 6491SOL    HW130935   4.143   2.543  15.468  0.7979  1.5969  0.1820
 6491SOL    HW230936   4.118   2.457  15.582  1.3573  0.2425  2.0167
 6492SOL     OW30937   2.636   2.124   5.777 -0.0344 -0.5653 -0.3679
 6492SOL    HW130938   2.558   2.068   5.773  0.0935 -0.8063  0.4346
 6492SOL    HW230939   2.683   2.089   5.701  0.9162  1.5942 -0.7688
 6493SOL     OW30940   1.105   4.165   0.627  0.0180 -0.3541  0.2187
 6493SOL    HW130941   1.148   4.217   0.560 -2.3868  0.7995 -0.4081
 6493SOL    HW230942   1.116   4.077   0.591  0.5831 -0.9069  1.7462
 6494SOL     OW30943   3.577   0.143   2.279  0.5770  0.1366 -0.0050
 6494SOL    HW130944   3.576   0.076   2.346  0.3521 -0.4301 -0.5737
 6494SOL    HW230945   3.657   0.112   2.238  0.7419 -0.6770  0.9622
 6495SOL     OW30946   2.761   4.562   8.953  0.4317  0.5258  0.2711
 6495SOL    HW130947   2.682   4.613   8.968 -0.4428 -0.5818 -0.6204
 6495SOL    HW230948   2.764   4.492   9.019  1.4571  1.7156  1.4866
 6496SOL     OW30949   2.451   2.351   3.855  0.0756  0.4630 -0.4188
 6496SOL    HW130950   2.449   2.428   3.912 -0.2720 -2.1758  3.1765
 6496SOL    HW230951   2.360   2.323   3.854 -0.1807  1.2878 -0.0107
 6497SOL     OW30952   4.374   0.107  13.573  0.7625 -0.3740  0.3440
 6497SOL    HW130953   4.440   0.176  13.585  1.5809 -0.7558 -1.9582
 6497SOL    HW230954   4.412   0.054  13.503 -0.6110  0.3171 -0.9378
 6498SOL     OW30955   4.243   0.068   7.873 -0.0735  0.1089 -0.3840
 6498SOL    HW130956   4.204   0.084   7.787 -1.1608 -1.4941 -0.1808
 6498SOL    HW230957   4.240   0.155   7.913  0.7654 -0.1499  0.2327
 6499SOL     OW30958   3.711   2.517   8.771  0.0806  0.1867  0.6308
 6499SOL    HW130959   3.713   2.583   8.701 -0.6254 -0.1008  0.3378
 6499SOL    HW230960   3.803   2.514   8.799  0.4131  0.7600 -0.3967
 6500SOL     OW30961   4.200   3.372   8.212 -0.3322  0.3314 -0.3594
 6500SOL    HW130962   4.131   3.345   8.272 -0.1891 -0.5117 -0.5778
 6500SOL    HW230963   4.193   3.467   8.222 -2.8022  0.3056 -1.8231
 6501SOL     OW30964   1.413   0.064  14.750 -0.5301  0.4614  0.6819
 6501SOL    HW130965   1.444   4.704  14.703 -1.5518  1.4619 -1.6209
 6501SOL    HW230966   1.382   0.128  14.686  0.8140 -0.8603 -1.2970
 6502SOL     OW30967   4.466   2.341  14.209 -0.3862 -0.1143  0.5554
 6502SOL    HW130968   4.456   2.246  14.208 -1.9545  0.0808 -1.9959
 6502SOL    HW230969   4.538   2.342  14.271 -0.3255  0.1474  0.4811
 6503SOL     OW30970   3.063   1.347  17.626  0.0075  0.0417  0.4311
 6503SOL    HW130971   3.057   1.431  17.580  1.2021 -0.3397 -0.4275
 6503SOL    HW230972   3.037   1.283  17.559  1.8380 -0.1422 -0.1127
 6504SOL     OW30973   2.834   1.128   8.823 -0.4408 -0.0003  0.0597
 6504SOL    HW130974   2.764   1.167   8.770 -0.4194  1.2495  0.9451
 6504SOL    HW230975   2.860   1.211   8.863  1.4475 -1.0362  0.9952
 6505SOL     OW30976   0.504   4.066  14.552  0.3887 -0.0865  0.1439
 6505SOL    HW130977   0.595   4.084  14.531  1.1352 -1.2432  2.3240
 6505SOL    HW230978   0.483   4.122  14.627 -3.3447  0.5168 -1.3499
 6506SOL     OW30979   3.357   0.811  16.855 -0.1111  0.0206  0.5544
 6506SOL    HW130980   3.314   0.726  16.845 -0.9360  0.9598 -3.7522
 6506SOL    HW230981   3.432   0.788  16.911  0.9834 -3.4139 -2.3535
 6507SOL     OW30982   0.941   0.810  17.667 -0.3387 -0.2560  0.1091
 6507SOL    HW130983   0.868   0.813  17.605 -0.3269 -2.0748 -0.0099
 6507SOL    HW230984   0.899   0.834   0.075 -2.1320  2.7325 -1.6822
 6508SOL     OW30985   2.117   3.004   8.178 -0.0191 -0.7309 -0.4579
 6508SOL    HW130986   2.025   3.021   8.197  0.6485  0.8138  1.3227
 6508SOL    HW230987   2.108   2.959   8.093 -1.6754  2.0056 -1.7086
 6509SOL     OW30988   0.367   4.682  10.561 -0.1886 -0.7248  0.3818
 6509SOL    HW130989   0.335   4.608  10.509 -0.5662 -0.1874 -0.1602
 6509SOL    HW230990   0.406   0.015  10.490  0.5374 -0.3474  1.0496
 6510SOL     OW30991   3.953   1.304   0.963 -0.1159 -0.4541  0.0375
 6510SOL    HW130992   3.930   1.290   1.055  0.1049  2.6384  0.5685
 6510SOL    HW230993   4.049   1.307   0.964 -0.0946 -0.5053 -1.2100
 6511SOL     OW30994   1.432   0.636   3.406  0.1975  0.0352  0.2447
 6511SOL    HW130995   1.424   0.542   3.417  0.9038 -0.2931 -1.9733
 6511SOL    HW230996   1.354   0.665   3.358 -1.0813 -3.1762  0.3868
 6512SOL     OW30997   1.952   1.320   8.001  0.2605 -0.4156  0.0426
 6512SOL    HW130998   1.919   1.348   8.087  2.5113 -1.2111  1.1639
 6512SOL    HW230999   1.954   1.400   7.948 -1.0569 -0.0379  0.5560
 6513SOL     OW31000   0.691   3.320   4.604 -0.0287  0.5972  0.0912
 6513SOL    HW131001   0.694   3.405   4.560 -1.2198  0.6634  0.1330
 6513SOL    HW231002   0.597   3.321   4.622  0.1207 -2.5161  1.0180
 6514SOL     OW31003   4.670   2.436   6.546  0.1396 -0.1267 -0.0027
 6514SOL    HW131004   4.698   2.395   6.464  0.3857  1.7378 -0.8723
 6514SOL    HW231005   4.664   2.526   6.512 -0.2160  0.2002  0.9246
 6515SOL     OW31006   2.035   4.408  17.022  0.2798 -0.1105 -0.2274
 6515SOL    HW131007   1.954   4.457  17.010  0.0728 -0.6656 -1.0279
 6515SOL    HW231008   2.083   4.431  16.942  0.0587  0.0356 -0.3189
 6516SOL     OW31009   2.267   0.157   2.568  0.5033  0.5014 -0.1638
 6516SOL    HW131010   2.293   0.120   2.484  0.9524 -0.9449  0.6117
 6516SOL    HW231011   2.217   0.081   2.599 -1.3369  1.3609 -1.0246
 6517SOL     OW31012   1.578   1.673   8.827 -0.0565  0.3444  0.0228
 6517SOL    HW131013   1.547   1.612   8.894  2.8228 -0.1591  0.8694
 6517SOL    HW231014   1.493   1.688   8.784  1.0911  1.3402 -1.9136
 6518SOL     OW31015   1.274   2.582  16.066 -0.1657 -0.1029  0.0113
 6518SOL    HW131016   1.306   2.594  15.977 -0.0898 -0.5147 -0.0201
 6518SOL    HW231017   1.259   2.488  16.073 -1.4519  0.0956 -0.0431
 6519SOL     OW31018   2.573   1.523   6.253 -0.1411  0.1526 -0.2905
 6519SOL    HW131019   2.505   1.589   6.240  0.0418  0.2627 -0.6863
 6519SOL    HW231020   2.529   1.443   6.283  1.3708 -0.6816 -0.2819
 6520SOL     OW31021   2.530   4.389   2.874  0.6123  0.1487  0.5850
 6520SOL    HW131022   2.436   4.392   2.854  0.6705  1.0255  0.4481
 6520SOL    HW231023   2.558   4.394   2.782  2.1746 -1.3393  0.9897
 6521SOL     OW31024   3.816   0.453   2.771 -0.1256  0.4884  0.0303
 6521SOL    HW131025   3.830   0.437   2.678  0.1209  0.0654  0.1360
 6521SOL    HW231026   3.848   0.367   2.800 -0.2479  0.5826  0.4475
 6522SOL     OW31027   2.336   3.218  11.374 -0.9668  0.7253 -0.7450
 6522SOL    HW131028   2.247   3.254  11.379 -0.8519  0.8339  0.5829
 6522SOL    HW231029   2.334   3.130  11.337 -1.9364  0.1739  0.5937
 6523SOL     OW31030   2.738   2.092   7.776 -0.0336 -0.3836  0.1613
 6523SOL    HW131031   2.709   2.001   7.781 -1.3639 -0.0293 -1.2180
 6523SOL    HW231032   2.690   2.138   7.845 -2.5772 -1.7133 -0.6916
 6524SOL     OW31033   1.916   0.028  15.295  0.2496 -0.3440 -0.1397
 6524SOL    HW131034   1.874   0.077  15.366 -1.0491 -0.4655 -0.8394
 6524SOL    HW231035   1.902   4.659  15.333  2.7213  0.2584  2.2121
 6525SOL     OW31036   0.475   2.587  10.445 -0.2012 -0.3575 -1.0580
 6525SOL    HW131037   0.395   2.569  10.397 -0.6597  1.2075 -0.8690
 6525SOL    HW231038   0.465   2.681  10.461 -0.4839 -0.6959  0.6756
 6526SOL     OW31039   1.157   3.217  11.044  0.5411 -0.1921 -0.2737
 6526SOL    HW131040   1.159   3.155  11.117  0.2902  0.9905  0.7292
 6526SOL    HW231041   1.067   3.208  11.015  0.0553  2.1737  0.5706
 6527SOL     OW31042   4.248   0.053   1.823 -0.3904 -0.2549  0.2406
 6527SOL    HW131043   4.304   4.696   1.844 -0.9321 -1.0490 -1.1648
 6527SOL    HW231044   4.196   0.016   1.752 -1.0303  0.7007  0.2083
 6528SOL     OW31045   1.346   2.290  12.363 -0.0625 -0.3091 -0.6143
 6528SOL    HW131046   1.378   2.365  12.311  1.6916 -1.4358 -1.1871
 6528SOL    HW231047   1.426   2.238  12.350 -0.5195 -1.4782  1.4223
 6529SOL     OW31048   2.558   2.938   5.701  0.1466 -0.3153 -0.1938
 6529SOL    HW131049   2.581   2.845   5.714 -1.4109 -0.6182  0.3655
 6529SOL    HW231050   2.641   2.975   5.671 -0.1694 -0.0907 -0.7777
 6530SOL     OW31051   1.838   1.972   2.890 -0.2532  0.2420 -0.4462
 6530SOL    HW131052   1.829   1.936   2.802 -1.2312 -0.5688 -0.0093
 6530SOL    HW231053   1.780   2.047   2.877 -0.1634  0.2240 -0.9522
 6531SOL     OW31054   4.086   0.803  16.789  0.6507  0.1166 -0.2506
 6531SOL    HW131055   4.006   0.757  16.817  0.1053  0.6594 -0.9178
 6531SOL    HW231056   4.141   0.740  16.745  1.5635  1.3953 -0.9307
 6532SOL     OW31057   0.398   4.227  10.289  0.1127  0.1561  0.4933
 6532SOL    HW131058   0.320   4.176  10.266 -1.0549  1.2685  1.9918
 6532SOL    HW231059   0.449   4.162  10.338 -0.0233  0.6091  1.2289
 6533SOL     OW31060   2.204   3.680   8.533 -0.0622 -0.7406 -0.1299
 6533SOL    HW131061   2.123   3.723   8.503 -0.7742 -2.3051 -0.4234
 6533SOL    HW231062   2.172   3.615   8.595 -2.6982  1.0323  0.3819
 6534SOL     OW31063   1.864   4.409   5.168 -0.3782  0.0635 -0.3440
 6534SOL    HW131064   1.814   4.342   5.121 -0.4950 -0.4030  0.4476
 6534SOL    HW231065   1.792   4.473   5.172 -1.5639 -1.4905  2.9050
 6535SOL     OW31066   2.697   3.370  11.911 -0.2241 -0.5777  0.7976
 6535SOL    HW131067   2.658   3.289  11.878  0.9893 -1.0053  0.4065
 6535SOL    HW231068   2.751   3.392  11.835  1.1797  0.3556  2.0600
 6536SOL     OW31069   0.305   3.070   3.973 -0.2730 -0.0487  0.1403
 6536SOL    HW131070   0.311   3.027   3.888  1.6674 -0.6316  0.5781
 6536SOL    HW231071   0.339   3.155   3.947  0.1239 -0.8288 -1.8420
 6537SOL     OW31072   1.343   0.979   4.516  0.3143  0.4662  0.3220
 6537SOL    HW131073   1.368   1.055   4.569 -0.9028  1.5947 -0.7197
 6537SOL    HW231074   1.249   0.993   4.524  0.6111  2.4767  0.2651
 6538SOL     OW31075   2.750   2.479  16.976 -0.6088 -0.1076 -0.8590
 6538SOL    HW131076   2.821   2.470  16.913  0.8329 -1.4555  0.9616
 6538SOL    HW231077   2.800   2.513  17.050 -0.8619  0.9361 -1.1744
 6539SOL     OW31078   3.045   0.998   2.651 -0.3885 -0.1801  0.1491
 6539SOL    HW131079   3.061   0.996   2.556 -1.1291  0.4206  0.0142
 6539SOL    HW231080   3.120   1.054   2.668 -1.1614  0.5754  1.0804
 6540SOL     OW31081   3.559   2.915  10.606  0.0006  0.2586 -0.2501
 6540SOL    HW131082   3.637   2.956  10.569  0.4570 -1.6694 -1.3922
 6540SOL    HW231083   3.497   2.988  10.612  1.7607  1.5832  1.8652
 6541SOL     OW31084   1.692   2.849  13.777 -0.2262  0.9280  0.1719
 6541SOL    HW131085   1.701   2.758  13.806 -0.1182  1.0316  0.4628
 6541SOL    HW231086   1.678   2.835  13.683 -1.9058  1.0010  0.3992
 6542SOL     OW31087   2.595   1.118  14.113 -0.2998 -0.4705 -0.0220
 6542SOL    HW131088   2.568   1.182  14.047  0.4054  1.5173  1.5993
 6542SOL    HW231089   2.549   1.149  14.191  0.0982  0.7704 -0.2816
 6543SOL     OW31090   2.554   1.932   4.158  0.4327  0.3404 -0.0170
 6543SOL    HW131091   2.528   1.845   4.189  1.2336 -0.5223 -1.7737
 6543SOL    HW231092   2.494   1.992   4.203 -0.2826 -0.0314 -0.4661
 6544SOL     OW31093   1.876   1.432   7.493  0.0417 -0.0492  0.1375
 6544SOL    HW131094   1.913   1.412   7.407  0.3414 -1.7839  0.6730
 6544SOL    HW231095   1.947   1.414   7.555 -1.9049  1.1677  2.7429
 6545SOL     OW31096   1.161   0.403  10.722 -0.8831 -0.1288  0.4633
 6545SOL    HW131097   1.138   0.385  10.631  3.9967  2.0381 -1.1791
 6545SOL    HW231098   1.220   0.331  10.743 -0.1687  1.3341  3.4033
 6546SOL     OW31099   3.318   3.175  15.680  0.3589  0.0304  0.7715
 6546SOL    HW131100   3.410   3.180  15.654  0.1676  1.3387  0.3413
 6546SOL    HW231101   3.302   3.085  15.653  2.9372 -0.4929  0.9989
 6547SOL     OW31102   3.748   2.516  17.030  0.2047 -0.1958  0.3780
 6547SOL    HW131103   3.672   2.516  17.087 -0.3846  3.2795 -0.4071
 6547SOL    HW231104   3.740   2.594  16.974 -1.1286  0.2911  1.2653
 6548SOL     OW31105   2.617   4.378   9.756  0.1593 -0.1385  0.1222
 6548SOL    HW131106   2.669   4.301   9.732  0.9669  0.2924  0.5243
 6548SOL    HW231107   2.533   4.332   9.758 -0.8512  1.8365  3.3666
 6549SOL     OW31108   3.628   3.309  11.212  0.3215 -0.2651 -0.2566
 6549SOL    HW131109   3.597   3.250  11.142 -1.8239 -0.5011  0.8819
 6549SOL    HW231110   3.571   3.288  11.285  0.5440  1.3651  0.3856
 6550SOL     OW31111   0.409   2.800  11.328  0.6480  0.2067  0.3599
 6550SOL    HW131112   0.400   2.714  11.369  1.8287  1.5223  3.4178
 6550SOL    HW231113   0.412   2.861  11.402  1.7623 -0.7149  1.0851
 6551SOL     OW31114   1.694   0.801  10.167  0.3163  0.1783  0.3502
 6551SOL    HW131115   1.774   0.852  10.157 -0.5677  1.6746  0.9273
 6551SOL    HW231116   1.632   0.872  10.181  3.0072  2.5450  0.3106
 6552SOL     OW31117   1.503   4.251   4.700 -0.7589  0.3637  0.2761
 6552SOL    HW131118   1.574   4.191   4.722 -0.0630  1.9148  2.2966
 6552SOL    HW231119   1.469   4.208   4.621  3.0199  0.7964 -1.6022
 6553SOL     OW31120   3.576   1.691   4.321 -0.1064  0.2318  0.0934
 6553SOL    HW131121   3.544   1.748   4.391  0.7161 -0.1766  0.7968
 6553SOL    HW231122   3.620   1.753   4.262  1.9605  1.3495  2.7891
 6554SOL     OW31123   3.330   0.920  11.710  0.0223 -0.0327 -0.5359
 6554SOL    HW131124   3.413   0.946  11.669  0.3442 -1.3549 -0.7472
 6554SOL    HW231125   3.267   0.967  11.657  1.7454  2.8944  0.0286
 6555SOL     OW31126   2.479   2.491   1.099  0.3220  0.1808 -0.2351
 6555SOL    HW131127   2.507   2.535   1.179 -0.3669  0.9054 -0.3935
 6555SOL    HW231128   2.486   2.558   1.030 -0.5187  1.1942  0.6538
 6556SOL     OW31129   2.182   2.441   9.069 -0.4823  0.3070 -0.2270
 6556SOL    HW131130   2.187   2.476   9.158  1.3327  1.5842 -0.8362
 6556SOL    HW231131   2.201   2.349   9.085  1.8194  0.4040 -2.3273
 6557SOL     OW31132   1.674   1.626   7.496  0.6372  0.3246 -0.5094
 6557SOL    HW131133   1.675   1.646   7.589 -1.2433 -1.1992 -0.1661
 6557SOL    HW231134   1.726   1.546   7.496 -0.5926 -0.4792 -0.2926
 6558SOL     OW31135   1.851   1.003  13.816 -0.1471  0.0050 -0.1907
 6558SOL    HW131136   1.937   0.961  13.805 -1.0960 -1.5563 -1.6190
 6558SOL    HW231137   1.807   0.982  13.733  0.7527 -0.1151 -0.6413
 6559SOL     OW31138   3.169   1.319   6.992  0.0942 -0.1347  0.1457
 6559SOL    HW131139   3.161   1.225   7.010  1.4489 -0.3973 -0.6479
 6559SOL    HW231140   3.086   1.336   6.948  0.5548  0.8518 -0.3371
 6560SOL     OW31141   0.249   2.633  16.256  0.1846 -1.2153  0.3402
 6560SOL    HW131142   0.274   2.712  16.208 -0.8207 -1.7381 -1.0696
 6560SOL    HW231143   0.270   2.558  16.200 -1.6367 -1.0659 -0.5464
 6561SOL     OW31144   1.826   0.402   2.114  0.0655  0.4350 -0.0671
 6561SOL    HW131145   1.744   0.435   2.151 -0.2988 -1.6668  1.0108
 6561SOL    HW231146   1.873   0.380   2.195 -0.4842  1.8164  0.6109
 6562SOL     OW31147   0.447   1.765   7.792  0.4055  0.0023 -0.6682
 6562SOL    HW131148   0.377   1.733   7.736 -0.7548 -0.4424  1.0355
 6562SOL    HW231149   0.422   1.724   7.875  0.6081  2.7762  0.7742
 6563SOL     OW31150   2.044   0.665   4.900 -0.3287  0.0055 -0.5450
 6563SOL    HW131151   2.063   0.585   4.851 -1.2283 -0.1636 -0.6051
 6563SOL    HW231152   2.131   0.688   4.935  0.0706 -1.7267 -0.4005
 6564SOL     OW31153   3.126   3.449   4.960  0.2065 -0.0858  0.0345
 6564SOL    HW131154   3.078   3.520   4.919  0.7123  1.9444  2.9381
 6564SOL    HW231155   3.125   3.471   5.053 -0.1920 -0.8105  0.2016
 6565SOL     OW31156   1.670   4.078  16.862 -0.2404 -0.2900  0.3684
 6565SOL    HW131157   1.667   4.024  16.783  0.8183  1.2951 -0.7498
 6565SOL    HW231158   1.764   4.091  16.872 -0.1324 -1.7733  1.3316
 6566SOL     OW31159   2.253   1.721  12.725 -0.1060 -0.5014  0.4241
 6566SOL    HW131160   2.227   1.749  12.813  3.5429 -2.6305  2.1877
 6566SOL    HW231161   2.169   1.730  12.680  0.7461  0.1952 -1.0365
 6567SOL     OW31162   1.747   3.411   5.594 -0.1364 -0.2096  0.2696
 6567SOL    HW131163   1.712   3.491   5.556 -1.4857  0.6683  3.3488
 6567SOL    HW231164   1.755   3.444   5.683  0.5183 -0.6784  0.3827
 6568SOL     OW31165   3.432   1.357   6.906  0.1659 -0.5054  0.1558
 6568SOL    HW131166   3.444   1.280   6.850 -1.4229 -0.6203 -0.0297
 6568SOL    HW231167   3.337   1.356   6.914  0.1641 -0.5738  0.1326
 6569SOL     OW31168   4.366   1.891   7.284 -0.0492  0.1296 -0.4090
 6569SOL    HW131169   4.322   1.821   7.333  0.9741  0.0329  0.3589
 6569SOL    HW231170   4.460   1.883   7.300 -0.1629 -2.3414 -0.9761
 6570SOL     OW31171   2.151   0.471   8.680  0.2034 -0.2034 -0.0150
 6570SOL    HW131172   2.064   0.456   8.718 -0.3936  1.5989 -0.6923
 6570SOL    HW231173   2.161   0.394   8.624  0.7077 -1.0167  1.1875
 6571SOL     OW31174   0.659   2.444   1.634 -0.2028  1.0464 -0.0754
 6571SOL    HW131175   0.745   2.480   1.656  1.0770 -2.1034  0.1491
 6571SOL    HW231176   0.685   2.354   1.653 -1.1296  0.3151 -2.2922
 6572SOL     OW31177   3.539   3.663   5.434 -0.3326  0.3382 -0.0473
 6572SOL    HW131178   3.606   3.658   5.503 -0.2706 -1.9169 -0.2706
 6572SOL    HW231179   3.479   3.592   5.457 -0.0483  0.0445 -0.2089
 6573SOL     OW31180   4.051   3.118  16.744 -0.1563  0.1034 -0.3352
 6573SOL    HW131181   4.139   3.090  16.767 -0.3167 -1.5321 -1.7339
 6573SOL    HW231182   4.062   3.201  16.696 -0.8519  1.0850  1.2110
 6574SOL     OW31183   1.527   4.416   3.787  0.0526  0.7634  0.1542
 6574SOL    HW131184   1.538   4.320   3.787  0.6193  0.8294 -1.0372
 6574SOL    HW231185   1.485   4.432   3.871  0.7624 -0.6317  0.7753
 6575SOL     OW31186   1.836   0.314   4.050  0.3460 -0.2131  0.2627
 6575SOL    HW131187   1.768   0.266   4.098 -0.0280  1.1967  1.1428
 6575SOL    HW231188   1.813   0.402   4.080  1.6139  0.9325 -2.1661
 6576SOL     OW31189   0.112   1.601   6.778  0.0218  0.2973  0.3895
 6576SOL    HW131190   0.181   1.585   6.714 -0.6355  0.5926 -0.4015
 6576SOL    HW231191   0.148   1.659   6.844  1.2912  0.4445 -0.4308
 6577SOL     OW31192   4.131   3.780  14.473  0.2622 -0.2872 -0.4323
 6577SOL    HW131193   4.132   3.772  14.378  0.3129 -1.5948 -0.3273
 6577SOL    HW231194   4.104   3.871  14.486  0.4899 -0.3541  0.5550
 6578SOL     OW31195   3.739   1.099   0.175  0.2485 -0.0674  0.2939
 6578SOL    HW131196   3.757   1.020   0.226 -1.4671 -0.6963 -0.1013
 6578SOL    HW231197   3.828   1.127   0.153 -0.7409  1.2575 -2.0681
 6579SOL     OW31198   0.264   0.122  10.773  0.2631 -0.4616 -0.1163
 6579SOL    HW131199   0.335   0.185  10.762 -0.6714  0.8886  1.6262
 6579SOL    HW231200   0.293   0.058  10.707  0.7483  1.1918 -1.5013
 6580SOL     OW31201   1.214   4.522  12.723  0.0680  0.2587 -0.2673
 6580SOL    HW131202   1.244   4.604  12.760  0.3888  0.0029  0.0434
 6580SOL    HW231203   1.272   4.465  12.773  1.2473  0.3854 -1.4898
 6581SOL     OW31204   2.640   3.065   0.845  0.4027 -0.0278  0.2903
 6581SOL    HW131205   2.582   2.995   0.874  0.8492 -0.6230 -0.2336
 6581SOL    HW231206   2.666   3.105   0.928  0.4018 -0.3398  0.4386
 6582SOL     OW31207   0.244   3.462  10.141  0.0403 -0.5583  0.0887
 6582SOL    HW131208   0.244   3.377  10.097 -0.9885  0.4862 -1.9457
 6582SOL    HW231209   0.201   3.435  10.222 -0.8849 -2.4321 -1.0327
 6583SOL     OW31210   1.613   3.292  12.452 -0.5340 -0.1346  0.5512
 6583SOL    HW131211   1.688   3.233  12.458  0.2536  0.9006  0.8628
 6583SOL    HW231212   1.543   3.236  12.486  0.9781 -0.6404  2.7968
 6584SOL     OW31213   0.463   1.135   5.209  0.1703  0.0230 -0.0639
 6584SOL    HW131214   0.454   1.040   5.212 -0.8378  0.0564 -2.3588
 6584SOL    HW231215   0.553   1.145   5.243  0.2341 -0.6661 -0.0312
 6585SOL     OW31216   0.484   2.294   3.983  0.0546  0.3863 -0.1429
 6585SOL    HW131217   0.417   2.226   3.979 -1.3649  1.7969  0.1149
 6585SOL    HW231218   0.500   2.297   4.078  1.0466  4.2381 -0.4234
 6586SOL     OW31219   0.256   2.669   6.742 -0.7030 -0.0930  0.3717
 6586SOL    HW131220   0.313   2.741   6.768  0.6291 -1.4796  1.3205
 6586SOL    HW231221   0.303   2.596   6.782 -0.5276 -0.4832 -0.5430
 6587SOL     OW31222   0.056   2.259   8.978  0.2573 -0.0987 -0.9294
 6587SOL    HW131223   0.087   2.322   9.043 -2.3328  1.3689 -1.0913
 6587SOL    HW231224   0.087   2.179   9.020 -0.2999 -0.5811 -1.4450
 6588SOL     OW31225   1.497   2.329   5.057 -0.6570  0.1882  0.7496
 6588SOL    HW131226   1.448   2.391   5.111 -1.0195  1.1392 -0.6650
 6588SOL    HW231227   1.527   2.269   5.126  2.4041 -1.3579 -1.9108
 6589SOL     OW31228   2.786   3.535   0.796 -0.4445 -0.0707  0.3032
 6589SOL    HW131229   2.713   3.475   0.787 -1.0178  0.5775  0.6569
 6589SOL    HW231230   2.770   3.576   0.881  0.0758  1.2372 -0.2171
 6590SOL     OW31231   3.475   0.824   6.147  0.0882 -0.2729 -0.2452
 6590SOL    HW131232   3.494   0.904   6.098  0.0469  1.2908  2.2842
 6590SOL    HW231233   3.404   0.783   6.098  0.1716 -0.1962 -0.4336
 6591SOL     OW31234   3.730   0.663  14.547  0.2947 -0.4851  0.6979
 6591SOL    HW131235   3.770   0.696  14.466 -0.2091 -1.1590  0.1706
 6591SOL    HW231236   3.800   0.666  14.612  1.5086  0.2740 -0.6159
 6592SOL     OW31237   1.791   2.012   4.018 -0.3690  0.0517 -0.1767
 6592SOL    HW131238   1.706   2.004   3.976  0.1837  0.0257 -1.2783
 6592SOL    HW231239   1.767   2.069   4.091 -1.8401 -1.4852  0.5599
 6593SOL     OW31240   4.194   2.799   4.853  0.2149  0.1134  1.0990
 6593SOL    HW131241   4.276   2.757   4.877  0.6245  0.6176  0.5781
 6593SOL    HW231242   4.177   2.850   4.932 -0.3883 -0.8793  1.6102
 6594SOL     OW31243   2.333   2.017   2.123 -0.4312  0.0535 -0.6982
 6594SOL    HW131244   2.267   1.986   2.062 -0.8173 -1.0022  0.2615
 6594SOL    HW231245   2.387   2.066   2.061  0.8319 -1.2232 -0.6268
 6595SOL     OW31246   1.982   4.207  10.135 -0.0784  0.2423 -0.5255
 6595SOL    HW131247   1.999   4.281  10.193 -1.1606 -0.8656  1.1778
 6595SOL    HW231248   2.040   4.222  10.060  0.9924  1.6167  0.5920
 6596SOL     OW31249   0.020   3.667   0.942  0.0389 -0.1816  0.6636
 6596SOL    HW131250   4.678   3.592   0.941 -0.0649 -0.0783 -0.9102
 6596SOL    HW231251   0.104   3.630   0.914  0.9905  1.0831  1.8496
 6597SOL     OW31252   2.170   0.274   8.461  0.1967 -0.3098 -0.0056
 6597SOL    HW131253   2.205   0.190   8.489 -1.5197 -0.7290  0.9296
 6597SOL    HW231254   2.175   0.269   8.366  0.2036  1.8868 -0.1321
 6598SOL     OW31255   1.573   2.223   7.067 -0.6636  0.0431 -0.4260
 6598SOL    HW131256   1.632   2.195   6.997 -0.3353  1.0251 -0.5424
 6598SOL    HW231257   1.614   2.309   7.074 -2.1877  0.7509 -0.2820
 6599SOL     OW31258   1.675   1.384  13.270 -0.5294 -0.2865 -0.3509
 6599SOL    HW131259   1.641   1.414  13.354 -2.8662  0.2725 -1.4911
 6599SOL    HW231260   1.617   1.434  13.211 -0.0964  1.8431  1.0200
 6600SOL     OW31261   1.993   1.700   4.010  0.1824  0.5151 -0.2967
 6600SOL    HW131262   2.024   1.734   3.926  0.0186 -1.8449 -1.3227
 6600SOL    HW231263   2.066   1.641   4.032 -0.3762  0.3377  1.0977
 6601SOL     OW31264   3.323   3.414  11.434  0.6228  0.0272 -0.5667
 6601SOL    HW131265   3.275   3.461  11.366 -0.3344  1.3121  1.0137
 6601SOL    HW231266   3.249   3.401  11.494  0.3781 -2.3894 -1.3855
 6602SOL     OW31267   1.845   4.087   1.073 -0.1603  0.0566  0.8249
 6602SOL    HW131268   1.896   4.119   1.147 -3.1582  1.5090  2.2728
 6602SOL    HW231269   1.795   4.011   1.102 -0.5512  0.1870  0.4887
 6603SOL     OW31270   4.463   1.149   9.479 -0.2102  0.3332  0.0656
 6603SOL    HW131271   4.407   1.213   9.524 -0.2509 -0.0528  0.5646
 6603SOL    HW231272   4.509   1.110   9.554 -0.8375 -1.3552 -0.4468
 6604SOL     OW31273   4.430   1.357  15.492 -0.0686 -0.1550  0.5890
 6604SOL    HW131274   4.418   1.396  15.579 -2.2234  0.3569  0.0477
 6604SOL    HW231275   4.353   1.300  15.492  0.2096 -0.5359  1.6679
 6605SOL     OW31276   4.219   2.881   3.437 -0.6033  0.3649 -0.1138
 6605SOL    HW131277   4.146   2.919   3.387 -1.0142  0.8739  0.8814
 6605SOL    HW231278   4.292   2.943   3.440  0.0428 -0.4033  0.0757
 6606SOL     OW31279   0.066   0.351   3.179  0.1140 -0.2147 -0.4629
 6606SOL    HW131280   0.009   0.290   3.132 -0.8967  0.2095  0.2272
 6606SOL    HW231281   0.031   0.434   3.148 -1.1342 -1.3107 -2.0220
 6607SOL     OW31282   2.742   3.069   6.369  0.0053  0.4040  0.1596
 6607SOL    HW131283   2.745   2.977   6.342 -0.0541  0.5772 -0.4361
 6607SOL    HW231284   2.751   3.118   6.286  0.6071  0.3736  0.2099
 6608SOL     OW31285   4.321   1.158   0.926 -0.0987 -0.0101  0.6012
 6608SOL    HW131286   4.273   1.211   0.990  0.7473  2.1581 -0.5562
 6608SOL    HW231287   4.357   1.104   0.996  0.3544 -0.4113  0.0511
 6609SOL     OW31288   0.914   4.379   8.096 -0.2550  0.3211  0.6402
 6609SOL    HW131289   0.985   4.335   8.142 -1.3580 -1.1798  0.9356
 6609SOL    HW231290   0.901   4.328   8.016 -3.9769  2.1682  0.0464
 6610SOL     OW31291   0.475   0.958   6.403 -0.4638  0.1770 -0.4113
 6610SOL    HW131292   0.518   0.879   6.436  1.4248  2.0134  1.5456
 6610SOL    HW231293   0.546   0.990   6.348  0.1366 -1.0536 -0.3696
 6611SOL     OW31294   2.372   3.956  17.658 -0.4430 -0.3387  0.3081
 6611SOL    HW131295   2.319   3.981  17.583 -0.3520 -0.3936  0.2259
 6611SOL    HW231296   2.311   3.900   0.032  0.3091 -1.6952 -0.3070
 6612SOL     OW31297   0.855   4.002  10.746  0.3534  0.2851  0.0283
 6612SOL    HW131298   0.888   3.983  10.657  1.4299  2.7788 -0.1061
 6612SOL    HW231299   0.770   3.960  10.734  1.4050 -1.9827  0.4639
 6613SOL     OW31300   0.288   3.086  10.958 -0.1448 -0.8811  0.4371
 6613SOL    HW131301   0.314   3.142  10.885  1.8099 -1.2757  0.8343
 6613SOL    HW231302   0.211   3.137  10.985 -0.1566 -0.0684 -1.1069
 6614SOL     OW31303   1.404   0.955  13.350 -0.1283 -0.0019 -0.0028
 6614SOL    HW131304   1.387   1.001  13.432  4.1214 -0.0393  0.9006
 6614SOL    HW231305   1.443   1.028  13.302 -1.0499 -0.5778 -1.6535
 6615SOL     OW31306   0.308   2.183   8.258  0.3377  0.1354  0.2196
 6615SOL    HW131307   0.319   2.240   8.181  0.0290 -0.8129 -0.5288
 6615SOL    HW231308   0.283   2.247   8.325 -3.1166 -0.9200 -0.1149
 6616SOL     OW31309   0.907   2.639  17.072  0.6753 -0.2941  0.1677
 6616SOL    HW131310   0.988   2.673  17.109  1.5489 -2.3922  0.1646
 6616SOL    HW231311   0.846   2.699  17.115 -0.9316  0.2659 -2.8702
 6617SOL     OW31312   4.034   4.105  11.242 -0.6655  0.5431  0.2003
 6617SOL    HW131313   4.084   4.185  11.226  1.6196 -1.3386 -2.0470
 6617SOL    HW231314   3.951   4.124  11.199 -1.7653 -0.0789  2.0283
 6618SOL     OW31315   4.688   2.282   2.774 -0.1343 -0.0905 -0.2755
 6618SOL    HW131316   4.675   2.266   2.868  1.3660  0.1782 -0.0135
 6618SOL    HW231317   0.062   2.260   2.754  0.2131  0.6352  0.5397
 6619SOL     OW31318   4.131   3.138   5.561 -0.3481 -0.6866 -0.2417
 6619SOL    HW131319   4.151   3.059   5.610 -0.5302  0.1408  1.1894
 6619SOL    HW231320   4.151   3.104   5.474  0.1004  0.3783 -0.5671
 6620SOL     OW31321   4.407   3.002   1.288 -0.4962  0.1258 -0.7659
 6620SOL    HW131322   4.451   2.936   1.342 -0.8393 -0.5848 -1.3675
 6620SOL    HW231323   4.325   3.008   1.338 -1.5211 -1.2792 -2.2971
 6621SOL     OW31324   4.402   2.231  11.875 -0.4037  0.4408 -0.0467
 6621SOL    HW131325   4.396   2.284  11.954  2.0120  0.6178  0.0214
 6621SOL    HW231326   4.326   2.266  11.829 -0.9096  0.4543  0.8092
 6622SOL     OW31327   2.102   1.125  10.118  0.2303 -0.1031  1.1833
 6622SOL    HW131328   2.194   1.150  10.127  0.0077  0.9935  0.3375
 6622SOL    HW231329   2.055   1.196  10.074  0.2776 -0.2859  0.8443
 6623SOL     OW31330   2.662   0.102  12.210  0.0966  0.0290 -0.3934
 6623SOL    HW131331   2.640   0.195  12.213 -2.6632 -0.6310 -0.4741
 6623SOL    HW231332   2.657   0.073  12.301 -1.2262  0.7656 -0.2338
 6624SOL     OW31333   1.812   3.028   7.860 -0.6739  0.1085 -0.0419
 6624SOL    HW131334   1.748   3.055   7.926 -2.2496 -2.7644 -0.4321
 6624SOL    HW231335   1.762   2.999   7.783  1.2260 -3.5791  0.1323
 6625SOL     OW31336   1.930   4.441   1.187  0.1852 -0.2296 -0.2942
 6625SOL    HW131337   1.851   4.431   1.134  1.5621 -1.0954 -2.1855
 6625SOL    HW231338   1.893   4.495   1.256  0.7410 -1.4739  0.9693
 6626SOL     OW31339   4.473   1.622  15.399 -0.1797  0.1221  0.9985
 6626SOL    HW131340   4.465   1.527  15.413 -0.4127  0.1265  0.8914
 6626SOL    HW231341   4.385   1.630  15.362 -0.3680 -1.5502  1.0669
 6627SOL     OW31342   2.814   1.387   7.733 -0.4138  0.0457  0.1720
 6627SOL    HW131343   2.875   1.352   7.668  2.2178  2.2891  1.4598
 6627SOL    HW231344   2.779   1.457   7.679  1.3939 -0.1750 -1.2763
 6628SOL     OW31345   0.253   4.446  15.113 -0.0394  0.1065  0.1755
 6628SOL    HW131346   0.203   4.392  15.175  2.6494 -2.2019  0.3572
 6628SOL    HW231347   0.185   4.495  15.067 -1.3841  0.0477  2.1373
 6629SOL     OW31348   2.667   2.759  15.592 -0.0782 -0.0766 -0.9043
 6629SOL    HW131349   2.582   2.756  15.548 -0.5462  2.1356 -0.1479
 6629SOL    HW231350   2.706   2.678  15.558 -1.9200 -1.3788  0.0805
 6630SOL     OW31351   1.578   3.918   9.446  0.0599  0.0777  0.3034
 6630SOL    HW131352   1.519   3.863   9.498  0.8457 -1.0644  0.0068
 6630SOL    HW231353   1.526   3.994   9.421  0.4248  0.0420 -0.5553
 6631SOL     OW31354   2.013   3.758  12.911 -0.2032  0.2631  0.3144
 6631SOL    HW131355   2.030   3.664  12.908  0.1613  0.3545 -0.5810
 6631SOL    HW231356   2.079   3.797  12.853  0.0158 -0.1269  0.3039
 6632SOL     OW31357   1.139   4.111   1.462  0.1306 -0.0497  0.0313
 6632SOL    HW131358   1.204   4.152   1.519 -0.3737  1.4704 -0.4836
 6632SOL    HW231359   1.138   4.022   1.498  2.6347  0.2346  0.7780
 6633SOL     OW31360   2.750   3.369   7.151  0.1896 -0.1924  0.0550
 6633SOL    HW131361   2.820   3.305   7.140  0.4485 -0.1300  1.3073
 6633SOL    HW231362   2.681   3.329   7.099  0.7040 -2.2333  0.9641
 6634SOL     OW31363   1.677   0.609   4.309 -0.2102 -0.0675 -0.2870
 6634SOL    HW131364   1.742   0.547   4.341 -0.7159 -0.1206  0.6468
 6634SOL    HW231365   1.673   0.674   4.380  1.7095 -1.8432  1.4289
 6635SOL     OW31366   0.098   0.685   6.513 -0.0410  0.2997 -0.7214
 6635SOL    HW131367   0.156   0.759   6.531  0.1196 -0.1816  0.7421
 6635SOL    HW231368   0.127   0.627   6.584  0.0899  0.3464 -0.7361
 6636SOL     OW31369   0.077   1.201  10.507 -0.5629 -0.4883  0.6135
 6636SOL    HW131370   0.173   1.208  10.503 -0.7958  2.3473  0.1964
 6636SOL    HW231371   0.063   1.283  10.554  1.5268  1.4777 -2.1998
 6637SOL     OW31372   0.396   2.406   8.649 -0.0045  0.6254 -0.0690
 6637SOL    HW131373   0.356   2.407   8.562 -0.8716 -0.8604  0.3005
 6637SOL    HW231374   0.334   2.350   8.695  0.9783 -0.5618 -0.1815
 6638SOL     OW31375   2.012   4.339   7.432 -0.4284  0.3303 -0.3340
 6638SOL    HW131376   1.951   4.265   7.424 -2.3353  1.8563 -0.0985
 6638SOL    HW231377   2.037   4.353   7.341 -0.3173  2.8475  0.0989
 6639SOL     OW31378   1.616   3.078   8.055 -0.4555 -0.0278 -0.0906
 6639SOL    HW131379   1.526   3.063   8.025 -1.2725  2.2788  1.2316
 6639SOL    HW231380   1.609   3.167   8.090 -1.9107  0.3606 -1.3365
 6640SOL     OW31381   2.163   2.789   8.692 -0.3150  0.2693 -0.4336
 6640SOL    HW131382   2.102   2.858   8.667  2.3470  2.4859 -0.7775
 6640SOL    HW231383   2.176   2.753   8.605  1.2490 -1.4334  0.4965
 6641SOL     OW31384   0.966   4.360  16.049  0.0295 -0.0887  0.4755
 6641SOL    HW131385   1.005   4.427  15.992 -0.3057 -0.8581 -0.6514
 6641SOL    HW231386   0.947   4.409  16.128 -2.2815  1.6997 -1.2148
 6642SOL     OW31387   3.697   3.749   3.529  0.0993  0.4572 -0.0039
 6642SOL    HW131388   3.620   3.776   3.480  0.8221 -1.7840 -2.3649
 6642SOL    HW231389   3.775   3.800   3.506 -1.1469  1.2709 -2.4401
 6643SOL     OW31390   2.471   1.362   6.645  0.2283 -0.4874 -0.1311
 6643SOL    HW131391   2.433   1.384   6.560 -0.4512 -1.4743 -0.0825
 6643SOL    HW231392   2.395   1.349   6.702  0.3470  2.2329  0.6541
 6644SOL     OW31393   3.668   3.307   2.475 -0.7648 -0.3872  0.6237
 6644SOL    HW131394   3.574   3.310   2.460 -0.5843  0.2430 -0.4001
 6644SOL    HW231395   3.694   3.307   2.383 -0.8881 -0.2545  0.5885
 6645SOL     OW31396   3.818   0.301  15.137 -0.6101 -0.0268 -0.0774
 6645SOL    HW131397   3.893   0.360  15.128  0.2969 -1.3572 -1.3890
 6645SOL    HW231398   3.867   0.231  15.093  0.6686  0.1561  1.0631
 6646SOL     OW31399   0.326   4.465  14.471  0.0009 -0.5584 -0.0536
 6646SOL    HW131400   0.282   4.393  14.516  0.9589 -1.1587 -0.0767
 6646SOL    HW231401   0.320   4.543  14.525  1.6336 -0.0081 -0.6746
 6647SOL     OW31402   2.030   4.172  17.303 -0.0247 -0.1004 -0.2293
 6647SOL    HW131403   2.080   4.100  17.341 -1.1773 -0.0340  1.4355
 6647SOL    HW231404   1.974   4.130  17.238  0.3589  1.5153 -1.6148
 6648SOL     OW31405   4.618   1.483   7.499  0.1614  0.2762 -0.0375
 6648SOL    HW131406   4.623   1.442   7.413  2.1895  2.0112 -0.7229
 6648SOL    HW231407   4.543   1.433   7.533 -2.6716  3.0846 -2.1286
 6649SOL     OW31408   1.704   4.386   1.032 -0.1363 -0.0635  0.1002
 6649SOL    HW131409   1.707   4.292   1.051  1.0268 -0.0190  0.0957
 6649SOL    HW231410   1.611   4.409   1.042  0.3971  1.4852  1.3300
 6650SOL     OW31411   2.160   3.024   9.688 -0.7477  0.1348 -0.3465
 6650SOL    HW131412   2.144   3.046   9.596 -1.0626 -0.9542 -0.5605
 6650SOL    HW231413   2.248   3.059   9.702 -0.6523 -0.8990  1.5731
 6651SOL     OW31414   4.165   2.999   1.397  0.4577 -0.8373  0.2942
 6651SOL    HW131415   4.157   3.014   1.492 -3.1307  3.2033 -0.6879
 6651SOL    HW231416   4.109   2.921   1.395 -0.8377  0.0988  0.0347
 6652SOL     OW31417   2.966   1.795   4.251 -0.4326 -0.3985  0.6234
 6652SOL    HW131418   2.916   1.788   4.170 -0.1206  0.1696  0.3764
 6652SOL    HW231419   2.942   1.883   4.279  1.2710  0.1298  0.4744
 6653SOL     OW31420   0.048   3.518   6.541 -0.3378  0.3440  0.1959
 6653SOL    HW131421   0.037   3.436   6.590  0.7217  0.2370  0.2655
 6653SOL    HW231422   0.110   3.488   6.475  1.2207  2.1746  0.7847
 6654SOL     OW31423   1.766   1.391   8.205 -0.3574  0.2637  0.3904
 6654SOL    HW131424   1.697   1.441   8.161 -1.3593 -1.2388  0.2343
 6654SOL    HW231425   1.800   1.452   8.271  1.0078  0.9014 -0.9051
 6655SOL     OW31426   2.097   2.617  16.062 -0.3164 -0.2694 -0.3312
 6655SOL    HW131427   2.178   2.601  16.014 -0.5909  0.7823 -1.1509
 6655SOL    HW231428   2.125   2.682  16.127  0.3821 -1.5219  0.6254
 6656SOL     OW31429   1.087   1.529   2.810  0.2118 -0.0003 -0.5815
 6656SOL    HW131430   1.129   1.443   2.797  0.6921  0.1619 -0.1002
 6656SOL    HW231431   1.139   1.550   2.887  0.1236 -0.8907 -0.2813
 6657SOL     OW31432   0.166   2.862   5.285 -0.0363 -0.1380 -0.0392
 6657SOL    HW131433   0.073   2.884   5.290 -0.0638 -0.0012 -1.1189
 6657SOL    HW231434   0.158   2.772   5.316 -0.8317 -0.4102 -1.0358
 6658SOL     OW31435   1.183   0.320  16.909  0.0507  0.0212 -0.1550
 6658SOL    HW131436   1.272   0.286  16.908 -0.0976 -0.4695  2.2044
 6658SOL    HW231437   1.192   0.414  16.891  0.2089 -0.2521 -1.4767
 6659SOL     OW31438   1.601   0.011  14.473  0.0924 -0.3214 -0.0377
 6659SOL    HW131439   1.669   0.075  14.494 -0.3554  0.0412  0.3127
 6659SOL    HW231440   1.640   4.669  14.409 -1.9851  0.5959 -2.1521
 6660SOL     OW31441   4.190   0.334   5.170 -0.2174  0.6238  0.6107
 6660SOL    HW131442   4.142   0.305   5.092  0.9163  0.7585 -0.1348
 6660SOL    HW231443   4.218   0.413   5.123 -0.6857  0.5876  0.2670
 6661SOL     OW31444   4.159   4.261   4.530 -0.3438 -0.0664 -0.3165
 6661SOL    HW131445   4.108   4.262   4.611 -1.0905 -0.2377 -0.7899
 6661SOL    HW231446   4.191   4.171   4.533  0.2427  0.0904 -2.5494
 6662SOL     OW31447   0.960   1.213   4.345 -0.7740  0.4869  0.1037
 6662SOL    HW131448   0.988   1.290   4.295 -4.5288  2.8893  1.7260
 6662SOL    HW231449   0.911   1.165   4.278 -1.1451  0.2864  0.5231
 6663SOL     OW31450   4.610   4.696   4.500 -0.4485 -0.2879 -0.1777
 6663SOL    HW131451   4.633   4.607   4.528 -3.4682 -1.0391 -0.0235
 6663SOL    HW231452   4.518   4.672   4.486 -0.7346 -0.0192  1.2019
 6664SOL     OW31453   1.132   0.875   7.362 -0.0632 -0.4205  0.0382
 6664SOL    HW131454   1.144   0.897   7.455  1.0348 -1.0111  0.0358
 6664SOL    HW231455   1.198   0.934   7.324 -2.2453  2.0795  0.1113
 6665SOL     OW31456   3.935   0.330   9.106  0.0582  0.3164  0.2077
 6665SOL    HW131457   3.923   0.261   9.172  1.0257  0.3882  0.4620
 6665SOL    HW231458   3.855   0.309   9.059  0.5853 -1.9352  0.2961
 6666SOL     OW31459   0.260   2.452   7.394 -0.2579 -0.2701  0.0260
 6666SOL    HW131460   0.290   2.520   7.454 -0.2417 -1.2981  1.1935
 6666SOL    HW231461   0.280   2.380   7.454  0.7801 -0.3368 -0.4072
 6667SOL     OW31462   3.388   0.283   2.152 -0.2684 -0.1272 -0.0634
 6667SOL    HW131463   3.352   0.260   2.066 -0.9653 -1.2333  0.5348
 6667SOL    HW231464   3.459   0.220   2.160  1.3652  1.6152 -0.8547
 6668SOL     OW31465   0.934   4.527   5.049 -0.3327  0.2626 -0.2170
 6668SOL    HW131466   0.957   4.614   5.079 -0.4820 -0.6739  2.6848
 6668SOL    HW231467   0.844   4.554   5.032 -0.9811 -1.4150  0.5034
 6669SOL     OW31468   0.932   4.650   0.856 -0.0004 -0.1045  0.7425
 6669SOL    HW131469   0.848   4.626   0.818 -0.4881  0.7573  1.2758
 6669SOL    HW231470   0.915   0.006   0.915  0.6147  0.8408 -0.2548
 6670SOL     OW31471   4.110   0.557   2.804  0.6019 -0.3877  0.1162
 6670SOL    HW131472   4.043   0.489   2.810  0.0356  0.2192  0.6157
 6670SOL    HW231473   4.056   0.636   2.799  1.9314  0.5770  0.7983
 6671SOL     OW31474   3.360   1.344  11.242 -0.5385 -0.2589  0.2176
 6671SOL    HW131475   3.329   1.422  11.196 -0.7284 -0.6294 -0.2902
 6671SOL    HW231476   3.287   1.319  11.300 -1.8341  0.5332 -1.0738
 6672SOL     OW31477   3.297   4.705   4.946  0.0590 -0.2260 -0.3269
 6672SOL    HW131478   3.203   4.698   4.931  0.2118 -2.3343 -0.2655
 6672SOL    HW231479   3.320   0.075   4.914 -1.2530  0.2585  0.0854
 6673SOL     OW31480   4.393   2.463   6.629  0.3154 -0.1979  0.0471
 6673SOL    HW131481   4.406   2.538   6.571  0.2495 -0.8502 -0.8202
 6673SOL    HW231482   4.319   2.495   6.680 -0.5346 -2.0451 -0.0340
 6674SOL     OW31483   1.814   1.842   7.407 -0.0243  0.1854 -0.5421
 6674SOL    HW131484   1.742   1.782   7.390  0.4900 -0.0227 -1.9806
 6674SOL    HW231485   1.780   1.931   7.404  2.5576  1.1235 -2.3232
 6675SOL     OW31486   1.923   3.159   8.912  0.5137  0.3283  0.1410
 6675SOL    HW131487   1.878   3.111   8.844  0.0267 -2.5944  2.5619
 6675SOL    HW231488   1.866   3.137   8.986  1.6719  2.6938  1.7739
 6676SOL     OW31489   1.329   4.487  14.285  0.0386 -0.0972  0.6656
 6676SOL    HW131490   1.316   4.406  14.236 -0.0783  0.6702 -0.5653
 6676SOL    HW231491   1.315   4.462  14.376 -0.0941  1.0279  0.9626
 6677SOL     OW31492   2.714   2.786  17.010 -0.8328  0.3956 -0.3761
 6677SOL    HW131493   2.680   2.703  16.978 -1.5532  0.8022 -0.6492
 6677SOL    HW231494   2.757   2.825  16.934  1.5268 -0.6949  0.3833
 6678SOL     OW31495   3.379   2.614  13.142  0.3295  0.0425 -0.2544
 6678SOL    HW131496   3.440   2.676  13.103  0.2029  0.0095 -0.5004
 6678SOL    HW231497   3.316   2.672  13.185 -0.2952  1.0342 -2.5117
 6679SOL     OW31498   0.163   1.285   4.903  0.2575 -0.1107 -0.4278
 6679SOL    HW131499   0.198   1.335   4.829  1.4526  1.9820  1.5537
 6679SOL    HW231500   0.182   1.353   4.968 -1.3323  1.5150 -1.6491
 6680SOL     OW31501   3.382   0.602   0.105 -0.3878  0.1103  0.0585
 6680SOL    HW131502   3.405   0.695   0.111 -0.8327  0.2004  0.4032
 6680SOL    HW231503   3.300   0.601   0.055  0.5182 -0.2978 -1.4133
 6681SOL     OW31504   1.751   1.719   6.090  0.4499  0.3091  0.2216
 6681SOL    HW131505   1.774   1.812   6.090 -0.7287  0.5860  1.2790
 6681SOL    HW231506   1.656   1.719   6.102  0.2463 -0.7042 -1.3280
 6682SOL     OW31507   0.082   4.123   5.198  0.8719 -0.0915  0.1934
 6682SOL    HW131508   0.146   4.055   5.220  0.2345 -0.2976  1.4134
 6682SOL    HW231509   0.046   4.085   5.118 -0.6337  1.0366  0.3262
 6683SOL     OW31510   2.527   4.557   0.005 -0.0175 -0.1093  0.2152
 6683SOL    HW131511   2.544   4.600   0.089 -0.0563 -0.4116  0.3769
 6683SOL    HW231512   2.501   4.635  17.629  0.2216  0.3061  0.7339
 6684SOL     OW31513   3.015   4.443   6.518  0.5014  0.1221  0.6610
 6684SOL    HW131514   3.027   4.398   6.434  0.9443  2.1677 -0.3715
 6684SOL    HW231515   2.941   4.397   6.558  1.1251 -1.0885  0.3987
 6685SOL     OW31516   3.985   0.624   8.143 -0.0423 -0.1314 -0.2041
 6685SOL    HW131517   4.002   0.603   8.051  0.5462  0.7786 -0.3062
 6685SOL    HW231518   3.990   0.719   8.152 -0.6377 -0.0293 -0.9137
 6686SOL     OW31519   3.118   3.141   3.706  0.6957 -0.3595  0.5085
 6686SOL    HW131520   3.116   3.061   3.758  0.6313  0.3990  1.6758
 6686SOL    HW231521   3.190   3.115   3.648  1.2069  0.1091  0.9331
 6687SOL     OW31522   4.462   4.182   8.395 -0.1434 -0.1982 -0.7284
 6687SOL    HW131523   4.490   4.123   8.465  0.4081 -1.0555 -1.6664
 6687SOL    HW231524   4.366   4.174   8.397 -0.0352 -1.7386 -1.4018
 6688SOL     OW31525   3.563   3.571  10.827  0.5262 -0.3241 -0.1707
 6688SOL    HW131526   3.549   3.525  10.910  1.7508  1.4599  1.0446
 6688SOL    HW231527   3.493   3.635  10.838  0.7919  0.3324 -2.3772
 6689SOL     OW31528   3.746   0.622   8.890  0.3473 -0.5004  0.2034
 6689SOL    HW131529   3.686   0.549   8.898  0.2193 -0.3269  0.8539
 6689SOL    HW231530   3.750   0.663   8.976  4.0149  1.9071 -1.0928
 6690SOL     OW31531   1.395   2.912   3.589  0.2918  0.3205  0.0159
 6690SOL    HW131532   1.354   2.970   3.526 -0.9251 -1.6550 -1.0246
 6690SOL    HW231533   1.487   2.927   3.569  0.6355  0.7085  1.9083
 6691SOL     OW31534   1.053   1.495  13.442 -0.0131  0.0626  0.3545
 6691SOL    HW131535   1.007   1.542  13.512 -1.1976 -1.5450  0.6358
 6691SOL    HW231536   1.028   1.551  13.369  1.9711 -0.4038 -0.6708
 6692SOL     OW31537   3.268   3.989   3.144  0.5601  0.2261  0.4944
 6692SOL    HW131538   3.284   3.906   3.100 -2.6760 -0.2396  0.2069
 6692SOL    HW231539   3.194   3.959   3.197  0.8908 -1.4492  0.0035
 6693SOL     OW31540   3.450   1.242   4.700  0.3659  0.4360 -0.3846
 6693SOL    HW131541   3.413   1.258   4.786  1.4752  0.9421 -0.0076
 6693SOL    HW231542   3.377   1.201   4.653 -0.4768 -1.0939  2.2830
 6694SOL     OW31543   4.019   3.919   2.827 -0.2205 -0.2289 -0.0758
 6694SOL    HW131544   3.998   4.010   2.844  0.8312  0.0396 -0.2020
 6694SOL    HW231545   4.103   3.910   2.873 -0.4673 -2.2738 -0.0253
 6695SOL     OW31546   0.806   0.664  12.397 -0.2832  0.1866 -0.1461
 6695SOL    HW131547   0.870   0.656  12.327  0.6444 -1.3119  0.8851
 6695SOL    HW231548   0.785   0.758  12.396 -0.4682  0.1480  0.0340
 6696SOL     OW31549   2.574   3.641   7.860  0.1072  0.2593  0.2300
 6696SOL    HW131550   2.610   3.686   7.783  0.4071 -0.2557  0.0699
 6696SOL    HW231551   2.652   3.656   7.914  0.6308  1.1117 -0.7543
 6697SOL     OW31552   1.504   3.240   4.564 -0.1726 -0.3983 -0.5916
 6697SOL    HW131553   1.563   3.308   4.598  0.0561 -0.6798 -0.4207
 6697SOL    HW231554   1.471   3.272   4.481  1.0424 -2.6435 -1.9269
 6698SOL     OW31555   2.287   2.570  13.307 -0.2108 -0.0231  0.2503
 6698SOL    HW131556   2.311   2.613  13.225 -0.5103  0.2043  0.2804
 6698SOL    HW231557   2.280   2.645  13.366 -1.1096  1.9423 -2.3402
 6699SOL     OW31558   3.160   1.911   3.250 -0.4013 -0.0196 -0.2609
 6699SOL    HW131559   3.112   1.897   3.169 -0.9070  0.2878 -0.0205
 6699SOL    HW231560   3.079   1.918   3.302  1.8098 -0.2703  3.2377
 6700SOL     OW31561   1.603   2.880   7.167 -0.1249 -0.1789 -0.5916
 6700SOL    HW131562   1.610   2.940   7.241 -2.0955  0.8298 -1.2267
 6700SOL    HW231563   1.600   2.793   7.207 -0.6667 -0.7387 -1.8265
 6701SOL     OW31564   3.439   3.651   8.464 -0.1360 -0.7505  0.1424
 6701SOL    HW131565   3.478   3.724   8.417 -1.8232  0.1765  0.1784
 6701SOL    HW231566   3.353   3.625   8.430  0.4562 -0.1253 -1.8089
 6702SOL     OW31567   4.135   1.198  17.086  0.4502  0.1056 -0.1745
 6702SOL    HW131568   4.102   1.241  17.008  0.7683  1.8353  0.6381
 6702SOL    HW231569   4.173   1.277  17.126 -0.5698  0.4066  0.2141
 6703SOL     OW31570   3.727   4.489   4.036  0.5534 -0.0551 -0.1682
 6703SOL    HW131571   3.708   4.563   3.979  2.8683  0.4107 -0.3587
 6703SOL    HW231572   3.639   4.466   4.066  0.4414  1.2888  0.5485
 6704SOL     OW31573   1.513   4.712   6.938  0.1594 -0.0228 -0.7157
 6704SOL    HW131574   1.439   0.038   6.981  0.9920  1.5198 -0.8931
 6704SOL    HW231575   1.469   4.644   6.887 -0.2717  0.1665 -0.6022
 6705SOL     OW31576   1.554   4.291   5.067  0.0277 -0.1304  0.6164
 6705SOL    HW131577   1.496   4.237   5.121  0.2373  0.3962  1.3590
 6705SOL    HW231578   1.626   4.229   5.051  0.0543  0.3906 -1.2939
 6706SOL     OW31579   1.219   4.565   5.000  0.6936  0.3782 -0.2402
 6706SOL    HW131580   1.244   4.493   4.942 -3.2925 -0.8458 -0.4410
 6706SOL    HW231581   1.142   4.524   5.037  1.0360  2.6962  3.0402
 6707SOL     OW31582   1.449   3.695   6.859 -0.6999 -0.1097 -0.3532
 6707SOL    HW131583   1.413   3.769   6.908  2.8198 -0.1326  2.2491
 6707SOL    HW231584   1.505   3.738   6.794 -0.6399  0.6624  0.2098
 6708SOL     OW31585   1.616   0.933  12.710  0.1824  0.7889  0.0304
 6708SOL    HW131586   1.605   0.975  12.795  0.6065  1.1511 -0.0957
 6708SOL    HW231587   1.700   0.891  12.724  0.5047  1.1542 -0.8133
 6709SOL     OW31588   3.011   0.742   8.202  0.4201 -0.7046 -0.0652
 6709SOL    HW131589   3.003   0.738   8.298 -0.5020  2.1259 -0.0235
 6709SOL    HW231590   3.005   0.835   8.181  0.8171 -0.8800 -0.9339
 6710SOL     OW31591   3.125   3.083   7.969  0.0584  0.0294  0.1507
 6710SOL    HW131592   3.059   3.027   8.009 -0.6227  2.0414  1.8911
 6710SOL    HW231593   3.183   3.093   8.044  0.2914 -0.3861  0.0254
 6711SOL     OW31594   1.369   1.212   8.538  0.5817  0.1379  0.3858
 6711SOL    HW131595   1.365   1.125   8.578 -0.2436  1.3094  2.8076
 6711SOL    HW231596   1.444   1.252   8.583  0.3354 -1.2494  2.0388
 6712SOL     OW31597   1.180   2.075   3.678 -0.1580 -0.2827  0.0129
 6712SOL    HW131598   1.099   2.056   3.725  0.0853  2.0073  1.3374
 6712SOL    HW231599   1.163   2.169   3.668 -2.2834 -0.8231 -1.5642
 6713SOL     OW31600   4.335   1.385   7.354 -0.4366 -0.1215 -0.2722
 6713SOL    HW131601   4.389   1.392   7.275  0.4208  2.0659  0.5184
 6713SOL    HW231602   4.251   1.349   7.324  0.5073 -1.7907 -0.8969
 6714SOL     OW31603   2.116   4.331   2.410  0.1823  0.5492 -0.2016
 6714SOL    HW131604   2.148   4.245   2.438  1.1120  0.9755  0.0551
 6714SOL    HW231605   2.187   4.384   2.448 -0.4782  0.6048  0.9631
 6715SOL     OW31606   2.301   4.607   5.421  0.2791  0.2770 -0.0560
 6715SOL    HW131607   2.322   4.668   5.492 -0.1045 -0.1053  0.3894
 6715SOL    HW231608   2.343   4.525   5.444 -0.1294 -0.6278 -2.4947
 6716SOL     OW31609   0.103   0.391   3.943  0.2945  0.9647  0.1927
 6716SOL    HW131610   0.063   0.347   4.018  0.9684 -0.8283 -0.4970
 6716SOL    HW231611   0.138   0.310   3.906 -1.7173  0.4159 -0.5056
 6717SOL     OW31612   3.928   0.041   7.639 -0.0574 -1.3103  0.5382
 6717SOL    HW131613   4.012   0.006   7.609  0.3413  0.7251 -0.7358
 6717SOL    HW231614   3.947   0.130   7.610  1.2417 -1.3782  1.2072
 6718SOL     OW31615   2.571   2.622  14.993 -0.1243  0.5085  0.5979
 6718SOL    HW131616   2.595   2.596  15.082  1.1854 -1.3503 -0.3001
 6718SOL    HW231617   2.485   2.586  14.972  0.1604  0.2193 -0.0750
 6719SOL     OW31618   2.574   3.250   6.699  0.2730 -0.0594  0.3199
 6719SOL    HW131619   2.538   3.161   6.696 -1.4083  0.5946  0.7423
 6719SOL    HW231620   2.659   3.241   6.656  1.1157 -0.3031  2.0876
 6720SOL     OW31621   3.332   4.673  10.291 -0.0338  0.3741 -0.5703
 6720SOL    HW131622   3.412   4.698  10.336  0.4393  0.9559 -1.7064
 6720SOL    HW231623   3.264   4.661  10.357  0.9423  0.0386  0.3533
 6721SOL     OW31624   1.914   3.327  13.139  0.3700  0.0833  0.2870
 6721SOL    HW131625   1.829   3.362  13.165  1.2691  0.8004  2.2544
 6721SOL    HW231626   1.934   3.270  13.213  1.2459  2.1363  1.6416
 6722SOL     OW31627   3.738   0.647   0.140  0.2474  0.9408  0.6128
 6722SOL    HW131628   3.719   0.732   0.180 -2.1222  0.1558  1.1974
 6722SOL    HW231629   3.708   0.584   0.207  0.4737 -0.2085 -0.3685
 6723SOL     OW31630   4.292   2.678  13.362  0.2899 -0.1426 -0.2275
 6723SOL    HW131631   4.309   2.752  13.303  0.4470 -0.1728 -0.2208
 6723SOL    HW231632   4.297   2.717  13.449  0.3788 -0.8470  0.0828
 6724SOL     OW31633   3.407   0.675   2.826  0.0543 -0.3544  0.4296
 6724SOL    HW131634   3.315   0.683   2.802  0.6645  3.0701 -0.9234
 6724SOL    HW231635   3.408   0.759   2.872 -0.5328  1.7248 -3.3482
 6725SOL     OW31636   4.436   2.587   7.721 -0.1102 -0.8095  0.0894
 6725SOL    HW131637   4.444   2.506   7.770  1.6101  1.2118  3.1587
 6725SOL    HW231638   4.512   2.581   7.663 -0.3467 -0.4417 -0.2588
 6726SOL     OW31639   4.246   3.869   6.249 -0.0586 -0.0416  0.1756
 6726SOL    HW131640   4.152   3.883   6.244 -0.0253  0.7223  1.9012
 6726SOL    HW231641   4.274   3.939   6.190 -1.6103  1.3615  1.1006
 6727SOL     OW31642   4.674   3.562   3.677 -0.0880  0.2352 -0.0262
 6727SOL    HW131643   4.690   3.619   3.753  1.2477 -2.1802  1.4786
 6727SOL    HW231644   0.018   3.490   3.687  1.0410  1.0071 -1.4082
 6728SOL     OW31645   4.146   1.360   0.250 -0.1222 -0.0861  0.3918
 6728SOL    HW131646   4.071   1.413   0.279 -2.2849 -1.7885 -2.0556
 6728SOL    HW231647   4.193   1.358   0.333 -0.5593  1.8038  0.7020
 6729SOL     OW31648   0.879   3.356   0.717 -0.3485  0.2944 -0.7491
 6729SOL    HW131649   0.891   3.290   0.785 -0.6575 -0.2405 -1.2140
 6729SOL    HW231650   0.970   3.385   0.724 -0.5209  0.3160  1.4181
 6730SOL     OW31651   1.250   1.907  12.982  0.3122  0.5145 -0.2685
 6730SOL    HW131652   1.188   1.925  12.912  0.6084  0.4725 -0.5410
 6730SOL    HW231653   1.222   1.974  13.044 -1.8123 -0.7398  0.1522
 6731SOL     OW31654   1.820   3.753  13.137 -0.0014  0.0873 -0.0111
 6731SOL    HW131655   1.894   3.793  13.183  0.3827  0.1432 -0.6664
 6731SOL    HW231656   1.869   3.710  13.067  2.0037 -0.1242  1.5373
 6732SOL     OW31657   2.041   2.522   6.360  0.0613 -0.1282  0.5662
 6732SOL    HW131658   2.085   2.544   6.442  2.6889  0.7090 -1.0618
 6732SOL    HW231659   2.106   2.466   6.318 -2.3499 -1.0195 -2.0374
 6733SOL     OW31660   2.249   2.521  10.419  0.2842 -0.1716 -0.0320
 6733SOL    HW131661   2.260   2.447  10.359  1.8410 -0.4364  0.5793
 6733SOL    HW231662   2.314   2.511  10.488 -0.3270 -2.1251  0.2499
 6734SOL     OW31663   0.828   2.388  12.459 -0.3163 -0.5201  0.5244
 6734SOL    HW131664   0.852   2.455  12.395  2.1618 -1.4737  0.4573
 6734SOL    HW231665   0.823   2.451  12.532  0.5473  3.0548 -2.5192
 6735SOL     OW31666   4.632   2.041   1.678 -0.0799 -0.3493 -0.3282
 6735SOL    HW131667   4.604   2.058   1.588 -2.5299  0.0221  0.4957
 6735SOL    HW231668   4.655   2.132   1.697  1.2514 -0.3906 -1.8241
 6736SOL     OW31669   1.491   0.516  10.946 -0.5215 -0.0956 -0.4086
 6736SOL    HW131670   1.555   0.536  11.014 -2.6850  0.6015  1.4407
 6736SOL    HW231671   1.416   0.563  10.983  0.5234  1.0671  0.2802
 6737SOL     OW31672   0.409   1.493   8.069 -0.4983 -0.2690  0.0463
 6737SOL    HW131673   0.367   1.449   8.143 -0.6702  0.7351  0.5482
 6737SOL    HW231674   0.372   1.580   8.085  0.0572 -0.3132  1.5055
 6738SOL     OW31675   0.588   0.596   6.308 -0.0279 -0.1436  0.7280
 6738SOL    HW131676   0.529   0.652   6.258  0.7083  0.4569  0.5231
 6738SOL    HW231677   0.587   0.625   6.400 -1.1235  0.8170  0.4163
 6739SOL     OW31678   1.985   0.609   8.203 -0.6921  0.1816  0.0912
 6739SOL    HW131679   1.956   0.651   8.284 -0.3499  0.3500  0.1274
 6739SOL    HW231680   2.079   0.626   8.208 -1.0946  1.9326  1.4703
 6740SOL     OW31681   0.344   3.916  10.188  0.0381 -0.0477  0.0900
 6740SOL    HW131682   0.432   3.931  10.152 -0.0168  0.0824  0.0079
 6740SOL    HW231683   0.321   3.837  10.139  1.4426  0.5022 -1.4837
 6741SOL     OW31684   0.874   0.525   5.877 -0.5818  0.3337  0.0950
 6741SOL    HW131685   0.824   0.468   5.819  1.6766  2.5237 -3.9796
 6741SOL    HW231686   0.845   0.494   5.963 -0.6948 -0.1280 -0.1061
 6742SOL     OW31687   0.352   3.491   1.583 -0.2429  0.4343  0.1016
 6742SOL    HW131688   0.378   3.399   1.584 -0.7480  0.2834 -1.0784
 6742SOL    HW231689   0.276   3.495   1.525 -0.8197 -0.2931  0.8047
 6743SOL     OW31690   4.531   4.116   4.760  0.0507  0.1417  0.1159
 6743SOL    HW131691   4.547   4.103   4.666  0.5213 -1.3179  0.3961
 6743SOL    HW231692   4.455   4.174   4.768  0.0021 -0.1971  2.1196
 6744SOL     OW31693   4.108   0.355  12.194  0.5496  0.2494  0.2570
 6744SOL    HW131694   4.021   0.392  12.178  0.3315  0.7634  2.5920
 6744SOL    HW231695   4.153   0.428  12.152  2.0114 -0.2168  1.0166
 6745SOL     OW31696   2.234   3.929   4.784  0.5737 -0.0967  0.2788
 6745SOL    HW131697   2.321   3.891   4.796  1.7426  1.8315 -2.2960
 6745SOL    HW231698   2.185   3.858   4.742  2.6780  0.2106 -2.6859
 6746SOL     OW31699   4.355   1.739   0.166 -0.3349 -0.3247 -0.9077
 6746SOL    HW131700   4.327   1.826   0.194 -2.9119 -1.5846  0.4297
 6746SOL    HW231701   4.330   1.681   0.238  1.6985  1.6031  1.3528
 6747SOL     OW31702   2.021   2.128   9.358 -0.1407  0.2522 -0.3275
 6747SOL    HW131703   1.997   2.220   9.357 -0.1367  0.2733  2.7341
 6747SOL    HW231704   2.047   2.122   9.450 -0.7901 -2.0612 -0.2715
 6748SOL     OW31705   1.738   1.360   1.609 -0.2375  0.3190 -0.2033
 6748SOL    HW131706   1.768   1.319   1.528 -0.8562  0.6661 -0.6028
 6748SOL    HW231707   1.651   1.322   1.617  0.0220  0.2288  2.0806
 6749SOL     OW31708   1.271   0.496   1.742 -0.1397  0.8065  0.4858
 6749SOL    HW131709   1.234   0.411   1.766 -0.8969  0.8235 -0.6023
 6749SOL    HW231710   1.194   0.553   1.741 -0.6508  0.1018 -0.2481
 6750SOL     OW31711   4.121   1.689   4.359  0.4839 -0.0205  0.1769
 6750SOL    HW131712   4.030   1.666   4.379 -0.0248 -0.1347 -2.1751
 6750SOL    HW231713   4.105   1.755   4.291  1.3376 -1.0416 -1.0340
 6751SOL     OW31714   3.779   0.970   6.964 -0.3229 -0.1144  0.4261
 6751SOL    HW131715   3.742   0.935   6.883  4.0378 -1.4875 -0.9879
 6751SOL    HW231716   3.850   1.028   6.935 -0.9848  0.9890  1.0034
 6752SOL     OW31717   3.474   3.491   6.447 -0.5693  0.5936 -0.7041
 6752SOL    HW131718   3.493   3.509   6.539 -0.6410 -0.0426 -0.5648
 6752SOL    HW231719   3.564   3.472   6.420 -1.2042 -1.5861 -1.2811
 6753SOL     OW31720   2.342   3.319   3.278 -0.0258  0.5225  0.0876
 6753SOL    HW131721   2.253   3.349   3.258 -0.2571 -1.0057 -1.1459
 6753SOL    HW231722   2.312   3.228   3.279  0.6139  0.3366  1.9923
 6754SOL     OW31723   1.504   2.650   9.031  0.4503 -0.3312  0.4768
 6754SOL    HW131724   1.478   2.621   8.943 -0.1463 -1.3734  0.9924
 6754SOL    HW231725   1.599   2.645   9.024  0.6120  0.3247  2.1561
 6755SOL     OW31726   3.386   4.406   2.384  0.4066 -0.3513  0.2030
 6755SOL    HW131727   3.452   4.421   2.451  0.1910  1.6686 -0.0397
 6755SOL    HW231728   3.331   4.336   2.418  0.9185 -0.8186  0.0759
 6756SOL     OW31729   1.329   1.305   3.233 -0.1431  0.1358  0.4017
 6756SOL    HW131730   1.339   1.389   3.278 -0.0041 -1.7375  3.9369
 6756SOL    HW231731   1.234   1.304   3.222 -0.0889  1.2947 -0.1712
 6757SOL     OW31732   0.196   0.162   8.220  0.7656  0.3846 -0.0986
 6757SOL    HW131733   0.173   0.131   8.132 -2.2577 -0.6700  1.0365
 6757SOL    HW231734   0.134   0.234   8.234  0.8442  0.2397  0.9705
 6758SOL     OW31735   1.696   0.817  14.899  0.1036  0.1580 -0.7817
 6758SOL    HW131736   1.728   0.817  14.989 -1.8623 -2.6882 -0.0874
 6758SOL    HW231737   1.660   0.905  14.899 -1.9839 -0.7074  1.4923
 6759SOL     OW31738   0.796   3.237  15.094  0.0763  0.8418 -0.5012
 6759SOL    HW131739   0.713   3.281  15.077 -0.1998  0.5698  0.1142
 6759SOL    HW231740   0.858   3.310  15.097  0.2232  0.7359 -0.9554
 6760SOL     OW31741   0.925   0.502   6.946  0.2084  0.1553 -0.2197
 6760SOL    HW131742   1.007   0.453   6.945  0.3689  0.4589 -1.0811
 6760SOL    HW231743   0.957   0.592   6.943 -1.4358  0.8103  1.9010
 6761SOL     OW31744   0.820   1.096   7.528 -0.3655  0.0167  0.1045
 6761SOL    HW131745   0.811   1.059   7.616 -1.1642  0.0271  0.0183
 6761SOL    HW231746   0.910   1.070   7.508  1.0298  2.4003  3.2343
 6762SOL     OW31747   1.862   2.459   4.278  1.1112  0.4612  0.1464
 6762SOL    HW131748   1.907   2.463   4.362  0.8557 -1.0578  0.3675
 6762SOL    HW231749   1.919   2.410   4.219  0.9163 -0.4847  0.7484
 6763SOL     OW31750   1.855   0.001   3.559 -0.2059 -0.4590 -0.2280
 6763SOL    HW131751   1.811   4.682   3.483  1.5372 -0.7709 -1.0888
 6763SOL    HW231752   1.803   4.677   3.628 -1.5472  1.1883 -0.2505
 6764SOL     OW31753   0.994   3.085   0.208 -0.1113 -0.2453  0.8850
 6764SOL    HW131754   1.054   3.159   0.213 -2.0672  1.6061 -2.7158
 6764SOL    HW231755   1.021   3.047   0.291  2.9741  0.9102  0.4093
 6765SOL     OW31756   2.498   4.070   0.285  0.1628  0.2145 -0.4584
 6765SOL    HW131757   2.419   4.076   0.338  0.6799 -1.3127  0.4705
 6765SOL    HW231758   2.493   4.157   0.245 -1.4762  0.9184  1.2905
 6766SOL     OW31759   2.133   2.366   9.797  0.6033  0.0744  0.1743
 6766SOL    HW131760   2.117   2.345   9.889 -1.1685  0.6918  0.0098
 6766SOL    HW231761   2.227   2.382   9.799  0.8270 -1.4787  2.1966
 6767SOL     OW31762   1.171   1.947  11.829  0.4130  0.5293  0.2997
 6767SOL    HW131763   1.108   1.882  11.861  0.1913  0.5815 -0.0307
 6767SOL    HW231764   1.107   2.017  11.821  1.5061  1.3207 -1.4449
 6768SOL     OW31765   1.325   1.033  17.467  0.2410  0.4589  0.6810
 6768SOL    HW131766   1.293   1.077  17.389  1.9840  0.3997 -0.0692
 6768SOL    HW231767   1.402   0.986  17.434 -2.0298 -1.9339 -1.1278
 6769SOL     OW31768   2.033   3.070   7.521 -0.3354 -0.1910  0.1319
 6769SOL    HW131769   2.024   3.136   7.590 -0.8101 -0.9313  0.7726
 6769SOL    HW231770   2.125   3.069   7.496  0.5819  0.0989  3.4462
 6770SOL     OW31771   1.992   1.315   1.993  0.7595  0.4754 -0.4822
 6770SOL    HW131772   2.046   1.244   1.958 -0.9695 -1.0689 -0.0301
 6770SOL    HW231773   2.018   1.322   2.085 -0.4668  2.0854 -0.2672
 6771SOL     OW31774   3.499   3.912   9.282 -0.2295 -0.6294  0.1142
 6771SOL    HW131775   3.543   3.973   9.341 -0.5651 -1.0912  0.8518
 6771SOL    HW231776   3.449   3.859   9.344 -2.0457  0.6643 -0.2225
 6772SOL     OW31777   1.230   1.853   0.716  0.0866  0.1898 -0.0368
 6772SOL    HW131778   1.143   1.891   0.728  1.0053  1.9675  0.8141
 6772SOL    HW231779   1.256   1.853   0.807 -1.2174  3.1919  0.3435
 6773SOL     OW31780   0.612   4.026   3.998  0.5236  0.0033  0.1604
 6773SOL    HW131781   0.669   4.015   4.074 -0.4366 -0.6252  0.7944
 6773SOL    HW231782   0.548   4.096   4.009  0.1460 -0.6538  2.2618
 6774SOL     OW31783   2.423   3.838  16.296  0.1451  0.1356 -0.6874
 6774SOL    HW131784   2.481   3.914  16.307  0.9845 -0.5199 -0.5712
 6774SOL    HW231785   2.422   3.826  16.201  2.8190  0.8859 -0.8232
 6775SOL     OW31786   1.561   3.219   3.722 -0.1450 -0.3341 -0.4731
 6775SOL    HW131787   1.621   3.239   3.793 -1.5966 -0.7565  0.8611
 6775SOL    HW231788   1.553   3.124   3.731 -2.5034  0.0979  1.8533
 6776SOL     OW31789   0.247   2.445   3.426  0.1155  0.3095 -0.2581
 6776SOL    HW131790   0.185   2.496   3.478 -0.4949 -1.3502  0.6411
 6776SOL    HW231791   0.250   2.374   3.490 -3.9514  0.4979  0.1862
 6777SOL     OW31792   0.166   1.723   4.820  0.1382  0.7007 -0.2588
 6777SOL    HW131793   0.086   1.706   4.771  0.4456  0.7962 -0.7959
 6777SOL    HW231794   0.205   1.636   4.814 -1.9690 -0.3527  1.3236
 6778SOL     OW31795   0.004   1.393  15.504  0.0928  0.2758  0.3541
 6778SOL    HW131796   0.041   1.320  15.553  2.1516 -0.8860 -2.8927
 6778SOL    HW231797   4.630   1.371  15.490 -0.5481  3.0680  0.0632
 6779SOL     OW31798   2.765   1.656   6.107  0.3479 -0.4583 -0.6798
 6779SOL    HW131799   2.702   1.609   6.162 -0.8451  0.7576 -1.0301
 6779SOL    HW231800   2.729   1.741   6.131  0.2451 -0.4325 -0.9253
 6780SOL     OW31801   2.748   2.813   6.902 -0.2209  0.0209 -0.3419
 6780SOL    HW131802   2.684   2.771   6.960 -0.4014  1.4856  0.5405
 6780SOL    HW231803   2.826   2.836   6.953  0.5315  0.4962 -1.7377
 6781SOL     OW31804   3.974   1.088   7.469 -0.0503  0.6010  0.3616
 6781SOL    HW131805   4.054   1.055   7.510  1.3892  1.4656 -1.7735
 6781SOL    HW231806   3.942   1.005   7.433  0.3693  0.2465  0.7984
 6782SOL     OW31807   1.853   4.498  16.306  0.0467  0.2681 -0.8680
 6782SOL    HW131808   1.898   4.567  16.259  0.7558 -0.0657 -0.6744
 6782SOL    HW231809   1.909   4.425  16.280  1.1092  1.9826 -3.2880
 6783SOL     OW31810   2.775   0.774   6.037  0.0405  0.0690  0.2975
 6783SOL    HW131811   2.717   0.850   6.042  1.9580  1.6194 -1.5031
 6783SOL    HW231812   2.836   0.799   6.106  0.6512 -0.1525 -0.1655
 6784SOL     OW31813   0.366   1.367   6.774 -0.4234  0.2446  0.1829
 6784SOL    HW131814   0.428   1.314   6.723 -0.8743  2.0200 -2.1914
 6784SOL    HW231815   0.420   1.443   6.796  0.5823 -0.6630  0.8141
 6785SOL     OW31816   3.809   2.599   0.750 -0.2298  0.6003 -0.0011
 6785SOL    HW131817   3.846   2.609   0.663  2.2833  1.4949  1.1731
 6785SOL    HW231818   3.721   2.568   0.728  0.6379  0.3132 -2.9969
 6786SOL     OW31819   2.966   0.243   2.310  0.1875  0.0206  0.7464
 6786SOL    HW131820   3.050   0.222   2.351  2.2198  1.1437 -2.8204
 6786SOL    HW231821   2.967   0.210   2.220  0.6827 -1.0907  1.1609
 6787SOL     OW31822   3.844   2.129   6.066 -0.1745 -0.3106 -0.3209
 6787SOL    HW131823   3.917   2.084   6.024  0.9897  0.7775  0.5527
 6787SOL    HW231824   3.841   2.206   6.009  0.8259 -1.2022 -1.5950
 6788SOL     OW31825   4.286   0.789   9.876  0.6161  0.1010  0.2775
 6788SOL    HW131826   4.201   0.820   9.906  0.1057 -0.8671 -0.1682
 6788SOL    HW231827   4.266   0.697   9.860 -1.1453  0.6002 -0.3972
 6789SOL     OW31828   4.587   2.413   6.909  0.2827 -0.2299 -0.2911
 6789SOL    HW131829   4.514   2.419   6.970  0.2756 -1.3820 -0.1821
 6789SOL    HW231830   4.619   2.503   6.907 -0.1970 -0.0461  0.4109
 6790SOL     OW31831   2.230   3.773   1.353  0.4984  0.0108 -0.2550
 6790SOL    HW131832   2.247   3.767   1.448  1.6210 -0.7825 -0.5098
 6790SOL    HW231833   2.299   3.718   1.315 -0.9522 -0.9476 -1.4812
 6791SOL     OW31834   4.010   3.740   4.218 -0.6952 -0.3799  0.4449
 6791SOL    HW131835   3.972   3.675   4.277  1.6742 -1.8320  0.3592
 6791SOL    HW231836   3.962   3.709   4.141 -0.7347 -1.5787  0.9524
 6792SOL     OW31837   1.749   4.465   8.656 -0.0598 -0.1079  0.0977
 6792SOL    HW131838   1.709   4.381   8.680 -2.6212  2.0252  3.3265
 6792SOL    HW231839   1.680   4.532   8.650  0.0273 -0.0298 -0.0205
 6793SOL     OW31840   3.174   1.827  13.404  0.1890 -0.2462  0.1181
 6793SOL    HW131841   3.084   1.822  13.437 -0.1154  2.1882 -0.2918
 6793SOL    HW231842   3.202   1.736  13.397 -0.2328 -0.3093 -0.8235
 6794SOL     OW31843   1.236   0.244  13.285 -0.0490  0.3600 -0.1520
 6794SOL    HW131844   1.177   0.296  13.341  2.1837  1.4288  1.1887
 6794SOL    HW231845   1.325   0.275  13.300  0.1517 -1.4212  2.5017
 6795SOL     OW31846   4.444   0.049   3.033 -0.1075 -0.4585 -0.7560
 6795SOL    HW131847   4.498   0.127   3.022  1.1873 -1.1943  0.3881
 6795SOL    HW231848   4.390   0.047   2.954  0.8374  1.5489 -1.4305
 6796SOL     OW31849   4.423   4.561   4.756  0.1278  0.7240  0.3139
 6796SOL    HW131850   4.429   4.533   4.847 -1.3647 -0.2933  0.1099
 6796SOL    HW231851   4.474   4.487   4.723 -0.5965  0.9104 -1.2486
 6797SOL     OW31852   3.401   4.146  13.537 -0.1697  0.0355  0.0171
 6797SOL    HW131853   3.380   4.226  13.584 -0.9018  0.3261 -0.8071
 6797SOL    HW231854   3.336   4.156  13.467 -2.2600 -0.9350  1.8175
 6798SOL     OW31855   0.686   1.299  12.996  0.0145  0.6610  0.1840
 6798SOL    HW131856   0.762   1.350  13.024  1.2933 -0.8243 -0.6059
 6798SOL    HW231857   0.616   1.310  13.061 -1.2724  0.2035 -1.1092
 6799SOL     OW31858   3.460   0.336   5.479  0.4839 -0.0661 -0.3048
 6799SOL    HW131859   3.456   0.419   5.526  0.2432 -0.4466  0.3438
 6799SOL    HW231860   3.449   0.273   5.550 -0.5992  2.2413  1.5322
 6800SOL     OW31861   1.889   3.194  15.350  0.4067  0.3087  0.1873
 6800SOL    HW131862   1.866   3.242  15.271 -1.2119 -0.3067  0.2758
 6800SOL    HW231863   1.809   3.141  15.352  0.7325 -0.1402  1.1405
 6801SOL     OW31864   3.264   0.186  16.595 -0.0255 -0.2855  0.2879
 6801SOL    HW131865   3.238   0.130  16.668  1.3387 -1.4217 -0.0815
 6801SOL    HW231866   3.332   0.135  16.550 -0.4439  1.0814 -1.9124
 6802SOL     OW31867   2.445   1.256   3.745  0.1108  0.6671 -0.0434
 6802SOL    HW131868   2.458   1.338   3.698 -3.1131  0.3241 -1.4867
 6802SOL    HW231869   2.498   1.201   3.687 -1.2032 -0.2285 -0.4028
 6803SOL     OW31870   4.041   4.229   4.780  0.0326  0.3205 -0.3974
 6803SOL    HW131871   3.996   4.285   4.844  4.3264  0.9562  2.1241
 6803SOL    HW231872   4.036   4.145   4.825 -0.2266 -0.5566 -2.0793
 6804SOL     OW31873   4.282   2.079   7.074  0.4466 -0.1949  0.5513
 6804SOL    HW131874   4.308   2.024   7.148 -0.8647 -2.9716 -1.0371
 6804SOL    HW231875   4.300   2.010   7.010  2.1168 -0.4467  1.3073
 6805SOL     OW31876   0.145   0.202   6.759  0.8200  0.0335  0.1462
 6805SOL    HW131877   0.056   0.172   6.744  1.1842 -0.8933 -0.1358
 6805SOL    HW231878   0.196   0.122   6.745 -2.2347 -2.2424  2.0995
 6806SOL     OW31879   1.300   1.671  13.114 -0.8020  0.0012 -0.0581
 6806SOL    HW131880   1.300   1.761  13.081 -1.2552 -0.0218 -0.1137
 6806SOL    HW231881   1.290   1.693  13.207 -0.8933 -0.1258 -0.0385
 6807SOL     OW31882   0.438   3.653   6.973  0.2018  0.8868  0.5278
 6807SOL    HW131883   0.480   3.732   7.007 -1.2272  1.5020  0.8719
 6807SOL    HW231884   0.460   3.599   7.049  0.0170 -0.9062 -0.7156
 6808SOL     OW31885   3.607   4.563  12.564 -0.1288 -0.8216  0.2515
 6808SOL    HW131886   3.656   4.529  12.489 -0.8228  0.2212 -0.6613
 6808SOL    HW231887   3.653   4.528  12.641 -0.4769  0.6761  1.1433
 6809SOL     OW31888   3.591   3.189  15.604  0.1298 -0.1328  0.5910
 6809SOL    HW131889   3.664   3.142  15.564 -0.2342 -0.0049 -0.2018
 6809SOL    HW231890   3.617   3.280  15.590  0.3310 -0.4902 -1.2541
 6810SOL     OW31891   1.432   0.434   7.045  0.2497 -0.2695 -0.1623
 6810SOL    HW131892   1.483   0.413   6.967 -0.6720 -1.1321 -0.5243
 6810SOL    HW231893   1.345   0.454   7.010 -0.3353 -3.0331 -0.2772
 6811SOL     OW31894   1.928   1.478   1.780 -0.4111 -0.1145 -0.7268
 6811SOL    HW131895   1.867   1.429   1.725 -2.1444 -0.4715  1.5394
 6811SOL    HW231896   1.930   1.434   1.865 -0.3934  0.7973 -0.2651
 6812SOL     OW31897   1.838   3.542  14.805  0.5296 -0.4119  0.0898
 6812SOL    HW131898   1.795   3.476  14.751 -1.3588  0.7267  0.2073
 6812SOL    HW231899   1.931   3.534  14.781  0.9279 -0.1865  1.5233
 6813SOL     OW31900   1.575   0.664   8.084  0.0933 -0.4656 -0.1150
 6813SOL    HW131901   1.624   0.746   8.092  1.0510 -1.1166  0.7681
 6813SOL    HW231902   1.615   0.623   8.007 -0.0783 -1.6029  0.3980
 6814SOL     OW31903   2.807   2.131   8.430  0.3859  0.3335  0.4096
 6814SOL    HW131904   2.807   2.203   8.492 -2.2321  0.4216  0.3037
 6814SOL    HW231905   2.810   2.173   8.344 -5.5624  3.3404  1.7172
 6815SOL     OW31906   3.424   3.545   7.287  0.7705 -0.0715  0.1665
 6815SOL    HW131907   3.480   3.622   7.280  1.4952 -0.7930 -1.8744
 6815SOL    HW231908   3.417   3.538   7.382  1.5663 -0.5990  0.1813
 6816SOL     OW31909   1.296   0.109   3.105 -0.4654 -0.7710  0.3761
 6816SOL    HW131910   1.213   0.144   3.138 -0.3105 -1.2808  1.2841
 6816SOL    HW231911   1.296   0.108   3.009  0.8457 -2.1470  0.3962
 6817SOL     OW31912   1.339   0.313   6.105  0.5173 -0.8400  0.6030
 6817SOL    HW131913   1.329   0.267   6.022 -0.4195  0.4934 -0.0260
 6817SOL    HW231914   1.353   0.236   6.159  1.4102 -0.6811  0.6122
 6818SOL     OW31915   1.794   0.541   1.271  0.2386  0.3760  0.2640
 6818SOL    HW131916   1.779   0.616   1.328  2.8127  0.6662  0.5682
 6818SOL    HW231917   1.813   0.474   1.336 -0.1427  0.0262  0.0113
 6819SOL     OW31918   2.096   4.182  16.018  0.2041  0.3856 -0.8841
 6819SOL    HW131919   2.098   4.127  15.939 -0.8212  1.7031 -1.8303
 6819SOL    HW231920   2.026   4.244  15.995 -0.1587 -0.1102 -1.1309
 6820SOL     OW31921   3.771   1.479   2.745  0.2286 -0.0314  0.1563
 6820SOL    HW131922   3.685   1.521   2.755 -0.2931 -0.8341 -0.9568
 6820SOL    HW231923   3.790   1.512   2.657 -0.3668  1.1520  0.4670
 6821SOL     OW31924   2.033   3.058   4.824  0.9949 -0.0245 -0.9989
 6821SOL    HW131925   2.099   3.128   4.822 -0.5032  1.3843 -1.1752
 6821SOL    HW231926   2.008   3.071   4.732  1.3826  0.9687 -0.9620
 6822SOL     OW31927   2.118   3.685   6.355  0.1533 -0.5177 -0.0796
 6822SOL    HW131928   2.063   3.739   6.411  0.3723  0.1503 -0.5056
 6822SOL    HW231929   2.044   3.628   6.333 -1.4661  1.0950  1.2427
 6823SOL     OW31930   1.844   0.017  12.823  0.2609  0.3657 -0.6590
 6823SOL    HW131931   1.820   0.096  12.872 -0.7310  0.0026 -0.5553
 6823SOL    HW231932   1.894   4.685  12.887 -2.6360 -0.5092  0.9090
 6824SOL     OW31933   0.377   2.434   1.957 -0.1545  0.9236 -0.1926
 6824SOL    HW131934   0.318   2.382   1.902  1.9332 -0.1515 -1.4487
 6824SOL    HW231935   0.313   2.450   2.026 -0.8648  1.1259 -0.8996
 6825SOL     OW31936   0.121   1.764   2.852  0.0024 -0.1830  0.4855
 6825SOL    HW131937   0.205   1.802   2.824  0.0456 -0.9113 -0.3873
 6825SOL    HW231938   0.053   1.831   2.857  0.9004  0.8698 -1.4596
 6826SOL     OW31939   3.109   3.363   7.031 -0.2607  0.0883 -0.3002
 6826SOL    HW131940   3.106   3.284   6.977  2.1129 -2.1151  2.8309
 6826SOL    HW231941   3.167   3.332   7.100  1.3809 -2.2808 -2.7335
 6827SOL     OW31942   1.741   0.215   8.603  0.0003  0.3235  0.5401
 6827SOL    HW131943   1.799   0.155   8.557  0.1963  2.2082 -1.6821
 6827SOL    HW231944   1.800   0.286   8.629  0.6508  0.5233 -1.4566
 6828SOL     OW31945   3.701   4.150   0.660 -0.3850  0.6013 -0.6224
 6828SOL    HW131946   3.687   4.218   0.594 -1.3561  0.6230 -0.3964
 6828SOL    HW231947   3.623   4.164   0.714 -0.8334  2.1553 -1.6707
 6829SOL     OW31948   2.297   2.302   0.996 -0.3498  0.2031  0.1058
 6829SOL    HW131949   2.361   2.351   1.047  0.9212 -0.4094 -0.8923
 6829SOL    HW231950   2.286   2.362   0.922 -0.1930 -0.7703 -0.7082
 6830SOL     OW31951   3.085   1.018  15.124 -0.5591 -0.7445 -0.0888
 6830SOL    HW131952   3.009   1.066  15.093  0.1689 -0.2748 -1.1413
 6830SOL    HW231953   3.063   0.925  15.123 -1.5769 -0.4896 -1.6599
 6831SOL     OW31954   2.606   3.551   5.374  0.0980 -0.1972 -0.5734
 6831SOL    HW131955   2.616   3.646   5.384  1.3175 -0.2068 -1.6560
 6831SOL    HW231956   2.659   3.532   5.296  0.3341 -1.0667 -0.1991
 6832SOL     OW31957   1.134   4.542   5.561  0.0891 -0.3243  0.2785
 6832SOL    HW131958   1.180   4.589   5.491 -1.2305 -0.3462 -0.6109
 6832SOL    HW231959   1.046   4.531   5.525  0.0037 -0.0048  0.3897
 6833SOL     OW31960   1.501   0.088   3.988 -0.0615  0.3469 -0.2833
 6833SOL    HW131961   1.567   0.132   4.042 -1.2162  0.1590  1.2573
 6833SOL    HW231962   1.524   0.138   3.909  1.7941  0.3353  0.2488
 6834SOL     OW31963   3.345   3.985  11.387 -0.3301 -0.1830  0.1724
 6834SOL    HW131964   3.377   3.924  11.453  1.6356  0.2914 -0.3581
 6834SOL    HW231965   3.414   4.049  11.397  0.3745 -1.3820  2.8545
 6835SOL     OW31966   2.046   3.806   8.026 -0.0908 -0.3444 -0.2797
 6835SOL    HW131967   2.092   3.848   7.953 -0.0244 -0.1373 -0.1167
 6835SOL    HW231968   2.115   3.749   8.061  0.7232  1.5359  1.1928
 6836SOL     OW31969   3.731   3.284   1.567  0.2343  0.1138 -0.3101
 6836SOL    HW131970   3.711   3.191   1.579  0.2812 -0.0504 -1.5129
 6836SOL    HW231971   3.802   3.292   1.630 -1.0592 -0.5116  1.2178
 6837SOL     OW31972   3.900   3.093  15.753  0.2954  0.1103  0.1125
 6837SOL    HW131973   3.980   3.139  15.777  0.4564  0.2531 -0.7177
 6837SOL    HW231974   3.939   3.028  15.694  1.9133 -0.0146  1.3034
 6838SOL     OW31975   3.645   3.232   8.347 -0.2852 -0.1576  0.0421
 6838SOL    HW131976   3.650   3.244   8.442 -0.5947  2.4716 -0.2885
 6838SOL    HW231977   3.690   3.311   8.317  1.4913 -1.3703 -0.4826
 6839SOL     OW31978   1.135   4.070   7.439 -0.4518  0.2787 -0.0728
 6839SOL    HW131979   1.188   4.075   7.359 -1.1729 -3.3240 -0.7816
 6839SOL    HW231980   1.065   4.011   7.412 -0.5871  0.9250 -1.1165
 6840SOL     OW31981   4.635   2.293   1.784 -0.3068  0.0659 -0.5479
 6840SOL    HW131982   4.573   2.354   1.823  1.3488  0.2133  1.8614
 6840SOL    HW231983   4.708   2.355   1.783  0.2156 -0.5833 -2.4128
 6841SOL     OW31984   0.859   1.464  12.712 -0.9303 -0.1172  0.3052
 6841SOL    HW131985   0.934   1.405  12.717  0.2702  1.3592 -0.2005
 6841SOL    HW231986   0.786   1.419  12.671 -0.2337 -0.8522 -0.1200
 6842SOL     OW31987   3.492   3.761   2.649  0.3478 -0.6944 -0.1146
 6842SOL    HW131988   3.437   3.808   2.712 -0.4902 -0.9326 -0.6735
 6842SOL    HW231989   3.510   3.824   2.580  1.6643 -0.8083  0.1296
 6843SOL     OW31990   2.989   4.195   5.241  0.2044 -0.5383 -0.1128
 6843SOL    HW131991   3.042   4.214   5.164 -2.0509 -3.3187 -2.3111
 6843SOL    HW231992   2.967   4.103   5.230 -1.4618 -0.2675  1.0033
 6844SOL     OW31993   1.996   1.767  16.338 -0.3613 -0.4492 -0.1879
 6844SOL    HW131994   2.071   1.801  16.387 -1.9815  0.2334  1.8471
 6844SOL    HW231995   1.983   1.821  16.260 -2.1126  0.8158  0.9828
 6845SOL     OW31996   0.885   1.965   5.579  0.2146  0.1426 -0.4603
 6845SOL    HW131997   0.919   2.046   5.540  0.2771  1.5174  2.4338
 6845SOL    HW231998   0.899   1.991   5.670  2.6243 -1.4217 -0.3785
 6846SOL     OW31999   1.653   4.168   2.761  0.0836  0.9075 -0.0259
 6846SOL    HW132000   1.734   4.204   2.795 -2.1953  4.1462  1.9305
 6846SOL    HW232001   1.640   4.230   2.689 -1.4836 -1.3612 -1.7209
 6847SOL     OW32002   1.577   0.640   6.531  0.3006  0.1167 -0.1766
 6847SOL    HW132003   1.588   0.661   6.439 -1.0610 -1.3657 -0.6753
 6847SOL    HW232004   1.665   0.611   6.553 -0.2320 -0.5662  1.0758
 6848SOL     OW32005   1.843   0.794   8.037 -0.2669 -0.1594  0.7474
 6848SOL    HW132006   1.886   0.800   7.951  1.2710 -2.0241  1.3773
 6848SOL    HW232007   1.905   0.728   8.069  0.0498 -1.5102 -2.5751
 6849SOL     OW32008   3.988   3.663  14.089 -0.1513 -0.1473  0.4699
 6849SOL    HW132009   3.979   3.699  14.001 -0.9282 -0.6385  0.3549
 6849SOL    HW232010   4.049   3.729  14.123 -2.2009  2.2506 -0.5099
 6850SOL     OW32011   0.505   4.365   2.322 -0.0918 -0.0116  0.2781
 6850SOL    HW132012   0.498   4.414   2.403  0.1907 -2.1500  1.5956
 6850SOL    HW232013   0.523   4.275   2.349  0.5940 -0.2045 -0.8136
 6851SOL     OW32014   2.551   4.385  11.477 -0.3146 -0.5725  0.3366
 6851SOL    HW132015   2.508   4.363  11.559 -1.5667 -1.3471 -0.5411
 6851SOL    HW232016   2.588   4.300  11.451  0.5312 -0.1880  0.2657
 6852SOL     OW32017   4.328   0.512   8.057  0.0732 -0.3943  0.1611
 6852SOL    HW132018   4.334   0.566   7.978 -0.8128  0.2536  0.5425
 6852SOL    HW232019   4.345   0.579   8.123 -3.0247  1.7913 -1.2831
 6853SOL     OW32020   1.922   0.475  13.892  0.0637 -0.6430 -0.3533
 6853SOL    HW132021   1.907   0.380  13.897  2.4448 -1.0306 -0.4257
 6853SOL    HW232022   1.948   0.475  13.800 -0.9647  0.8714 -0.6431
 6854SOL     OW32023   2.420   2.903   8.800  0.5943 -0.4879  0.2646
 6854SOL    HW132024   2.343   2.850   8.780  2.5117 -2.8700 -0.8374
 6854SOL    HW232025   2.448   2.857   8.879  0.4333  0.1002  0.6571
 6855SOL     OW32026   4.069   2.868   8.718  0.2334  0.4866 -0.2015
 6855SOL    HW132027   4.141   2.808   8.736  0.4483  0.4163 -1.3195
 6855SOL    HW232028   3.997   2.814   8.686 -0.4265  1.4518 -0.3573
 6856SOL     OW32029   0.693   3.411   5.563 -0.4610 -0.0310 -0.1156
 6856SOL    HW132030   0.786   3.392   5.576 -0.6173  0.3500  1.5578
 6856SOL    HW232031   0.670   3.370   5.480 -1.1191  0.6106 -0.2494
 6857SOL     OW32032   4.615   4.057  11.762  0.1550 -0.4582 -0.4671
 6857SOL    HW132033   4.705   4.026  11.746 -0.0269 -1.6069  0.8050
 6857SOL    HW232034   4.638   4.104  11.841 -0.8726  0.7783 -0.9061
 6858SOL     OW32035   3.021   1.126   7.333  0.0128  0.0560 -0.0208
 6858SOL    HW132036   3.011   1.186   7.407  1.2760  2.1414 -1.5609
 6858SOL    HW232037   3.014   1.041   7.378 -0.3675  0.5538  0.8832
 6859SOL     OW32038   3.441   2.430   2.871 -0.3563  0.1168 -0.3138
 6859SOL    HW132039   3.386   2.356   2.845 -2.9176  0.9742  2.6217
 6859SOL    HW232040   3.525   2.391   2.847  0.3098  1.4766 -0.1535
 6860SOL     OW32041   3.384   2.316  16.682 -0.0829  0.2031 -0.1378
 6860SOL    HW132042   3.464   2.262  16.683 -0.6458 -0.6127  1.0565
 6860SOL    HW232043   3.399   2.362  16.765 -1.0501 -0.6079  0.4796
 6861SOL     OW32044   1.209   1.853  12.463 -0.2564 -0.2080  0.4080
 6861SOL    HW132045   1.295   1.843  12.421 -0.1998 -3.3327  1.2500
 6861SOL    HW232046   1.166   1.769  12.447  0.6676 -0.1921 -2.1390
 6862SOL     OW32047   1.390   0.017  10.862  0.3953 -0.0494  0.0699
 6862SOL    HW132048   1.358   0.021  10.952 -4.1460 -2.5804 -1.4745
 6862SOL    HW232049   1.452   0.091  10.859 -0.4488  0.5838 -1.6747
 6863SOL     OW32050   1.763   0.278   4.581  0.4342 -0.4058 -0.0956
 6863SOL    HW132051   1.711   0.216   4.529 -0.2876 -0.9858  1.3282
 6863SOL    HW232052   1.690   0.326   4.619  0.2262  0.1088 -1.1376
 6864SOL     OW32053   2.869   1.157   6.218  0.1957  0.0169  0.0261
 6864SOL    HW132054   2.916   1.131   6.139 -0.6308 -1.2971 -0.0389
 6864SOL    HW232055   2.804   1.214   6.177 -0.4652  0.2609  1.4104
 6865SOL     OW32056   4.095   1.227   5.316  0.2911  0.3272  0.0478
 6865SOL    HW132057   4.052   1.311   5.331  1.4673  1.1570 -1.2336
 6865SOL    HW232058   4.160   1.256   5.252  1.9157  1.2081  2.0681
 6866SOL     OW32059   3.890   0.438   4.815  0.5235  0.2621  0.2163
 6866SOL    HW132060   3.823   0.430   4.882 -1.1605 -0.1341 -1.5073
 6866SOL    HW232061   3.967   0.401   4.858  0.6591 -1.2298 -1.3219
 6867SOL     OW32062   2.469   3.313   4.183  0.0205  0.5037  0.0306
 6867SOL    HW132063   2.538   3.262   4.140  0.1532  1.5153 -0.9657
 6867SOL    HW232064   2.518   3.390   4.211 -0.5855  1.0527 -0.4358
 6868SOL     OW32065   2.770   1.575   5.102 -0.4621  0.0795  0.5817
 6868SOL    HW132066   2.761   1.566   5.007  2.7173 -1.1523  0.4189
 6868SOL    HW232067   2.847   1.630   5.115 -0.8091  0.8396 -0.4611
 6869SOL     OW32068   0.515   0.695   5.795 -0.1993  0.5692 -0.4639
 6869SOL    HW132069   0.463   0.622   5.829 -1.1771  0.4153 -2.3110
 6869SOL    HW232070   0.532   0.736   5.880 -2.8310  1.7118 -0.4958
 6870SOL     OW32071   4.028   2.867  15.564  0.1792  0.2382 -0.6660
 6870SOL    HW132072   4.116   2.855  15.600 -0.7099 -2.6153  0.5704
 6870SOL    HW232073   4.012   2.777  15.536 -2.1351  0.7784 -1.1252
 6871SOL     OW32074   2.203   2.432   5.215 -0.0608 -0.1738 -0.0433
 6871SOL    HW132075   2.175   2.492   5.284 -2.3423 -0.2246 -0.9243
 6871SOL    HW232076   2.228   2.496   5.149  0.7442  0.1652  0.5880
 6872SOL     OW32077   0.427   2.994   8.868  0.7660 -0.0767  0.4277
 6872SOL    HW132078   0.416   2.998   8.773  0.1017 -1.5452  0.4348
 6872SOL    HW232079   0.499   2.931   8.875  1.2536  0.4205 -0.1535
 6873SOL     OW32080   0.315   3.290   2.419  0.1857  0.0269 -0.1149
 6873SOL    HW132081   0.364   3.370   2.396 -0.1706 -0.7619 -3.5684
 6873SOL    HW232082   0.317   3.300   2.515 -4.8162  0.3938 -0.0577
 6874SOL     OW32083   0.300   1.805   8.574  0.4428  0.0991  0.1955
 6874SOL    HW132084   0.381   1.821   8.623  1.8631 -1.1558 -1.7398
 6874SOL    HW232085   0.245   1.790   8.651  0.4445 -1.2222 -0.0694
 6875SOL     OW32086   1.097   2.458   2.602  0.2815 -0.0648  0.3111
 6875SOL    HW132087   1.191   2.459   2.619  0.3793  0.0157 -0.2370
 6875SOL    HW232088   1.097   2.506   2.519 -0.8448  0.3734  0.5568
 6876SOL     OW32089   2.228   4.105  11.446  0.5772  0.2214 -0.0337
 6876SOL    HW132090   2.171   4.044  11.399  0.7964  1.7936 -2.3354
 6876SOL    HW232091   2.268   4.160  11.378  1.5446 -1.5302 -0.8777
 6877SOL     OW32092   0.382   1.622   8.391 -0.2623  0.6061  0.1158
 6877SOL    HW132093   0.363   1.698   8.445 -3.5005  0.0855 -0.2851
 6877SOL    HW232094   0.365   1.546   8.446  0.8111 -0.4492 -0.9912
 6878SOL     OW32095   3.071   0.934   9.077  0.0756  0.1039  0.4405
 6878SOL    HW132096   3.089   0.905   8.987  1.0797 -0.3909  0.7958
 6878SOL    HW232097   3.134   1.002   9.101  0.8851 -1.1001  1.7694
 6879SOL     OW32098   3.175   0.189  16.175  0.0489 -0.3768  1.2193
 6879SOL    HW132099   3.117   0.248  16.127 -2.8054 -1.8977  2.7957
 6879SOL    HW232100   3.150   0.101  16.150 -3.7913  1.1769 -0.3132
 6880SOL     OW32101   3.894   2.204  12.264 -0.0704  0.1515 -0.0920
 6880SOL    HW132102   3.837   2.266  12.309 -0.9345 -0.6363 -0.0989
 6880SOL    HW232103   3.861   2.217  12.175 -2.4883  0.7528  0.9063
 6881SOL     OW32104   2.070   1.326   3.662 -0.5046  0.2903 -0.2234
 6881SOL    HW132105   2.114   1.287   3.737 -0.6015  2.3146  0.8997
 6881SOL    HW232106   2.122   1.292   3.589  0.6073  2.1038 -0.2804
 6882SOL     OW32107   0.850   4.214   7.169 -0.6164 -0.2551 -0.5230
 6882SOL    HW132108   0.816   4.190   7.255  2.0401  0.3338  0.6612
 6882SOL    HW232109   0.865   4.133   7.120 -0.5538 -0.0270 -0.8788
 6883SOL     OW32110   2.874   1.709   4.479 -0.5439 -0.0336  0.4423
 6883SOL    HW132111   2.921   1.706   4.396  0.7295 -1.0242  1.2146
 6883SOL    HW232112   2.784   1.697   4.448  0.5079  0.9282 -2.9622
 6884SOL     OW32113   3.395   1.348   0.868 -0.0007 -0.0424  0.6464
 6884SOL    HW132114   3.305   1.342   0.837  0.4263  0.9751 -0.7991
 6884SOL    HW232115   3.425   1.258   0.856  3.3420  0.7614  2.9033
 6885SOL     OW32116   0.563   3.156   4.401 -0.8632  0.5062 -0.6185
 6885SOL    HW132117   0.576   3.153   4.306 -0.3511 -3.8119 -0.4006
 6885SOL    HW232118   0.632   3.216   4.431 -0.1355 -0.7449  0.1937
 6886SOL     OW32119   3.075   3.340   5.530 -0.5284  0.1073 -0.2116
 6886SOL    HW132120   3.007   3.400   5.562 -1.1839 -0.7872  0.0645
 6886SOL    HW232121   3.091   3.287   5.608  1.2553  1.6840  0.5054
 6887SOL     OW32122   4.521   2.817   9.280  0.0211 -0.1413  0.2027
 6887SOL    HW132123   4.524   2.803   9.375 -0.3980 -0.0599  0.2292
 6887SOL    HW232124   4.590   2.881   9.265 -0.0949 -0.4775 -1.7351
 6888SOL     OW32125   3.640   3.302  11.838  0.1039  0.3706 -0.0584
 6888SOL    HW132126   3.582   3.264  11.772 -0.9747  1.1322  0.4551
 6888SOL    HW232127   3.628   3.240  11.909 -2.6038 -0.3256 -1.0961
 6889SOL     OW32128   0.266   2.446  16.027  0.1793  0.2561  0.3239
 6889SOL    HW132129   0.233   2.357  16.043  0.8843  0.0177  0.4544
 6889SOL    HW232130   0.297   2.451  15.937 -3.4225  1.0393 -0.8631
 6890SOL     OW32131   0.210   2.860   6.211  0.6204  0.6242 -0.1630
 6890SOL    HW132132   0.156   2.787   6.180  1.2331  1.0996 -2.3611
 6890SOL    HW232133   0.264   2.876   6.134 -0.4461  0.0665 -1.0246
 6891SOL     OW32134   3.472   1.650   3.611 -0.2315  0.1499 -0.1123
 6891SOL    HW132135   3.457   1.723   3.551 -1.4037 -0.1781 -0.2352
 6891SOL    HW232136   3.542   1.611   3.559  1.3280  2.1852  0.4567
 6892SOL     OW32137   4.575   2.977   5.315 -0.0329  0.5916  0.3484
 6892SOL    HW132138   4.538   2.890   5.303  0.4700  0.5930 -1.1268
 6892SOL    HW232139   4.500   3.036   5.307 -1.5760 -1.6440 -1.5459
 6893SOL     OW32140   0.353   4.093   8.117 -0.1357  0.0372  0.0462
 6893SOL    HW132141   0.280   4.153   8.133 -2.0213 -2.7010  1.6077
 6893SOL    HW232142   0.391   4.098   8.205 -0.4498 -0.9873  0.2296
 6894SOL     OW32143   4.538   1.726  10.235  0.1285  0.0245  0.6491
 6894SOL    HW132144   4.551   1.667  10.160 -1.8278  1.7103 -1.0249
 6894SOL    HW232145   4.529   1.664  10.307 -0.5678  1.6118  1.9222
 6895SOL     OW32146   2.311   2.808   5.607 -0.0843 -0.3475  0.0836
 6895SOL    HW132147   2.303   2.722   5.649 -1.0901 -1.9015 -3.2067
 6895SOL    HW232148   2.367   2.852   5.671 -2.2082  0.1101  1.6182
 6896SOL     OW32149   4.281   4.087   5.745 -0.0212  0.5723 -0.2231
 6896SOL    HW132150   4.333   4.070   5.666  0.5603 -1.8714  0.6774
 6896SOL    HW232151   4.314   4.022   5.807  2.0380  0.7567 -1.1329
 6897SOL     OW32152   3.950   2.662   4.838  0.0114  0.1001 -0.6844
 6897SOL    HW132153   4.031   2.702   4.807  0.9040 -1.1618  0.0372
 6897SOL    HW232154   3.904   2.723   4.895  0.7069  0.9264 -1.0211
 6898SOL     OW32155   4.406   1.275  15.999 -0.4291 -0.4821  0.9589
 6898SOL    HW132156   4.400   1.186  16.034 -2.5987 -0.3634  0.8534
 6898SOL    HW232157   4.317   1.286  15.965 -0.7344  0.0920  1.9672
 6899SOL     OW32158   1.095   2.419  12.839  0.7935 -0.9880  0.4363
 6899SOL    HW132159   1.109   2.380  12.752 -0.3375  0.0448 -0.2055
 6899SOL    HW232160   1.185   2.439  12.863  1.7048 -1.6881 -2.3674
 6900SOL     OW32161   0.086   3.364   4.048  0.0112  0.2818  1.0686
 6900SOL    HW132162   0.029   3.299   4.007  0.7552 -0.7775  1.6885
 6900SOL    HW232163   0.056   3.445   4.006 -0.7413  0.1074  1.2793
 6901SOL     OW32164   3.444   0.717   7.994 -0.0582  0.4159  0.0419
 6901SOL    HW132165   3.416   0.785   8.055 -0.7781  0.5627 -0.4519
 6901SOL    HW232166   3.537   0.738   7.996 -0.1061  0.8416 -2.5286
 6902SOL     OW32167   1.645   3.974   3.579 -0.0800  0.6982  0.1848
 6902SOL    HW132168   1.619   3.935   3.496 -0.5448  0.7871  0.2895
 6902SOL    HW232169   1.739   3.955   3.582 -0.2145  0.2620  1.4280
 6903SOL     OW32170   0.726   0.345  15.172  0.3379 -0.6421 -0.0739
 6903SOL    HW132171   0.798   0.293  15.137  1.1034 -2.1043  3.6901
 6903SOL    HW232172   0.772   0.414  15.220 -2.7716  0.5762  1.1558
 6904SOL     OW32173   1.126   0.957   7.900 -0.2368  0.0180 -0.3796
 6904SOL    HW132174   1.164   0.871   7.883 -0.3746 -0.0982 -0.0909
 6904SOL    HW232175   1.195   0.997   7.954 -0.8352 -0.2015  0.5356
 6905SOL     OW32176   3.104   0.518   6.207  0.0857 -0.3778 -0.1937
 6905SOL    HW132177   3.048   0.475   6.271 -0.2582 -1.2985 -1.1021
 6905SOL    HW232178   3.052   0.532   6.128 -0.6243  1.2184  0.5527
 6906SOL     OW32179   0.328   4.072   5.326 -0.1499  0.3026 -0.4163
 6906SOL    HW132180   0.368   4.142   5.379 -0.2245 -0.4843  0.6798
 6906SOL    HW232181   0.343   3.998   5.385 -3.6137  1.2215  1.5880
 6907SOL     OW32182   2.699   3.682   4.114  0.1408 -0.2242  0.3733
 6907SOL    HW132183   2.787   3.702   4.148 -1.1638  0.5030  3.3253
 6907SOL    HW232184   2.653   3.766   4.125  0.7134  0.2907 -1.1992
 6908SOL     OW32185   0.376   1.572   6.057 -0.0638  0.4063  0.4103
 6908SOL    HW132186   0.347   1.545   6.144 -0.6532  1.0513  0.4188
 6908SOL    HW232187   0.428   1.500   6.022 -0.3457  0.9216 -1.0567
 6909SOL     OW32188   1.035   2.450  10.405  0.3576  0.1093  0.2033
 6909SOL    HW132189   0.993   2.528  10.440 -0.8314 -0.6117  0.3771
 6909SOL    HW232190   1.081   2.490  10.331  0.3164  0.6781  0.4862
 6910SOL     OW32191   0.169   4.202   2.671  0.1677  0.3070 -0.6189
 6910SOL    HW132192   0.228   4.176   2.742  0.3464  0.3724 -0.7470
 6910SOL    HW232193   0.118   4.260   2.728  0.7049 -1.0095  1.1996
 6911SOL     OW32194   0.562   0.841  14.000  0.2182 -0.3646 -0.0010
 6911SOL    HW132195   0.591   0.762  14.046  1.9460  0.3421  0.1479
 6911SOL    HW232196   0.572   0.817  13.908  3.0459 -2.7842  0.9169
 6912SOL     OW32197   0.401   0.655   7.463  0.1868  0.2572 -0.0591
 6912SOL    HW132198   0.478   0.709   7.443 -0.9997  1.5079 -1.1870
 6912SOL    HW232199   0.449   0.587   7.511 -0.6770  0.0319  0.4810
 6913SOL     OW32200   0.979   4.362   5.877 -0.5507 -0.7182  0.3275
 6913SOL    HW132201   0.953   4.353   5.786 -0.4890 -2.0396  0.4483
 6913SOL    HW232202   1.017   4.276   5.892 -0.8901 -1.1632 -1.4690
 6914SOL     OW32203   2.423   3.348   6.288  0.4902  0.2632 -0.2600
 6914SOL    HW132204   2.421   3.261   6.249  0.0935  0.2644 -0.2470
 6914SOL    HW232205   2.330   3.355   6.310  0.7993  2.6677  0.3124
 6915SOL     OW32206   3.061   1.507  14.992 -0.6635 -0.3098 -1.0338
 6915SOL    HW132207   3.029   1.511  15.082 -1.3686 -3.1103 -1.1570
 6915SOL    HW232208   3.027   1.586  14.952  1.5032 -0.8066 -3.8887
 6916SOL     OW32209   1.893   1.938  12.121 -0.1075 -0.9216 -0.3440
 6916SOL    HW132210   1.976   1.913  12.081  0.7191  1.7191 -0.2354
 6916SOL    HW232211   1.837   1.872  12.079 -0.6388  0.3218 -1.5718
 6917SOL     OW32212   4.344   2.688  15.275 -0.2453  1.0380  0.5882
 6917SOL    HW132213   4.358   2.594  15.286  0.6956  0.8851 -1.8788
 6917SOL    HW232214   4.371   2.689  15.183 -0.0461 -0.3901  0.6211
 6918SOL     OW32215   1.212   1.614   4.513 -0.2168 -0.0752 -0.5708
 6918SOL    HW132216   1.139   1.591   4.455 -0.0933  1.0658 -1.1822
 6918SOL    HW232217   1.221   1.537   4.568 -2.6239 -0.3971 -0.6123
 6919SOL     OW32218   1.342   0.336  16.292 -0.2922 -0.2129  0.0324
 6919SOL    HW132219   1.416   0.337  16.351 -0.2913  1.5083 -0.0230
 6919SOL    HW232220   1.283   0.276  16.339 -0.5895 -0.6401 -0.8844
 6920SOL     OW32221   0.919   3.466   3.872  0.2583  0.4192 -0.2415
 6920SOL    HW132222   0.975   3.485   3.947 -0.3173 -1.3055  0.6177
 6920SOL    HW232223   0.964   3.398   3.822 -1.9262 -0.3867 -1.1071
 6921SOL     OW32224   3.340   3.619   4.050  0.5566  0.2551  0.2829
 6921SOL    HW132225   3.353   3.525   4.035  1.0502  0.0300  2.1757
 6921SOL    HW232226   3.272   3.640   3.986  1.7275  0.2604 -0.9636
 6922SOL     OW32227   4.368   2.497   4.252  0.0234  0.4167  0.3475
 6922SOL    HW132228   4.341   2.566   4.312 -1.5725 -0.4323  0.6175
 6922SOL    HW232229   4.460   2.489   4.276  0.5555  0.7112 -1.6097
 6923SOL     OW32230   1.532   2.850   5.826 -0.5669  0.1857  0.2496
 6923SOL    HW132231   1.583   2.803   5.760  0.3433 -0.6830  1.5638
 6923SOL    HW232232   1.546   2.788   5.898 -0.1392 -0.2909 -0.2497
 6924SOL     OW32233   1.905   2.310   6.097  0.1039  0.4300  0.2798
 6924SOL    HW132234   1.991   2.327   6.136 -0.0105  2.1907 -0.2204
 6924SOL    HW232235   1.874   2.397   6.073 -0.0574  0.5013  0.7592
 6925SOL     OW32236   2.316   2.740  12.984  0.5613 -0.5082 -0.0509
 6925SOL    HW132237   2.370   2.732  12.906  2.0835  2.3836  0.7194
 6925SOL    HW232238   2.379   2.796  13.029 -0.5546  2.6432 -2.4191
 6926SOL     OW32239   1.222   3.765  17.673 -0.9946  0.2308  0.6175
 6926SOL    HW132240   1.207   3.828  17.602  0.0458  0.8742  0.9565
 6926SOL    HW232241   1.281   3.695  17.645  0.4716  0.9711  1.8168
 6927SOL     OW32242   4.400   4.621   3.522  0.2299  0.1156 -0.3374
 6927SOL    HW132243   4.341   4.570   3.578 -1.4665  0.1450 -2.1266
 6927SOL    HW232244   4.383   4.713   3.542 -0.4032 -0.2699  0.9273
 6928SOL     OW32245   3.712   4.122   6.053 -0.4133  0.0594  0.1850
 6928SOL    HW132246   3.716   4.215   6.035 -0.0916 -0.4189 -2.1159
 6928SOL    HW232247   3.757   4.083   5.979 -1.0735 -0.5795  0.1117
 6929SOL     OW32248   4.497   3.845  17.600  0.3578  0.6488  0.2664
 6929SOL    HW132249   4.420   3.885  17.641 -0.1518 -0.3641  0.2841
 6929SOL    HW232250   4.533   3.803   0.004  0.9948 -0.5203 -0.6612
 6930SOL     OW32251   2.391   4.389   6.715 -0.2418  0.5077 -0.1175
 6930SOL    HW132252   2.424   4.420   6.799  0.3179 -2.9841  0.9311
 6930SOL    HW232253   2.389   4.294   6.724  0.9580  0.6525  1.6350
 6931SOL     OW32254   2.984   4.621  10.209  0.5978 -0.3626  0.3486
 6931SOL    HW132255   2.977   4.693  10.273  0.5359  0.9648 -1.1439
 6931SOL    HW232256   3.077   4.604  10.202  0.7357  0.6388 -0.2787
 6932SOL     OW32257   0.811   1.867  10.433  0.7617 -0.4427  0.2107
 6932SOL    HW132258   0.800   1.794  10.373  2.2000 -1.2772  0.9688
 6932SOL    HW232259   0.724   1.878  10.472  0.0700 -1.0117 -1.1747
 6933SOL     OW32260   4.623   2.030   5.625 -0.2445  0.2294  0.1035
 6933SOL    HW132261   4.628   2.102   5.562  0.3948  0.7599  0.7512
 6933SOL    HW232262   4.621   1.958   5.563 -0.3472 -0.5181  0.9853
 6934SOL     OW32263   1.285   4.406   5.257  0.6293  1.0515  0.0840
 6934SOL    HW132264   1.367   4.388   5.210 -0.9538 -1.8543 -1.5344
 6934SOL    HW232265   1.248   4.323   5.285  0.6010  0.5142 -1.5292
 6935SOL     OW32266   4.086   4.575   6.267 -0.4143 -0.1594 -0.0315
 6935SOL    HW132267   4.074   4.670   6.271 -0.8556 -0.2783  1.3567
 6935SOL    HW232268   4.105   4.563   6.174 -0.8137  1.4657 -0.3248
 6936SOL     OW32269   2.421   0.495   8.448 -0.3662 -0.4137  0.3170
 6936SOL    HW132270   2.421   0.590   8.457 -0.6944 -0.3794 -0.0471
 6936SOL    HW232271   2.377   0.469   8.529 -1.0839  0.9645  0.3601
 6937SOL     OW32272   4.089   0.131   4.034 -0.2489  0.2674  0.4685
 6937SOL    HW132273   4.031   0.098   3.965  1.2644 -0.2448 -0.5647
 6937SOL    HW232274   4.177   0.096   4.023  0.0291  1.2959 -0.6688
 6938SOL     OW32275   1.423   0.211   5.282 -0.0747  0.0189  0.0758
 6938SOL    HW132276   1.414   0.138   5.221  1.3663  0.0322 -0.1365
 6938SOL    HW232277   1.441   0.181   5.371 -1.4371 -1.5901 -0.1780
 6939SOL     OW32278   0.449   3.059   8.559 -0.4041 -0.3508  0.5195
 6939SOL    HW132279   0.384   3.128   8.551 -0.0361 -0.1569 -0.9058
 6939SOL    HW232280   0.526   3.109   8.585 -0.2266 -0.6949  0.6536
 6940SOL     OW32281   0.902   0.910   1.067 -0.0954  0.9299  0.5851
 6940SOL    HW132282   0.896   0.992   1.019  1.4698  0.6740 -0.0492
 6940SOL    HW232283   0.880   0.940   1.155 -0.9568  0.2772  0.6019
 6941SOL     OW32284   4.233   2.323   2.825  0.1657  0.3252  0.2218
 6941SOL    HW132285   4.305   2.274   2.785 -0.4681 -1.3305  1.0937
 6941SOL    HW232286   4.236   2.273   2.907 -0.6742  0.4679  0.3329
 6942SOL     OW32287   2.142   2.954   5.938 -0.5264 -0.2475  0.4662
 6942SOL    HW132288   2.163   2.962   5.845 -2.4958 -1.4876 -0.0943
 6942SOL    HW232289   2.104   3.041   5.952 -0.3888 -0.3362  1.3451
 6943SOL     OW32290   1.311   2.702  15.028 -0.0567 -0.3259 -0.2409
 6943SOL    HW132291   1.263   2.763  15.085  1.3363  0.4692  0.0990
 6943SOL    HW232292   1.263   2.722  14.948 -0.4495  0.4672  0.1877
 6944SOL     OW32293   3.948   3.403   3.720 -0.4322  0.2132  0.5340
 6944SOL    HW132294   3.868   3.408   3.669 -0.5219 -0.3932  0.6256
 6944SOL    HW232295   3.937   3.483   3.773  0.4366  0.2650  0.6350
 6945SOL     OW32296   3.939   0.313   0.720 -0.1581 -0.1275 -0.1342
 6945SOL    HW132297   4.021   0.263   0.720 -1.3394 -2.0735  2.0029
 6945SOL    HW232298   3.960   0.406   0.717 -1.1764  0.1418  1.1093
 6946SOL     OW32299   2.139   2.342   6.196  0.2556 -0.1169  0.8139
 6946SOL    HW132300   2.189   2.322   6.117 -1.4949  0.2485 -0.3967
 6946SOL    HW232301   2.215   2.355   6.252 -0.0063 -1.0922  1.3917
 6947SOL     OW32302   2.536   1.070  16.467  0.1893 -0.3402 -0.0690
 6947SOL    HW132303   2.605   1.117  16.421 -0.4025  0.8233  0.2186
 6947SOL    HW232304   2.494   1.151  16.497 -2.6746 -1.5442 -0.7858
 6948SOL     OW32305   1.051   1.476  11.181  0.5762  0.1811 -0.0949
 6948SOL    HW132306   1.115   1.544  11.202 -0.5294  0.9826  0.6502
 6948SOL    HW232307   1.068   1.422  11.258 -3.4769  1.1957  1.5353
 6949SOL     OW32308   1.219   0.805   3.824  0.0205 -0.1332  0.9619
 6949SOL    HW132309   1.304   0.778   3.858  0.1088 -2.9008 -1.4744
 6949SOL    HW232310   1.240   0.886   3.777  0.4865 -0.7650  0.0798
 6950SOL     OW32311   3.706   1.567   3.897  0.5259 -0.3404  1.2916
 6950SOL    HW132312   3.627   1.620   3.888  1.2810 -0.1042 -3.8399
 6950SOL    HW232313   3.750   1.576   3.813 -1.0733 -3.1060  0.1502
 6951SOL     OW32314   4.251   3.732  11.351  0.9665 -0.5414  0.1982
 6951SOL    HW132315   4.228   3.809  11.402 -0.8041 -0.6707 -0.3698
 6951SOL    HW232316   4.279   3.771  11.268 -2.3018  2.3420  0.4498
 6952SOL     OW32317   2.172   2.952   8.440  0.2120  0.0280  0.2714
 6952SOL    HW132318   2.267   2.939   8.443 -0.0610 -1.4396  2.4849
 6952SOL    HW232319   2.158   2.971   8.347 -0.9728  1.8392  0.8265
 6953SOL     OW32320   2.866   2.157   4.984  0.3375 -0.4062  0.0412
 6953SOL    HW132321   2.820   2.231   5.024 -1.1889  0.4574 -3.3316
 6953SOL    HW232322   2.837   2.077   5.028 -0.1007 -0.5224 -0.4576
 6954SOL     OW32323   1.822   1.518   4.066 -0.6266 -0.5129  0.0637
 6954SOL    HW132324   1.744   1.531   4.012 -1.7910 -1.0191  1.6325
 6954SOL    HW232325   1.873   1.592   4.032 -1.8739 -0.0005 -0.6955
 6955SOL     OW32326   0.388   0.795   8.936  0.0410 -0.2855  0.6766
 6955SOL    HW132327   0.345   0.722   8.892  0.1880 -0.1293  0.2750
 6955SOL    HW232328   0.460   0.817   8.877  0.1812 -2.7155 -0.0552
 6956SOL     OW32329   2.490   4.074   8.738  0.1717 -0.1177 -0.0504
 6956SOL    HW132330   2.497   3.980   8.722  2.2865  0.3756 -2.2353
 6956SOL    HW232331   2.562   4.109   8.684  1.5763 -1.9952  0.6104
 6957SOL     OW32332   1.648   1.514  15.009  0.2173 -0.1097 -1.1881
 6957SOL    HW132333   1.704   1.553  14.942  1.4075 -2.7373 -1.7142
 6957SOL    HW232334   1.616   1.431  14.975  0.8234 -0.8693  0.0997
 6958SOL     OW32335   2.829   0.488   6.262  0.4059  0.2864 -0.3393
 6958SOL    HW132336   2.828   0.397   6.290  0.8986 -0.8742 -4.1146
 6958SOL    HW232337   2.777   0.473   6.183  1.1807  0.3629 -0.8623
 6959SOL     OW32338   2.849   3.515   5.525  0.6704 -0.3542 -0.4251
 6959SOL    HW132339   2.767   3.477   5.494 -2.1163  2.3362  3.4838
 6959SOL    HW232340   2.810   3.545   5.608 -1.5227  0.0370 -1.6004
 6960SOL     OW32341   1.945   1.433   5.635  0.0301 -0.3318 -0.2034
 6960SOL    HW132342   1.922   1.526   5.638  3.4639  0.5872 -2.0535
 6960SOL    HW232343   2.029   1.432   5.590 -0.3712 -2.1721 -0.9180
 6961SOL     OW32344   0.984   4.330  16.365 -0.0125 -0.1851  0.1811
 6961SOL    HW132345   1.079   4.338  16.368 -0.0448  0.3500 -0.3252
 6961SOL    HW232346   0.963   4.352  16.455  0.2853  1.8690 -0.2647
 6962SOL     OW32347   1.529   2.868   4.302  0.4541  0.1472 -0.0825
 6962SOL    HW132348   1.501   2.871   4.210  2.3614 -3.2659 -0.7948
 6962SOL    HW232349   1.583   2.789   4.292 -0.9382 -0.7599 -0.5470
 6963SOL     OW32350   3.672   3.529   8.694  0.2538  0.4781 -0.2656
 6963SOL    HW132351   3.625   3.524   8.777  2.1338  0.0831  0.7762
 6963SOL    HW232352   3.707   3.443   8.674 -0.7701  0.2480 -1.1120
 6964SOL     OW32353   1.911   0.355   6.643  0.1460 -0.6179 -0.0319
 6964SOL    HW132354   1.865   0.295   6.583 -2.7151  0.8820  0.6633
 6964SOL    HW232355   1.987   0.301   6.665 -0.3435 -1.0417  0.6189
 6965SOL     OW32356   2.489   2.596   2.812 -0.5545  0.3282  0.1535
 6965SOL    HW132357   2.508   2.643   2.731  1.7163 -1.2490 -0.2155
 6965SOL    HW232358   2.557   2.529   2.810 -0.1296  0.6301  3.4493
 6966SOL     OW32359   4.464   0.027   5.162  0.5559 -0.2090  0.5270
 6966SOL    HW132360   4.397   4.689   5.201 -0.0721 -0.9344 -1.5512
 6966SOL    HW232361   4.524   0.032   5.236  0.5979  1.5765  0.3677
 6967SOL     OW32362   4.440   4.410  14.243 -0.6090 -0.2195 -0.2189
 6967SOL    HW132363   4.373   4.375  14.301 -0.0871  0.1626  0.6144
 6967SOL    HW232364   4.403   4.499  14.241  0.6294  0.3016 -0.2415
 6968SOL     OW32365   3.351   3.908  14.872  0.0213  0.6745 -0.1179
 6968SOL    HW132366   3.427   3.963  14.891  0.5886  0.4862 -1.8884
 6968SOL    HW232367   3.316   3.887  14.959  0.8881 -1.3703 -0.2764
 6969SOL     OW32368   1.062   3.503   4.510 -0.7339  0.5538 -0.5275
 6969SOL    HW132369   1.101   3.514   4.596 -1.8816  0.7805 -0.0417
 6969SOL    HW232370   1.090   3.412   4.496 -0.1946  0.2562  2.5255
 6970SOL     OW32371   4.696   1.758   1.533  0.5218 -0.1233  0.4189
 6970SOL    HW132372   4.681   1.842   1.576  0.9436 -0.3776  1.0619
 6970SOL    HW232373   4.695   1.687   1.598 -0.6972  0.9133  1.5480
 6971SOL     OW32374   0.613   1.886   2.245 -0.5784  0.0894 -0.4997
 6971SOL    HW132375   0.540   1.887   2.306 -1.1397 -2.7014 -1.0994
 6971SOL    HW232376   0.687   1.879   2.306  0.2238  1.8228 -1.2628
 6972SOL     OW32377   1.737   0.900   8.763  0.1563  0.0587 -0.6131
 6972SOL    HW132378   1.741   0.985   8.718 -0.1832  0.1563 -0.4580
 6972SOL    HW232379   1.771   0.912   8.851 -1.9491 -2.1149  0.4675
 6973SOL     OW32380   1.774   0.872   6.662 -0.5486  0.3236 -0.5562
 6973SOL    HW132381   1.864   0.896   6.681 -0.7625  1.3055 -0.7503
 6973SOL    HW232382   1.738   0.890   6.749  1.7906  0.8174  0.3054
 6974SOL     OW32383   4.670   0.248   7.018 -0.8854  0.1193  0.6421
 6974SOL    HW132384   4.637   0.301   7.090 -0.0391  0.6782  0.6119
 6974SOL    HW232385   4.621   0.282   6.943  3.2309  0.2997 -1.9718
 6975SOL     OW32386   2.976   2.794   8.496  0.0061  0.0488 -0.0261
 6975SOL    HW132387   3.023   2.783   8.579 -1.3958 -0.2173  0.7443
 6975SOL    HW232388   2.886   2.773   8.524 -0.5668  0.0384 -1.8822
 6976SOL     OW32389   4.483   0.854   2.448  0.0029 -0.3130  0.1255
 6976SOL    HW132390   4.540   0.782   2.475 -1.0336 -0.7922  1.0372
 6976SOL    HW232391   4.472   0.909   2.526  0.2170 -0.3056  0.1510
 6977SOL     OW32392   0.811   3.022   7.954  0.3440  0.2886 -0.4759
 6977SOL    HW132393   0.752   3.056   8.022 -1.3169 -0.2010 -1.6659
 6977SOL    HW232394   0.847   3.097   7.908  2.3448  1.2884  2.7148
 6978SOL     OW32395   3.561   3.513   4.714 -0.4494 -0.2546  0.2267
 6978SOL    HW132396   3.585   3.524   4.805 -0.4667  1.2237  0.0551
 6978SOL    HW232397   3.624   3.448   4.684  0.5504  1.2130 -0.8272
 6979SOL     OW32398   3.708   1.159   0.787 -0.1226 -0.2532 -0.2645
 6979SOL    HW132399   3.701   1.254   0.779  0.7885 -0.3664 -2.4423
 6979SOL    HW232400   3.761   1.143   0.865 -0.3097  0.3615 -0.0166
 6980SOL     OW32401   4.305   1.093   4.131 -0.2913 -0.0061 -0.2626
 6980SOL    HW132402   4.245   1.114   4.059  0.4341  1.1028 -0.5487
 6980SOL    HW232403   4.259   1.018   4.170  1.0145 -0.3725  0.5486
 6981SOL     OW32404   3.750   3.908   9.178 -0.4418 -0.4817  0.0544
 6981SOL    HW132405   3.658   3.887   9.196 -0.6517  0.8764  0.5688
 6981SOL    HW232406   3.801   3.828   9.185  0.4215  0.2952  2.8044
 6982SOL     OW32407   1.509   2.186   2.622  0.1438 -0.1886  0.3420
 6982SOL    HW132408   1.580   2.197   2.559 -1.5594 -0.6833 -1.6401
 6982SOL    HW232409   1.436   2.149   2.572  0.9152  0.8764 -1.5427
 6983SOL     OW32410   0.045   0.217  15.088 -0.5460  0.1077  0.6852
 6983SOL    HW132411   4.700   0.252  15.151 -0.6318 -0.5453  0.9625
 6983SOL    HW232412   4.711   0.152  15.040 -1.0074  1.7646 -1.0878
 6984SOL     OW32413   0.939   3.881   7.413  0.0737  0.2167  0.0121
 6984SOL    HW132414   0.847   3.860   7.397 -0.1333  2.8111 -2.1484
 6984SOL    HW232415   0.969   3.797   7.448  1.8624  0.3506 -1.2119
 6985SOL     OW32416   1.102   0.443  17.433  0.3886  0.3277 -0.8521
 6985SOL    HW132417   1.058   0.358  17.444  0.4056  0.3303 -0.7641
 6985SOL    HW232418   1.186   0.412  17.401 -0.2370 -1.2404 -0.9869
 6986SOL     OW32419   0.303   3.708   1.941  0.3183  0.7062 -0.4215
 6986SOL    HW132420   0.213   3.737   1.927  0.3991  0.8361 -0.6764
 6986SOL    HW232421   0.313   3.737   2.032  1.5213 -0.8021 -0.0763
 6987SOL     OW32422   4.178   1.015   8.517  0.0022 -0.1421 -0.1393
 6987SOL    HW132423   4.174   0.958   8.594 -0.0896  1.5905  1.1219
 6987SOL    HW232424   4.089   0.999   8.486 -0.3634  1.3453  0.1610
 6988SOL     OW32425   2.415   4.031   7.145  0.1397  0.2932  0.6855
 6988SOL    HW132426   2.330   4.068   7.170  0.2937  0.1174  1.4714
 6988SOL    HW232427   2.390   3.959   7.088  0.3567  2.1848 -1.7928
 6989SOL     OW32428   3.527   4.285  13.274 -0.1944  0.3320  0.1574
 6989SOL    HW132429   3.606   4.266  13.324  0.4989  0.7793 -0.7719
 6989SOL    HW232430   3.499   4.194  13.267 -1.5355  0.7795 -0.3343
 6990SOL     OW32431   0.562   0.231   3.663  0.2340  0.3412  0.0248
 6990SOL    HW132432   0.499   0.302   3.653 -0.0857 -0.1283 -1.2504
 6990SOL    HW232433   0.505   0.158   3.640  2.2388 -1.0611 -0.4858
 6991SOL     OW32434   2.474   2.207   5.189  0.0253  0.2414  0.2519
 6991SOL    HW132435   2.394   2.181   5.234  0.0103  0.3652  0.2961
 6991SOL    HW232436   2.491   2.280   5.249  2.8988 -0.6250  0.5096
 6992SOL     OW32437   0.791   0.858   9.211 -0.6084  0.3044 -0.4495
 6992SOL    HW132438   0.696   0.872   9.217 -0.5731  0.4429 -0.1656
 6992SOL    HW232439   0.824   0.877   9.299  0.8475  1.4540 -1.2460
 6993SOL     OW32440   1.646   4.560   5.024  0.3140 -0.3902 -0.1355
 6993SOL    HW132441   1.637   4.547   4.930  2.4941  0.1161 -0.4257
 6993SOL    HW232442   1.627   4.468   5.043  0.3072 -0.6632 -1.4665
 6994SOL     OW32443   1.354   3.558   5.805  0.1795  0.3193 -0.0843
 6994SOL    HW132444   1.346   3.473   5.847  0.9662  1.5262  2.4945
 6994SOL    HW232445   1.330   3.616   5.877 -0.4450 -1.0827  0.8192
 6995SOL     OW32446   3.136   3.204   1.261 -0.1658 -0.5350 -0.2832
 6995SOL    HW132447   3.183   3.183   1.181  0.2721  0.8160 -0.3852
 6995SOL    HW232448   3.109   3.294   1.243  0.9583 -0.1885 -0.2341
 6996SOL     OW32449   2.913   4.555  17.323 -0.3612  0.0788 -0.2181
 6996SOL    HW132450   2.924   4.591  17.412  3.3231  0.2891 -0.7476
 6996SOL    HW232451   2.821   4.530  17.331 -0.8488  2.0161  0.2990
 6997SOL     OW32452   1.804   0.293   7.854 -0.0497 -0.6354  0.4853
 6997SOL    HW132453   1.869   0.333   7.912  0.5557  0.0804 -0.6769
 6997SOL    HW232454   1.800   0.199   7.867 -0.6864 -0.3996  1.9395
 6998SOL     OW32455   1.768   4.489   0.775  0.2262  0.1716 -0.1601
 6998SOL    HW132456   1.700   4.510   0.712 -0.4247 -0.2277  0.4056
 6998SOL    HW232457   1.724   4.436   0.842 -0.3179  0.2164 -0.4851
 6999SOL     OW32458   1.462   4.647  16.314  0.2292  0.0569 -0.0129
 6999SOL    HW132459   1.544   4.604  16.288  0.2748 -0.9421  1.8371
 6999SOL    HW232460   1.500   4.715  16.370 -1.2259  1.5934 -0.8730
 7000SOL     OW32461   0.050   4.249  10.347  0.6800  0.3225 -0.0431
 7000SOL    HW132462   0.112   4.180  10.368 -0.8994 -1.6405 -1.8642
 7000SOL    HW232463   4.689   4.218  10.392 -0.5754 -0.9861 -3.1589
 7001SOL     OW32464   4.308   3.427   0.998 -0.0591 -0.5356 -0.2147
 7001SOL    HW132465   4.226   3.476   0.987 -0.6590 -1.6262 -0.6546
 7001SOL    HW232466   4.270   3.341   0.976  1.1276 -0.8989 -0.8847
 7002SOL     OW32467   3.931   1.272   1.241  0.7703 -0.1589 -0.1744
 7002SOL    HW132468   3.941   1.355   1.287  0.2410 -0.4907  0.5423
 7002SOL    HW232469   3.913   1.222   1.320 -0.8461  0.3388 -0.2218
 7003SOL     OW32470   1.718   3.212  11.279 -0.0990 -0.2043  0.0215
 7003SOL    HW132471   1.640   3.236  11.230 -0.9738 -0.8911  1.0916
 7003SOL    HW232472   1.725   3.290  11.335  1.2852  0.1040 -0.5750
 7004SOL     OW32473   1.484   4.668  15.952 -0.2341  0.0726  0.1285
 7004SOL    HW132474   1.476   4.631  16.040 -0.6751 -0.5240 -0.1621
 7004SOL    HW232475   1.428   0.025  15.975  0.5902  0.8345 -0.3525
 7005SOL     OW32476   1.708   0.019   4.390 -0.5101  0.2740  0.2000
 7005SOL    HW132477   1.797   4.715   4.417  0.0887  1.6702 -0.6182
 7005SOL    HW232478   1.668   4.650   4.391  2.2334 -1.0277 -0.3407
 7006SOL     OW32479   0.517   1.595   4.268  0.6733 -0.1224 -0.4256
 7006SOL    HW132480   0.454   1.607   4.197  1.5641 -0.7557 -1.3213
 7006SOL    HW232481   0.460   1.589   4.345  1.5588 -2.0157  0.0788
 7007SOL     OW32482   2.319   4.681   1.086 -0.1891 -0.3074 -0.3658
 7007SOL    HW132483   2.287   0.049   1.111 -3.0973 -0.9328 -1.8973
 7007SOL    HW232484   2.293   4.629   1.162 -1.7169 -1.5363 -1.7254
 7008SOL     OW32485   2.006   1.353  11.099  0.2351  0.1530  0.1036
 7008SOL    HW132486   1.970   1.316  11.019 -0.7751 -0.0310  0.6371
 7008SOL    HW232487   2.069   1.406  11.050 -1.5230  1.4363 -0.7875
 7009SOL     OW32488   1.794   4.481  16.968 -0.2800 -0.4194  0.2834
 7009SOL    HW132489   1.709   4.440  16.953 -0.1184 -1.1237  1.3254
 7009SOL    HW232490   1.777   4.564  16.923  0.4546 -1.5029 -1.9798
 7010SOL     OW32491   0.918   2.543   3.860 -0.8079 -0.3808 -0.2743
 7010SOL    HW132492   0.868   2.553   3.941  0.2645  1.8065  0.1252
 7010SOL    HW232493   0.890   2.456   3.831  0.7565 -1.2873  0.9799
 7011SOL     OW32494   2.515   0.632   7.356 -0.1938  0.1227  0.2327
 7011SOL    HW132495   2.497   0.726   7.366 -0.2350 -0.0447  1.6538
 7011SOL    HW232496   2.525   0.612   7.263 -1.6228  2.8907 -0.5221
 7012SOL     OW32497   4.512   2.369   4.876  0.7060  0.2211  0.2971
 7012SOL    HW132498   4.583   2.329   4.827  1.4777  0.0848  1.5163
 7012SOL    HW232499   4.449   2.310   4.834  1.5805 -0.3015 -0.2698
 7013SOL     OW32500   2.145   1.983  15.784  0.2665 -0.1597 -0.3037
 7013SOL    HW132501   2.218   2.042  15.765  0.3281  0.4035  1.6295
 7013SOL    HW232502   2.103   1.958  15.702 -1.8761  1.1330  0.3926
 7014SOL     OW32503   1.425   0.917  16.462 -0.1591  0.3526 -0.1072
 7014SOL    HW132504   1.405   0.982  16.395  1.3018  1.5192  0.5771
 7014SOL    HW232505   1.499   0.950  16.514 -1.1896  0.8061  1.0606
 7015SOL     OW32506   3.465   2.453  16.902  0.1839 -0.0217 -0.8549
 7015SOL    HW132507   3.489   2.428  16.991 -0.9439  2.3662  0.1034
 7015SOL    HW232508   3.537   2.513  16.885  2.5080 -1.8839  2.4899
 7016SOL     OW32509   1.666   0.774  12.005 -0.2107  0.4025  0.6987
 7016SOL    HW132510   1.590   0.728  11.968  0.8876 -0.0578 -0.9420
 7016SOL    HW232511   1.730   0.706  11.989 -1.1998 -0.1497 -0.9406
 7017SOL     OW32512   1.936   3.261   7.718  0.2683 -0.3222  0.0301
 7017SOL    HW132513   1.891   3.195   7.771 -1.5546  1.4317  0.6842
 7017SOL    HW232514   1.858   3.312   7.696  1.3441  1.0400 -0.6078
 7018SOL     OW32515   4.376   0.719   2.869 -0.2157  0.6296  0.0379
 7018SOL    HW132516   4.359   0.791   2.807 -1.0680  0.1509 -0.2894
 7018SOL    HW232517   4.289   0.680   2.873  0.5418 -1.1615 -1.0117
 7019SOL     OW32518   1.994   2.677   4.818  0.0585 -0.2388  0.2244
 7019SOL    HW132519   1.912   2.713   4.785  1.1267  1.0795 -0.9817
 7019SOL    HW232520   1.993   2.720   4.903 -2.8325  0.4548 -0.1911
 7020SOL     OW32521   3.671   3.046   2.180  0.0071  0.3020 -0.2595
 7020SOL    HW132522   3.699   2.957   2.163  1.1028  0.5853  0.0815
 7020SOL    HW232523   3.592   3.036   2.234 -0.4233  0.0101 -0.9353
 7021SOL     OW32524   0.181   1.728  15.851  0.2077  0.2229  0.2622
 7021SOL    HW132525   0.167   1.685  15.936  0.9728  2.3910  1.5114
 7021SOL    HW232526   0.117   1.683  15.796 -0.4222  0.5234  0.7354
 7022SOL     OW32527   1.550   2.000   6.517  0.4875  0.3486 -0.6372
 7022SOL    HW132528   1.550   2.095   6.528 -1.3729  0.3662 -0.7400
 7022SOL    HW232529   1.457   1.975   6.524  0.0394  2.2462  0.2457
 7023SOL     OW32530   3.534   4.456   6.903 -0.3606 -0.5426 -0.0219
 7023SOL    HW132531   3.621   4.496   6.906 -0.4281 -0.5951  2.6683
 7023SOL    HW232532   3.553   4.414   6.819 -0.7941 -0.3512 -0.2170
 7024SOL     OW32533   4.017   2.469   9.080  0.3924  0.3085  0.1343
 7024SOL    HW132534   3.977   2.525   9.014  1.9005 -0.1116 -1.1285
 7024SOL    HW232535   3.984   2.521   9.153 -2.3776 -1.0949 -0.1075
 7025SOL     OW32536   1.510   2.718   2.185 -0.2711 -0.0715  0.9399
 7025SOL    HW132537   1.523   2.636   2.233 -3.8017 -0.6302  0.9539
 7025SOL    HW232538   1.509   2.691   2.094  0.3445 -0.1207  0.9506
 7026SOL     OW32539   0.258   2.442   2.867 -0.7216 -0.0735 -0.4516
 7026SOL    HW132540   0.283   2.452   2.959 -0.3748  2.4267 -0.8139
 7026SOL    HW232541   0.266   2.347   2.855  0.3288  0.0649 -0.8477
 7027SOL     OW32542   4.251   0.444  14.994 -0.1367  0.1118 -0.3255
 7027SOL    HW132543   4.325   0.383  15.004 -1.4437 -1.0613  2.2225
 7027SOL    HW232544   4.280   0.517  14.939  3.4982 -0.7635  0.4424
 7028SOL     OW32545   1.756   1.258   4.036 -0.1019  0.1055  0.6712
 7028SOL    HW132546   1.766   1.353   4.032  1.2230 -0.1149 -1.0254
 7028SOL    HW232547   1.790   1.227   3.952  1.3598  1.4737  0.7636
 7029SOL     OW32548   1.041   4.162   5.239 -0.4488 -0.0924  0.1402
 7029SOL    HW132549   0.972   4.103   5.269 -1.2177 -0.2834 -1.9891
 7029SOL    HW232550   1.002   4.196   5.158 -0.3222 -1.5931 -0.5609
 7030SOL     OW32551   2.850   3.064   9.438  0.4488 -0.1937  0.1176
 7030SOL    HW132552   2.929   3.096   9.394  0.3250 -0.9642 -0.6694
 7030SOL    HW232553   2.895   3.025   9.513 -3.9953 -1.1312  2.2954
 7031SOL     OW32554   1.779   3.871   6.877  0.3301 -0.0627  0.3736
 7031SOL    HW132555   1.826   3.791   6.856  1.3829  0.1838  1.7289
 7031SOL    HW232556   1.696   3.830   6.902 -1.0771  3.1464  1.0671
 7032SOL     OW32557   3.476   2.689   5.612 -0.3768 -0.7332  0.5568
 7032SOL    HW132558   3.497   2.599   5.587 -4.2705 -0.7021 -2.8061
 7032SOL    HW232559   3.556   2.729   5.578 -1.0916  0.1246 -0.1013
 7033SOL     OW32560   4.098   1.863   9.600  0.2670 -0.1239  0.0641
 7033SOL    HW132561   4.006   1.869   9.624  0.6447  1.0427  1.2650
 7033SOL    HW232562   4.094   1.800   9.529 -0.6779  1.6287 -1.4357
 7034SOL     OW32563   0.523   2.583  11.901  0.2718  0.5664  0.0589
 7034SOL    HW132564   0.499   2.490  11.902  0.0997  0.6229  1.9581
 7034SOL    HW232565   0.514   2.603  11.994  0.4182  1.8585 -0.2049
 7035SOL     OW32566   4.302   3.076   5.251  0.2133 -0.2284 -0.0876
 7035SOL    HW132567   4.295   3.053   5.159  1.1858 -0.6578 -0.0649
 7035SOL    HW232568   4.231   3.022   5.284 -0.0658  1.2534  1.7733
 7036SOL     OW32569   2.149   0.585  14.971  0.1800  0.6189  0.3049
 7036SOL    HW132570   2.086   0.650  14.938  2.1290  2.7127  0.7410
 7036SOL    HW232571   2.213   0.614  14.906  0.3137 -0.2140  0.0544
 7037SOL     OW32572   2.921   4.448   4.795  0.5810 -0.0127  0.3988
 7037SOL    HW132573   2.981   4.401   4.738 -0.5500 -0.4443 -0.4389
 7037SOL    HW232574   2.909   4.377   4.858 -0.0315  0.0273  0.3322
 7038SOL     OW32575   0.308   1.335  15.468 -0.4707 -0.4516  0.2689
 7038SOL    HW132576   0.285   1.260  15.522  0.1040 -0.4044  0.5840
 7038SOL    HW232577   0.228   1.387  15.466 -2.3458 -3.3284  2.0145
 7039SOL     OW32578   2.793   1.285  16.535 -0.0604  0.3416  0.2654
 7039SOL    HW132579   2.847   1.281  16.614  1.2761 -0.9881 -0.7155
 7039SOL    HW232580   2.759   1.195  16.528 -1.3213  0.6383  2.8154
 7040SOL     OW32581   0.796   4.179   9.822 -0.5419 -0.4941 -0.5860
 7040SOL    HW132582   0.842   4.217   9.896  0.1586  0.3403 -1.4542
 7040SOL    HW232583   0.708   4.209   9.847 -1.5442 -3.2803 -0.7380
 7041SOL     OW32584   3.252   0.234   9.051 -0.5615  0.5246  0.1240
 7041SOL    HW132585   3.340   0.261   9.076 -0.8008  1.7214 -0.3384
 7041SOL    HW232586   3.204   0.317   9.044  0.2442  1.0683  1.2114
 7042SOL     OW32587   3.267   1.717   5.763 -0.0571  0.1205  0.6178
 7042SOL    HW132588   3.200   1.701   5.829 -0.5703  0.0805  0.0854
 7042SOL    HW232589   3.284   1.627   5.735 -1.1461  0.3001 -0.6101
 7043SOL     OW32590   0.326   3.835   8.368  0.3259 -0.3474 -0.3927
 7043SOL    HW132591   0.346   3.928   8.364 -0.4003 -0.1839 -0.3454
 7043SOL    HW232592   0.291   3.827   8.457 -0.3871 -0.2465 -0.6593
 7044SOL     OW32593   3.787   3.726   2.679 -0.0380  0.3075 -0.3343
 7044SOL    HW132594   3.791   3.751   2.586 -1.3626  1.2964 -0.1237
 7044SOL    HW232595   3.711   3.667   2.683 -0.0086  0.3694  1.0517
 7045SOL     OW32596   1.118   0.378   4.338  0.1193 -0.3483 -0.0022
 7045SOL    HW132597   1.167   0.452   4.375  0.4320 -0.2599 -0.6020
 7045SOL    HW232598   1.194   0.320   4.331  0.3312  0.1623 -1.8332
 7046SOL     OW32599   1.830   0.229   7.172  0.4124 -0.0964  0.0226
 7046SOL    HW132600   1.904   0.279   7.206 -1.1664  1.2092  1.5325
 7046SOL    HW232601   1.757   0.283   7.203  0.4445 -0.1897  0.2589
 7047SOL     OW32602   1.848   2.093   4.598 -0.0080  0.5861  0.0540
 7047SOL    HW132603   1.846   2.186   4.573  1.2700  0.8349  0.8908
 7047SOL    HW232604   1.771   2.083   4.652  1.1062  0.1713  1.5543
 7048SOL     OW32605   4.601   0.039  16.901 -0.2106 -0.3181 -0.2254
 7048SOL    HW132606   4.581   0.105  16.968  0.6796  0.8352 -1.1072
 7048SOL    HW232607   4.534   0.056  16.836 -0.3832 -2.4843 -0.6234
 7049SOL     OW32608   4.604   0.690   1.200  0.5004 -0.1282 -0.5485
 7049SOL    HW132609   4.604   0.767   1.256  0.7060 -1.8757  1.8451
 7049SOL    HW232610   4.511   0.670   1.205  0.5007  0.2054  0.6617
 7050SOL     OW32611   0.818   0.764   8.494  0.1361 -0.4446  0.0888
 7050SOL    HW132612   0.905   0.798   8.512 -0.2644  1.7193 -2.1367
 7050SOL    HW232613   0.768   0.783   8.574 -0.0845  3.2702 -0.9254
 7051SOL     OW32614   3.786   3.869   0.612 -0.3887  0.0810  0.2412
 7051SOL    HW132615   3.740   3.952   0.604  0.5841  0.4272 -1.7649
 7051SOL    HW232616   3.864   3.903   0.656  0.3087 -0.8660 -0.2672
 7052SOL     OW32617   0.417   3.694  10.061  0.0413  0.2324  0.2618
 7052SOL    HW132618   0.450   3.653   9.981  1.9788  1.5176  0.3926
 7052SOL    HW232619   0.335   3.644  10.064  0.3481 -0.2858 -0.0747
 7053SOL     OW32620   0.917   1.209   2.243  0.1234 -0.0006  0.1128
 7053SOL    HW132621   0.958   1.161   2.315  1.0656  1.1647  0.3577
 7053SOL    HW232622   0.823   1.203   2.260 -0.2196  0.7360 -1.4780
 7054SOL     OW32623   1.151   1.528  15.620 -0.1268  0.3505 -0.2908
 7054SOL    HW132624   1.159   1.621  15.602  1.1641  0.1084 -1.0152
 7054SOL    HW232625   1.156   1.521  15.716  1.3892  0.0762 -0.3785
 7055SOL     OW32626   1.866   2.088   6.357  0.0650  0.1391  0.1734
 7055SOL    HW132627   1.840   2.180   6.369 -0.7163 -0.1960  1.1227
 7055SOL    HW232628   1.898   2.064   6.444  0.3665 -0.8286 -0.2152
 7056SOL     OW32629   0.015   1.996  11.796  0.3010 -0.0648  0.1876
 7056SOL    HW132630   4.670   2.029  11.731  0.2569  1.9124  1.2617
 7056SOL    HW232631   4.671   1.976  11.866  1.1992  0.5868  1.1604
 7057SOL     OW32632   4.651   2.591   1.135  0.6372  0.3815 -0.1094
 7057SOL    HW132633   4.566   2.611   1.174  0.4771  1.5593 -1.0565
 7057SOL    HW232634   4.675   2.511   1.181  0.1187  1.5810  2.2466
 7058SOL     OW32635   1.725   3.787  15.142 -0.0542  0.7063  0.2877
 7058SOL    HW132636   1.708   3.744  15.226 -0.4891 -0.5931 -0.4565
 7058SOL    HW232637   1.679   3.727  15.082 -0.1214 -1.3169  2.3961
 7059SOL     OW32638   2.295   3.053   7.320  0.5646  0.0626  0.1808
 7059SOL    HW132639   2.247   3.128   7.287  0.8386 -0.0494 -0.4697
 7059SOL    HW232640   2.345   3.097   7.388 -1.1901  1.2800  0.6667
 7060SOL     OW32641   2.636   0.886   7.450 -0.3959 -0.0289 -0.2304
 7060SOL    HW132642   2.621   0.979   7.469 -0.3336  0.0822 -0.7080
 7060SOL    HW232643   2.691   0.849   7.519 -1.9492 -1.4738  0.2169
 7061SOL     OW32644   4.439   2.255   7.672 -0.0869 -0.0626 -0.2648
 7061SOL    HW132645   4.503   2.230   7.605 -0.6677  0.1735 -0.9063
 7061SOL    HW232646   4.359   2.262   7.620  0.6334 -1.6546 -1.5955
 7062SOL     OW32647   2.632   1.982   4.479  0.6085 -0.1587  0.8490
 7062SOL    HW132648   2.555   1.925   4.482  1.2680 -1.0749  0.5889
 7062SOL    HW232649   2.620   2.050   4.545 -0.2930  1.7672 -1.3118
 7063SOL     OW32650   4.099   1.904   4.674 -0.9286 -0.7699 -0.4356
 7063SOL    HW132651   4.094   1.808   4.680 -2.7017 -0.6217  0.3381
 7063SOL    HW232652   4.138   1.913   4.587 -2.5139  2.2215 -0.8333
 7064SOL     OW32653   0.632   2.694   3.976  0.5690 -0.1263  0.5635
 7064SOL    HW132654   0.594   2.763   4.030  1.6776  1.3236 -0.5276
 7064SOL    HW232655   0.695   2.653   4.036  0.6233 -2.6876 -1.2354
 7065SOL     OW32656   1.961   4.192   8.597 -0.2815 -0.0911  0.4368
 7065SOL    HW132657   1.989   4.247   8.523  0.0139  0.0250  0.6344
 7065SOL    HW232658   2.029   4.126   8.607 -0.1333 -0.2757 -1.8248
 7066SOL     OW32659   0.845   1.185  10.402 -0.1027  0.3168 -0.0294
 7066SOL    HW132660   0.853   1.124  10.475  2.0967  0.7950  0.1242
 7066SOL    HW232661   0.911   1.151  10.342  1.4986 -0.4902  2.1797
 7067SOL     OW32662   2.929   1.943  12.871 -0.5265  0.1903 -0.3775
 7067SOL    HW132663   2.851   1.984  12.836  0.1509  0.2076 -1.8798
 7067SOL    HW232664   2.921   1.854  12.837 -1.7294  0.3907 -0.6078
 7068SOL     OW32665   1.891   1.771   7.126  0.0886 -0.7740  0.0289
 7068SOL    HW132666   1.872   1.812   7.211  0.9737 -1.0648  0.3623
 7068SOL    HW232667   1.899   1.679   7.151 -0.2575 -0.7022  0.4107
 7069SOL     OW32668   0.282   0.954   7.921 -0.1136 -0.3560 -0.2345
 7069SOL    HW132669   0.324   0.953   7.835  0.7333  0.0955  0.1808
 7069SOL    HW232670   0.343   1.012   7.967 -0.5220 -0.5588  0.5674
 7070SOL     OW32671   4.305   0.224  12.973 -0.0014 -0.3413 -0.1743
 7070SOL    HW132672   4.322   0.140  13.016  1.1567 -0.9779 -1.8844
 7070SOL    HW232673   4.389   0.234  12.928  0.4880 -0.3715  0.7412
 7071SOL     OW32674   1.289   0.022   9.002  0.1761 -0.0293  0.3286
 7071SOL    HW132675   1.346   0.078   9.055 -0.0785 -0.2843  0.8755
 7071SOL    HW232676   1.252   0.093   8.950 -0.8015  0.0238  1.0927
 7072SOL     OW32677   2.515   4.498   5.971  0.0130  0.2903  0.4285
 7072SOL    HW132678   2.479   4.553   6.041  0.4950  0.7499  0.3216
 7072SOL    HW232679   2.446   4.507   5.905  0.3172 -1.0792 -0.0768
 7073SOL     OW32680   3.721   1.942  11.829 -0.1990  0.1391  0.0512
 7073SOL    HW132681   3.713   2.001  11.754  0.7033  2.3893  1.6909
 7073SOL    HW232682   3.715   1.859  11.784  1.1415 -0.4026  0.8653
 7074SOL     OW32683   1.429   1.084  12.513 -0.7061 -0.2244 -0.0093
 7074SOL    HW132684   1.334   1.087  12.515 -0.6653  0.3971  0.8444
 7074SOL    HW232685   1.450   1.027  12.587 -0.1041  2.1993  1.6745
 7075SOL     OW32686   4.399   2.996   7.517  0.2176  0.0567  0.2842
 7075SOL    HW132687   4.337   3.063   7.488 -0.6183 -0.7181  0.2680
 7075SOL    HW232688   4.352   2.913   7.507  0.5228 -0.2926  1.7931
 7076SOL     OW32689   1.273   1.979   2.917  0.3709 -0.1477  0.5821
 7076SOL    HW132690   1.296   1.940   2.832 -0.9410  1.6490 -0.5972
 7076SOL    HW232691   1.192   2.026   2.898 -0.0258 -0.7671  0.7754
 7077SOL     OW32692   4.121   1.616  14.937  0.3270  0.4018 -0.1814
 7077SOL    HW132693   4.104   1.708  14.916 -1.2661  0.3457  0.8294
 7077SOL    HW232694   4.036   1.571  14.932 -0.2418  1.2817  1.5667
 7078SOL     OW32695   2.445   4.123   2.925  0.2224 -0.0694 -0.0548
 7078SOL    HW132696   2.477   4.208   2.895  1.7971 -1.6324 -2.8227
 7078SOL    HW232697   2.508   4.062   2.886 -2.6049 -0.3734 -4.2139
 7079SOL     OW32698   2.428   4.694   4.363  0.1144 -0.2584 -0.3631
 7079SOL    HW132699   2.509   4.704   4.314  1.5893 -0.7257  2.0105
 7079SOL    HW232700   2.391   0.057   4.325  1.3115  0.7021  0.5350
 7080SOL     OW32701   2.148   2.526   3.505  0.3868  0.2850  0.3253
 7080SOL    HW132702   2.094   2.447   3.502  1.0887 -0.1611 -0.9553
 7080SOL    HW232703   2.140   2.554   3.596 -3.6819  0.0264  0.0530
 7081SOL     OW32704   1.938   3.104   5.503  0.1680 -0.4213 -0.0338
 7081SOL    HW132705   1.993   3.094   5.581  2.0055 -0.9784 -1.3789
 7081SOL    HW232706   1.983   3.038   5.450  1.8264  1.4049 -0.9204
 7082SOL     OW32707   0.487   0.807   4.552 -0.2911 -0.5760 -0.0912
 7082SOL    HW132708   0.482   0.712   4.537 -1.6213 -0.6901  1.0894
 7082SOL    HW232709   0.397   0.819   4.582  0.1502 -1.4988  1.6626
 7083SOL     OW32710   3.727   4.333  16.941 -0.0692  0.0349 -0.0452
 7083SOL    HW132711   3.691   4.257  16.988  2.0435 -1.2709 -0.5012
 7083SOL    HW232712   3.821   4.315  16.942 -0.5473 -2.5356  0.4586
 7084SOL     OW32713   4.174   0.859   4.216  0.1093  0.4465  0.1381
 7084SOL    HW132714   4.114   0.796   4.177  0.3232  0.0109  0.5105
 7084SOL    HW232715   4.135   0.871   4.302 -1.5303  1.3280 -0.7181
 7085SOL     OW32716   3.857   0.144   7.276 -0.3375  0.3973 -0.7916
 7085SOL    HW132717   3.801   0.068   7.265  1.4242 -0.7316 -2.1040
 7085SOL    HW232718   3.798   0.214   7.303 -3.3757 -2.4083 -0.2345
 7086SOL     OW32719   1.908   2.670   8.091  0.1771 -0.4664 -0.3150
 7086SOL    HW132720   1.828   2.723   8.098  1.3233  1.2443 -0.1204
 7086SOL    HW232721   1.881   2.602   8.029 -0.9018 -1.1362  0.8890
 7087SOL     OW32722   2.069   3.424  13.999  0.3551 -0.1729  0.0722
 7087SOL    HW132723   2.070   3.330  14.017 -0.1491 -0.3361 -0.7531
 7087SOL    HW232724   2.156   3.432  13.960  1.2248  0.6945  2.1415
 7088SOL     OW32725   0.248   0.722   2.695  0.6059  0.2655  0.1939
 7088SOL    HW132726   0.201   0.650   2.738  2.5962 -2.1028 -1.6777
 7088SOL    HW232727   0.319   0.739   2.756  0.4356  0.1078  0.4358
 7089SOL     OW32728   1.374   1.993  10.530 -0.1477 -0.5216 -0.2509
 7089SOL    HW132729   1.343   2.026  10.614  1.5724 -4.7618  2.0845
 7089SOL    HW232730   1.302   2.018  10.472 -1.6512 -2.8815  0.6160
 7090SOL     OW32731   0.265   2.422   6.384  0.6974 -0.5882  0.3159
 7090SOL    HW132732   0.234   2.359   6.319 -2.4457 -0.2549  1.4778
 7090SOL    HW232733   0.345   2.453   6.341  0.0091  2.1964  0.9963
 7091SOL     OW32734   0.209   1.634   2.302 -0.1558  0.1838  0.3127
 7091SOL    HW132735   0.146   1.563   2.301 -0.7110  0.7179 -2.3335
 7091SOL    HW232736   0.287   1.588   2.270  0.6825  3.8089 -2.7991
 7092SOL     OW32737   0.356   2.787   1.575  0.2711  0.1779  0.0382
 7092SOL    HW132738   0.435   2.796   1.521 -0.8901  4.8494 -0.9210
 7092SOL    HW232739   0.377   2.697   1.598 -1.6564 -0.3287 -0.2253
 7093SOL     OW32740   4.004   2.518   4.507 -0.3363  0.0007  0.0616
 7093SOL    HW132741   3.926   2.552   4.550  0.4118  0.2258  1.2515
 7093SOL    HW232742   4.042   2.455   4.569 -2.3111  0.4990  1.7752
 7094SOL     OW32743   3.122   2.319  10.801  0.9016 -0.5426  0.1177
 7094SOL    HW132744   3.175   2.383  10.849  1.7906  1.5573 -3.6962
 7094SOL    HW232745   3.189   2.271  10.752  3.0205  2.7570 -0.2014
 7095SOL     OW32746   0.122   2.569  17.589  0.1118  0.4364 -0.4939
 7095SOL    HW132747   0.091   2.626  17.659 -1.9540 -0.6107 -0.5777
 7095SOL    HW232748   0.065   2.605  17.520 -0.9707  0.7583  0.5761
 7096SOL     OW32749   0.137   0.471   5.074  0.4717 -0.0519  0.4246
 7096SOL    HW132750   0.178   0.487   5.159  1.2427  1.8461 -0.3058
 7096SOL    HW232751   0.194   0.419   5.017 -0.7256 -0.6878 -0.1796
 7097SOL     OW32752   4.027   1.799   8.852  0.0974  0.0213  0.2993
 7097SOL    HW132753   3.947   1.850   8.865  0.2861  0.8193 -1.7063
 7097SOL    HW232754   4.065   1.836   8.931 -1.4422  0.8113  0.6722
 7098SOL     OW32755   4.221   3.806   2.978  0.0440  0.4258  0.2115
 7098SOL    HW132756   4.309   3.823   2.943 -0.5578  1.1338 -0.9549
 7098SOL    HW232757   4.226   3.711   2.969  1.5790  0.5081  0.0742
 7099SOL     OW32758   2.017   0.165   7.572  0.3029 -0.2840 -0.2473
 7099SOL    HW132759   2.076   0.151   7.498  1.4172 -1.4814  0.8807
 7099SOL    HW232760   2.072   0.206   7.638 -1.2832  0.9086  0.3364
 7100SOL     OW32761   0.613   2.615   8.638 -0.7355 -0.1331 -0.7898
 7100SOL    HW132762   0.535   2.671   8.640  0.1436  0.9864  1.0927
 7100SOL    HW232763   0.572   2.531   8.615 -0.4147 -0.1801 -1.1835
 7101SOL     OW32764   0.737   1.926   7.615  0.0245 -0.0418  0.6488
 7101SOL    HW132765   0.726   1.998   7.677 -3.1530 -0.8877  1.0789
 7101SOL    HW232766   0.752   1.855   7.678  4.8023  1.7569  1.5698
 7102SOL     OW32767   1.210   3.309  16.284  0.0376  0.3440 -0.2218
 7102SOL    HW132768   1.261   3.390  16.278  0.7465 -0.0932 -0.0727
 7102SOL    HW232769   1.273   3.247  16.321  2.0022  2.3442 -0.1713
 7103SOL     OW32770   1.587   3.133   5.125  0.3050  0.0538 -0.1443
 7103SOL    HW132771   1.621   3.088   5.047 -0.4903 -1.4995  0.4079
 7103SOL    HW232772   1.639   3.094   5.195  1.4737  0.6768 -0.6590
 7104SOL     OW32773   0.108   0.138   8.794 -0.3514 -0.4163  0.2133
 7104SOL    HW132774   0.203   0.125   8.789 -0.5901 -2.0540  0.1335
 7104SOL    HW232775   0.094   0.095   8.878  1.1240 -3.1584 -0.9521
 7105SOL     OW32776   2.978   1.864   3.050  0.4732  0.4901 -0.0691
 7105SOL    HW132777   2.947   1.948   3.017 -1.1198  0.0050  0.1888
 7105SOL    HW232778   2.986   1.816   2.967  0.5884 -0.7277  0.6426
 7106SOL     OW32779   1.548   1.887  12.980  0.2282 -0.1872  0.1104
 7106SOL    HW132780   1.455   1.897  12.961  0.4133  0.0122 -0.7100
 7106SOL    HW232781   1.577   1.976  12.959  0.4521 -0.0838  0.8393
 7107SOL     OW32782   3.962   0.948  16.592 -0.3064  0.0397 -0.1618
 7107SOL    HW132783   3.896   0.887  16.560 -0.1790  0.1829 -0.7016
 7107SOL    HW232784   3.998   0.884  16.654 -1.0240 -0.7868 -0.6072
 7108SOL     OW32785   4.251   3.900   3.411 -0.2432 -0.0191 -0.5287
 7108SOL    HW132786   4.302   3.958   3.355 -0.4205  1.8681  1.2404
 7108SOL    HW232787   4.290   3.817   3.382 -1.8594 -1.3798  1.2026
 7109SOL     OW32788   3.526   1.237  11.007  0.1726 -0.4651 -0.5835
 7109SOL    HW132789   3.605   1.186  11.026  0.0559 -0.7817 -0.9550
 7109SOL    HW232790   3.522   1.293  11.085 -0.0449 -1.4761  0.1353
 7110SOL     OW32791   2.578   0.551   6.805 -0.2422  0.0320 -0.8326
 7110SOL    HW132792   2.610   0.520   6.890 -2.2692 -2.0531 -0.8252
 7110SOL    HW232793   2.516   0.479   6.791  0.0042 -0.8886  2.6497
 7111SOL     OW32794   3.334   0.307   3.916  0.0804 -0.0546 -0.6584
 7111SOL    HW132795   3.281   0.270   3.845  0.1935  1.1281 -1.3656
 7111SOL    HW232796   3.347   0.400   3.898  2.0943 -0.4588 -1.1909
 7112SOL     OW32797   3.478   4.404   3.191 -0.7454 -0.1822 -0.2384
 7112SOL    HW132798   3.531   4.405   3.271 -0.8107  0.4804 -0.1990
 7112SOL    HW232799   3.392   4.410   3.233 -2.0244  0.1282 -2.8765
 7113SOL     OW32800   3.358   0.615  11.668 -0.4548  0.1214 -0.0832
 7113SOL    HW132801   3.347   0.565  11.749  1.7433 -0.0375  0.0992
 7113SOL    HW232802   3.373   0.698  11.713 -2.6653 -0.4328  1.6835
 7114SOL     OW32803   2.931   3.540  15.899 -0.2815 -0.3066 -0.3203
 7114SOL    HW132804   2.885   3.509  15.821  2.0448  0.5320 -2.0225
 7114SOL    HW232805   3.017   3.499  15.890 -0.7136 -1.3497  0.3198
 7115SOL     OW32806   1.674   3.310   4.196  0.4070  0.3281 -0.0608
 7115SOL    HW132807   1.582   3.290   4.175 -0.0899 -0.3636  2.7081
 7115SOL    HW232808   1.699   3.274   4.111 -0.1300 -1.9842  0.7378
 7116SOL     OW32809   3.509   3.927   5.467 -0.2256  0.4760  0.0507
 7116SOL    HW132810   3.577   3.937   5.534 -0.7812  1.1846  0.5081
 7116SOL    HW232811   3.500   3.832   5.464  1.5583  0.3013  0.0042
 7117SOL     OW32812   3.221   0.961   0.722 -0.2474 -0.3641  0.1963
 7117SOL    HW132813   3.234   0.993   0.811  1.7099  0.3764 -0.3477
 7117SOL    HW232814   3.284   1.015   0.673  1.7849 -2.3501  0.6231
 7118SOL     OW32815   2.147   4.030   5.630 -0.5267  0.1159 -0.0264
 7118SOL    HW132816   2.121   4.109   5.677 -0.9457  0.4871 -0.8814
 7118SOL    HW232817   2.242   4.028   5.627 -0.4534  0.8976  2.1410
 7119SOL     OW32818   2.034   2.807   6.868  0.2127 -0.1024  0.1646
 7119SOL    HW132819   2.062   2.826   6.958 -0.4326 -2.6052  0.8914
 7119SOL    HW232820   2.079   2.725   6.849 -0.8808 -0.5865 -0.2988
 7120SOL     OW32821   2.941   0.750   6.823  0.3430 -0.0942 -0.0493
 7120SOL    HW132822   2.862   0.802   6.808  0.6974  0.3663 -0.3074
 7120SOL    HW232823   2.935   0.685   6.753  0.0494 -1.7755  1.5416
 7121SOL     OW32824   0.877   1.854  16.535  0.3708 -0.1071  0.5287
 7121SOL    HW132825   0.947   1.824  16.592  0.5492 -2.2391 -0.8149
 7121SOL    HW232826   0.815   1.783  16.553 -0.2192 -0.2074 -2.0219
 7122SOL     OW32827   2.077   2.435   4.903  0.0864 -0.2663  0.7444
 7122SOL    HW132828   2.155   2.433   4.847  0.8829  2.9724  1.7092
 7122SOL    HW232829   2.031   2.500   4.850  2.2092  0.4355 -0.2379
 7123SOL     OW32830   1.311   0.360   3.404  0.0563  0.4304 -0.5005
 7123SOL    HW132831   1.231   0.333   3.358 -1.0753  1.6518  0.7471
 7123SOL    HW232832   1.280   0.330   3.489 -0.7094 -1.1162 -1.3401
 7124SOL     OW32833   1.267   4.710  15.348 -0.2291 -0.3536  0.2066
 7124SOL    HW132834   1.262   0.004  15.253 -2.5039  0.1879  0.3824
 7124SOL    HW232835   1.348   0.041  15.360  0.5563 -1.8644  1.0480
 7125SOL     OW32836   4.137   1.343   5.630  0.3216 -0.5298  0.5098
 7125SOL    HW132837   4.205   1.342   5.563 -1.4619  2.1259 -1.3388
 7125SOL    HW232838   4.167   1.415   5.685  2.9314 -0.1093 -1.4681
 7126SOL     OW32839   2.454   1.570   4.568 -0.7761 -0.0577  0.1728
 7126SOL    HW132840   2.471   1.574   4.662  2.4584 -0.2865 -0.3991
 7126SOL    HW232841   2.359   1.559   4.567 -0.7275 -0.5711  1.6733
 7127SOL     OW32842   2.669   2.212   2.720 -0.2741 -0.6825 -0.1180
 7127SOL    HW132843   2.602   2.211   2.652 -0.2414 -2.2758 -0.1405
 7127SOL    HW232844   2.746   2.238   2.669 -1.2427  0.9080 -0.7730
 7128SOL     OW32845   4.265   2.382   8.784 -0.1367 -0.1048 -0.1507
 7128SOL    HW132846   4.252   2.397   8.877 -0.7485 -0.8578 -0.1185
 7128SOL    HW232847   4.359   2.362   8.785 -0.1177 -0.0334 -0.3561
 7129SOL     OW32848   1.059   1.096  15.554 -0.3895 -0.5580  0.5685
 7129SOL    HW132849   1.100   1.025  15.604  0.6483  0.0939  0.6434
 7129SOL    HW232850   1.012   1.155  15.613 -1.1839  1.2276 -1.8668
 7130SOL     OW32851   0.555   2.158   3.079  0.1999 -0.6405  0.4033
 7130SOL    HW132852   0.618   2.123   3.016  2.9640  1.3203  2.0354
 7130SOL    HW232853   0.474   2.115   3.053  0.5501 -0.0133 -1.6987
 7131SOL     OW32854   3.447   1.177   5.558 -0.2885 -0.7469 -0.5602
 7131SOL    HW132855   3.382   1.127   5.508  0.9602 -2.4188 -0.5069
 7131SOL    HW232856   3.464   1.114   5.628  0.7306  1.3183  1.0479
 7132SOL     OW32857   3.671   2.797   7.501  0.0483 -0.1830 -0.0139
 7132SOL    HW132858   3.592   2.767   7.457  1.3820 -1.0388 -1.8253
 7132SOL    HW232859   3.707   2.717   7.539  0.3590  0.2675  0.6425
 7133SOL     OW32860   3.270   2.785   6.713  0.0847  0.5206  0.3897
 7133SOL    HW132861   3.245   2.693   6.716  1.0297  0.2708  0.6961
 7133SOL    HW232862   3.340   2.803   6.651  2.3806 -1.3231  2.4414
 7134SOL     OW32863   3.921   0.965   8.492  0.1555  0.4647 -0.7938
 7134SOL    HW132864   3.864   1.038   8.517 -1.2632 -0.7457 -0.4844
 7134SOL    HW232865   3.886   0.903   8.556 -1.4263  1.5269 -0.6270
 7135SOL     OW32866   0.607   1.155  14.666  0.1890 -0.5383 -0.4748
 7135SOL    HW132867   0.536   1.211  14.637 -0.1060  0.0365  1.3509
 7135SOL    HW232868   0.640   1.206  14.740  0.9660 -1.2386 -0.3380
 7136SOL     OW32869   4.067   1.592   9.455 -0.7211 -0.0713 -0.2138
 7136SOL    HW132870   3.982   1.596   9.412 -0.7995 -1.3662 -0.1732
 7136SOL    HW232871   4.035   1.543   9.531 -2.4013 -0.7373 -1.3552
 7137SOL     OW32872   3.445   0.720   7.218  0.1925 -0.4603  0.1498
 7137SOL    HW132873   3.404   0.784   7.277  2.1953 -0.1076  1.1455
 7137SOL    HW232874   3.420   0.762   7.135 -0.9990 -1.2747  0.0949
 7138SOL     OW32875   2.938   3.050   4.718 -0.3339  0.2187 -0.5711
 7138SOL    HW132876   2.846   3.035   4.693 -1.0893  0.5396  2.0202
 7138SOL    HW232877   2.929   3.053   4.813  0.6118 -0.5919 -0.4591
 7139SOL     OW32878   2.905   4.196   2.041 -0.1077 -0.2795 -0.4788
 7139SOL    HW132879   2.917   4.101   2.048 -0.3781  0.0324  4.2602
 7139SOL    HW232880   2.861   4.185   1.957 -0.3557  1.1926 -0.5440
 7140SOL     OW32881   2.713   2.203   9.219 -0.0031 -0.4000  0.1329
 7140SOL    HW132882   2.648   2.244   9.277 -0.0004 -0.9206  0.5060
 7140SOL    HW232883   2.648   2.145   9.180 -0.9361  0.5723  0.2290
 7141SOL     OW32884   3.710   3.961  12.174 -0.3479 -0.3556  0.1815
 7141SOL    HW132885   3.668   3.956  12.260 -1.3503 -0.5398 -0.3086
 7141SOL    HW232886   3.742   3.872  12.165  0.4911 -0.1054  0.7317
 7142SOL     OW32887   3.505   4.085  15.745  0.6920 -0.2500 -0.3323
 7142SOL    HW132888   3.573   4.049  15.802  0.2409 -0.6656 -0.0535
 7142SOL    HW232889   3.554   4.083  15.663  0.8681  1.3751 -0.2760
 7143SOL     OW32890   0.714   1.953   5.365  0.1892  0.0837 -0.0222
 7143SOL    HW132891   0.785   1.961   5.429 -0.0980 -0.9882  0.4393
 7143SOL    HW232892   0.767   1.926   5.290 -0.4239 -0.0251 -0.4113
 7144SOL     OW32893   2.786   1.811   6.970 -0.6217 -0.0509 -0.4797
 7144SOL    HW132894   2.835   1.776   6.896  0.9691 -0.3017  0.7048
 7144SOL    HW232895   2.696   1.787   6.947 -0.3040  0.3816 -2.1997
 7145SOL     OW32896   0.449   0.047   8.278 -0.1627  0.3400 -0.7793
 7145SOL    HW132897   0.498   0.128   8.269 -0.2361  0.3989 -0.6543
 7145SOL    HW232898   0.367   0.069   8.233  0.5857 -1.8449 -3.2080
 7146SOL     OW32899   2.742   0.506   5.744  0.1718  0.1973  0.4486
 7146SOL    HW132900   2.808   0.572   5.722 -0.9679  0.4042 -2.3401
 7146SOL    HW232901   2.778   0.432   5.694  0.0373  0.5093 -0.1057
 7147SOL     OW32902   2.134   2.639   8.472 -0.0839  0.3714 -0.1078
 7147SOL    HW132903   2.042   2.615   8.460 -0.5562  2.1080  0.0106
 7147SOL    HW232904   2.148   2.664   8.381  1.4428 -0.9244 -0.2312
 7148SOL     OW32905   2.324   0.464  11.731  0.3549 -0.1006  0.4140
 7148SOL    HW132906   2.323   0.559  11.742 -0.2588 -0.0107 -0.3826
 7148SOL    HW232907   2.241   0.434  11.768 -1.3352  1.9456 -1.7494
 7149SOL     OW32908   2.589   1.588   2.654 -0.1822 -0.0054  0.7059
 7149SOL    HW132909   2.636   1.634   2.724 -1.8823 -3.2164  3.9789
 7149SOL    HW232910   2.632   1.504   2.665  1.6760  0.7216 -0.9328
 7150SOL     OW32911   3.702   0.081   1.240  0.5740 -0.5761 -0.4275
 7150SOL    HW132912   3.622   0.029   1.249 -0.7534  1.9414  2.2056
 7150SOL    HW232913   3.679   0.143   1.309  1.6838  1.5690 -2.0084
 7151SOL     OW32914   1.685   4.334   8.262 -0.0777 -0.4919 -0.1721
 7151SOL    HW132915   1.752   4.324   8.196  2.7075  1.4888  2.3382
 7151SOL    HW232916   1.683   4.240   8.281 -1.4518 -0.1945  1.2110
 7152SOL     OW32917   1.307   4.141  13.590 -0.5514  0.0950  0.6726
 7152SOL    HW132918   1.248   4.119  13.518  0.4937  0.5223 -0.3157
 7152SOL    HW232919   1.298   4.056  13.632 -0.5551 -1.7779 -3.0870
 7153SOL     OW32920   0.842   1.794  13.470  0.4505  0.3766 -0.4405
 7153SOL    HW132921   0.766   1.849  13.454  0.9247  1.2650  0.3770
 7153SOL    HW232922   0.799   1.715  13.504  0.9819  0.3876  0.2518
 7154SOL     OW32923   2.328   1.031   4.120 -0.2884 -0.2014  0.3217
 7154SOL    HW132924   2.400   1.088   4.091 -1.2569 -0.6486 -2.9594
 7154SOL    HW232925   2.378   0.974   4.178  2.4190  0.6854 -1.1315
 7155SOL     OW32926   2.468   1.321   2.964 -0.3502  0.3428  0.0718
 7155SOL    HW132927   2.411   1.291   3.034 -0.3691 -1.8795 -0.9123
 7155SOL    HW232928   2.507   1.238   2.936 -1.0346  0.2201 -0.5269
 7156SOL     OW32929   0.977   3.707   3.073 -0.0450  0.9012 -0.0660
 7156SOL    HW132930   0.984   3.612   3.071  0.8829  0.9655  0.0972
 7156SOL    HW232931   0.967   3.716   2.979 -0.7616 -1.6008 -0.2284
 7157SOL     OW32932   4.464   2.645   4.665  0.0534  0.3159 -0.2979
 7157SOL    HW132933   4.394   2.634   4.729 -0.3225 -0.6625 -0.8714
 7157SOL    HW232934   4.544   2.623   4.712  0.3274  0.0809 -0.8719
 7158SOL     OW32935   1.166   3.033   8.761 -0.4962  0.0920 -0.5467
 7158SOL    HW132936   1.130   3.119   8.781 -0.6098 -0.3533  1.1550
 7158SOL    HW232937   1.100   2.995   8.704  1.2312 -2.2082 -1.0589
 7159SOL     OW32938   4.680   2.184   8.538 -0.0315  0.5262  0.2345
 7159SOL    HW132939   0.012   2.115   8.494 -1.5481 -1.1946  1.1979
 7159SOL    HW232940   4.614   2.213   8.475 -2.3587 -3.7934  0.6538
 7160SOL     OW32941   3.374   4.424  16.385 -0.4684 -0.3615 -0.1594
 7160SOL    HW132942   3.321   4.399  16.460  0.0492 -0.1160  0.2935
 7160SOL    HW232943   3.414   4.343  16.354  0.0151 -0.3039  0.3079
 7161SOL     OW32944   2.111   3.796   0.614  0.4344  0.3337  0.5430
 7161SOL    HW132945   2.134   3.833   0.699  0.9213  3.5419 -0.9932
 7161SOL    HW232946   2.020   3.777   0.638  0.8796 -2.1624  0.2093
 7162SOL     OW32947   2.531   4.426   8.638  0.1689  0.5059  0.0243
 7162SOL    HW132948   2.447   4.465   8.663 -1.5372 -2.5533 -0.8599
 7162SOL    HW232949   2.558   4.385   8.720  1.3931  0.2568 -0.5041
 7163SOL     OW32950   0.111   3.836   7.769  0.6022 -0.0891  0.2065
 7163SOL    HW132951   0.169   3.776   7.722  0.1754  0.7421 -1.3649
 7163SOL    HW232952   0.144   3.917   7.730  0.4599 -0.4854 -0.7332
 7164SOL     OW32953   3.241   1.055  11.967 -0.4223 -0.1918  0.0013
 7164SOL    HW132954   3.195   1.114  11.908 -3.3261 -0.2862  2.1695
 7164SOL    HW232955   3.259   0.977  11.913 -0.4034 -0.9404  1.0918
 7165SOL     OW32956   4.108   0.136   7.108 -0.2148 -0.1457 -0.7393
 7165SOL    HW132957   4.164   0.208   7.138  2.1377 -1.6665 -1.5156
 7165SOL    HW232958   4.035   0.139   7.170  1.2015 -0.3021  0.9297
 7166SOL     OW32959   3.511   3.641  16.490  0.1274  0.3149  0.3117
 7166SOL    HW132960   3.428   3.686  16.480  0.2649  0.2787 -0.9725
 7166SOL    HW232961   3.533   3.657  16.582  3.0988  1.3516 -0.5809
 7167SOL     OW32962   0.744   2.109   4.475 -0.6207  0.4074 -0.2371
 7167SOL    HW132963   0.662   2.059   4.482 -0.6300  0.5229  0.4234
 7167SOL    HW232964   0.728   2.194   4.515 -0.0763 -0.0933  1.0170
 7168SOL     OW32965   1.311   2.802   2.421  0.4232 -0.3728 -0.1064
 7168SOL    HW132966   1.364   2.879   2.440  0.0529 -0.4761  1.3512
 7168SOL    HW232967   1.254   2.802   2.498  0.3222 -1.8977 -0.1734
 7169SOL     OW32968   1.882   3.095   1.623 -0.2143 -0.1510 -0.3351
 7169SOL    HW132969   1.872   3.123   1.532 -2.0197  1.1834  0.2886
 7169SOL    HW232970   1.824   3.021   1.641 -1.6708  1.3717  1.2113
 7170SOL     OW32971   0.003   3.170   3.396 -0.1554  0.2221 -0.0130
 7170SOL    HW132972   4.646   3.229   3.389 -0.3212  0.0458  0.2812
 7170SOL    HW232973   4.686   3.120   3.322  1.1446  1.6672 -1.6061
 7171SOL     OW32974   1.811   0.681   6.243 -0.0231  0.5687 -0.4178
 7171SOL    HW132975   1.893   0.633   6.239 -1.4567 -1.8750 -0.7078
 7171SOL    HW232976   1.843   0.766   6.274 -0.3425 -0.0016  1.5018
 7172SOL     OW32977   3.967   1.751  13.463  0.0471 -0.0759  0.5163
 7172SOL    HW132978   3.942   1.817  13.528  1.0678 -1.3451  2.2081
 7172SOL    HW232979   3.989   1.678  13.521 -1.2572 -0.2811  0.7614
 7173SOL     OW32980   3.305   3.859   4.148  0.5887  0.1087  0.3256
 7173SOL    HW132981   3.236   3.844   4.213 -0.1416 -1.6140 -0.8180
 7173SOL    HW232982   3.316   3.769   4.117 -1.7270  0.1277 -0.5600
 7174SOL     OW32983   2.091   1.831  11.968 -0.2671 -0.0903 -0.5709
 7174SOL    HW132984   2.155   1.799  11.904 -1.0566  0.4005 -1.6044
 7174SOL    HW232985   2.053   1.746  11.989  0.3889  0.0743  1.2500
 7175SOL     OW32986   1.360   0.391  16.612 -0.2651  0.3603 -0.3275
 7175SOL    HW132987   1.344   0.458  16.545 -2.8761  0.4086  0.3389
 7175SOL    HW232988   1.282   0.335  16.613  1.4769 -2.0625 -1.7845
 7176SOL     OW32989   3.488   2.155   6.853 -0.9839  0.2543 -0.9613
 7176SOL    HW132990   3.453   2.164   6.941  2.0375 -0.2660  0.3104
 7176SOL    HW232991   3.580   2.178   6.865 -1.6386  2.2370  0.0940
 7177SOL     OW32992   1.488   2.038   4.522  0.2827 -0.8973 -0.1173
 7177SOL    HW132993   1.544   2.071   4.593 -2.3843  2.6024  0.3866
 7177SOL    HW232994   1.443   1.966   4.566 -0.4756 -0.1856  0.2823
 7178SOL     OW32995   4.492   4.307   3.229 -0.0605  0.0198  0.4922
 7178SOL    HW132996   4.419   4.312   3.290 -0.2583 -1.1158  0.3423
 7178SOL    HW232997   4.461   4.356   3.153  0.8373  3.7813  2.5382
 7179SOL     OW32998   4.142   2.896  15.078  0.6900 -0.3781 -0.0269
 7179SOL    HW132999   4.089   2.824  15.043  1.1929  0.0825 -1.7546
 7179SOL    HW233000   4.221   2.896  15.024  0.9780  1.6270  0.4187
 7180SOL     OW33001   1.368   2.495  10.002  0.0861  0.0523 -0.1120
 7180SOL    HW133002   1.408   2.558   9.943  1.4961  1.0437  1.9091
 7180SOL    HW233003   1.349   2.418   9.949 -0.3141 -0.1635  0.3426
 7181SOL     OW33004   3.979   1.314   3.828 -0.3904  0.4939  0.2428
 7181SOL    HW133005   3.914   1.346   3.889 -0.6399  1.3856 -0.4887
 7181SOL    HW233006   4.019   1.235   3.864 -0.5405  0.7642  0.9983
 7182SOL     OW33007   3.525   1.986   8.728 -0.8417  0.5308  0.3916
 7182SOL    HW133008   3.512   1.976   8.822  0.8021 -0.8785  0.4714
 7182SOL    HW233009   3.485   2.071   8.711  1.3466  0.7812 -3.4132
 7183SOL     OW33010   0.491   1.783   8.948  0.2941  0.8966 -0.0394
 7183SOL    HW133011   0.483   1.822   9.035  2.7761  1.0398  0.1367
 7183SOL    HW233012   0.511   1.692   8.971 -2.2510  0.9852  2.4809
 7184SOL     OW33013   0.897   0.935   6.070 -0.5734  0.5518 -0.2932
 7184SOL    HW133014   0.951   0.983   6.008  1.1470 -0.7834  0.1628
 7184SOL    HW233015   0.948   0.858   6.094 -0.9574  0.4653  0.2629
 7185SOL     OW33016   0.653   1.104  16.552  0.2611  0.0547  0.4012
 7185SOL    HW133017   0.603   1.181  16.577 -1.5577 -1.9331  2.9046
 7185SOL    HW233018   0.612   1.075  16.470  0.5718  1.0788 -0.1154
 7186SOL     OW33019   2.554   1.967   2.272  0.5014 -0.3598 -0.0314
 7186SOL    HW133020   2.477   1.986   2.218  2.3501  0.5882 -2.3281
 7186SOL    HW233021   2.523   1.894   2.326 -0.6540  0.1586  0.0044
 7187SOL     OW33022   1.888   4.631   5.822  0.4110  0.0055 -0.3117
 7187SOL    HW133023   1.858   4.671   5.741 -1.3522 -1.4343 -0.3616
 7187SOL    HW233024   1.803   4.597   5.851 -0.9718  2.5911 -1.2581
 7188SOL     OW33025   3.333   2.615   4.104  0.2832  0.0977 -0.3276
 7188SOL    HW133026   3.350   2.631   4.197 -1.6520 -1.1623  0.2362
 7188SOL    HW233027   3.239   2.603   4.101 -0.0372  2.9924 -1.6856
 7189SOL     OW33028   2.645   2.693  14.514  0.0263 -0.2889  0.2534
 7189SOL    HW133029   2.685   2.665  14.432 -0.8668  1.2210 -0.7158
 7189SOL    HW233030   2.685   2.628  14.571  0.6479  1.7882  2.2073
 7190SOL     OW33031   3.638   4.035  13.586  0.1516 -0.3902  0.0561
 7190SOL    HW133032   3.560   4.068  13.542 -0.0463  0.2888  0.9072
 7190SOL    HW233033   3.704   4.046  13.518  2.5616 -2.4985  2.0366
 7191SOL     OW33034   4.205   2.162   3.822  0.1060  0.7745  0.1130
 7191SOL    HW133035   4.135   2.227   3.822 -0.1861  0.4448 -4.3478
 7191SOL    HW233036   4.235   2.155   3.731  0.1035  0.0571  0.1678
 7192SOL     OW33037   0.952   1.103   8.408  0.5070  0.2147 -0.8268
 7192SOL    HW133038   0.984   1.156   8.481  1.5276 -0.2929 -0.8939
 7192SOL    HW233039   1.014   1.030   8.409 -0.0391 -0.1803  1.9189
 7193SOL     OW33040   3.945   3.852   7.969  0.4151  0.4103  0.3130
 7193SOL    HW133041   4.027   3.899   7.953  0.5803  0.3691  1.0636
 7193SOL    HW233042   3.918   3.894   8.051  0.1010 -0.5049  0.6768
 7194SOL     OW33043   2.710   0.540   7.819 -0.4235 -0.2032  0.1090
 7194SOL    HW133044   2.720   0.519   7.911 -0.6288  0.6302  0.3198
 7194SOL    HW233045   2.802   0.531   7.793 -0.7816  1.8547 -1.9043
 7195SOL     OW33046   2.404   3.192  10.062  0.0054  0.6086  0.1983
 7195SOL    HW133047   2.447   3.269  10.024 -0.7680  1.0374  0.1742
 7195SOL    HW233048   2.401   3.139   9.983  1.5146  1.1144 -0.1854
 7196SOL     OW33049   3.548   1.281   8.032  0.6261 -0.9120  0.3705
 7196SOL    HW133050   3.584   1.232   8.106 -0.3776 -0.8562  0.8945
 7196SOL    HW233051   3.491   1.346   8.073  1.3994  0.1149 -0.2017
 7197SOL     OW33052   1.464   3.974   8.608  0.4083  0.0561 -0.1624
 7197SOL    HW133053   1.551   4.012   8.592 -0.2982  1.8247  0.2191
 7197SOL    HW233054   1.468   3.943   8.698 -2.4999  1.0318  0.2784
 7198SOL     OW33055   1.583   2.266   1.733 -0.1696  0.1576 -0.3732
 7198SOL    HW133056   1.662   2.315   1.711 -1.7008  3.2287  0.9102
 7198SOL    HW233057   1.619   2.178   1.728  1.1171  0.7006 -0.4774
 7199SOL     OW33058   0.821   2.649  11.416  0.3454 -0.1647  0.0415
 7199SOL    HW133059   0.818   2.686  11.328 -2.5237 -0.2127  0.1400
 7199SOL    HW233060   0.741   2.600  11.398  2.3121 -2.8075 -1.6711
 7200SOL     OW33061   4.452   0.253  10.302 -0.1625 -0.0543  0.0836
 7200SOL    HW133062   4.361   0.245  10.273 -0.1851  2.1471 -0.4328
 7200SOL    HW233063   4.438   0.222  10.392 -0.2397 -1.4516 -0.3970
 7201SOL     OW33064   1.149   3.292   8.576  0.2998  0.9107 -0.1543
 7201SOL    HW133065   1.085   3.313   8.644  1.7657  2.4314  0.7458
 7201SOL    HW233066   1.106   3.336   8.503 -1.3724 -0.9324 -0.2855
 7202SOL     OW33067   3.875   2.174   8.000 -0.1752  0.0815  0.1695
 7202SOL    HW133068   3.945   2.156   8.063  1.1243 -2.4120 -1.9544
 7202SOL    HW233069   3.890   2.109   7.931  0.7496  0.5402 -0.0605
 7203SOL     OW33070   4.419   0.491   3.447  0.2322 -0.2481 -0.1577
 7203SOL    HW133071   4.446   0.578   3.478 -0.2631 -0.5107  0.9955
 7203SOL    HW233072   4.432   0.503   3.353 -0.0409  1.7090  0.0395
 7204SOL     OW33073   1.328   4.452   2.837  0.3671 -0.3284  0.5366
 7204SOL    HW133074   1.358   4.496   2.758 -0.4603  1.7153  1.3669
 7204SOL    HW233075   1.258   4.512   2.863 -0.1520 -0.8765  0.4107
 7205SOL     OW33076   4.312   2.492   1.670 -0.0361  0.8314  0.3752
 7205SOL    HW133077   4.398   2.496   1.712 -0.2642  2.6429  0.6412
 7205SOL    HW233078   4.290   2.582   1.693 -3.3278 -0.6292  3.0422
 7206SOL     OW33079   1.974   0.716  13.709 -0.6553  0.2654 -0.1129
 7206SOL    HW133080   2.029   0.640  13.691 -0.6582 -0.0771  1.3184
 7206SOL    HW233081   1.942   0.722  13.619  0.3153  1.3874 -0.3894
 7207SOL     OW33082   1.487   3.834  16.689  0.0643 -0.0172  0.0079
 7207SOL    HW133083   1.536   3.896  16.635  1.4652 -1.6494 -0.5622
 7207SOL    HW233084   1.454   3.901  16.750  1.7157 -0.3325  1.2265
 7208SOL     OW33085   3.788   0.425   9.474 -0.1821  0.1582  0.2945
 7208SOL    HW133086   3.775   0.514   9.441  1.1366  0.5851  0.9044
 7208SOL    HW233087   3.731   0.371   9.420  2.0339  0.9846 -2.9076
 7209SOL     OW33088   3.046   0.836   7.060 -0.3776 -0.6249 -0.1636
 7209SOL    HW133089   3.093   0.761   7.097  1.0921 -0.2691 -1.2780
 7209SOL    HW233090   3.014   0.797   6.979  0.9016  0.9238 -1.4166
 7210SOL     OW33091   1.434   1.211   4.634 -0.2638  0.2187 -0.3104
 7210SOL    HW133092   1.464   1.248   4.550 -2.5279  2.3058 -0.2081
 7210SOL    HW233093   1.481   1.249   4.708 -3.2295  1.5034  0.9175
 7211SOL     OW33094   0.555   3.148  16.019 -0.0610 -0.1347 -0.0880
 7211SOL    HW133095   0.630   3.088  16.023  0.8209  0.9795 -0.1572
 7211SOL    HW233096   0.498   3.088  15.971 -1.4324  0.4022  0.8753
 7212SOL     OW33097   0.780   0.083  12.640 -0.6329 -0.5336  0.1552
 7212SOL    HW133098   0.751   0.025  12.711  2.8851 -2.4381  0.0444
 7212SOL    HW233099   0.788   0.164  12.690  2.0714 -0.2929 -0.6592
 7213SOL     OW33100   1.118   4.598   2.582 -0.3690 -0.1154  1.4228
 7213SOL    HW133101   1.129   4.504   2.602 -0.3410 -0.1042  1.4616
 7213SOL    HW233102   1.040   4.631   2.626 -0.2880  2.3728 -0.2861
 7214SOL     OW33103   4.598   3.005   8.622 -0.0536 -0.0133 -0.6215
 7214SOL    HW133104   4.669   2.963   8.672 -0.3600 -1.9478 -1.8133
 7214SOL    HW233105   4.657   3.071   8.586 -0.8122 -0.1904 -2.1872
 7215SOL     OW33106   2.103   3.570   9.408  0.4507 -0.1949  0.0438
 7215SOL    HW133107   2.193   3.585   9.380  0.4688  0.1124  0.2689
 7215SOL    HW233108   2.074   3.657   9.437 -0.7078 -1.0053  1.3480
 7216SOL     OW33109   0.485   0.708  15.167 -0.1504 -0.3714 -0.5091
 7216SOL    HW133110   0.525   0.791  15.194 -0.5579 -0.1131 -0.6891
 7216SOL    HW233111   0.541   0.669  15.100  0.4835 -1.5597  0.7043
 7217SOL     OW33112   2.805   3.784  16.025  0.1414  0.0545 -0.2383
 7217SOL    HW133113   2.764   3.807  15.941  2.3257  2.5260 -0.6375
 7217SOL    HW233114   2.840   3.699  16.001 -1.0674 -0.0103 -1.8245
 7218SOL     OW33115   2.584   3.115   9.507 -0.4545 -0.0818 -0.5252
 7218SOL    HW133116   2.675   3.114   9.479 -0.2593 -1.3539  0.1467
 7218SOL    HW233117   2.597   3.202   9.546 -0.8201  0.1145 -0.8383
 7219SOL     OW33118   2.809   0.853  13.469 -0.4493 -0.2256  0.3142
 7219SOL    HW133119   2.872   0.781  13.469 -0.6821 -0.4508  2.7217
 7219SOL    HW233120   2.863   0.911  13.524 -0.8979 -0.4948  1.0456
 7220SOL     OW33121   1.298   0.580   8.119  0.0916  0.3886  0.2584
 7220SOL    HW133122   1.309   0.519   8.191  2.7965 -0.7557 -1.1055
 7220SOL    HW233123   1.376   0.634   8.128  0.9561 -0.5047 -1.8020
 7221SOL     OW33124   0.668   3.829  10.672 -0.1263 -0.5146 -0.6451
 7221SOL    HW133125   0.580   3.842  10.635 -0.2071  2.1017  0.4732
 7221SOL    HW233126   0.696   3.739  10.653 -2.9225 -1.6739  0.7062
 7222SOL     OW33127   0.913   1.512   7.971 -0.2143  0.1109 -0.4196
 7222SOL    HW133128   0.918   1.481   8.062  1.0184  1.7582  0.0839
 7222SOL    HW233129   0.828   1.557   7.969 -0.9384 -1.1586  1.5166
 7223SOL     OW33130   2.999   1.637   8.752  0.4465 -0.2573  0.0717
 7223SOL    HW133131   3.016   1.639   8.658 -2.2146  1.1484 -0.3795
 7223SOL    HW233132   2.908   1.609   8.761 -0.5929  3.1065  0.0588
 7224SOL     OW33133   4.490   0.057   7.145 -0.4173 -0.7016 -0.5339
 7224SOL    HW133134   4.525   4.713   7.081  1.9413  1.9892 -1.8025
 7224SOL    HW233135   4.573   0.093   7.174 -1.2311 -0.0815  1.0224
 7225SOL     OW33136   1.870   2.721   6.662  0.1173  0.4369  0.3724
 7225SOL    HW133137   1.813   2.665   6.715  0.7274  0.6022  1.2048
 7225SOL    HW233138   1.920   2.775   6.723 -3.2176  1.8527  1.8820
 7226SOL     OW33139   0.918   3.714   2.809 -0.3575 -0.8450 -0.1782
 7226SOL    HW133140   0.962   3.786   2.762  0.5302 -0.1122  1.7727
 7226SOL    HW233141   0.941   3.638   2.756  2.7114  1.4220 -2.1172
 7227SOL     OW33142   2.056   2.409   4.088 -0.2659 -0.0788 -0.7616
 7227SOL    HW133143   2.089   2.346   4.024  1.3087 -1.3054  1.2292
 7227SOL    HW233144   2.131   2.420   4.147 -1.1034 -0.8840  0.4543
 7228SOL     OW33145   2.713   2.234  14.982  0.3737  0.2993  0.3878
 7228SOL    HW133146   2.639   2.268  15.031 -1.5292 -1.9356 -0.8921
 7228SOL    HW233147   2.719   2.313  14.928  0.3459  0.3281  0.4278
 7229SOL     OW33148   3.398   3.038   1.456 -0.1739  0.1169 -0.8914
 7229SOL    HW133149   3.422   3.041   1.364 -0.5460 -0.9717 -1.0274
 7229SOL    HW233150   3.328   3.101   1.475 -0.3782 -0.7571  1.2363
 7230SOL     OW33151   2.192   3.185   3.776 -0.0066 -0.5062 -0.1250
 7230SOL    HW133152   2.114   3.164   3.827 -0.0883  2.6992  1.0410
 7230SOL    HW233153   2.143   3.229   3.706 -1.0951 -0.7898  0.4687
 7231SOL     OW33154   1.417   2.091   7.238 -0.1663  0.1139  0.5123
 7231SOL    HW133155   1.349   2.158   7.236  0.0445  0.3201  0.1816
 7231SOL    HW233156   1.482   2.129   7.179 -0.2173 -2.1639 -1.0010
 7232SOL     OW33157   3.658   2.348   4.682  0.3941  0.2880 -0.8642
 7232SOL    HW133158   3.728   2.284   4.697  0.5791  0.2869 -1.7250
 7232SOL    HW233159   3.658   2.344   4.587 -0.3616 -1.0859 -0.8132
 7233SOL     OW33160   2.560   2.631   2.141 -0.7681 -0.6156 -0.0828
 7233SOL    HW133161   2.506   2.646   2.064 -1.6946  0.0156  0.6955
 7233SOL    HW233162   2.609   2.552   2.117  1.0442  0.0032  1.6319
 7234SOL     OW33163   1.258   1.052  17.205 -0.0009 -0.1147  0.5953
 7234SOL    HW133164   1.167   1.025  17.195 -0.5257  0.9849  2.2658
 7234SOL    HW233165   1.242   1.134  17.157 -1.7413 -1.0627 -0.4329
 7235SOL     OW33166   1.741   0.948  17.008 -0.7281 -0.3302  0.5952
 7235SOL    HW133167   1.675   0.914  17.068 -1.1600  1.6891  1.2464
 7235SOL    HW233168   1.686   0.958  16.930 -2.0137  0.6423  1.6370
 7236SOL     OW33169   2.476   0.106  17.571 -0.0372 -0.4660 -0.0643
 7236SOL    HW133170   2.391   0.121  17.613 -1.7839 -0.8046 -3.4196
 7236SOL    HW233171   2.435   0.084  17.487 -1.7529  0.2176  0.5833
 7237SOL     OW33172   0.175   0.633  13.891  0.4425  0.3972 -0.1314
 7237SOL    HW133173   0.211   0.722  13.889  2.1202 -0.3111 -1.4097
 7237SOL    HW233174   0.236   0.593  13.953  1.4323 -0.6440 -1.7736
 7238SOL     OW33175   1.179   4.001   8.273 -0.2262  0.0560 -0.3189
 7238SOL    HW133176   1.106   3.946   8.300 -0.4849  0.2280 -0.6651
 7238SOL    HW233177   1.252   3.958   8.317 -0.5311  0.8161  0.9128
 7239SOL     OW33178   0.698   1.216  15.510 -0.1429 -0.1258  0.5736
 7239SOL    HW133179   0.622   1.167  15.543 -1.4337  1.3059 -0.2736
 7239SOL    HW233180   0.668   1.303  15.486  1.2855  0.1528 -0.2093
 7240SOL     OW33181   4.558   1.010   8.682  0.1133  0.1001 -0.1854
 7240SOL    HW133182   4.494   0.991   8.750  0.0091  1.3235  0.0684
 7240SOL    HW233183   4.631   0.955   8.710  2.2144  2.5144 -0.9121
 7241SOL     OW33184   1.031   0.688   8.158 -0.0661  0.2566 -0.2071
 7241SOL    HW133185   1.125   0.675   8.144  0.1923  1.9511  0.0335
 7241SOL    HW233186   1.004   0.603   8.194 -3.1970  0.5936 -1.7600
 7242SOL     OW33187   0.497   1.575  13.151  0.2631 -0.0356 -0.2806
 7242SOL    HW133188   0.412   1.573  13.196  0.9601 -0.6481  1.0012
 7242SOL    HW233189   0.536   1.510  13.209  0.0465  1.0147  1.0433
 7243SOL     OW33190   3.837   2.219   1.725  0.8734  0.2799 -0.2971
 7243SOL    HW133191   3.747   2.220   1.692  1.1157 -0.0992 -0.9804
 7243SOL    HW233192   3.852   2.312   1.741  0.9960  0.0457  0.9531
 7244SOL     OW33193   3.790   0.905   0.350 -0.0623  0.5521 -0.2175
 7244SOL    HW133194   3.852   0.931   0.419  0.3186  1.7364 -1.0015
 7244SOL    HW233195   3.710   0.888   0.399  0.6225 -0.5759  0.5043
 7245SOL     OW33196   3.851   0.661  16.802 -0.0471 -0.4384  0.5161
 7245SOL    HW133197   3.787   0.594  16.781 -0.8373  0.2509  0.7380
 7245SOL    HW233198   3.814   0.727  16.743 -1.6265 -1.0406  0.8462
 7246SOL     OW33199   2.757   1.558   7.538 -0.3106  0.7187  0.6056
 7246SOL    HW133200   2.794   1.646   7.532  2.5710 -0.6257 -1.3292
 7246SOL    HW233201   2.674   1.567   7.490 -0.8693 -0.7808  1.2537
 7247SOL     OW33202   1.520   2.891   6.478 -0.4374  0.0910  0.4353
 7247SOL    HW133203   1.451   2.904   6.544  0.7193 -0.7318  1.8047
 7247SOL    HW233204   1.596   2.932   6.519  0.5298  0.0229 -1.2976
 7248SOL     OW33205   1.689   3.034   4.480 -0.1840 -0.3152  0.1453
 7248SOL    HW133206   1.637   2.975   4.426 -0.0681  0.6558 -1.0218
 7248SOL    HW233207   1.630   3.105   4.504  3.0514  2.2232  0.6245
 7249SOL     OW33208   2.361   0.178   3.001  0.1054 -0.8938  0.6403
 7249SOL    HW133209   2.292   0.225   2.953  2.0572  0.8351 -0.4642
 7249SOL    HW233210   2.428   0.244   3.018 -1.9615  1.3181  0.3572
 7250SOL     OW33211   1.136   3.849  16.176  0.1238 -0.1401 -0.0425
 7250SOL    HW133212   1.094   3.858  16.090  2.4426  0.0550 -1.1740
 7250SOL    HW233213   1.096   3.924  16.219  1.5040  0.7034 -0.2052
 7251SOL     OW33214   3.807   4.163  14.758  0.8692 -0.4279 -0.3580
 7251SOL    HW133215   3.816   4.080  14.806  1.9883  0.3746  0.8090
 7251SOL    HW233216   3.899   4.172  14.736  0.5796 -0.1847 -1.4604
 7252SOL     OW33217   2.656   3.018   3.387 -0.0892  0.4757  0.0079
 7252SOL    HW133218   2.727   2.993   3.329 -0.4831  0.4902 -0.4815
 7252SOL    HW233219   2.690   3.101   3.421  0.5667 -0.5892  1.9113
 7253SOL     OW33220   0.553   3.545  12.602  0.5175 -0.1750  0.0500
 7253SOL    HW133221   0.600   3.511  12.525  0.0865  0.2081 -0.3782
 7253SOL    HW233222   0.491   3.605  12.560 -0.6428 -2.1777 -1.0989
 7254SOL     OW33223   3.438   1.374   3.243 -0.1870  0.7351  0.2638
 7254SOL    HW133224   3.474   1.424   3.317  0.8411  2.2331 -1.2468
 7254SOL    HW233225   3.504   1.305   3.237  0.0061  1.1857 -2.4673
 7255SOL     OW33226   3.933   4.549   3.706 -0.2362 -0.3541  0.0523
 7255SOL    HW133227   3.864   4.579   3.647 -0.1333  2.0167  1.1249
 7255SOL    HW233228   3.954   4.632   3.750 -1.9222 -0.6212  1.3775
 7256SOL     OW33229   1.154   0.165   5.522  0.6153  0.3642  0.3675
 7256SOL    HW133230   1.151   0.116   5.440 -1.1169 -1.1151  1.3113
 7256SOL    HW233231   1.239   0.140   5.556  0.6341  2.8828  2.2372
 7257SOL     OW33232   0.353   1.494   0.160  0.0443  0.2371  0.0584
 7257SOL    HW133233   0.362   1.571   0.104  1.4694  2.0746  2.8322
 7257SOL    HW233234   0.443   1.477   0.188 -0.0729 -1.4872 -0.6334
 7258SOL     OW33235   4.670   1.696   6.351  0.5237  0.3043 -0.3697
 7258SOL    HW133236   4.669   1.601   6.362  2.3000  0.3568  0.2645
 7258SOL    HW233237   0.046   1.716   6.344  0.5171  0.4249 -0.1108
 7259SOL     OW33238   1.698   0.540  11.883 -0.0206  0.1439 -0.6467
 7259SOL    HW133239   1.623   0.581  11.840  1.0904  3.8893  0.9810
 7259SOL    HW233240   1.656   0.490  11.953  4.0352 -2.3799  0.0110
 7260SOL     OW33241   2.147   0.141   6.995 -0.0562 -0.2743 -0.5857
 7260SOL    HW133242   2.241   0.136   6.975  0.1780 -0.4075  0.5733
 7260SOL    HW233243   2.123   0.229   6.965 -1.2125 -1.5658 -3.4100
 7261SOL     OW33244   4.185   3.348   2.801 -0.2162  0.0272 -0.2815
 7261SOL    HW133245   4.157   3.261   2.772 -0.5017  0.3572 -0.9924
 7261SOL    HW233246   4.233   3.379   2.725  0.4329  0.2952  0.2393
 7262SOL     OW33247   4.384   2.973   6.417 -0.5182 -0.5824 -0.4558
 7262SOL    HW133248   4.392   3.066   6.396  0.4839 -0.2081  1.6067
 7262SOL    HW233249   4.421   2.974   6.505  0.4936  0.8518 -0.8905
 7263SOL     OW33250   0.621   3.497   1.489 -0.3151 -0.0555 -0.3764
 7263SOL    HW133251   0.530   3.501   1.517 -0.1146  0.3020  0.2127
 7263SOL    HW233252   0.615   3.451   1.405  0.1901 -0.5018 -0.1635
 7264SOL     OW33253   2.004   0.288   3.312  0.0320  0.3706 -0.6015
 7264SOL    HW133254   2.040   0.331   3.389 -0.2572  0.4433 -0.5083
 7264SOL    HW233255   1.911   0.280   3.331  0.4170  0.2600  1.2016
 7265SOL     OW33256   3.318   4.458   6.658 -0.1327 -0.5875 -0.1005
 7265SOL    HW133257   3.410   4.467   6.680 -0.0122 -0.6518 -0.5958
 7265SOL    HW233258   3.302   4.452   6.564 -1.1162 -1.3107  0.1090
 7266SOL     OW33259   3.344   0.436   8.121 -0.5214 -0.8193  0.2342
 7266SOL    HW133260   3.400   0.506   8.155 -0.2497 -1.0490  0.2568
 7266SOL    HW233261   3.281   0.487   8.070  0.5205  1.3281  1.0742
 7267SOL     OW33262   2.981   4.708   4.774  0.3326  0.1623 -0.0683
 7267SOL    HW133263   2.949   4.619   4.788  0.5544  0.2178  0.7927
 7267SOL    HW233264   2.903   0.043   4.755  0.1396 -1.8168 -4.7776
 7268SOL     OW33265   2.972   2.630   3.823  0.3239 -0.2376 -0.1063
 7268SOL    HW133266   3.067   2.622   3.814  0.1195 -1.7535 -1.0361
 7268SOL    HW233267   2.974   2.619   3.918  1.7499  0.5232 -0.0412
 7269SOL     OW33268   3.869   1.003   3.369 -0.2759 -0.0822 -0.6081
 7269SOL    HW133269   3.823   0.920   3.385  0.3996 -0.0867  1.2527
 7269SOL    HW233270   3.960   0.985   3.390 -1.0896 -1.7525  1.4606
 7270SOL     OW33271   4.028   2.832   5.877  0.3113 -0.5320 -0.1027
 7270SOL    HW133272   4.112   2.793   5.850  0.1503 -1.2563  0.4465
 7270SOL    HW233273   4.049   2.899   5.942 -1.3923 -1.1415  1.0583
 7271SOL     OW33274   4.710   1.092   4.319 -0.2490  0.0724 -0.3785
 7271SOL    HW133275   4.636   1.104   4.378 -1.2887 -2.1202 -1.2570
 7271SOL    HW233276   0.068   1.083   4.376 -1.0618  2.1577  1.0342
 7272SOL     OW33277   2.589   3.107   3.947 -0.0686 -0.1830  0.1109
 7272SOL    HW133278   2.657   3.157   3.991 -1.7783  2.9571 -0.8083
 7272SOL    HW233279   2.621   3.098   3.858  0.3777 -3.1045  0.5713
 7273SOL     OW33280   0.248   4.372   7.750 -0.6183 -0.3126  0.6152
 7273SOL    HW133281   0.283   4.459   7.731  1.6603 -0.7541  2.8004
 7273SOL    HW233282   0.323   4.313   7.745  0.5245  1.2126 -0.0422
 7274SOL     OW33283   3.746   1.074   1.044 -0.2600  0.1973  0.0841
 7274SOL    HW133284   3.840   1.092   1.046 -0.5090  1.6844 -0.8664
 7274SOL    HW233285   3.718   1.158   1.083  3.9071  2.1922 -1.2560
 7275SOL     OW33286   1.928   0.008   8.506  0.1639 -0.3061  0.1748
 7275SOL    HW133287   2.023   0.024   8.508 -0.1044  1.2924  0.4967
 7275SOL    HW233288   1.934   4.633   8.482 -0.7104  0.0167 -1.2646
 7276SOL     OW33289   1.463   0.407  13.364  0.2334  0.5686  0.6675
 7276SOL    HW133290   1.410   0.446  13.434 -1.7573 -0.5743 -0.2227
 7276SOL    HW233291   1.524   0.475  13.337 -0.6466  0.2549 -2.0620
 7277SOL     OW33292   3.159   1.697   4.554 -0.3826  0.3131  1.0922
 7277SOL    HW133293   3.162   1.630   4.486  1.4429  2.4120 -0.8591
 7277SOL    HW233294   3.066   1.717   4.541 -0.8101 -2.4784 -0.1887
 7278SOL     OW33295   2.861   2.899   8.267  0.1768  0.4080  0.4744
 7278SOL    HW133296   2.911   2.901   8.349  1.0525  0.8123 -0.0706
 7278SOL    HW233297   2.820   2.813   8.275 -0.0919  0.5709  0.8199
 7279SOL     OW33298   3.546   2.766  12.999 -0.0505  0.2468 -0.3270
 7279SOL    HW133299   3.566   2.730  12.913  1.6757 -0.3740  0.3286
 7279SOL    HW233300   3.550   2.859  12.974  1.2851 -0.2517 -1.9639
 7280SOL     OW33301   0.866   4.354  15.392 -0.1071  0.0095 -0.5680
 7280SOL    HW133302   0.802   4.325  15.327 -2.6363 -0.5797  2.1686
 7280SOL    HW233303   0.822   4.309  15.465  0.2133 -0.5181 -0.6969
 7281SOL     OW33304   1.971   0.710   2.688  0.7671 -0.4632  0.0761
 7281SOL    HW133305   2.040   0.773   2.665 -0.1986 -0.0915 -1.8637
 7281SOL    HW233306   2.033   0.636   2.692  0.6348 -0.4399  2.1368
 7282SOL     OW33307   1.164   1.829  16.952  0.2291 -0.4857 -0.0250
 7282SOL    HW133308   1.166   1.911  16.902 -2.0989  0.7505  1.8966
 7282SOL    HW233309   1.218   1.774  16.895 -0.6444 -2.6510  1.2526
 7283SOL     OW33310   4.535   0.712   5.036  0.0519  0.7985 -0.4112
 7283SOL    HW133311   4.533   0.624   4.998 -2.3853  0.6155  0.1039
 7283SOL    HW233312   4.527   0.690   5.129  0.3875 -0.4242 -0.6696
 7284SOL     OW33313   1.113   1.912   5.940  0.0429 -0.8332 -0.0050
 7284SOL    HW133314   1.024   1.943   5.956  0.8236  1.2651  0.2669
 7284SOL    HW233315   1.141   1.997   5.905 -1.0898  0.6569  2.6835
 7285SOL     OW33316   3.104   4.476   7.698  0.0766 -0.1559 -0.6194
 7285SOL    HW133317   3.137   4.453   7.612  1.6759 -1.3664  0.3232
 7285SOL    HW233318   3.060   4.556   7.668  0.3500  0.3702  0.3771
 7286SOL     OW33319   0.384   1.255   6.318 -0.3172  0.5422 -0.0611
 7286SOL    HW133320   0.436   1.192   6.367  0.9342  1.5187 -0.1530
 7286SOL    HW233321   0.446   1.319   6.283 -0.8532  1.7797  1.2384
 7287SOL     OW33322   0.967   2.295   5.631 -0.3421  0.2836  0.0975
 7287SOL    HW133323   1.052   2.337   5.621  0.9347 -2.8288 -2.0712
 7287SOL    HW233324   0.912   2.354   5.580 -0.5253  0.0571  0.0332
 7288SOL     OW33325   4.602   3.847   7.363 -0.0701 -0.3350  0.0433
 7288SOL    HW133326   4.533   3.789   7.394 -0.2078  0.8478  1.9939
 7288SOL    HW233327   4.619   3.895   7.444  0.3231  0.5155 -0.5445
 7289SOL     OW33328   0.683   0.086   3.138 -0.5994  0.2789  0.0871
 7289SOL    HW133329   0.665   0.163   3.193 -3.0005  0.1500 -0.5258
 7289SOL    HW233330   0.619   0.028   3.179 -1.0574  0.4292 -0.4032
 7290SOL     OW33331   1.419   2.366   1.936 -0.7172  0.0392 -0.3482
 7290SOL    HW133332   1.461   2.318   1.865  0.7254  0.7379  0.0275
 7290SOL    HW233333   1.415   2.302   2.007  1.1232  0.4865  0.1434
 7291SOL     OW33334   3.730   3.668  10.651 -0.4465 -0.1637  0.2237
 7291SOL    HW133335   3.772   3.718  10.721  2.1213 -1.8793 -0.0761
 7291SOL    HW233336   3.655   3.633  10.700  0.3123 -1.0574  0.7685
 7292SOL     OW33337   0.880   4.437  14.113  0.2026 -0.0978 -0.3058
 7292SOL    HW133338   0.972   4.453  14.095  0.5630 -0.2467  1.4282
 7292SOL    HW233339   0.843   4.525  14.114  1.5682  0.4719 -0.5452
 7293SOL     OW33340   0.479   1.536   2.133  0.0460 -0.2811 -0.0178
 7293SOL    HW133341   0.569   1.555   2.161 -0.2864 -0.8700  1.4605
 7293SOL    HW233342   0.452   1.620   2.096  2.3156 -0.1505 -1.3730
 7294SOL     OW33343   0.945   1.736   8.144 -0.4259 -0.0000 -0.3391
 7294SOL    HW133344   0.896   1.764   8.222  0.3545 -0.5645  0.3519
 7294SOL    HW233345   0.869   1.700   8.098 -1.5076  1.6147  0.1642
 7295SOL     OW33346   1.979   1.006   3.439 -0.0647  0.7991 -0.2250
 7295SOL    HW133347   2.046   1.074   3.449  0.2039  0.4653  0.2142
 7295SOL    HW233348   1.905   1.052   3.398 -0.6789 -1.1077 -1.2422
 7296SOL     OW33349   4.636   1.777  16.083 -0.2104 -0.1386 -0.4692
 7296SOL    HW133350   4.713   1.727  16.111  0.0800  0.9085  0.5751
 7296SOL    HW233351   4.598   1.732  16.007 -0.2246 -1.1469  0.1377
 7297SOL     OW33352   0.463   1.784   3.843  0.1089  0.2598 -0.5815
 7297SOL    HW133353   0.451   1.717   3.776  1.4505 -2.6890  2.1824
 7297SOL    HW233354   0.437   1.869   3.806  0.6157  0.0972 -1.3118
 7298SOL     OW33355   4.149   4.709   0.008 -0.0260 -0.2216 -0.4451
 7298SOL    HW133356   4.132   0.060   0.072  2.7038  0.4810 -0.4460
 7298SOL    HW233357   4.240   4.692   0.034 -0.2996 -2.5720 -1.0381
 7299SOL     OW33358   1.614   2.580   1.563 -0.5597  0.2904  0.4290
 7299SOL    HW133359   1.664   2.520   1.617 -0.1609 -0.2625 -0.5556
 7299SOL    HW233360   1.686   2.643   1.556 -2.3442  2.2887 -0.3152
 7300SOL     OW33361   2.310   2.156   2.390 -0.3380 -0.3390 -0.0554
 7300SOL    HW133362   2.284   2.094   2.322 -1.2104  1.2825 -1.2061
 7300SOL    HW233363   2.373   2.209   2.341 -0.4249  0.4251  0.6639
 7301SOL     OW33364   4.307   0.681   4.687 -0.0619 -0.3174  0.4510
 7301SOL    HW133365   4.322   0.747   4.754  0.2398 -0.1980  0.2612
 7301SOL    HW233366   4.212   0.683   4.675  0.1043 -0.7081 -0.9418
 7302SOL     OW33367   3.375   3.186  16.279  0.2165 -0.4877 -0.3309
 7302SOL    HW133368   3.380   3.253  16.347  4.1591  0.1832 -1.2753
 7302SOL    HW233369   3.355   3.238  16.201  0.7865  2.5228  1.5409
 7303SOL     OW33370   3.194   3.688   3.524  0.6412 -0.3049  0.1164
 7303SOL    HW133371   3.165   3.775   3.495  1.6163  0.1101  0.3957
 7303SOL    HW233372   3.159   3.641   3.449  2.1457  0.1318 -0.8604
 7304SOL     OW33373   3.784   4.362  15.622 -0.4852 -0.4005  0.4550
 7304SOL    HW133374   3.842   4.360  15.698  0.6173  0.1865 -0.3586
 7304SOL    HW233375   3.777   4.270  15.599 -0.9866 -0.4156  0.6768
 7305SOL     OW33376   1.255   3.129   1.008 -0.6455 -0.1303 -0.1928
 7305SOL    HW133377   1.288   3.053   1.056  0.3615  0.9309  0.7833
 7305SOL    HW233378   1.309   3.127   0.929 -0.7617 -2.9707 -0.2034
 7306SOL     OW33379   4.086   2.818   8.388  0.2881 -0.4300 -0.2790
 7306SOL    HW133380   4.018   2.796   8.451 -0.6894  1.2262 -0.7373
 7306SOL    HW233381   4.145   2.743   8.393 -0.5883 -1.0511  0.5910
 7307SOL     OW33382   0.183   1.834   6.960 -0.5471  0.3698  0.2135
 7307SOL    HW133383   0.211   1.781   7.034 -0.0136  0.7319  0.2683
 7307SOL    HW233384   0.133   1.897   7.011 -0.6677  1.8407 -1.7209
 7308SOL     OW33385   2.654   1.904   0.505 -0.0582 -0.8603 -0.4861
 7308SOL    HW133386   2.734   1.869   0.544  0.3602  1.3698  0.6701
 7308SOL    HW233387   2.592   1.836   0.529  0.8644 -1.2698  0.7308
 7309SOL     OW33388   0.744   4.392  12.231 -0.0661 -0.1305  0.3542
 7309SOL    HW133389   0.774   4.457  12.168 -0.0487 -0.6027 -0.1173
 7309SOL    HW233390   0.666   4.355  12.189  0.7056 -2.6343  1.1063
 7310SOL     OW33391   4.559   3.191  17.571  0.3783  0.1774  0.0971
 7310SOL    HW133392   4.487   3.197  17.633 -1.6033 -2.6252 -1.9026
 7310SOL    HW233393   4.532   3.107  17.533 -0.6244  0.5959 -0.1080
 7311SOL     OW33394   1.131   0.013   4.635 -0.0469 -0.6738  0.4300
 7311SOL    HW133395   1.081   0.070   4.576 -0.6351 -1.4794  0.1623
 7311SOL    HW233396   1.105   0.046   4.721  0.9604 -0.4175  0.6438
 7312SOL     OW33397   0.414   3.482   4.967 -0.2677  1.0066  0.0233
 7312SOL    HW133398   0.327   3.490   5.004 -0.4391 -1.0153  0.0345
 7312SOL    HW233399   0.401   3.488   4.872 -1.1511  0.5368  0.1165
 7313SOL     OW33400   0.649   1.015   6.966  0.1336  0.1108 -0.1140
 7313SOL    HW133401   0.625   1.108   6.963 -0.4686  0.0416  2.2922
 7313SOL    HW233402   0.745   1.010   6.966  0.1311  0.3184 -3.0999
 7314SOL     OW33403   3.558   0.816  16.325  0.0358  0.0888 -0.3399
 7314SOL    HW133404   3.536   0.845  16.237 -0.2207 -3.8999 -1.5566
 7314SOL    HW233405   3.483   0.761  16.350  0.1365  0.5795  1.1027
 7315SOL     OW33406   1.527   0.559   1.174 -0.2035  0.0877 -0.1627
 7315SOL    HW133407   1.517   0.464   1.172 -0.7329  0.0801  3.4087
 7315SOL    HW233408   1.620   0.558   1.198 -0.1118 -0.7347 -0.5817
 7316SOL     OW33409   1.755   2.376   4.031 -0.0239  0.0954 -0.2160
 7316SOL    HW133410   1.824   2.314   4.009 -0.3133  0.0032 -0.8499
 7316SOL    HW233411   1.708   2.381   3.948 -0.3517  1.7256  0.0746
 7317SOL     OW33412   4.485   2.675  15.871  0.2701 -0.0988  0.1163
 7317SOL    HW133413   4.491   2.587  15.836 -0.5400  0.1874 -0.7540
 7317SOL    HW233414   4.545   2.710  15.805 -0.2650 -0.2635 -0.4586
 7318SOL     OW33415   3.265   2.855   5.619 -0.0451  0.2591  0.3317
 7318SOL    HW133416   3.341   2.798   5.624 -0.4428 -0.4597 -1.8578
 7318SOL    HW233417   3.261   2.909   5.698  0.7936  1.0049 -0.1303
 7319SOL     OW33418   3.086   3.318   5.257  0.2046  0.1260 -0.2334
 7319SOL    HW133419   3.114   3.410   5.257  0.8382 -0.0688  0.5222
 7319SOL    HW233420   3.082   3.305   5.352  0.3767 -1.4379 -0.4351
 7320SOL     OW33421   2.450   2.906   8.389 -0.2668  0.2737  0.1058
 7320SOL    HW133422   2.502   2.870   8.460  2.1633 -0.3306 -2.0028
 7320SOL    HW233423   2.440   2.833   8.328 -0.9360  0.3181  0.1615
 7321SOL     OW33424   3.236   0.691  13.791 -0.2364 -0.3759 -0.1386
 7321SOL    HW133425   3.286   0.730  13.863 -0.7063 -2.0351  1.0779
 7321SOL    HW233426   3.240   0.760  13.724  0.2302 -0.1591  0.1146
 7322SOL     OW33427   2.105   1.572   6.693  0.5310  0.8693  0.0380
 7322SOL    HW133428   2.020   1.533   6.713 -0.2607  2.5275 -0.0959
 7322SOL    HW233429   2.149   1.584   6.777  2.2103 -0.2659 -0.6900
 7323SOL     OW33430   2.893   2.867   4.001 -0.6821 -0.3421  0.5781
 7323SOL    HW133431   2.843   2.814   4.063 -0.8564  1.6896  2.1857
 7323SOL    HW233432   2.926   2.937   4.057 -3.9100 -0.2060  2.2840
 7324SOL     OW33433   1.569   0.363   3.814  0.0396 -0.4150  0.6621
 7324SOL    HW133434   1.519   0.317   3.747 -0.2953 -0.1628  0.7416
 7324SOL    HW233435   1.529   0.450   3.816  0.9539  0.0299 -0.9690
 7325SOL     OW33436   3.175   1.304   3.064 -0.6660  0.6075 -0.1368
 7325SOL    HW133437   3.125   1.302   2.983 -0.1008  1.6668 -0.5103
 7325SOL    HW233438   3.180   1.399   3.055 -2.9251  0.6481 -1.0531
 7326SOL     OW33439   1.680   2.579  13.808  0.0876  0.1302  0.0442
 7326SOL    HW133440   1.626   2.566  13.886  1.4654  0.3931  1.0611
 7326SOL    HW233441   1.619   2.551  13.741  1.0944 -1.8672 -0.0357
 7327SOL     OW33442   0.449   2.499  16.474 -0.1409 -0.8578 -0.9333
 7327SOL    HW133443   0.534   2.460  16.493  0.3105  1.4587  1.7586
 7327SOL    HW233444   0.441   2.503  16.378 -2.8921  1.5678 -0.5936
 7328SOL     OW33445   2.557   0.373   4.184  0.4181  0.2578 -0.2181
 7328SOL    HW133446   2.541   0.467   4.178  2.8168  0.6565 -0.3465
 7328SOL    HW233447   2.652   0.372   4.173  0.5243 -2.5423  1.0157
 7329SOL     OW33448   3.141   4.073  16.292 -1.1364 -0.3910 -0.4067
 7329SOL    HW133449   3.067   4.019  16.264 -0.2371 -2.8483  1.9991
 7329SOL    HW233450   3.151   4.125  16.212  2.3395 -0.7590 -0.2104
 7330SOL     OW33451   1.197   1.462   8.834 -0.7989 -0.5389 -0.7809
 7330SOL    HW133452   1.270   1.523   8.849  0.1262 -1.6113 -0.9146
 7330SOL    HW233453   1.149   1.467   8.917  0.0175 -0.8604 -0.2835
 7331SOL     OW33454   4.623   2.855  10.888 -0.6069  0.1776  0.2466
 7331SOL    HW133455   4.696   2.819  10.939 -0.3173  1.8004  0.9645
 7331SOL    HW233456   4.667   2.936  10.863 -0.2991  0.6387  2.3254
 7332SOL     OW33457   0.021   4.190   5.662 -0.3708 -0.0492  0.1006
 7332SOL    HW133458   0.038   4.248   5.736  1.4507  1.4705 -1.4878
 7332SOL    HW233459   0.000   4.102   5.691  0.4216 -0.4406 -0.5290
 7333SOL     OW33460   0.723   0.840   2.969 -0.2274 -0.0831 -0.4876
 7333SOL    HW133461   0.685   0.925   2.944 -0.6827  0.2379  1.3175
 7333SOL    HW233462   0.781   0.822   2.895 -1.0804 -0.1065 -1.1565
 7334SOL     OW33463   1.894   2.109   7.284  0.1691 -0.2704  0.0133
 7334SOL    HW133464   1.896   2.179   7.218  1.1082  0.6314  1.0076
 7334SOL    HW233465   1.805   2.121   7.319  0.0046 -0.0778 -0.4677
 7335SOL     OW33466   2.617   2.312   7.522 -0.2587  0.2531 -0.1455
 7335SOL    HW133467   2.688   2.364   7.560 -0.8297  0.4598  0.6464
 7335SOL    HW233468   2.637   2.228   7.563  0.6725 -0.0446 -1.2098
 7336SOL     OW33469   3.516   2.251   3.360  0.7780 -0.0969 -1.1359
 7336SOL    HW133470   3.466   2.171   3.377  2.1849 -0.5148  1.0421
 7336SOL    HW233471   3.472   2.276   3.278 -1.1927  4.3928  1.3327
 7337SOL     OW33472   0.458   1.148  10.055  0.2838  0.1392  0.1987
 7337SOL    HW133473   0.453   1.243  10.050 -1.4724  0.0053 -0.4012
 7337SOL    HW233474   0.456   1.143  10.150  0.7239 -0.2843  0.1865
 7338SOL     OW33475   3.935   1.462   5.267 -0.2667 -0.5930 -0.0122
 7338SOL    HW133476   3.844   1.490   5.271  0.5399  2.2058 -1.2171
 7338SOL    HW233477   3.971   1.498   5.186  0.0977 -3.0163 -0.9292
 7339SOL     OW33478   4.467   3.437  16.732  0.1140  0.0406  0.3053
 7339SOL    HW133479   4.522   3.385  16.673 -1.3779 -1.9652  0.6582
 7339SOL    HW233480   4.534   3.505  16.735  2.8600 -2.6490  0.7403
 7340SOL     OW33481   2.891   2.873   3.465 -0.0460  0.5876  0.4377
 7340SOL    HW133482   2.797   2.868   3.484 -0.0112  1.1762  0.7695
 7340SOL    HW233483   2.921   2.935   3.531 -0.0189 -0.8565  1.7838
 7341SOL     OW33484   3.604   1.391  10.778  0.2026  0.1259 -0.1255
 7341SOL    HW133485   3.582   1.345  10.859  1.2918  0.0693  0.1282
 7341SOL    HW233486   3.518   1.432  10.763  0.7331  1.4402  0.4539
 7342SOL     OW33487   3.259   3.757  10.526  0.1094 -0.0780 -0.0435
 7342SOL    HW133488   3.354   3.755  10.513 -0.0332 -0.6913 -0.9476
 7342SOL    HW233489   3.227   3.668  10.518 -1.2189  0.1893  2.4958
 7343SOL     OW33490   3.496   3.096   3.947 -0.6049 -0.1183 -0.5346
 7343SOL    HW133491   3.469   3.014   3.905 -0.7301 -0.6878  0.6549
 7343SOL    HW233492   3.563   3.125   3.885 -0.2319  1.3556  0.5516
 7344SOL     OW33493   4.555   0.682   5.320 -0.2103  0.7731 -0.1191
 7344SOL    HW133494   4.632   0.631   5.345 -0.7158  0.0715 -0.0004
 7344SOL    HW233495   4.539   0.730   5.401 -0.0350  0.6273  0.0010
 7345SOL     OW33496   0.283   0.458  12.731  0.3481 -0.2385 -0.2520
 7345SOL    HW133497   0.296   0.507  12.813 -2.3993 -1.1112  0.6748
 7345SOL    HW233498   0.336   0.381  12.753  1.0250  0.4193  0.4629
 7346SOL     OW33499   0.451   0.360  11.503  0.0726 -0.0753 -0.4812
 7346SOL    HW133500   0.368   0.397  11.471  0.9554  0.9951 -1.5226
 7346SOL    HW233501   0.481   0.313  11.425  1.4518  0.5319 -0.3164
 7347SOL     OW33502   0.968   1.166  11.416 -0.1508 -0.2398 -0.4651
 7347SOL    HW133503   1.018   1.245  11.436 -0.4422 -0.7079  2.1220
 7347SOL    HW233504   1.021   1.121  11.350  0.9813  1.7279 -0.8879
 7348SOL     OW33505   4.439   4.590   5.891  0.6024  0.4779  0.9141
 7348SOL    HW133506   4.371   4.643   5.849  0.1643  0.9023  2.1657
 7348SOL    HW233507   4.402   4.505   5.868  1.4299  0.7652 -1.5370
 7349SOL     OW33508   2.586   3.182   7.857  0.5303 -0.1678  0.2604
 7349SOL    HW133509   2.619   3.167   7.946 -1.0683 -1.8838  0.5749
 7349SOL    HW233510   2.537   3.262   7.873 -1.2690 -0.4857 -3.6839
 7350SOL     OW33511   2.663   0.994   3.877  0.3342  0.4578  0.0732
 7350SOL    HW133512   2.703   1.003   3.790  0.5377 -1.7842 -0.0593
 7350SOL    HW233513   2.723   0.943   3.931  1.3474 -0.0339 -1.5366
 7351SOL     OW33514   0.128   4.195  17.399 -0.3111 -0.1142  0.2359
 7351SOL    HW133515   0.201   4.146  17.362 -1.1225 -0.2517 -1.1869
 7351SOL    HW233516   0.053   4.172  17.344 -0.0007  0.7990 -0.5657
 7352SOL     OW33517   3.770   3.283   8.597 -0.0779  0.2572 -0.1956
 7352SOL    HW133518   3.811   3.198   8.612  0.6409  0.5075 -0.7354
 7352SOL    HW233519   3.852   3.332   8.602  0.0929 -0.0913  0.3857
 7353SOL     OW33520   1.939   1.734  15.035  0.4959 -0.1681 -0.3830
 7353SOL    HW133521   1.951   1.789  14.958 -1.6054  0.7070 -0.0653
 7353SOL    HW233522   1.899   1.656  14.998 -0.2863  0.1860 -0.2754
 7354SOL     OW33523   4.025   0.309   7.421 -0.1710 -0.4807  0.7190
 7354SOL    HW133524   3.984   0.231   7.385 -2.3444  0.8589  0.2428
 7354SOL    HW233525   3.996   0.381   7.364  0.0492 -1.0161 -0.0589
 7355SOL     OW33526   1.181   3.602   5.564 -0.2017 -0.1696  0.0773
 7355SOL    HW133527   1.247   3.592   5.632  2.0761 -0.1185 -2.1080
 7355SOL    HW233528   1.182   3.697   5.558 -0.7122 -0.1512  0.3373
 7356SOL     OW33529   2.876   3.685  17.598  0.0197 -0.6341  0.0077
 7356SOL    HW133530   2.831   3.601  17.600 -0.2890 -0.4418  1.1336
 7356SOL    HW233531   2.941   3.669  17.529 -0.6414  2.3596 -1.3614
 7357SOL     OW33532   1.757   3.039   5.320  0.1687  0.1975  0.8281
 7357SOL    HW133533   1.837   2.991   5.296  0.0357  0.9998 -1.2775
 7357SOL    HW233534   1.787   3.080   5.400  3.1196  0.2453 -0.3144
 7358SOL     OW33535   1.822   4.272  10.602 -0.0976  0.2891  0.1548
 7358SOL    HW133536   1.886   4.275  10.673  1.4982 -3.0855 -1.1556
 7358SOL    HW233537   1.744   4.292  10.653 -0.9243 -0.4747 -0.8043
 7359SOL     OW33538   3.837   0.540   8.387  0.3141  0.1827 -0.1615
 7359SOL    HW133539   3.890   0.578   8.317  0.0776 -0.4781 -0.6993
 7359SOL    HW233540   3.828   0.452   8.352 -0.7267  1.4586 -3.0462
 7360SOL     OW33541   3.625   3.226   4.451  0.1448 -0.2713  0.1394
 7360SOL    HW133542   3.684   3.257   4.520 -2.8114  2.8779  1.2198
 7360SOL    HW233543   3.581   3.157   4.502  1.1849  0.7780  2.4629
 7361SOL     OW33544   1.183   3.592   7.017  0.1599 -0.4879  0.4375
 7361SOL    HW133545   1.247   3.660   7.037 -0.3157 -0.1346  0.7693
 7361SOL    HW233546   1.235   3.521   6.980  1.3060  0.4748  0.2304
 7362SOL     OW33547   0.595   1.662  12.608  0.2840  0.6193  0.2632
 7362SOL    HW133548   0.542   1.741  12.616  0.6606  1.0902 -1.9999
 7362SOL    HW233549   0.599   1.631  12.699  0.3690  0.3432  0.1670
 7363SOL     OW33550   0.563   2.890   6.105  0.3799  0.0414 -0.3869
 7363SOL    HW133551   0.531   2.980   6.097  0.8490  0.1224 -1.2732
 7363SOL    HW233552   0.599   2.876   6.018 -1.3084 -1.3330 -0.8609
 7364SOL     OW33553   0.707   0.481  14.490 -0.2254  0.0815 -0.5512
 7364SOL    HW133554   0.780   0.425  14.463 -0.8677 -1.0548  0.0423
 7364SOL    HW233555   0.684   0.451  14.578  3.4063 -2.2087 -0.3674
 7365SOL     OW33556   2.010   3.329  14.669  0.1893  1.0153 -0.3773
 7365SOL    HW133557   1.930   3.316  14.617 -0.0558 -0.7027  0.4473
 7365SOL    HW233558   2.053   3.254  14.628  0.1925  1.2275 -0.7638
 7366SOL     OW33559   2.421   4.687   2.720  0.0795 -0.2618  0.0862
 7366SOL    HW133560   2.386   0.037   2.662  2.0107  1.0215  0.4303
 7366SOL    HW233561   2.433   0.020   2.800 -2.0175  1.1050 -0.4659
 7367SOL     OW33562   2.088   0.446   2.592 -0.6370  0.6172 -0.1636
 7367SOL    HW133563   2.039   0.364   2.588  1.8561 -0.8554 -0.2483
 7367SOL    HW233564   2.129   0.456   2.506  1.5282 -3.4201  0.3927
 7368SOL     OW33565   0.702   3.916   9.948 -0.6264  0.0343  0.1122
 7368SOL    HW133566   0.656   3.938  10.029 -2.4815 -3.5184  0.0157
 7368SOL    HW233567   0.648   3.969   9.889 -1.8747 -0.5776  0.7178
 7369SOL     OW33568   3.941   2.333   7.716  0.1640 -0.5601  0.2063
 7369SOL    HW133569   3.891   2.270   7.769 -1.7821  1.9632  1.3667
 7369SOL    HW233570   3.884   2.409   7.723 -1.1952 -1.3885 -1.7934
 7370SOL     OW33571   2.089   0.293   5.195 -0.0769 -0.0063 -0.0976
 7370SOL    HW133572   2.167   0.342   5.167  0.0683 -0.4484 -0.4783
 7370SOL    HW233573   2.103   0.207   5.155 -0.6810  0.9689 -2.4324
 7371SOL     OW33574   0.713   0.059   2.688  0.2293  0.7365  0.0520
 7371SOL    HW133575   0.655   0.128   2.720 -1.6931 -0.9190  0.1847
 7371SOL    HW233576   0.686   0.067   2.597  1.4020  2.3618 -0.1376
 7372SOL     OW33577   1.577   3.214   5.539 -0.4061  0.1088  0.2555
 7372SOL    HW133578   1.632   3.282   5.578  0.9683 -0.4512 -0.7054
 7372SOL    HW233579   1.639   3.180   5.474 -1.9318 -0.4987 -0.8767
 7373SOL     OW33580   3.644   4.673   8.454 -0.0391 -0.6153  0.1598
 7373SOL    HW133581   3.569   4.678   8.513  0.1298 -0.0656  0.3319
 7373SOL    HW233582   3.611   4.695   8.367  0.2573 -2.3595 -0.3827
 7374SOL     OW33583   0.787   1.049  17.221 -0.1582 -0.0448  0.4443
 7374SOL    HW133584   0.716   0.986  17.237 -1.1179  0.9268  0.0410
 7374SOL    HW233585   0.738   1.120  17.179  0.0352 -0.8767 -1.1568
 7375SOL     OW33586   3.795   1.543   6.409  0.3112  0.1725  0.2267
 7375SOL    HW133587   3.761   1.469   6.460  2.0220 -1.8585 -1.5616
 7375SOL    HW233588   3.802   1.614   6.473  0.0333  0.8182 -0.4569
 7376SOL     OW33589   4.177   0.516   4.219  0.3993 -0.3583 -0.4717
 7376SOL    HW133590   4.106   0.474   4.268  0.4075 -1.1087 -1.1105
 7376SOL    HW233591   4.219   0.432   4.200 -0.1262 -0.0000 -3.1641
 7377SOL     OW33592   2.249   4.016  11.127  0.1866  0.6969  0.6683
 7377SOL    HW133593   2.246   4.022  11.031  0.1184 -1.1294  0.5624
 7377SOL    HW233594   2.261   3.922  11.139 -0.3947  0.5772  0.3183
 7378SOL     OW33595   0.369   3.065   7.409 -0.7472  0.4012 -0.3022
 7378SOL    HW133596   0.336   2.976   7.423 -0.1446  0.1034 -0.7970
 7378SOL    HW233597   0.352   3.096   7.320  1.8818 -0.2680 -1.0376
 7379SOL     OW33598   1.909   3.713   4.309 -0.4280  0.3167 -0.4285
 7379SOL    HW133599   1.814   3.707   4.317 -0.2528  0.6326  1.9524
 7379SOL    HW233600   1.916   3.743   4.218 -1.4125  0.2756 -0.5212
 7380SOL     OW33601   3.739   1.689   3.414  0.7876 -0.2456  0.0698
 7380SOL    HW133602   3.812   1.681   3.353  1.3795  2.6091  0.4120
 7380SOL    HW233603   3.695   1.764   3.372 -0.6537 -1.6373 -0.8896
 7381SOL     OW33604   3.822   3.412   1.365  0.8229  0.5480  0.5171
 7381SOL    HW133605   3.790   3.360   1.438 -1.1626 -0.4803 -1.0693
 7381SOL    HW233606   3.814   3.500   1.402  0.9638  0.2830  1.1745
 7382SOL     OW33607   1.275   4.518   6.570  0.0134 -0.2465 -0.0998
 7382SOL    HW133608   1.210   4.554   6.511 -1.2006  0.3200  1.6078
 7382SOL    HW233609   1.335   4.592   6.578 -0.0643 -0.3153  1.0920
 7383SOL     OW33610   1.003   3.077  17.163 -0.3420 -0.3220  0.1912
 7383SOL    HW133611   1.094   3.090  17.190 -0.9344  1.3253  1.3869
 7383SOL    HW233612   1.008   3.024  17.084 -2.0454  0.5370 -0.5011
 7384SOL     OW33613   4.289   1.961   5.540  0.3872  0.2484  0.3395
 7384SOL    HW133614   4.334   1.896   5.594  0.1149  0.4528  0.8160
 7384SOL    HW233615   4.303   2.042   5.589 -0.4891 -0.1068  1.1885
 7385SOL     OW33616   2.564   2.964   9.083  0.4406  0.1443 -0.0726
 7385SOL    HW133617   2.640   2.939   9.135 -0.4262  0.2861  1.2656
 7385SOL    HW233618   2.525   2.878   9.064 -2.2493  1.2261  0.5127
 7386SOL     OW33619   0.580   1.534  12.887  0.2491 -0.2721  0.2846
 7386SOL    HW133620   0.621   1.450  12.906 -0.1240 -0.4541  0.2885
 7386SOL    HW233621   0.541   1.541  12.975  0.0391 -0.6408  0.2191
 7387SOL     OW33622   3.760   3.505   8.236 -0.0537 -0.0691 -0.6284
 7387SOL    HW133623   3.749   3.559   8.314 -2.7098 -0.3826 -0.7702
 7387SOL    HW233624   3.853   3.512   8.216  0.5417  0.3360  2.2721
 7388SOL     OW33625   0.843   1.990   6.960  0.7739 -0.2465 -0.0377
 7388SOL    HW133626   0.891   1.946   7.030 -0.2711 -1.0073  0.1957
 7388SOL    HW233627   0.838   2.075   7.004 -1.1653  0.0468 -0.8156
 7389SOL     OW33628   4.127   0.072   8.515  0.1841  0.4293  0.0686
 7389SOL    HW133629   4.034   0.085   8.496 -0.6362 -1.6239  2.6249
 7389SOL    HW233630   4.123   0.106   8.604 -0.7441  1.5258 -0.3959
 7390SOL     OW33631   1.822   0.742  12.779 -0.9182 -0.9857 -0.0824
 7390SOL    HW133632   1.838   0.713  12.690  0.5110  1.0423 -0.4662
 7390SOL    HW233633   1.904   0.721  12.825  0.3301 -0.0166 -1.8871
 7391SOL     OW33634   2.141   1.842   7.015  0.2876  0.2213  0.5105
 7391SOL    HW133635   2.172   1.892   7.091  0.7290 -0.1998  0.6036
 7391SOL    HW233636   2.049   1.839   7.039 -0.0436 -0.6430 -0.8950
 7392SOL     OW33637   1.374   2.115   9.146 -0.1314 -0.2641 -0.2059
 7392SOL    HW133638   1.363   2.185   9.081  1.7813  0.8213  0.6609
 7392SOL    HW233639   1.345   2.169   9.219 -0.0814  1.1658 -1.2361
 7393SOL     OW33640   0.368   0.362  11.995  0.2831 -0.1552 -0.1564
 7393SOL    HW133641   0.429   0.288  11.991  0.3536 -0.0494 -1.0603
 7393SOL    HW233642   0.289   0.330  11.951 -0.6669  0.1059  1.3463
 7394SOL     OW33643   2.499   2.070   1.894  0.0508  0.0930 -0.1359
 7394SOL    HW133644   2.452   2.023   1.825  2.0863 -0.6785 -0.9866
 7394SOL    HW233645   2.585   2.066   1.853 -0.9627 -1.0069 -2.1231
 7395SOL     OW33646   2.618   3.795   1.148  0.4250  0.3184  0.7678
 7395SOL    HW133647   2.549   3.824   1.089 -0.0280 -1.5308  0.3729
 7395SOL    HW233648   2.691   3.856   1.138 -0.0003  0.6739 -0.1725
 7396SOL     OW33649   3.076   1.717  15.660 -0.4129 -0.2751 -0.0604
 7396SOL    HW133650   3.137   1.760  15.719  0.5163 -1.1482 -0.3884
 7396SOL    HW233651   3.011   1.785  15.638  2.3700  2.6060  0.5527
 7397SOL     OW33652   4.613   1.988   4.965 -0.0829  0.0182  0.0232
 7397SOL    HW133653   4.572   1.968   4.881 -0.5076  1.1407 -0.0448
 7397SOL    HW233654   4.689   2.038   4.935  1.0707 -0.1623  2.6333
 7398SOL     OW33655   3.050   0.099   5.554  0.2082 -0.3536  0.3227
 7398SOL    HW133656   3.092   0.024   5.594  0.6684 -0.2405  0.0470
 7398SOL    HW233657   3.120   0.126   5.494 -0.6068 -1.8859 -1.3286
 7399SOL     OW33658   3.876   2.427   7.386  0.1077  0.1445 -0.7016
 7399SOL    HW133659   3.894   2.426   7.480  2.0367 -0.2173 -1.0732
 7399SOL    HW233660   3.794   2.477   7.393  0.7606  1.0716  0.4483
 7400SOL     OW33661   2.098   1.560   0.920  0.4083 -0.7298  0.0209
 7400SOL    HW133662   2.019   1.604   0.952  1.7581  2.2709 -0.7603
 7400SOL    HW233663   2.160   1.577   0.991 -0.3203  0.4024  0.3781
 7401SOL     OW33664   3.926   3.304   1.154 -0.4202  0.9098  0.0603
 7401SOL    HW133665   3.886   3.340   1.233 -0.3758  0.5856  0.2297
 7401SOL    HW233666   3.857   3.335   1.095 -1.3269  1.0743  1.2317
 7402SOL     OW33667   3.616   3.050   1.622 -0.1086  0.1645  0.0132
 7402SOL    HW133668   3.545   3.041   1.559  0.0190  1.0211 -0.2498
 7402SOL    HW233669   3.565   3.047   1.703 -0.1883 -0.7765 -0.0675
 7403SOL     OW33670   0.905   4.163   5.615 -0.4231 -0.1745  0.4821
 7403SOL    HW133671   0.923   4.076   5.651  0.4654 -0.4705 -0.6603
 7403SOL    HW233672   0.997   4.184   5.597 -0.6456 -2.2574 -3.1686
 7404SOL     OW33673   0.093   3.220  12.273  0.2973 -0.0113  0.3275
 7404SOL    HW133674   0.017   3.172  12.307  1.0973 -1.4213  0.1406
 7404SOL    HW233675   0.084   3.313  12.294 -1.9839  0.2410 -1.7627
 7405SOL     OW33676   4.253   1.299   6.863 -0.2468 -0.3961  0.0320
 7405SOL    HW133677   4.306   1.235   6.815  0.7325  0.3387  0.1163
 7405SOL    HW233678   4.315   1.366   6.834  3.5777 -3.9860 -0.1744
 7406SOL     OW33679   3.103   3.522  13.918 -0.4213 -0.5698 -0.0998
 7406SOL    HW133680   3.170   3.555  13.858 -0.3699  1.1147  0.8639
 7406SOL    HW233681   3.091   3.584  13.990  1.5969 -0.9219  0.5364
 7407SOL     OW33682   0.050   0.297  12.692 -0.0032  0.4080 -0.0269
 7407SOL    HW133683   0.090   0.223  12.646 -2.0918 -0.7897  0.0722
 7407SOL    HW233684   0.130   0.347  12.704  1.1740 -0.9549 -2.3222
 7408SOL     OW33685   0.264   2.697  16.519  0.3862 -0.2771  0.2979
 7408SOL    HW133686   0.291   2.726  16.432  1.0681 -3.0118 -0.4051
 7408SOL    HW233687   0.327   2.625  16.520 -0.3093 -0.8812  0.3651
 7409SOL     OW33688   4.088   0.930   3.506 -0.4286  0.0931 -0.0587
 7409SOL    HW133689   4.178   0.907   3.529 -0.5379 -0.0827  0.1978
 7409SOL    HW233690   4.054   0.983   3.579  0.2721  1.4362 -0.7171
 7410SOL     OW33691   2.058   2.863   7.912 -0.5893  0.2578  0.6107
 7410SOL    HW133692   1.994   2.915   7.864 -0.8886  1.0691  1.9023
 7410SOL    HW233693   2.006   2.820   7.980  0.6507 -1.5578  0.4271
 7411SOL     OW33694   3.580   4.008  14.938  0.1314  0.2425  0.1002
 7411SOL    HW133695   3.632   3.966  14.869 -1.7814  0.2438 -1.3180
 7411SOL    HW233696   3.643   4.050  14.996  1.1906  0.6842 -1.3586
 7412SOL     OW33697   2.047   4.314  10.373 -0.5327  0.3514 -0.2153
 7412SOL    HW133698   2.126   4.330  10.423  0.0038 -1.2805 -0.5379
 7412SOL    HW233699   1.993   4.280  10.444  0.1230 -0.6140 -0.1846
 7413SOL     OW33700   2.158   0.080   4.643 -0.1177  0.0337 -0.0095
 7413SOL    HW133701   2.235   0.027   4.623 -0.0460 -0.8217  2.5792
 7413SOL    HW233702   2.161   0.083   4.738 -0.9063 -0.5023  0.0340
 7414SOL     OW33703   0.316   3.242   5.771  0.6061 -0.1613 -0.2582
 7414SOL    HW133704   0.405   3.227   5.739  1.0928 -0.8682  1.3884
 7414SOL    HW233705   0.269   3.263   5.690 -1.2360  0.1654  0.8957
 7415SOL     OW33706   2.868   4.089   7.494 -0.5930  1.0467 -0.3879
 7415SOL    HW133707   2.960   4.112   7.477  0.1459 -1.1136  0.6575
 7415SOL    HW233708   2.840   4.066   7.405  2.1103  1.5568 -1.3664
 7416SOL     OW33709   3.516   0.142   9.645  0.7889  0.7357 -0.1383
 7416SOL    HW133710   3.421   0.151   9.646  0.7714  0.6022 -1.3067
 7416SOL    HW233711   3.526   0.082   9.718 -1.4923 -0.5067 -0.8536
 7417SOL     OW33712   0.587   4.653   3.536 -0.2665 -0.5640  0.2723
 7417SOL    HW133713   0.633   4.623   3.614 -0.7367 -0.8471  0.4362
 7417SOL    HW233714   0.664   4.654   3.478 -0.5902  1.9693 -0.1345
 7418SOL     OW33715   3.161   2.478   3.387 -0.2247 -0.4246  0.1357
 7418SOL    HW133716   3.218   2.513   3.318 -2.2035 -0.1161 -1.3598
 7418SOL    HW233717   3.215   2.476   3.466  0.7530 -0.3645 -0.5202
 7419SOL     OW33718   0.473   2.951  11.115 -0.2400 -0.6212 -0.1078
 7419SOL    HW133719   0.438   2.890  11.180 -0.3514 -1.0816 -0.5909
 7419SOL    HW233720   0.394   2.975  11.066  0.1387  1.1766  0.1835
 7420SOL     OW33721   3.505   1.862   6.180 -0.3021  0.0463  0.1483
 7420SOL    HW133722   3.554   1.863   6.097  0.7309 -0.3006  0.7514
 7420SOL    HW233723   3.570   1.831   6.243  0.6207  0.6264 -0.5093
 7421SOL     OW33724   1.479   1.558   6.525  0.5249  0.3660 -0.7981
 7421SOL    HW133725   1.459   1.465   6.531  2.3729 -0.0797 -1.5095
 7421SOL    HW233726   1.574   1.548   6.538  0.6579  1.6976 -0.7034
 7422SOL     OW33727   3.332   1.155   4.242  0.4068  0.4450 -0.0979
 7422SOL    HW133728   3.249   1.120   4.212  0.7977 -2.1219  1.8775
 7422SOL    HW233729   3.317   1.247   4.219  0.6198  0.3093 -0.7942
 7423SOL     OW33730   2.359   2.789  16.590 -0.9540  0.2107  0.5796
 7423SOL    HW133731   2.295   2.721  16.570 -1.9854  0.8509  1.7082
 7423SOL    HW233732   2.357   2.792  16.686  2.0763 -0.2390  0.6419
 7424SOL     OW33733   0.906   3.848  17.470  0.2576 -0.2260 -0.1297
 7424SOL    HW133734   0.865   3.770  17.508 -0.0889 -0.4416 -0.9289
 7424SOL    HW233735   0.964   3.805  17.406 -1.1385  1.7053 -2.6843
 7425SOL     OW33736   1.967   3.534   2.663  0.8769  0.0052  0.0894
 7425SOL    HW133737   2.054   3.551   2.627 -1.1745  1.2080 -4.1647
 7425SOL    HW233738   1.993   3.555   2.753 -0.5089  1.9481  0.0241
 7426SOL     OW33739   1.003   2.417   6.805  0.5798 -0.1989 -0.4992
 7426SOL    HW133740   0.922   2.415   6.755 -0.3514 -1.6299  1.0453
 7426SOL    HW233741   0.969   2.464   6.881 -1.4611 -0.8721 -1.0164
 7427SOL     OW33742   1.290   1.851  13.335 -0.4399 -0.4637  0.3796
 7427SOL    HW133743   1.258   1.928  13.289  0.3048  0.3321  1.2068
 7427SOL    HW233744   1.229   1.843  13.408 -0.2620  0.4642  0.6209
 7428SOL     OW33745   3.851   2.114   3.513  0.2243  0.4939  0.0801
 7428SOL    HW133746   3.852   2.084   3.604  0.6913 -1.0671 -0.4256
 7428SOL    HW233747   3.862   2.039   3.455 -0.8366  1.3750 -1.2482
 7429SOL     OW33748   1.422   1.662  13.525  0.2021 -0.2147 -0.7819
 7429SOL    HW133749   1.453   1.720  13.596 -2.5903  1.4368 -0.9140
 7429SOL    HW233750   1.378   1.728  13.470 -0.8652  0.8373  1.3172
 7430SOL     OW33751   4.009   0.115  13.907 -0.4951 -0.2677  0.4630
 7430SOL    HW133752   3.997   0.020  13.898  1.2518 -0.2283 -2.5599
 7430SOL    HW233753   4.082   0.137  13.849 -2.1716  0.4342 -1.3705
 7431SOL     OW33754   0.197   4.028  12.129 -0.0095  0.1657  0.1834
 7431SOL    HW133755   0.112   4.058  12.098  0.9516  1.8072 -0.8934
 7431SOL    HW233756   0.248   4.051  12.051 -2.0196 -1.7553 -1.6611
 7432SOL     OW33757   0.972   1.053   3.420  0.0633  0.1270  0.1524
 7432SOL    HW133758   0.938   0.965   3.405 -1.0658  0.7437 -0.9426
 7432SOL    HW233759   0.915   1.080   3.492 -1.8795  2.2643 -2.1793
 7433SOL     OW33760   2.731   1.250   4.491  0.3755 -0.4663  0.0749
 7433SOL    HW133761   2.789   1.233   4.416 -1.2599 -2.1760 -0.8006
 7433SOL    HW233762   2.781   1.315   4.540 -0.6194 -1.0832  1.8877
 7434SOL     OW33763   0.882   1.426   7.684 -0.7223 -0.3734 -0.1926
 7434SOL    HW133764   0.845   1.512   7.666  1.0876  0.3008 -0.6277
 7434SOL    HW233765   0.815   1.378   7.733  1.4595 -2.8431  0.4034
 7435SOL     OW33766   2.028   2.605  12.356 -0.5260  0.8595 -0.0779
 7435SOL    HW133767   2.040   2.667  12.428  0.3607  1.0179 -0.3664
 7435SOL    HW233768   2.109   2.555  12.352 -0.1857  1.3370  0.8858
 7436SOL     OW33769   1.028   4.195   9.148 -0.5928 -0.0750  0.0617
 7436SOL    HW133770   1.122   4.178   9.149 -0.8034 -1.1799  1.4907
 7436SOL    HW233771   1.038   4.288   9.171  0.2431  0.2920 -1.8300
 7437SOL     OW33772   3.535   3.569   9.259 -0.6158  0.3928  0.3860
 7437SOL    HW133773   3.591   3.565   9.181 -0.3488  3.6564  0.4008
 7437SOL    HW233774   3.449   3.594   9.224 -0.2195  0.0048 -0.8578
 7438SOL     OW33775   4.134   1.626   4.774  0.3991  0.6145 -0.1907
 7438SOL    HW133776   4.217   1.579   4.776  1.5026  2.6617  0.8553
 7438SOL    HW233777   4.071   1.557   4.752  1.4392  0.5104 -2.9102
 7439SOL     OW33778   4.340   0.476   9.045 -0.0481  0.2949 -0.1455
 7439SOL    HW133779   4.375   0.565   9.036 -0.6871  0.5471 -0.2223
 7439SOL    HW233780   4.256   0.510   9.079  0.8400 -1.2806  3.6490
 7440SOL     OW33781   2.905   0.164  10.276  0.5984  0.1532  0.4369
 7440SOL    HW133782   2.894   0.228  10.346  1.8190  1.2122 -0.3380
 7440SOL    HW233783   2.949   0.219  10.211 -1.3926 -1.6706 -2.4423
 7441SOL     OW33784   1.915   2.294   7.040 -0.0301 -0.2728  0.1969
 7441SOL    HW133785   1.977   2.365   7.054 -0.5539  0.1601  0.3496
 7441SOL    HW233786   1.969   2.226   7.000  0.2985  0.3143 -0.3658
 7442SOL     OW33787   0.279   0.049   5.891 -0.4004 -0.4529  0.1099
 7442SOL    HW133788   0.188   0.075   5.873 -0.5593 -0.1169  1.4133
 7442SOL    HW233789   0.267   4.672   5.899  2.6188 -0.7726  0.8684
 7443SOL     OW33790   1.584   1.335   7.146  0.4302  0.1499 -0.0138
 7443SOL    HW133791   1.562   1.351   7.054 -2.5010  0.6838  0.7701
 7443SOL    HW233792   1.622   1.247   7.148  2.0889  0.9017  0.8918
 7444SOL     OW33793   2.373   2.067   6.162  0.4829 -0.2880 -0.3231
 7444SOL    HW133794   2.277   2.068   6.165  0.5029 -0.9643  0.5992
 7444SOL    HW233795   2.382   1.972   6.166  0.4895 -0.2897 -0.3774
 7445SOL     OW33796   2.916   3.158   7.214 -0.4241 -0.1143 -0.0943
 7445SOL    HW133797   2.830   3.134   7.247 -0.9185 -0.6579 -1.7719
 7445SOL    HW233798   2.958   3.189   7.294 -0.7521 -1.4102  0.5755
 7446SOL     OW33799   0.328   0.462  14.518  0.4848  0.0076  0.2148
 7446SOL    HW133800   0.362   0.548  14.543 -0.7973  1.0430 -1.6296
 7446SOL    HW233801   0.392   0.406  14.561 -0.0091 -0.0940  0.8116
 7447SOL     OW33802   3.429   3.525   2.478  0.3000  0.2112  0.0201
 7447SOL    HW133803   3.447   3.596   2.539 -0.8292  0.5733 -0.0708
 7447SOL    HW233804   3.418   3.585   2.405 -1.6479 -0.5018 -0.2809
 7448SOL     OW33805   3.317   1.133   3.865  0.3014  0.2075 -0.0171
 7448SOL    HW133806   3.259   1.139   3.941 -0.1139 -2.1578 -0.1486
 7448SOL    HW233807   3.248   1.124   3.799  1.0026  0.2471 -0.7545
 7449SOL     OW33808   4.407   0.028   5.464 -0.4009 -0.1968 -0.3695
 7449SOL    HW133809   4.323   0.042   5.420 -0.6897  0.0349  0.2637
 7449SOL    HW233810   4.431   0.119   5.480  2.4654 -0.5845 -2.5058
 7450SOL     OW33811   2.946   1.045  13.635 -0.3292 -0.6152  0.3960
 7450SOL    HW133812   2.880   1.063  13.702  1.8841  2.6058  1.6756
 7450SOL    HW233813   2.929   1.111  13.568 -0.6593 -0.1073  0.9860
 7451SOL     OW33814   2.147   3.788   6.065  0.1027 -0.6407 -0.0903
 7451SOL    HW133815   2.120   3.830   5.983 -0.1017 -2.6699 -1.0547
 7451SOL    HW233816   2.122   3.853   6.131  0.3609  0.6004 -1.2189
 7452SOL     OW33817   1.113   3.968   8.011 -0.3320  0.2813  0.2076
 7452SOL    HW133818   1.185   4.019   7.974 -0.3721 -0.4321 -0.8707
 7452SOL    HW233819   1.137   3.974   8.103  1.5375  0.7798 -0.3142
 7453SOL     OW33820   1.390   1.073   7.762 -0.0180 -0.1472 -0.0453
 7453SOL    HW133821   1.339   1.120   7.829  0.7514 -1.9976  1.8596
 7453SOL    HW233822   1.445   1.146   7.734  2.3912 -1.3232  1.6577
 7454SOL     OW33823   3.706   0.626   6.161 -0.2616 -0.1602  0.5254
 7454SOL    HW133824   3.782   0.634   6.219  1.0656 -0.2527 -1.1774
 7454SOL    HW233825   3.657   0.705   6.182 -0.3622 -0.5430  1.7231
 7455SOL     OW33826   3.234   3.313   6.487  0.2841  0.0832  0.3449
 7455SOL    HW133827   3.226   3.280   6.577  0.5198  0.0118  0.3398
 7455SOL    HW233828   3.316   3.362   6.486 -0.4217  1.2514 -0.6898
 7456SOL     OW33829   0.139   0.052   6.417  0.0704 -0.5660  0.1023
 7456SOL    HW133830   0.185   0.057   6.501  1.4625 -1.6094 -0.5957
 7456SOL    HW233831   0.200   4.705   6.383 -1.1084 -1.5142 -0.2008
 7457SOL     OW33832   0.871   4.442  16.577  0.5726  0.2976 -0.0200
 7457SOL    HW133833   0.821   4.516  16.542 -1.7320 -0.9949  0.5070
 7457SOL    HW233834   0.791   4.391  16.596  0.5021 -0.0690 -1.3077
 7458SOL     OW33835   1.845   2.861   3.324 -0.2014 -0.2747  0.0475
 7458SOL    HW133836   1.850   2.948   3.283 -2.1327  0.2556  0.9245
 7458SOL    HW233837   1.890   2.814   3.255  0.0526 -0.2603  0.2015
 7459SOL     OW33838   4.222   3.535  12.887  0.1658 -0.2072 -0.1882
 7459SOL    HW133839   4.134   3.571  12.892  0.6773  1.1699 -1.1562
 7459SOL    HW233840   4.205   3.464  12.825 -2.0454  0.8523 -0.7817
 7460SOL     OW33841   3.472   3.050   1.201 -0.0222  0.8203  0.4731
 7460SOL    HW133842   3.403   3.093   1.151  1.6212  1.1145 -1.5675
 7460SOL    HW233843   3.539   3.035   1.134 -2.2840  1.1151 -1.8270
 7461SOL     OW33844   1.541   3.711   6.163 -0.0178  0.3836 -0.1089
 7461SOL    HW133845   1.609   3.754   6.111  0.6486 -2.7358 -1.8288
 7461SOL    HW233846   1.542   3.624   6.124  0.5529  0.3088  0.0861
 7462SOL     OW33847   1.532   0.493  12.133  0.0838  0.4557 -0.2336
 7462SOL    HW133848   1.484   0.575  12.144 -0.3364  0.5669 -2.9651
 7462SOL    HW233849   1.608   0.496  12.190 -0.5452  0.2851  0.6145
 7463SOL     OW33850   3.654   1.470   9.644  0.6302 -0.7039 -0.3103
 7463SOL    HW133851   3.566   1.484   9.609 -0.2524  0.2430  2.2723
 7463SOL    HW233852   3.683   1.556   9.614 -0.3274 -1.1550 -2.5304
 7464SOL     OW33853   3.199   0.307   3.128 -0.1834 -0.1321 -0.1942
 7464SOL    HW133854   3.183   0.397   3.101  2.7722 -0.4036 -2.9324
 7464SOL    HW233855   3.294   0.313   3.139 -0.0942 -1.3269 -0.2293
 7465SOL     OW33856   1.654   3.013  16.275 -0.7418 -0.2356  0.8830
 7465SOL    HW133857   1.591   2.944  16.299  0.0046 -0.7805  1.2868
 7465SOL    HW233858   1.728   2.963  16.240 -1.5672 -1.5645  1.0032
 7466SOL     OW33859   3.380   4.652   6.332 -0.2303 -0.1589  0.4163
 7466SOL    HW133860   3.382   4.613   6.245  4.0059  0.9033  0.0316
 7466SOL    HW233861   3.287   4.663   6.351 -0.4559  1.5914 -1.7304
 7467SOL     OW33862   4.247   2.278  11.594  0.2677 -0.5598  0.3714
 7467SOL    HW133863   4.216   2.210  11.653 -0.4922 -0.2428  0.3420
 7467SOL    HW233864   4.327   2.242  11.557 -0.6159 -0.9862 -1.1438
 7468SOL     OW33865   0.243   3.085  12.536  0.2399 -0.2739 -0.7639
 7468SOL    HW133866   0.315   3.087  12.473 -1.6781 -3.7819 -3.0332
 7468SOL    HW233867   0.171   3.094  12.474 -1.4264 -1.8289  0.9188
 7469SOL     OW33868   4.405   0.299   3.944 -0.1018  0.4996 -0.3593
 7469SOL    HW133869   4.344   0.324   3.874 -1.5297 -2.2920 -0.1413
 7469SOL    HW233870   4.484   0.348   3.923  0.1251 -0.3611 -1.5238
 7470SOL     OW33871   4.294   0.535   9.847  0.1844 -0.4585  0.1224
 7470SOL    HW133872   4.278   0.487   9.766 -1.0260 -1.4373  0.9295
 7470SOL    HW233873   4.388   0.537   9.860 -0.0076 -2.5632  2.0203
 7471SOL     OW33874   0.052   0.762   7.911 -0.5553 -0.1550 -0.0000
 7471SOL    HW133875   0.120   0.829   7.920 -1.6096  0.9306 -0.1583
 7471SOL    HW233876   0.099   0.691   7.867  1.5210  2.4881 -2.0273
 7472SOL     OW33877   0.931   1.785   4.134 -0.1535  0.0760 -0.4335
 7472SOL    HW133878   0.957   1.870   4.169 -2.9643  0.8956 -0.3355
 7472SOL    HW233879   0.838   1.807   4.140 -0.0210  0.6736 -0.6004
 7473SOL     OW33880   2.803   0.294   4.673  0.4513 -0.0604  0.2806
 7473SOL    HW133881   2.790   0.261   4.584 -1.9270  0.2830  0.4863
 7473SOL    HW233882   2.760   0.377   4.655  0.5313  0.4318  2.3477
 7474SOL     OW33883   1.248   0.970  12.920  0.4890  0.3345 -0.2916
 7474SOL    HW133884   1.248   0.929  12.834 -0.4362 -0.5038  0.1035
 7474SOL    HW233885   1.197   1.049  12.903  4.4830  2.3463 -2.7148
 7475SOL     OW33886   0.337   1.061   7.236  0.7617 -0.0258 -0.4648
 7475SOL    HW133887   0.397   0.993   7.267  1.1741  0.2413 -0.6838
 7475SOL    HW233888   0.397   1.133   7.221 -1.8532  2.4736  1.0084
 7476SOL     OW33889   0.456   3.728   4.249 -0.0906  0.5026  0.5696
 7476SOL    HW133890   0.540   3.719   4.204 -0.4185 -0.4910  0.1551
 7476SOL    HW233891   0.450   3.640   4.285  0.3956  0.2629  0.0665
 7477SOL     OW33892   3.085   3.667   5.992 -0.1233 -0.3668 -0.4468
 7477SOL    HW133893   3.048   3.755   5.996  0.4691 -0.1787  0.6431
 7477SOL    HW233894   3.035   3.612   6.052 -2.8960  1.5558 -0.9745
 7478SOL     OW33895   1.287   1.647  16.782 -0.2777 -0.0122 -0.5075
 7478SOL    HW133896   1.356   1.646  16.716  1.4140  1.7520  1.2698
 7478SOL    HW233897   1.317   1.569  16.829  1.5027  1.6916  1.1921
 7479SOL     OW33898   2.319   0.746  11.731 -0.5360 -0.5551  0.2911
 7479SOL    HW133899   2.370   0.808  11.678 -1.4779 -0.1351 -0.1269
 7479SOL    HW233900   2.316   0.780  11.820 -1.4878 -0.7552  0.3342
 7480SOL     OW33901   1.682   4.586   3.395 -0.2581  0.4860 -0.5695
 7480SOL    HW133902   1.669   4.554   3.306 -0.2908  0.5851 -0.6006
 7480SOL    HW233903   1.619   4.537   3.448  0.2030 -0.1451 -0.6060
 7481SOL     OW33904   2.957   2.813   6.631  0.1973  0.2698  0.2462
 7481SOL    HW133905   2.996   2.861   6.559  1.1450 -1.3435 -0.3151
 7481SOL    HW233906   2.990   2.853   6.712  0.3203  0.3077  0.1770
 7482SOL     OW33907   1.105   3.877   7.201 -0.2668  0.4035 -0.2911
 7482SOL    HW133908   1.022   3.880   7.248 -0.0155  1.6736  0.0694
 7482SOL    HW233909   1.071   3.915   7.120  1.1563  1.7233 -0.2649
 7483SOL     OW33910   3.112   4.231   8.715  0.2690 -0.1722  0.3367
 7483SOL    HW133911   3.132   4.314   8.758 -1.9424  0.1041  0.8527
 7483SOL    HW233912   3.018   4.228   8.735  0.7610  0.5369  2.7479
 7484SOL     OW33913   1.332   0.475  15.438  0.3139  0.3297  0.7542
 7484SOL    HW133914   1.242   0.472  15.405 -0.1447 -0.9791  2.1307
 7484SOL    HW233915   1.326   0.561  15.480 -2.2749  0.2448  0.5284
 7485SOL     OW33916   2.578   3.093  11.244 -0.2082 -0.0429 -0.1457
 7485SOL    HW133917   2.623   3.032  11.185 -2.1551  0.9755 -2.7156
 7485SOL    HW233918   2.509   3.037  11.279  0.2235 -0.5445 -0.0939
 7486SOL     OW33919   3.199   3.877   6.617  0.0750 -0.4963 -0.4516
 7486SOL    HW133920   3.294   3.882   6.603  0.2324 -3.1982 -0.3117
 7486SOL    HW233921   3.159   3.937   6.554  0.7577  0.7195  0.2651
 7487SOL     OW33922   0.847   1.186   5.065 -0.3842 -0.1353  0.2409
 7487SOL    HW133923   0.828   1.201   4.972  1.4931 -0.2393 -0.1522
 7487SOL    HW233924   0.776   1.123   5.080 -1.1102  0.0352 -2.4184
 7488SOL     OW33925   0.287   4.337   6.367 -0.4541 -0.1231 -0.1871
 7488SOL    HW133926   0.319   4.344   6.456  1.1352 -0.4079 -0.7487
 7488SOL    HW233927   0.359   4.282   6.338 -1.0649  0.0042 -1.9529
 7489SOL     OW33928   3.204   0.749   4.788 -0.5093 -0.1717  0.5541
 7489SOL    HW133929   3.247   0.831   4.812 -0.1330 -0.6891  1.6083
 7489SOL    HW233930   3.177   0.774   4.699 -0.3998  0.3714  0.6689
 7490SOL     OW33931   4.514   3.042   1.050 -0.2647 -0.3149  0.3026
 7490SOL    HW133932   4.465   3.016   1.128 -1.3993 -0.8286 -0.5761
 7490SOL    HW233933   4.540   2.959   1.009 -1.5192  0.6173 -2.4207
 7491SOL     OW33934   0.578   2.534  15.588 -0.9703 -0.5612  0.1052
 7491SOL    HW133935   0.575   2.438  15.588  1.4567 -0.6247  0.0063
 7491SOL    HW233936   0.508   2.550  15.652 -0.7217 -0.7015  0.4161
 7492SOL     OW33937   1.849   4.162   3.791  0.4380  0.0064 -0.2509
 7492SOL    HW133938   1.864   4.106   3.715 -0.4135  0.8251 -1.0288
 7492SOL    HW233939   1.853   4.248   3.748 -0.4370 -0.0532 -0.4482
 7493SOL     OW33940   2.493   0.053   2.108 -0.0689  0.4049  0.6041
 7493SOL    HW133941   2.418   4.717   2.080 -1.2983  1.8698  1.1029
 7493SOL    HW233942   2.473   0.132   2.057 -1.1353 -1.7134 -2.2752
 7494SOL     OW33943   0.056   2.968  16.962  0.0231  0.0129 -0.3091
 7494SOL    HW133944   0.103   2.909  16.904  1.9994  0.7016  0.6037
 7494SOL    HW233945   0.082   2.941  17.050  0.3362  0.6329 -0.2133
 7495SOL     OW33946   1.566   3.934   0.358  0.2197  0.2662 -0.0436
 7495SOL    HW133947   1.527   3.971   0.279 -0.3239  0.5746  0.3660
 7495SOL    HW233948   1.538   3.991   0.430  0.6848 -0.9670  1.1051
 7496SOL     OW33949   1.058   1.983  17.519 -0.2305  0.1441  0.1415
 7496SOL    HW133950   1.049   2.076  17.501  0.8337  0.3032  0.4153
 7496SOL    HW233951   0.971   1.976  17.560  0.0157 -0.4343  0.5666
 7497SOL     OW33952   0.016   3.604  11.631  0.0378 -0.7512  0.5992
 7497SOL    HW133953   0.038   3.514  11.655  0.5799 -0.6224  0.5815
 7497SOL    HW233954   0.054   3.651  11.705 -0.5939  0.0134  0.4423
 7498SOL     OW33955   0.581   3.321   9.064  0.0142 -0.0647 -0.3501
 7498SOL    HW133956   0.639   3.306   8.990  0.1188 -0.8031 -0.1190
 7498SOL    HW233957   0.635   3.397   9.087 -1.0168  1.0509 -1.5518
 7499SOL     OW33958   3.064   0.082   2.556 -0.6113 -0.4404  0.6454
 7499SOL    HW133959   3.016   0.014   2.508 -1.0024  0.9338 -0.9269
 7499SOL    HW233960   3.131   0.098   2.490 -0.3087  0.0358  1.0700
 7500SOL     OW33961   1.500   4.544   7.499 -0.2617  0.1912  0.2756
 7500SOL    HW133962   1.544   4.615   7.451 -0.7695  1.5397  1.7717
 7500SOL    HW233963   1.436   4.521   7.432  1.1855  2.1903 -1.8027
 7501SOL     OW33964   0.540   0.484   8.533 -0.2438 -0.3043  0.3437
 7501SOL    HW133965   0.588   0.474   8.615 -0.1327  0.0817  0.3241
 7501SOL    HW233966   0.484   0.407   8.541  0.6204 -1.1379 -1.4185
 7502SOL     OW33967   3.190   4.128   8.424  0.1489 -0.2667  0.2586
 7502SOL    HW133968   3.185   4.212   8.378  0.8122 -0.2531  0.2129
 7502SOL    HW233969   3.137   4.071   8.369  1.5378 -1.3631  0.0693
 7503SOL     OW33970   2.685   3.621  15.335 -0.2753  0.7904 -0.8232
 7503SOL    HW133971   2.589   3.612  15.332 -0.3020  0.3669  1.4854
 7503SOL    HW233972   2.707   3.685  15.266  1.2073 -0.5709 -1.5954
 7504SOL     OW33973   1.066   3.282   7.452  0.9965 -0.5299  0.2299
 7504SOL    HW133974   0.994   3.309   7.510  0.9615 -2.5322  1.1273
 7504SOL    HW233975   1.080   3.363   7.403 -0.4816 -0.5616 -0.2558
 7505SOL     OW33976   2.579   0.245   7.861 -0.2064  0.8637  0.1003
 7505SOL    HW133977   2.583   0.339   7.841  2.5170  0.3790 -1.5739
 7505SOL    HW233978   2.607   0.257   7.952  1.1125  2.0896 -0.4644
 7506SOL     OW33979   1.381   2.369   2.393 -0.1395 -0.3879 -0.1768
 7506SOL    HW133980   1.432   2.431   2.339 -0.4380  0.0909  0.0899
 7506SOL    HW233981   1.407   2.406   2.477 -0.5910  2.2506 -1.1859
 7507SOL     OW33982   2.699   1.899  16.010  0.3090  0.4157 -1.0104
 7507SOL    HW133983   2.769   1.951  16.049 -0.9770  0.9804  0.5185
 7507SOL    HW233984   2.743   1.825  15.968 -1.0597 -1.0891  0.2262
 7508SOL     OW33985   3.990   4.091   3.283 -0.0262  0.0529 -0.1648
 7508SOL    HW133986   4.085   4.097   3.275  0.4648 -1.4198  4.3820
 7508SOL    HW233987   3.955   4.129   3.203  3.3939 -1.0217 -2.1666
 7509SOL     OW33988   1.431   3.596   0.015  0.2975  0.0619  0.2089
 7509SOL    HW133989   1.495   3.642  17.635  1.7938 -0.1209  1.8308
 7509SOL    HW233990   1.487   3.580   0.091 -0.3528  1.3327  0.9707
 7510SOL     OW33991   0.994   0.038  12.268  0.0944  0.1046  0.5037
 7510SOL    HW133992   0.965   0.122  12.232  3.9838  1.1251 -0.3264
 7510SOL    HW233993   0.911   4.713  12.288 -0.3448  0.7714  0.0942
 7511SOL     OW33994   0.592   1.029   8.541 -0.6832 -0.3274  0.1178
 7511SOL    HW133995   0.635   1.015   8.456 -5.2641  0.3044 -2.2965
 7511SOL    HW233996   0.641   0.966   8.594  0.5001  1.1022  0.7071
 7512SOL     OW33997   3.486   1.086   3.573 -0.2305 -0.3137  0.1697
 7512SOL    HW133998   3.534   1.043   3.643  0.7020 -0.0860 -0.3390
 7512SOL    HW233999   3.399   1.045   3.574  0.8551 -2.5486  1.5077
 7513SOL     OW34000   4.310   2.680  14.948  0.1265 -0.3992  0.3335
 7513SOL    HW134001   4.248   2.664  14.877  1.3955 -0.0521 -0.8377
 7513SOL    HW234002   4.389   2.688  14.895 -0.7716 -0.5420 -1.0165
 7514SOL     OW34003   2.048   3.241  11.359  0.1055 -0.0838  0.4866
 7514SOL    HW134004   2.047   3.159  11.311 -0.4807 -0.3677  0.9885
 7514SOL    HW234005   1.962   3.247  11.400  1.6408  0.7155  3.6043
 7515SOL     OW34006   2.706   0.510   0.075  0.9240 -0.1772 -0.6882
 7515SOL    HW134007   2.713   0.418   0.053 -0.8638 -0.3991 -0.3045
 7515SOL    HW234008   2.797   0.541   0.074  1.0887 -0.7363 -3.2171
 7516SOL     OW34009   0.285   3.647   0.902  0.2141 -0.0493 -0.4372
 7516SOL    HW134010   0.282   3.616   0.812  3.1068 -2.1742  0.1941
 7516SOL    HW234011   0.368   3.604   0.925  0.0473  0.8882  1.9617
 7517SOL     OW34012   4.234   2.608  17.024  0.0393  0.1207 -0.4648
 7517SOL    HW134013   4.239   2.607  17.120 -1.9609 -1.9029 -0.3595
 7517SOL    HW234014   4.148   2.567  17.012  0.3385 -0.0332 -2.0068
 7518SOL     OW34015   1.151   3.078   2.384 -0.1620 -0.4148  0.0314
 7518SOL    HW134016   1.103   3.007   2.342  0.2133  0.2052 -1.4392
 7518SOL    HW234017   1.160   3.051   2.475 -2.2474 -0.5620  0.1919
 7519SOL     OW34018   3.071   2.974   6.452  0.3700 -0.3767 -0.2311
 7519SOL    HW134019   3.121   3.040   6.500  1.6562 -1.2825 -0.3138
 7519SOL    HW234020   3.072   3.012   6.365 -2.1753  4.0253  1.6593
 7520SOL     OW34021   2.446   4.456   6.975  0.0304 -0.4712  0.1533
 7520SOL    HW134022   2.510   4.461   7.046 -1.6412 -1.6551  1.7369
 7520SOL    HW234023   2.368   4.468   7.028  1.5680  0.4633  2.1882
 7521SOL     OW34024   1.185   0.612  12.352 -0.5434  0.0392 -0.2297
 7521SOL    HW134025   1.156   0.575  12.435  0.3532 -0.6125 -0.2044
 7521SOL    HW234026   1.259   0.553  12.336 -0.0088  0.3377  1.0863
 7522SOL     OW34027   4.272   0.176   3.547 -0.1858  0.5284  0.1059
 7522SOL    HW134028   4.188   0.220   3.551  0.1951  1.1786  0.9719
 7522SOL    HW234029   4.308   0.224   3.621 -1.0597  1.1232  0.1398
 7523SOL     OW34030   3.708   1.912   3.808 -0.2989  0.2687 -0.9085
 7523SOL    HW134031   3.761   1.847   3.763  1.8882  2.0255 -0.9028
 7523SOL    HW234032   3.623   1.904   3.763 -1.4681 -2.3583  1.8129
 7524SOL     OW34033   0.702   2.170   3.615  0.0920 -0.2175  0.4196
 7524SOL    HW134034   0.774   2.233   3.620  0.5040 -0.6982  0.6015
 7524SOL    HW234035   0.628   2.221   3.648  1.2874  1.8435 -0.0775
 7525SOL     OW34036   2.836   1.030   2.325  0.5278  0.0532 -0.2289
 7525SOL    HW134037   2.824   0.939   2.299  0.6332 -0.7428  2.5758
 7525SOL    HW234038   2.845   1.079   2.243  0.8964 -0.5391 -0.5484
 7526SOL     OW34039   3.010   4.581  15.179 -0.1960 -0.0185 -0.2386
 7526SOL    HW134040   3.061   4.660  15.165 -0.3420  0.0644 -0.3036
 7526SOL    HW234041   2.930   4.616  15.219  1.3921  1.7119  1.4467
 7527SOL     OW34042   3.701   3.395   3.994  0.0619  0.2338 -0.2740
 7527SOL    HW134043   3.651   3.384   4.075 -1.2476  0.5386 -1.0383
 7527SOL    HW234044   3.664   3.482   3.976 -0.0455  0.3275  0.3909
 7528SOL     OW34045   0.057   3.119   8.208  0.4647 -0.3845 -0.1484
 7528SOL    HW134046   0.058   3.111   8.303  1.0627 -1.4932 -0.2427
 7528SOL    HW234047   4.689   3.081   8.189 -0.2931 -0.2830  3.1052
 7529SOL     OW34048   2.716   4.596   5.813 -0.3303  0.0626  0.7220
 7529SOL    HW134049   2.689   4.658   5.881  2.2481  0.3454  1.5111
 7529SOL    HW234050   2.657   4.528   5.845 -0.7130  0.3832  0.6852
 7530SOL     OW34051   0.599   3.843   2.834  0.4286  0.0225  0.0301
 7530SOL    HW134052   0.621   3.812   2.746  0.8656  0.8286 -0.1431
 7530SOL    HW234053   0.509   3.808   2.836 -0.0674  1.4127  1.6983
 7531SOL     OW34054   3.414   2.427  10.571  0.2751  0.2185 -0.2807
 7531SOL    HW134055   3.341   2.436  10.510 -0.3424  0.7633  0.5507
 7531SOL    HW234056   3.391   2.345  10.615 -0.7135  0.9331  0.5200
 7532SOL     OW34057   2.004   3.738  16.144 -0.1588 -0.3204 -0.1558
 7532SOL    HW134058   2.068   3.709  16.080  1.2544 -0.3999  1.3000
 7532SOL    HW234059   1.975   3.651  16.172 -0.1154  0.1054  1.2294
 7533SOL     OW34060   2.151   0.454   2.314  0.2100 -0.1933  0.2324
 7533SOL    HW134061   2.228   0.406   2.345  0.3810  0.0130  0.1258
 7533SOL    HW234062   2.198   0.486   2.237  0.5489 -0.1946  0.4389
 7534SOL     OW34063   1.103   3.832   5.215 -0.7209  0.1991  0.7795
 7534SOL    HW134064   1.116   3.886   5.137  1.6272 -0.8584  0.4513
 7534SOL    HW234065   1.169   3.763   5.213 -0.6573  0.2334  1.7813
 7535SOL     OW34066   3.766   3.038   2.471 -0.4534  0.2974  0.5971
 7535SOL    HW134067   3.717   3.109   2.513  0.3044  1.0669  0.2027
 7535SOL    HW234068   3.836   3.095   2.438  0.8409 -1.2255  0.7322
 7536SOL     OW34069   3.107   2.695  13.447  0.0213  0.1400 -0.2189
 7536SOL    HW134070   3.078   2.784  13.428  0.5749  0.3477 -0.0941
 7536SOL    HW234071   3.122   2.705  13.541 -1.2356  1.7048 -0.1719
 7537SOL     OW34072   0.434   3.884   7.965 -0.1512  0.2904  0.7618
 7537SOL    HW134073   0.408   3.964   8.010  1.3701  0.4899  1.2979
 7537SOL    HW234074   0.515   3.922   7.932  0.9526 -0.6616  2.3494
 7538SOL     OW34075   1.850   3.376   0.577  0.2295 -0.9342 -0.2126
 7538SOL    HW134076   1.882   3.310   0.516  3.0530  0.9110 -0.7240
 7538SOL    HW234077   1.810   3.324   0.646 -0.1915  1.7139  1.5469
 7539SOL     OW34078   0.100   2.183   1.442  0.0953 -0.1063  0.2392
 7539SOL    HW134079   0.120   2.265   1.486  4.5838  0.1004 -2.2405
 7539SOL    HW234080   0.005   2.188   1.430  0.0844 -0.0175  0.3687
 7540SOL     OW34081   4.584   1.457  13.202  0.2555 -0.2387 -0.4627
 7540SOL    HW134082   4.623   1.535  13.242  2.0669 -0.9902 -0.7769
 7540SOL    HW234083   4.643   1.448  13.127  1.9928 -0.1972  0.8925
 7541SOL     OW34084   4.269   4.559  11.992 -0.6339 -0.2678 -0.3437
 7541SOL    HW134085   4.266   4.624  11.923  0.5890 -0.3590 -0.4809
 7541SOL    HW234086   4.361   4.531  11.994  0.1247  2.2356  0.5538
 7542SOL     OW34087   1.527   0.230   1.433 -0.3348 -0.3218 -0.0715
 7542SOL    HW134088   1.436   0.256   1.447  0.0524  1.2163 -0.4376
 7542SOL    HW234089   1.534   0.254   1.341 -0.2505  0.7842  0.2260
 7543SOL     OW34090   0.873   4.590   2.822  0.2984  0.2191 -0.2865
 7543SOL    HW134091   0.809   4.638   2.769  2.3936  0.3056 -2.7272
 7543SOL    HW234092   0.831   4.504   2.819  2.4573 -0.8671  1.2215
 7544SOL     OW34093   2.016   1.973   8.454 -0.0697 -0.4320 -0.2077
 7544SOL    HW134094   2.048   1.885   8.434 -0.0184 -0.3147 -0.6414
 7544SOL    HW234095   1.962   2.005   8.382  2.2487 -0.1578 -1.8045
 7545SOL     OW34096   0.869   1.418   8.674  0.1468  0.4125 -0.4035
 7545SOL    HW134097   0.818   1.337   8.681 -0.9603  1.2466  1.2318
 7545SOL    HW234098   0.948   1.385   8.717 -0.5485 -0.2552  0.3559
 7546SOL     OW34099   2.879   0.076   6.863  0.0552  0.8264 -0.6764
 7546SOL    HW134100   2.929   0.006   6.822  0.1511  0.2355  0.4425
 7546SOL    HW234101   2.790   0.046   6.848  0.0102  0.0225  1.1916
 7547SOL     OW34102   2.107   2.507   1.175  0.4344  0.6177 -0.7383
 7547SOL    HW134103   2.141   2.515   1.264  0.6487 -1.3825 -0.6370
 7547SOL    HW234104   2.058   2.424   1.172 -0.0307  0.9035 -0.9819
 7548SOL     OW34105   1.055   0.763   8.946  0.1860  0.0838 -0.4866
 7548SOL    HW134106   1.095   0.796   9.026 -2.7333 -0.2475  1.1222
 7548SOL    HW234107   1.001   0.837   8.921 -0.2363 -0.2459 -0.5557
 7549SOL     OW34108   2.055   4.281  16.275  0.1325  0.6302 -0.0284
 7549SOL    HW134109   2.095   4.208  16.323 -1.3892 -0.3846 -0.3165
 7549SOL    HW234110   2.071   4.250  16.186 -1.2395 -1.0400  0.3121
 7550SOL     OW34111   4.244   3.046   5.960 -0.3431 -0.3959  0.2614
 7550SOL    HW134112   4.321   3.056   5.905 -0.4938  0.4761  0.2224
 7550SOL    HW234113   4.269   2.979   6.024 -0.8863  0.3788  1.2933
 7551SOL     OW34114   3.568   4.025   6.276 -0.4074  0.1062  0.6650
 7551SOL    HW134115   3.593   4.055   6.188 -0.4720  1.4525  1.1111
 7551SOL    HW234116   3.635   3.958   6.293 -1.6892 -1.4833 -0.4975
 7552SOL     OW34117   4.275   2.064   7.491  0.1267 -0.6049  0.0871
 7552SOL    HW134118   4.324   2.042   7.412  1.0863  0.1810  0.4821
 7552SOL    HW234119   4.286   1.975   7.526 -0.3334 -0.9847 -0.7163
 7553SOL     OW34120   2.814   2.867   3.741  0.0468 -0.3444  0.5501
 7553SOL    HW134121   2.826   2.881   3.835 -0.0621 -1.2565  0.6905
 7553SOL    HW234122   2.768   2.950   3.727 -0.9956 -1.0876 -0.3734
 7554SOL     OW34123   1.940   3.520   4.892 -0.3929  0.1712 -0.2967
 7554SOL    HW134124   1.983   3.517   4.978 -0.9436 -1.5899 -0.0915
 7554SOL    HW234125   1.902   3.433   4.878 -0.7237  0.9261 -4.1591
 7555SOL     OW34126   3.571   3.306   7.032 -0.2314 -0.2006  0.1303
 7555SOL    HW134127   3.581   3.250   6.956 -0.3424  0.2858 -0.2444
 7555SOL    HW234128   3.661   3.330   7.051 -0.9731  1.0403  2.2023
 7556SOL     OW34129   1.289   3.689   3.127  0.2062 -0.0210  0.3395
 7556SOL    HW134130   1.218   3.633   3.159  1.8374 -0.9073  2.4815
 7556SOL    HW234131   1.262   3.781   3.125  0.7883  0.1806  1.4480
 7557SOL     OW34132   2.136   0.682   6.317  0.2480 -0.1278 -0.1829
 7557SOL    HW134133   2.193   0.702   6.391  1.0619 -0.7759 -0.6363
 7557SOL    HW234134   2.160   0.747   6.250  1.0327  0.4836  0.6845
 7558SOL     OW34135   0.294   1.730   4.072  0.2479  0.2392  0.0517
 7558SOL    HW134136   0.341   1.747   3.991 -1.0314 -0.9343 -0.9213
 7558SOL    HW234137   0.260   1.816   4.096  2.1588  1.3206 -1.1755
 7559SOL     OW34138   2.742   1.045  14.969  0.4507 -0.1058 -0.6121
 7559SOL    HW134139   2.782   0.973  15.018 -0.8285 -0.4336 -0.0198
 7559SOL    HW234140   2.655   1.033  15.008  1.3237  1.8495  1.9943
 7560SOL     OW34141   2.447   0.261   5.582  0.4180 -0.1638  0.5154
 7560SOL    HW134142   2.368   0.241   5.533  0.7381  0.7557 -0.4053
 7560SOL    HW234143   2.422   0.341   5.628 -1.2883 -0.0949 -0.5195
 7561SOL     OW34144   3.435   1.083   1.322 -0.3204 -0.4302  0.2198
 7561SOL    HW134145   3.350   1.111   1.289  0.2668 -0.7438 -1.5299
 7561SOL    HW234146   3.444   0.995   1.287 -0.2739 -0.3599  0.0572
 7562SOL     OW34147   4.337   0.966   5.971 -0.2613  0.2445 -0.3122
 7562SOL    HW134148   4.423   0.941   6.005 -0.7115  3.5007  3.3170
 7562SOL    HW234149   4.358   1.047   5.924 -0.5120 -0.2700 -1.3081
 7563SOL     OW34150   2.075   3.287   3.540 -0.6867 -0.1022  0.1286
 7563SOL    HW134151   2.073   3.357   3.474  1.7982  1.0627  1.2790
 7563SOL    HW234152   2.142   3.231   3.501  0.2908 -0.5389  2.4591
 7564SOL     OW34153   1.012   1.458   4.820  0.4017 -0.3397 -0.3177
 7564SOL    HW134154   1.056   1.439   4.738  0.9553 -2.3533  0.4633
 7564SOL    HW234155   0.935   1.507   4.790 -0.7632 -1.2068  1.2152
 7565SOL     OW34156   3.985   1.528  12.936 -0.1086  0.0699 -0.6601
 7565SOL    HW134157   3.922   1.594  12.907  1.2299  1.3783 -0.6112
 7565SOL    HW234158   3.940   1.460  12.985  0.1741 -0.3536 -0.9893
 7566SOL     OW34159   4.039   2.061   1.749  0.4065  0.4822  0.1952
 7566SOL    HW134160   4.101   2.134   1.749  1.2597 -0.2449 -1.5594
 7566SOL    HW234161   3.959   2.113   1.739 -0.3394 -0.5440  0.7462
 7567SOL     OW34162   2.187   4.149   6.417  0.2536 -0.8049 -0.0633
 7567SOL    HW134163   2.281   4.165   6.407 -0.1189  0.4494 -1.6828
 7567SOL    HW234164   2.168   4.162   6.510  1.5585  0.3136  0.0364
 7568SOL     OW34165   1.057   2.879   8.552  0.1678  0.2943  0.7074
 7568SOL    HW134166   1.061   2.799   8.500  1.7586 -0.3421  1.8005
 7568SOL    HW234167   0.994   2.863   8.622 -1.7993 -1.8546 -1.5765
 7569SOL     OW34168   3.770   1.886   7.925  0.7708 -0.8871  0.5818
 7569SOL    HW134169   3.790   1.910   8.016 -0.4397 -0.7355  0.8047
 7569SOL    HW234170   3.733   1.798   7.933  0.1356 -0.5276  1.6794
 7570SOL     OW34171   3.387   4.046  11.727 -0.3309 -0.1623 -0.6020
 7570SOL    HW134172   3.300   4.019  11.697 -1.2193  1.5795  0.3952
 7570SOL    HW234173   3.394   3.988  11.803  0.2099 -2.2944 -2.2783
 7571SOL     OW34174   0.268   0.863  16.288 -0.5705 -0.2086  0.0338
 7571SOL    HW134175   0.271   0.933  16.353 -4.0605 -1.1985  1.2427
 7571SOL    HW234176   0.302   0.909  16.212  1.8958 -2.0089  0.0258
 7572SOL     OW34177   3.749   1.207   7.397  0.0417  0.2697  0.2374
 7572SOL    HW134178   3.820   1.149   7.422 -1.2830 -1.8829 -1.0344
 7572SOL    HW234179   3.762   1.202   7.303  0.4640  1.4396  0.2297
 7573SOL     OW34180   0.350   2.557  11.410 -0.0226  0.1776  0.9582
 7573SOL    HW134181   0.358   2.468  11.445 -0.1786  1.0276  3.1489
 7573SOL    HW234182   0.280   2.533  11.349  1.1603  1.4799 -0.9136
 7574SOL     OW34183   4.645   3.111  13.330  0.2179  0.2129 -0.1515
 7574SOL    HW134184   4.624   3.040  13.390  0.3678 -0.2575 -0.6503
 7574SOL    HW234185   4.679   3.065  13.253  3.4088  0.9596  0.8095
 7575SOL     OW34186   3.485   4.188  11.528  0.2771 -0.6123  0.8158
 7575SOL    HW134187   3.416   4.255  11.530 -1.1453 -2.0691 -0.0070
 7575SOL    HW234188   3.457   4.142  11.607 -1.0836  1.5466  1.6020
 7576SOL     OW34189   2.637   2.968  14.381 -0.3571 -0.1153  0.3948
 7576SOL    HW134190   2.658   2.931  14.466 -1.0649 -0.7711  0.2788
 7576SOL    HW234191   2.706   2.930  14.327 -0.4960 -0.3137  0.3557
 7577SOL     OW34192   3.222   3.630   3.792 -0.2420  0.2215  0.2693
 7577SOL    HW134193   3.189   3.655   3.706  1.4236 -0.6867 -0.6373
 7577SOL    HW234194   3.275   3.554   3.770  0.5430  0.6708  0.5999
 7578SOL     OW34195   2.214   0.198   5.437  0.1713  0.4677  0.4955
 7578SOL    HW134196   2.209   0.235   5.349 -0.9366  1.2741  0.8978
 7578SOL    HW234197   2.160   0.120   5.425  1.8815 -0.9154  1.9353
 7579SOL     OW34198   1.965   4.025   5.386 -0.1226  0.2051  0.0945
 7579SOL    HW134199   1.946   3.995   5.475 -0.8503 -2.5058 -0.9775
 7579SOL    HW234200   1.985   4.117   5.405  2.6167 -0.2611 -0.4539
 7580SOL     OW34201   2.452   3.518  11.811  0.4536  0.0387 -0.5050
 7580SOL    HW134202   2.517   3.450  11.829 -0.1310 -0.7025 -1.1593
 7580SOL    HW234203   2.503   3.598  11.821 -0.2495  0.6715 -1.9185
 7581SOL     OW34204   0.237   2.124   5.865 -0.0882 -0.1018 -0.3485
 7581SOL    HW134205   0.286   2.054   5.822  1.3733  0.1324  0.9624
 7581SOL    HW234206   0.310   2.180   5.890 -0.0623 -0.7800  1.0978
 7582SOL     OW34207   2.926   1.933  11.284 -0.2196  0.0861  0.2077
 7582SOL    HW134208   2.897   1.990  11.213  0.0795  0.5242  0.4375
 7582SOL    HW234209   2.899   1.845  11.256 -0.3725 -0.0987  0.9478
 7583SOL     OW34210   0.134   0.998   7.381 -0.3513 -0.2440  0.4413
 7583SOL    HW134211   0.220   1.004   7.339  0.4523 -0.4609  2.0581
 7583SOL    HW234212   0.082   0.953   7.314  1.0189 -1.3282  0.1153
 7584SOL     OW34213   3.810   4.276   7.870  0.3522  0.5172 -0.0443
 7584SOL    HW134214   3.896   4.312   7.894  0.2997 -0.4087  1.5131
 7584SOL    HW234215   3.775   4.353   7.825  1.3846  1.2212  0.3510
 7585SOL     OW34216   1.529   2.207   7.780 -0.5853  0.6016 -0.6226
 7585SOL    HW134217   1.472   2.157   7.721 -2.2451 -0.6752  2.0407
 7585SOL    HW234218   1.507   2.294   7.748  0.1082 -0.2657 -3.4357
 7586SOL     OW34219   4.715   2.726   8.147  0.6333  0.1157  0.0908
 7586SOL    HW134220   4.652   2.722   8.219 -0.2374 -2.3498 -0.8157
 7586SOL    HW234221   4.654   2.743   8.075  0.6780  0.7296  0.1950
 7587SOL     OW34222   2.615   1.439   9.190  0.8347 -0.3155 -0.3651
 7587SOL    HW134223   2.671   1.503   9.145  1.3618  0.4028  1.2848
 7587SOL    HW234224   2.676   1.366   9.185 -0.0169 -0.9489 -1.2712
 7588SOL     OW34225   1.519   3.959   7.731  0.4143  0.1355  0.4272
 7588SOL    HW134226   1.604   4.001   7.744 -0.5293  2.2797 -0.3117
 7588SOL    HW234227   1.466   4.034   7.705  1.1247  0.5895  0.3163
 7589SOL     OW34228   1.212   0.099   3.788  0.4931  0.5048  0.0534
 7589SOL    HW134229   1.264   0.045   3.847 -0.8926  0.4827  1.2611
 7589SOL    HW234230   1.236   0.053   3.708 -0.9716  0.1742 -0.1923
 7590SOL     OW34231   1.509   1.528  13.124  0.2516  0.4276 -1.0466
 7590SOL    HW134232   1.569   1.596  13.092 -0.7166  0.5552 -2.5778
 7590SOL    HW234233   1.427   1.576  13.120  0.9705  1.7315 -0.3265
 7591SOL     OW34234   2.870   4.675   7.883  0.0870  0.0955 -0.1430
 7591SOL    HW134235   2.785   4.702   7.848 -0.8285 -2.0949  0.4158
 7591SOL    HW234236   2.908   4.679   7.795 -1.1816  1.1528 -0.6508
 7592SOL     OW34237   1.426   0.317   8.970 -0.3001  1.0198  0.1726
 7592SOL    HW134238   1.338   0.353   8.966 -0.4198  0.9015  2.0443
 7592SOL    HW234239   1.423   0.306   9.065 -1.3053 -0.0581  0.0147
 7593SOL     OW34240   0.232   2.122   3.905 -0.0678 -0.6609 -0.0708
 7593SOL    HW134241   0.203   2.060   3.838  2.0863  0.3414 -1.9078
 7593SOL    HW234242   0.214   2.064   3.980  1.0966 -1.8080 -0.6905
 7594SOL     OW34243   2.409   2.922  10.507 -0.4543  0.1791  0.1972
 7594SOL    HW134244   2.338   2.889  10.452 -2.2268  3.2064  0.6247
 7594SOL    HW234245   2.387   3.015  10.504  2.8044  0.9754  0.6852
 7595SOL     OW34246   2.426   0.530   7.767  0.2972 -0.2030 -0.1675
 7595SOL    HW134247   2.520   0.539   7.781  0.0012  1.9088  0.3842
 7595SOL    HW234248   2.407   0.613   7.725 -2.9300 -0.3881  0.9233
 7596SOL     OW34249   0.484   2.767   4.297 -0.2650  0.6593 -0.1993
 7596SOL    HW134250   0.507   2.836   4.235 -1.3075  0.1203 -1.1783
 7596SOL    HW234251   0.409   2.731   4.250  0.2724 -1.3315  0.4761
 7597SOL     OW34252   0.167   3.465  14.035  0.3889 -0.2084  0.5228
 7597SOL    HW134253   0.075   3.445  14.054  1.0616 -1.1619  2.7743
 7597SOL    HW234254   0.158   3.505  13.949  2.9720  0.6600  0.6555
 7598SOL     OW34255   0.719   3.131   2.779  0.6001  0.1856  0.0393
 7598SOL    HW134256   0.710   3.037   2.795 -2.6006  0.3873 -0.4083
 7598SOL    HW234257   0.808   3.132   2.744  0.4013  0.4312 -0.4603
 7599SOL     OW34258   1.079   2.425   5.950 -0.4834  0.0835 -0.5892
 7599SOL    HW134259   1.122   2.347   5.914 -1.4598 -0.6542 -0.1918
 7599SOL    HW234260   1.137   2.459   6.018  1.8274  1.0532 -3.0396
 7600SOL     OW34261   4.626   3.920   3.915 -0.1658 -0.1183 -0.3104
 7600SOL    HW134262   4.569   3.855   3.873 -0.3758 -0.3355  0.3138
 7600SOL    HW234263   4.607   3.900   4.006  0.3244 -0.4375 -0.2810
 7601SOL     OW34264   2.826   0.308   4.165  0.3078  0.1462  0.3807
 7601SOL    HW134265   2.793   0.227   4.127 -0.4542  0.2194  0.8968
 7601SOL    HW234266   2.916   0.284   4.188 -0.2316 -1.5732  0.7488
 7602SOL     OW34267   2.250   0.439   6.526  0.4193 -0.2086  0.0248
 7602SOL    HW134268   2.235   0.391   6.443  0.5591  0.1209 -0.1895
 7602SOL    HW234269   2.271   0.526   6.493  0.1422 -0.4552 -0.8142
 7603SOL     OW34270   2.295   1.380  11.591 -0.0455  0.5352  0.0935
 7603SOL    HW134271   2.310   1.298  11.638 -0.0660 -0.9650 -2.4749
 7603SOL    HW234272   2.251   1.346  11.513  0.6979 -0.2175  0.0077
 7604SOL     OW34273   4.015   0.279   1.664 -0.2952  0.0720  0.0235
 7604SOL    HW134274   4.025   0.359   1.612 -0.8121  0.3096  0.2895
 7604SOL    HW234275   4.104   0.283   1.700  0.7863  1.3821 -2.7644
 7605SOL     OW34276   0.043   3.092   7.279 -0.4065 -0.0783 -0.1005
 7605SOL    HW134277   0.069   3.007   7.314  1.5574  0.9031  0.8604
 7605SOL    HW234278   0.118   3.121   7.226 -0.6273  0.2139 -0.2492
 7606SOL     OW34279   3.604   4.412   6.636  0.3167  0.1049  0.4814
 7606SOL    HW134280   3.617   4.491   6.584 -0.2078 -0.7333 -0.9359
 7606SOL    HW234281   3.649   4.342   6.590 -0.0979  1.3354 -1.7972
 7607SOL     OW34282   4.334   1.435   6.536  0.2677 -0.1159 -1.0420
 7607SOL    HW134283   4.244   1.449   6.508  0.2046  0.0722 -0.7478
 7607SOL    HW234284   4.325   1.348   6.574 -0.0965 -0.6061 -2.2364
 7608SOL     OW34285   2.718   3.208   2.912 -0.4250 -0.0633 -0.2316
 7608SOL    HW134286   2.686   3.178   2.997  1.6827 -0.5713  0.3879
 7608SOL    HW234287   2.791   3.149   2.895  0.2116  0.4730  0.6549
 7609SOL     OW34288   2.417   0.754   8.535 -0.2768 -0.4938  1.2564
 7609SOL    HW134289   2.459   0.830   8.575  0.2727 -0.0189 -0.2384
 7609SOL    HW234290   2.326   0.762   8.563 -0.2861  1.2024  0.7316
 7610SOL     OW34291   4.142   0.792   7.366 -0.1467  0.5393 -0.0251
 7610SOL    HW134292   4.203   0.865   7.352  0.7449 -0.3991 -1.1293
 7610SOL    HW234293   4.113   0.779   7.275 -0.3158  1.6717 -0.1290
 7611SOL     OW34294   3.223   2.017   7.857  0.2583 -0.7042 -0.0046
 7611SOL    HW134295   3.171   2.025   7.938  2.4282  0.6195  1.2538
 7611SOL    HW234296   3.157   2.032   7.790  0.2677  1.0436  0.3917
 7612SOL     OW34297   3.585   4.161   5.129  0.5261 -0.5841  0.0732
 7612SOL    HW134298   3.536   4.104   5.188  0.6231  1.4697  2.1357
 7612SOL    HW234299   3.512   4.172   5.067  0.7042  1.6778  0.2781
 7613SOL     OW34300   3.493   0.640   9.226 -0.0380 -0.3546 -0.1822
 7613SOL    HW134301   3.476   0.734   9.219  2.3309 -0.0255 -1.7786
 7613SOL    HW234302   3.476   0.613   9.135 -1.5001  0.4509 -0.1404
 7614SOL     OW34303   3.215   1.304  10.587 -0.3713 -0.1801 -0.0011
 7614SOL    HW134304   3.230   1.252  10.666 -0.4869 -0.3514 -0.0924
 7614SOL    HW234305   3.179   1.238  10.528 -0.4744 -1.3122  1.3128
 7615SOL     OW34306   0.036   2.070   2.030  0.2839  0.0027  0.1603
 7615SOL    HW134307   0.097   2.015   1.979 -1.5058 -3.3579  1.6550
 7615SOL    HW234308   4.687   2.004   2.048  1.1530 -1.2919 -1.2628
 7616SOL     OW34309   1.333   2.919   9.132 -0.4550 -0.6543  0.0771
 7616SOL    HW134310   1.285   2.949   9.210  0.6489  0.1012  0.4662
 7616SOL    HW234311   1.424   2.932   9.157 -1.2589  1.9571  1.7018
 7617SOL     OW34312   4.675   3.247   0.365  0.0986  0.0336  0.3444
 7617SOL    HW134313   4.697   3.293   0.284  3.0371  1.1131  1.7515
 7617SOL    HW234314   4.684   3.154   0.346 -1.2019  0.4003 -2.0695
 7618SOL     OW34315   2.756   3.114   5.959 -0.2077  0.5526  0.2993
 7618SOL    HW134316   2.688   3.175   5.930  0.4957  0.5626 -1.3806
 7618SOL    HW234317   2.706   3.043   5.997 -0.9078 -0.0826 -1.7824
 7619SOL     OW34318   0.167   1.547   3.000 -0.1062  0.8975 -0.1902
 7619SOL    HW134319   0.146   1.632   2.962  1.2334 -0.0548 -3.0679
 7619SOL    HW234320   0.198   1.502   2.921  1.0221 -0.3001  0.9460
 7620SOL     OW34321   2.065   1.427   3.277  1.1218 -0.7540 -0.4435
 7620SOL    HW134322   2.068   1.400   3.186 -1.0424  2.4762 -1.4744
 7620SOL    HW234323   2.157   1.437   3.299  1.0304 -0.3486 -0.2419
 7621SOL     OW34324   0.479   3.241   9.329 -0.3437  0.1971 -0.5288
 7621SOL    HW134325   0.400   3.288   9.358 -1.1287 -0.3053 -1.8325
 7621SOL    HW234326   0.501   3.297   9.254 -1.0151 -1.1036 -1.6848
 7622SOL     OW34327   4.256   1.555   5.757 -0.2584 -0.4150 -0.1529
 7622SOL    HW134328   4.253   1.582   5.848  1.7649  1.5466 -0.6811
 7622SOL    HW234329   4.313   1.616   5.711  1.3487 -1.8243 -0.0384
 7623SOL     OW34330   2.014   2.171  11.144  0.4969 -0.2951 -0.2087
 7623SOL    HW134331   2.082   2.110  11.116  1.2094 -0.2684  1.4844
 7623SOL    HW234332   2.076   2.237  11.175  1.2418 -0.1786 -1.9052
 7624SOL     OW34333   4.059   4.653   1.623  0.3940 -0.2054 -0.2405
 7624SOL    HW134334   3.998   0.001   1.591  0.7619  0.6374  0.7659
 7624SOL    HW234335   4.066   4.591   1.551  0.7699  0.2694 -0.6099
 7625SOL     OW34336   2.651   4.229  15.048  0.4823  0.9278  0.0844
 7625SOL    HW134337   2.573   4.243  15.101  0.5756 -1.7748  0.9610
 7625SOL    HW234338   2.716   4.187  15.104 -0.1183  1.1109  0.9058
 7626SOL     OW34339   0.994   0.696   6.120  0.1654 -0.3855 -0.6008
 7626SOL    HW134340   0.951   0.636   6.182 -1.0543  0.2410 -0.8387
 7626SOL    HW234341   0.960   0.654   6.041  2.9958 -1.1067 -1.4290
 7627SOL     OW34342   1.217   2.623  12.588 -0.2091  0.0605 -0.1108
 7627SOL    HW134343   1.146   2.645  12.528  0.7153  2.5964 -0.2564
 7627SOL    HW234344   1.228   2.529  12.573 -1.1382  0.1772 -1.5602
 7628SOL     OW34345   2.581   0.597  12.421 -0.1356  0.2405  0.1126
 7628SOL    HW134346   2.556   0.679  12.462  1.1533  0.2909  0.7976
 7628SOL    HW234347   2.497   0.552  12.429 -2.0661  3.3277 -2.4769
 7629SOL     OW34348   0.642   2.098   6.469  0.3933  0.2147 -0.0887
 7629SOL    HW134349   0.676   2.013   6.495  0.1021  0.1910  0.2154
 7629SOL    HW234350   0.644   2.148   6.550 -0.1850 -1.8669  1.2135
 7630SOL     OW34351   1.706   0.748  16.701  0.0789 -0.5858  0.3686
 7630SOL    HW134352   1.702   0.691  16.624  0.1133 -2.0605  1.4635
 7630SOL    HW234353   1.624   0.724  16.744 -0.6467  0.3670 -0.4760
 7631SOL     OW34354   1.645   4.362   7.653  0.4234  0.2143 -0.6479
 7631SOL    HW134355   1.582   4.315   7.707  1.7609 -1.3052 -0.4121
 7631SOL    HW234356   1.590   4.440   7.640 -0.7848 -0.7366 -1.1947
 7632SOL     OW34357   0.278   3.020   9.328  0.1455 -0.5713  0.3665
 7632SOL    HW134358   0.280   3.044   9.236  0.9956 -1.6018  0.1139
 7632SOL    HW234359   0.371   3.030   9.348  0.3282 -0.1685 -0.6836
 7633SOL     OW34360   1.039   4.401   0.838  0.1466  0.4290 -0.5063
 7633SOL    HW134361   1.026   4.387   0.744 -0.5061 -0.0819 -0.3395
 7633SOL    HW234362   1.013   4.491   0.856  2.8551  1.0832 -0.0057
 7634SOL     OW34363   0.546   1.998   6.911  0.1209 -0.5818  0.0337
 7634SOL    HW134364   0.519   2.020   7.001 -1.5344 -1.4794 -0.2553
 7634SOL    HW234365   0.637   1.973   6.928  0.0059 -0.3401  1.0581
 7635SOL     OW34366   0.126   1.757   3.469  0.0175  0.1118  0.1468
 7635SOL    HW134367   0.201   1.811   3.444  0.0848  0.5743  1.3529
 7635SOL    HW234368   0.120   1.776   3.563  1.3073 -0.3294  0.3201
 7636SOL     OW34369   4.576   3.619   9.258 -0.8452  0.4072 -0.2715
 7636SOL    HW134370   4.486   3.588   9.262 -0.9150  0.6114 -0.2751
 7636SOL    HW234371   4.592   3.621   9.352 -1.5442  0.2611 -0.1523
 7637SOL     OW34372   2.186   0.122   7.371  0.1693  0.3609  0.1748
 7637SOL    HW134373   2.268   0.109   7.323 -1.0066 -1.6463 -1.3095
 7637SOL    HW234374   2.122   0.076   7.317  2.7406 -0.3696 -2.2693
 7638SOL     OW34375   3.592   2.066   3.014  0.2111  0.1994  0.0049
 7638SOL    HW134376   3.499   2.059   2.992  0.4244  1.2717 -1.2463
 7638SOL    HW234377   3.631   2.116   2.942 -0.5884 -1.1521 -1.3884
 7639SOL     OW34378   2.615   3.147   1.413 -0.0335  0.1236 -0.0427
 7639SOL    HW134379   2.562   3.133   1.491 -1.1572 -0.4732 -0.9156
 7639SOL    HW234380   2.703   3.143   1.452  0.0779  1.4199 -0.1763
 7640SOL     OW34381   3.071   0.249   7.035  0.5805 -0.3931  0.5157
 7640SOL    HW134382   3.082   0.226   7.127 -0.3955 -2.8621  0.0105
 7640SOL    HW234383   2.994   0.199   7.008 -0.4470  1.0591  0.7327
 7641SOL     OW34384   2.745   0.696  11.533 -0.2649  0.3058 -0.1393
 7641SOL    HW134385   2.803   0.749  11.589  0.6141  1.1693 -1.8530
 7641SOL    HW234386   2.712   0.769  11.481 -1.8666  1.6200  2.7328
 7642SOL     OW34387   4.629   3.764   9.021  0.1026 -0.3126 -0.1066
 7642SOL    HW134388   4.699   3.719   8.974 -0.4949 -1.4141  0.0561
 7642SOL    HW234389   4.598   3.705   9.089  1.7595 -3.7017 -2.3163
 7643SOL     OW34390   4.451   3.850  10.952  0.2128 -0.0468 -0.1824
 7643SOL    HW134391   4.530   3.857  10.899  1.9594  1.4511  2.5825
 7643SOL    HW234392   4.440   3.944  10.967  0.0284  0.4331 -3.3521
 7644SOL     OW34393   4.325   4.663  14.211  0.2400 -0.1302 -0.4567
 7644SOL    HW134394   4.355   4.713  14.134 -0.3173  1.1780  0.1835
 7644SOL    HW234395   4.242   4.706  14.229  0.0946 -0.2260 -0.8960
 7645SOL     OW34396   3.531   3.111   8.147 -0.7356  0.0448 -0.4391
 7645SOL    HW134397   3.587   3.153   8.213 -0.2938  0.1764 -0.8991
 7645SOL    HW234398   3.596   3.072   8.088  1.5417  0.4476  1.7769
 7646SOL     OW34399   2.884   1.628   2.595  0.2629  0.0018  0.1307
 7646SOL    HW134400   2.930   1.545   2.589  1.2103  0.4014  2.0007
 7646SOL    HW234401   2.829   1.618   2.517  2.8198 -3.3030 -1.2421
 7647SOL     OW34402   1.525   1.863  16.798  0.0123  0.3691  0.0320
 7647SOL    HW134403   1.476   1.931  16.752  2.5858  0.7290 -2.1685
 7647SOL    HW234404   1.531   1.790  16.736  1.2393  0.3279  0.2029
 7648SOL     OW34405   0.446   0.858  15.467  0.2452  0.8353 -0.3834
 7648SOL    HW134406   0.435   0.763  15.465  0.3815  0.8397 -1.8444
 7648SOL    HW234407   0.523   0.858  15.409 -0.5613  1.0780 -1.4467
 7649SOL     OW34408   3.228   0.710   3.483 -0.5914  0.5674  0.3824
 7649SOL    HW134409   3.213   0.706   3.389 -0.9062 -2.6600  0.5560
 7649SOL    HW234410   3.167   0.643   3.515 -1.2400  0.9648 -0.0147
 7650SOL     OW34411   2.163   4.592   4.297 -0.8271  0.5170 -0.7901
 7650SOL    HW134412   2.170   4.626   4.208  1.3306  3.0579  0.3577
 7650SOL    HW234413   2.245   4.630   4.330  0.3205  0.3825 -3.5149
 7651SOL     OW34414   2.149   3.176   9.156  0.0924  0.0564  0.1989
 7651SOL    HW134415   2.059   3.145   9.169 -0.3322  0.5087 -1.7016
 7651SOL    HW234416   2.138   3.226   9.075 -0.2675 -2.3939 -1.2411
 7652SOL     OW34417   1.096   1.041   7.617  0.0598  0.2867  0.2208
 7652SOL    HW134418   1.185   1.071   7.602 -0.9884  2.7220 -1.1177
 7652SOL    HW234419   1.098   0.988   7.697 -0.0608 -0.0339  0.0130
 7653SOL     OW34420   0.755   1.679   7.767  1.1285  0.0554  0.1155
 7653SOL    HW134421   0.736   1.694   7.859  2.4645 -0.3099  0.4483
 7653SOL    HW234422   0.666   1.653   7.739  2.0029 -1.2854 -1.4399
 7654SOL     OW34423   4.373   0.029   8.656  0.0522  0.1162  0.1621
 7654SOL    HW134424   4.312   0.065   8.592  2.2433  2.6242 -0.5152
 7654SOL    HW234425   4.452   0.077   8.630  0.1968 -0.0921  0.2178
 7655SOL     OW34426   3.609   2.784   6.612  0.0813 -0.3019 -0.6836
 7655SOL    HW134427   3.608   2.775   6.517 -1.0360  0.7161 -0.7607
 7655SOL    HW234428   3.579   2.695   6.632  0.7997 -0.8475 -2.1204
 7656SOL     OW34429   2.025   1.486  16.309  0.0272  0.7906 -0.0624
 7656SOL    HW134430   2.016   1.580  16.297  0.6661  0.7098 -1.1855
 7656SOL    HW234431   2.030   1.467  16.215  0.7425 -0.7997  0.2954
 7657SOL     OW34432   0.901   0.075   1.473 -0.4577 -1.1414  0.2200
 7657SOL    HW134433   0.828   0.064   1.535  0.2183  0.2747  1.2763
 7657SOL    HW234434   0.959   0.027   1.531  1.4121  0.4779 -0.3287
 7658SOL     OW34435   1.333   0.607   0.718 -0.4729  0.3501  0.4252
 7658SOL    HW134436   1.330   0.621   0.812  3.4008  2.9110  0.1700
 7658SOL    HW234437   1.388   0.532   0.697 -1.3326  0.1308 -1.0565
 7659SOL     OW34438   1.022   0.530   0.007  0.1107 -0.2440 -0.6103
 7659SOL    HW134439   1.045   0.528  17.588 -1.1515  1.8721 -0.9837
 7659SOL    HW234440   1.056   0.617   0.030  0.8095  0.4382 -4.2226
 7660SOL     OW34441   0.113   2.550   7.115 -0.2816  0.1729 -0.0198
 7660SOL    HW134442   0.071   2.578   7.034  0.6861  1.4861 -0.0556
 7660SOL    HW234443   0.072   2.607   7.181  3.0292  1.7145  0.6794
 7661SOL     OW34444   2.290   1.924   4.760  0.4290 -0.4639 -0.1117
 7661SOL    HW134445   2.336   1.996   4.803  0.0142  0.6006 -1.4245
 7661SOL    HW234446   2.317   1.939   4.669 -0.8162 -2.0821 -0.7532
 7662SOL     OW34447   4.527   2.766   3.448 -0.2453 -0.0362 -0.0995
 7662SOL    HW134448   4.518   2.811   3.364 -3.7074 -1.4535 -0.4761
 7662SOL    HW234449   4.622   2.768   3.460 -0.3116 -0.8178  0.5122
 7663SOL     OW34450   0.122   3.262  12.969  0.2855 -0.3202 -0.4904
 7663SOL    HW134451   0.041   3.213  12.985  0.3757  0.3721  2.1429
 7663SOL    HW234452   0.075   3.344  12.982  1.4363  0.3725 -0.7070
 7664SOL     OW34453   1.021   0.328  12.188  0.1925 -0.4526 -0.4217
 7664SOL    HW134454   1.028   0.301  12.096 -1.9647 -0.8580 -0.4680
 7664SOL    HW234455   0.959   0.401  12.180 -0.5786 -1.0728 -0.0595
 7665SOL     OW34456   2.776   2.947   1.205  0.0247 -0.0291 -0.2402
 7665SOL    HW134457   2.798   3.030   1.248  0.8935 -1.1095  1.4251
 7665SOL    HW234458   2.779   2.890   1.283  1.4367  0.0771 -0.2200
 7666SOL     OW34459   1.185   1.244   9.153 -0.8991 -0.0548 -0.1510
 7666SOL    HW134460   1.176   1.170   9.213 -0.8961  1.1495  1.3348
 7666SOL    HW234461   1.232   1.210   9.077  1.2767 -0.9686  1.6039
 7667SOL     OW34462   3.363   2.447   2.518 -0.3459 -0.6792 -0.2569
 7667SOL    HW134463   3.373   2.409   2.430  1.0990  1.5266 -1.0519
 7667SOL    HW234464   3.347   2.540   2.498 -0.1680 -0.1197  2.1662
 7668SOL     OW34465   4.155   4.147   8.083 -0.8788  0.3651 -0.3232
 7668SOL    HW134466   4.130   4.238   8.070 -2.3556 -0.1104 -0.7921
 7668SOL    HW234467   4.248   4.151   8.062 -0.4917  0.9590  1.4909
 7669SOL     OW34468   1.746   3.068   6.588  0.7767 -0.3758  0.1961
 7669SOL    HW134469   1.662   3.091   6.628 -0.3107 -0.7699 -1.8527
 7669SOL    HW234470   1.797   3.041   6.664  1.7553 -0.1739 -0.3862
 7670SOL     OW34471   2.827   3.447   3.882 -0.1994  0.0957  0.1119
 7670SOL    HW134472   2.889   3.517   3.903  1.2013 -0.6410 -1.5423
 7670SOL    HW234473   2.826   3.403   3.967 -0.3382  2.7505  1.4763
 7671SOL     OW34474   0.683   3.328   2.964  0.0664  0.1524 -0.2295
 7671SOL    HW134475   0.594   3.365   2.968  0.6391  1.3073  2.1849
 7671SOL    HW234476   0.674   3.254   2.904 -1.4605  0.6711 -0.6436
 7672SOL     OW34477   4.369   0.269  15.267  0.6117 -0.1799  0.3968
 7672SOL    HW134478   4.398   0.250  15.178  2.7058  2.9888  0.4189
 7672SOL    HW234479   4.365   0.364  15.277  0.6408 -0.3016  1.5835
 7673SOL     OW34480   2.700   0.241   6.133  0.6336 -0.3251 -0.0751
 7673SOL    HW134481   2.709   0.161   6.184 -1.7331 -1.0601 -0.7843
 7673SOL    HW234482   2.605   0.233   6.121  0.7860 -2.0159 -0.0762
 7674SOL     OW34483   2.683   2.594  11.785 -0.4989 -0.7693 -0.5304
 7674SOL    HW134484   2.627   2.536  11.837 -0.7632 -1.1512 -1.2416
 7674SOL    HW234485   2.747   2.609  11.854 -0.2295  1.3776 -1.2450
 7675SOL     OW34486   3.198   1.478   8.190  0.5157  0.4322 -0.2508
 7675SOL    HW134487   3.149   1.483   8.108 -0.4512  0.4649  0.3201
 7675SOL    HW234488   3.239   1.565   8.192 -1.4938  1.4130 -1.8377
 7676SOL     OW34489   4.034   1.494   9.875 -0.2283  0.4265  0.1270
 7676SOL    HW134490   3.994   1.474   9.960 -0.7476 -0.3034 -0.2848
 7676SOL    HW234491   4.127   1.506   9.895 -0.7479  1.8911  1.6336
 7677SOL     OW34492   2.454   0.349   1.647  0.4896  0.1496 -0.3725
 7677SOL    HW134493   2.487   0.342   1.557 -1.6285  1.2824 -1.2202
 7677SOL    HW234494   2.467   0.441   1.667  0.6821  0.1065 -0.2946
 7678SOL     OW34495   2.817   3.962   1.099 -0.1129  0.7295  0.0077
 7678SOL    HW134496   2.911   3.945   1.110  0.2684  2.7236 -0.2206
 7678SOL    HW234497   2.811   4.009   1.016 -1.0749  2.7571  1.2501
 7679SOL     OW34498   4.067   3.412   4.144  0.1167  0.2797  0.0078
 7679SOL    HW134499   4.013   3.367   4.079  0.3226 -0.6824  0.5130
 7679SOL    HW234500   4.006   3.478   4.178 -0.0962  1.0032 -1.7676
 7680SOL     OW34501   0.195   0.847   8.232 -0.2977 -0.2629 -0.3570
 7680SOL    HW134502   0.275   0.829   8.184 -0.6979 -1.5298 -0.5562
 7680SOL    HW234503   0.215   0.925   8.284 -1.2958  0.4405 -1.0174
 7681SOL     OW34504   1.887   3.632   0.727 -0.2452 -0.1070 -0.3478
 7681SOL    HW134505   1.863   3.564   0.790 -1.1285 -1.3535 -2.0535
 7681SOL    HW234506   1.885   3.577   0.649 -1.2738  0.5829 -0.8110
 7682SOL     OW34507   2.671   1.993   5.130  0.3319  0.5395  0.0010
 7682SOL    HW134508   2.658   2.088   5.122 -0.0283  0.4182 -0.8007
 7682SOL    HW234509   2.585   1.956   5.112  0.7208  0.7093 -2.1239
 7683SOL     OW34510   1.015   2.620  10.803  0.5023  0.1048  0.3664
 7683SOL    HW134511   1.068   2.694  10.833  0.5052  0.2485  0.0078
 7683SOL    HW234512   1.085   2.555  10.792  0.0381 -0.2741 -0.3323
 7684SOL     OW34513   3.762   1.533   7.377  0.1576  0.0157 -0.0132
 7684SOL    HW134514   3.813   1.498   7.450 -0.8142 -0.7723  0.2906
 7684SOL    HW234515   3.784   1.626   7.375 -0.4614  0.1755  0.7602
 7685SOL     OW34516   1.255   1.022   8.911 -0.2762 -0.7115  0.0219
 7685SOL    HW134517   1.286   0.989   8.827  0.9645 -0.1195  0.2430
 7685SOL    HW234518   1.335   1.069   8.935 -1.3727 -0.1030  2.4668
 7686SOL     OW34519   3.209   1.875  15.843 -0.0037 -0.4911 -0.0284
 7686SOL    HW134520   3.267   1.951  15.851  1.1693 -1.2805 -1.0024
 7686SOL    HW234521   3.136   1.880  15.905 -0.3195 -1.1012 -0.3458
 7687SOL     OW34522   3.145   3.135  12.529  0.1856  0.1105 -0.0000
 7687SOL    HW134523   3.201   3.179  12.594 -0.8345 -2.8568  2.8454
 7687SOL    HW234524   3.065   3.182  12.554  0.7290  1.7725 -1.3212
 7688SOL     OW34525   2.639   0.646  12.757 -0.2344 -0.1559  0.2158
 7688SOL    HW134526   2.557   0.601  12.778 -0.7344  1.0903  0.9536
 7688SOL    HW234527   2.698   0.571  12.748 -2.0078 -1.2298 -2.2377
 7689SOL     OW34528   0.339   4.228   5.084 -0.1927  0.7603 -0.1733
 7689SOL    HW134529   0.412   4.280   5.116  0.5012  0.4000 -1.1845
 7689SOL    HW234530   0.305   4.185   5.162  1.1856  0.0168  0.0106
 7690SOL     OW34531   3.267   2.197   3.635  0.0522 -0.0699  0.1911
 7690SOL    HW134532   3.299   2.246   3.559 -1.2956  0.4989 -0.0099
 7690SOL    HW234533   3.171   2.202   3.628 -0.1621 -1.0683  2.2830
 7691SOL     OW34534   2.037   1.894   4.503 -0.4908 -0.0096  0.2150
 7691SOL    HW134535   2.098   1.963   4.530 -1.4078  1.5561 -1.7110
 7691SOL    HW234536   1.961   1.946   4.478  1.6193  2.2377 -1.5486
 7692SOL     OW34537   0.165   1.548   7.067 -0.2225  0.1125 -0.0216
 7692SOL    HW134538   0.261   1.542   7.069 -0.2209  0.2575  0.2526
 7692SOL    HW234539   0.138   1.464   7.029  3.2321 -0.3451 -1.4523
 7693SOL     OW34540   1.762   3.442  11.418  0.0437  0.0356 -0.2246
 7693SOL    HW134541   1.741   3.534  11.406  0.4789 -0.0334 -1.5186
 7693SOL    HW234542   1.804   3.440  11.504  0.5622 -1.4176 -0.5044
 7694SOL     OW34543   0.795   2.935   9.724 -0.1790 -0.1558  0.7698
 7694SOL    HW134544   0.805   2.989   9.802 -0.8144 -1.7664  1.9587
 7694SOL    HW234545   0.759   2.856   9.764 -0.7667 -0.5305 -0.4798
 7695SOL     OW34546   1.275   2.644   7.093  0.1614 -0.4341  0.2511
 7695SOL    HW134547   1.250   2.625   7.003 -0.8154  1.9261  0.0201
 7695SOL    HW234548   1.192   2.622   7.136  1.2564 -0.8491  2.1528
 7696SOL     OW34549   3.471   3.263   5.084  0.5072  0.6381  0.3561
 7696SOL    HW134550   3.476   3.359   5.088  1.7029  0.6592 -1.8974
 7696SOL    HW234551   3.394   3.251   5.028  0.3550  1.5372  0.3603
 7697SOL     OW34552   3.404   1.435   5.708 -0.0928  0.3072 -0.4674
 7697SOL    HW134553   3.415   1.350   5.666 -0.3248  1.4819 -2.9712
 7697SOL    HW234554   3.393   1.406   5.798  2.2790 -1.0298 -0.6069
 7698SOL     OW34555   4.421   0.746   9.154 -0.4929 -0.2840  0.2855
 7698SOL    HW134556   4.374   0.777   9.232  1.0562  1.0760  0.6761
 7698SOL    HW234557   4.503   0.792   9.168 -0.8697  0.5393 -0.2565
 7699SOL     OW34558   1.567   3.463  16.863 -0.1637  0.1814 -0.2549
 7699SOL    HW134559   1.591   3.542  16.911 -0.5658  1.4046 -2.0599
 7699SOL    HW234560   1.528   3.504  16.785 -0.7310 -1.7496 -0.9856
 7700SOL     OW34561   1.489   2.893  15.166 -0.3152  0.1680  0.1620
 7700SOL    HW134562   1.397   2.866  15.172 -0.5472  1.1694  1.1420
 7700SOL    HW234563   1.510   2.852  15.250  0.6956 -0.3499 -0.3435
 7701SOL     OW34564   1.078   1.054   4.808 -0.4501 -0.4223 -0.0759
 7701SOL    HW134565   1.101   1.057   4.715 -1.1715  1.8674 -0.1856
 7701SOL    HW234566   0.993   1.098   4.814 -0.0491  0.4956 -1.1877
 7702SOL     OW34567   2.272   2.538   3.036 -0.4000 -0.2680 -0.0465
 7702SOL    HW134568   2.366   2.552   3.048 -0.7794 -0.8011  3.4296
 7702SOL    HW234569   2.241   2.591   2.963  0.4922 -2.6202 -2.1566
 7703SOL     OW34570   4.602   4.035   7.558  0.3629 -0.1582 -0.0153
 7703SOL    HW134571   4.580   4.007   7.646  2.4283 -3.4207 -0.5501
 7703SOL    HW234572   4.658   4.108   7.584  0.3585 -0.6666  1.4149
 7704SOL     OW34573   2.664   2.512   1.850  0.3967  0.6715 -0.3675
 7704SOL    HW134574   2.706   2.486   1.932 -0.3940 -3.3824 -1.2685
 7704SOL    HW234575   2.577   2.483   1.877  0.1539  1.7074 -0.0174
 7705SOL     OW34576   0.133   2.260  12.378  0.8758 -0.1929  0.0841
 7705SOL    HW134577   0.093   2.173  12.389 -1.6590  1.0378  0.4266
 7705SOL    HW234578   0.102   2.296  12.461 -1.8171  0.8551 -1.3551
 7706SOL     OW34579   1.429   4.503   1.059 -0.0086 -0.1529 -0.3720
 7706SOL    HW134580   1.397   4.425   1.014  1.5983 -0.2904 -1.2557
 7706SOL    HW234581   1.366   4.568   1.027  2.6370  3.2108  1.1986
 7707SOL     OW34582   0.223   1.807   9.867 -0.2195  0.3573  0.2622
 7707SOL    HW134583   0.137   1.840   9.892 -1.4981 -1.7331 -1.4808
 7707SOL    HW234584   0.269   1.878   9.823  0.7757 -0.3318  0.1920
 7708SOL     OW34585   4.209   3.111  13.567  0.2265 -0.0916 -0.2085
 7708SOL    HW134586   4.171   3.167  13.498 -0.4513  0.0585  0.2784
 7708SOL    HW234587   4.246   3.177  13.626 -1.8584  0.9578 -0.0479
 7709SOL     OW34588   0.638   3.402  16.647 -0.8818  0.3812 -0.4004
 7709SOL    HW134589   0.710   3.457  16.615  1.8156 -2.6901  0.2899
 7709SOL    HW234590   0.598   3.447  16.720  1.6920  0.2482  1.1073
 7710SOL     OW34591   0.299   1.724  12.399  0.0842 -0.0827 -0.0685
 7710SOL    HW134592   0.302   1.652  12.461 -1.7535 -0.7314 -0.7349
 7710SOL    HW234593   0.353   1.795  12.434  0.2213 -0.7767  1.1331
 7711SOL     OW34594   2.273   2.764   2.607 -0.0206 -0.3662  0.2059
 7711SOL    HW134595   2.342   2.821   2.639 -0.3502 -1.9496  3.7849
 7711SOL    HW234596   2.311   2.712   2.536  0.8140  0.9409 -0.3149
 7712SOL     OW34597   4.549   1.829   5.953 -0.0307 -0.4193  0.2583
 7712SOL    HW134598   4.532   1.737   5.972 -3.2043  0.7349  3.0942
 7712SOL    HW234599   4.644   1.823   5.955 -0.1491 -2.5149 -0.3911
 7713SOL     OW34600   4.017   2.134   7.059  0.1576  0.0071  0.6914
 7713SOL    HW134601   4.013   2.195   7.133 -0.7413 -0.8419  1.3552
 7713SOL    HW234602   4.108   2.106   7.071  0.4617  0.6056 -0.2684
 7714SOL     OW34603   2.268   4.634   9.957  0.0013 -0.4005  0.1661
 7714SOL    HW134604   2.175   4.613   9.963 -0.0771 -0.2598 -0.6150
 7714SOL    HW234605   2.273   0.011   9.942  0.5919 -1.0670 -3.9917
 7715SOL     OW34606   4.076   0.823   2.491  0.1552 -0.1860  0.2318
 7715SOL    HW134607   4.075   0.838   2.396 -2.6363  0.0628  0.3096
 7715SOL    HW234608   4.028   0.740   2.491 -0.6761  0.2997  0.1296
 7716SOL     OW34609   3.506   0.771   1.684 -0.1035 -0.3822 -0.1319
 7716SOL    HW134610   3.473   0.695   1.635  0.6050  0.7235 -2.3640
 7716SOL    HW234611   3.529   0.742   1.772 -1.3351  1.3682  0.7575
 7717SOL     OW34612   1.266   2.330   9.310 -0.8178  0.4670  0.1408
 7717SOL    HW134613   1.188   2.309   9.259 -0.9060 -0.3384  0.6164
 7717SOL    HW234614   1.286   2.421   9.285  1.0332  0.5911  2.1667
 7718SOL     OW34615   1.358   4.506  15.566 -0.0760  0.9118  0.1164
 7718SOL    HW134616   1.341   4.461  15.483  1.1831  2.1098 -0.8010
 7718SOL    HW234617   1.448   4.533  15.551  0.7058 -0.2307  2.8565
 7719SOL     OW34618   4.335   1.312   4.273  0.3917 -0.0266  0.2444
 7719SOL    HW134619   4.358   1.232   4.226 -2.7827 -0.6671 -0.2114
 7719SOL    HW234620   4.275   1.353   4.211  1.3586  1.6083  0.4059
 7720SOL     OW34621   0.097   2.704   1.983  0.6116 -0.3055  0.2525
 7720SOL    HW134622   0.051   2.694   2.066 -1.9693 -0.9109 -1.2243
 7720SOL    HW234623   0.116   2.797   1.982 -0.1468 -0.1606 -0.5037
 7721SOL     OW34624   3.009   1.178   7.917 -0.1866  0.2089  0.1903
 7721SOL    HW134625   3.051   1.143   7.838 -0.3713  0.1183  0.1337
 7721SOL    HW234626   2.964   1.258   7.889 -0.0194  0.8492  1.7120
 7722SOL     OW34627   4.363   0.162   3.284  0.2852  0.2101 -0.3522
 7722SOL    HW134628   4.341   0.248   3.249  0.5082 -0.4655 -2.1467
 7722SOL    HW234629   4.332   0.161   3.375  2.1872 -1.5711  0.2682
 7723SOL     OW34630   3.144   4.158   5.590 -0.7267  0.0858  0.1505
 7723SOL    HW134631   3.213   4.096   5.613 -1.1519 -0.5446 -0.2786
 7723SOL    HW234632   3.196   4.231   5.555  1.4350 -2.1367 -1.2586
 7724SOL     OW34633   0.046   4.447   7.146  0.6905  0.1160 -0.1896
 7724SOL    HW134634   0.093   4.491   7.217 -0.6540  0.8976  0.2169
 7724SOL    HW234635   0.120   4.429   7.088  0.4463  0.3049 -0.5595
 7725SOL     OW34636   2.908   4.450   2.104  0.5376 -0.5388 -0.5948
 7725SOL    HW134637   2.912   4.485   2.015  0.5599 -2.4391 -1.3432
 7725SOL    HW234638   2.910   4.356   2.088  0.3476 -0.9130  1.5461
 7726SOL     OW34639   1.173   0.326   7.864 -0.3904  1.0289  0.0100
 7726SOL    HW134640   1.254   0.363   7.830  0.9319 -2.2919 -0.5032
 7726SOL    HW234641   1.168   0.359   7.953 -0.3485  0.0403  0.3753
 7727SOL     OW34642   1.776   4.335  13.920  0.1780  0.1082 -0.4305
 7727SOL    HW134643   1.855   4.289  13.950  0.8339  0.3134 -1.8377
 7727SOL    HW234644   1.804   4.415  13.966  0.6228  1.1131 -2.4743
 7728SOL     OW34645   3.596   2.443  13.214  0.1852 -0.2837 -0.6035
 7728SOL    HW134646   3.584   2.534  13.189  1.9487  0.0448 -0.2910
 7728SOL    HW234647   3.506   2.415  13.232  0.4194 -0.4170  0.4028
 7729SOL     OW34648   2.575   1.609   8.091 -0.4638  0.2569 -0.0978
 7729SOL    HW134649   2.557   1.545   8.160  0.6240 -0.8978 -0.9034
 7729SOL    HW234650   2.637   1.564   8.034 -0.1344  1.2660 -0.5494
 7730SOL     OW34651   0.707   0.251   7.664  0.3534 -0.5643 -0.2781
 7730SOL    HW134652   0.691   0.164   7.699  1.2719  0.0924  1.8057
 7730SOL    HW234653   0.803   0.246   7.668  0.4258  0.0961 -1.2146
 7731SOL     OW34654   2.365   0.613   9.324  0.3706 -0.4868 -0.3397
 7731SOL    HW134655   2.425   0.635   9.254 -0.7800 -1.5379 -1.6647
 7731SOL    HW234656   2.385   0.686   9.382 -2.0913  0.7683 -1.0515
 7732SOL     OW34657   4.159   3.456   7.412 -0.0440  0.2654 -0.0446
 7732SOL    HW134658   4.193   3.367   7.408 -1.5578 -0.2696 -0.8237
 7732SOL    HW234659   4.115   3.447   7.497  1.5278  1.7956  0.9329
 7733SOL     OW34660   0.673   2.097   2.024  0.4584 -0.0803  0.3210
 7733SOL    HW134661   0.696   2.010   2.058 -1.1199 -0.7408 -0.3205
 7733SOL    HW234662   0.637   2.079   1.938  0.7434  1.6826 -0.1773
 7734SOL     OW34663   1.131   3.665   2.449  0.2371 -0.2077  0.2200
 7734SOL    HW134664   1.064   3.627   2.393  0.4746  0.1306 -0.2944
 7734SOL    HW234665   1.215   3.645   2.407  0.9107  1.7701  0.6196
 7735SOL     OW34666   1.250   1.270   4.340  0.8950 -0.0071  0.5297
 7735SOL    HW134667   1.184   1.204   4.319  1.6044 -0.5191 -0.0809
 7735SOL    HW234668   1.329   1.224   4.313 -0.4862 -1.2855 -1.3335
 7736SOL     OW34669   1.146   0.360   6.868 -0.4588  0.2159 -0.7048
 7736SOL    HW134670   1.187   0.354   6.782  1.7135  1.8874  0.1927
 7736SOL    HW234671   1.133   0.267   6.888  0.0328  0.0957 -0.9563
 7737SOL     OW34672   2.460   2.669   5.407  0.3167  0.8436  0.8095
 7737SOL    HW134673   2.436   2.745   5.460 -0.2800  1.7673 -0.7898
 7737SOL    HW234674   2.523   2.709   5.347  2.2211 -0.3888  1.9910
 7738SOL     OW34675   0.017   3.400   0.145 -0.1311  0.7284 -0.4265
 7738SOL    HW134676   4.677   3.444   0.084 -2.8568  0.2384  1.8113
 7738SOL    HW234677   0.092   3.459   0.148  0.0396  0.4743  0.3115
 7739SOL     OW34678   4.317   2.546   3.418  0.1247  0.3440  0.4969
 7739SOL    HW134679   4.384   2.614   3.418  2.5263 -1.9955  1.7210
 7739SOL    HW234680   4.359   2.491   3.351  1.0069  0.4644  0.9467
 7740SOL     OW34681   3.672   1.139   4.450  0.3221 -0.1349 -0.0810
 7740SOL    HW134682   3.711   1.224   4.472  4.4908 -1.7787 -1.2721
 7740SOL    HW234683   3.705   1.083   4.520 -2.6342 -1.2688  0.3911
 7741SOL     OW34684   4.260   2.855   9.716 -0.0262  1.1229 -0.3782
 7741SOL    HW134685   4.183   2.839   9.661 -0.7895 -0.3869  1.1473
 7741SOL    HW234686   4.214   2.833   9.796  2.3316 -1.4189  0.2670
 7742SOL     OW34687   3.004   1.334   5.294  0.0951 -0.2502 -0.2749
 7742SOL    HW134688   3.002   1.384   5.212 -1.5071  0.3820  0.1486
 7742SOL    HW234689   2.957   1.254   5.270 -1.1323  0.9234 -1.7275
 7743SOL     OW34690   2.302   1.611   1.669  0.6450 -0.0650  0.3196
 7743SOL    HW134691   2.210   1.619   1.643  0.8810  1.0008 -0.1635
 7743SOL    HW234692   2.300   1.518   1.694 -1.5881  0.3281  1.6625
 7744SOL     OW34693   3.303   1.803   5.014  1.0003  0.3872 -0.2049
 7744SOL    HW134694   3.341   1.723   5.049  0.4862 -0.3678 -1.3674
 7744SOL    HW234695   3.308   1.798   4.918  1.0623 -1.2564 -0.1167
 7745SOL     OW34696   3.017   3.926   3.974  0.5792  0.0951  0.2929
 7745SOL    HW134697   3.106   3.944   4.005  0.6446  1.4487 -0.7306
 7745SOL    HW234698   2.993   4.017   3.959  0.5692  0.0240 -0.1262
 7746SOL     OW34699   4.315   1.833   6.246 -0.2724  0.0270 -0.1309
 7746SOL    HW134700   4.391   1.892   6.241 -2.4525  2.7514 -1.4097
 7746SOL    HW234701   4.363   1.753   6.225 -1.6639 -0.4402 -1.4834
 7747SOL     OW34702   2.730   4.102   6.643  0.3551 -0.0314 -0.2317
 7747SOL    HW134703   2.709   4.086   6.735  2.8754  3.5088  0.9352
 7747SOL    HW234704   2.649   4.081   6.597  0.1271 -0.8738  0.5403
 7748SOL     OW34705   2.310   3.060  15.499  0.2815  0.5703 -0.2474
 7748SOL    HW134706   2.372   3.056  15.572  0.7308 -0.9064 -0.6910
 7748SOL    HW234707   2.226   3.045  15.541  0.0381  2.7924  0.0544
 7749SOL     OW34708   3.965   1.184   5.780 -0.3122  0.0364 -0.4193
 7749SOL    HW134709   3.959   1.099   5.737  1.6775 -1.0406  1.4602
 7749SOL    HW234710   4.042   1.217   5.733  0.4046  0.6420  1.1545
 7750SOL     OW34711   3.031   2.896   6.898 -0.2263 -0.3031 -0.1520
 7750SOL    HW134712   3.060   2.804   6.902  0.3697 -0.1448 -0.9147
 7750SOL    HW234713   3.086   2.925   6.971  0.7054  0.8319 -1.3174
 7751SOL     OW34714   3.015   1.737   2.110  0.3238  0.0838 -0.1064
 7751SOL    HW134715   3.011   1.643   2.126  3.6958  0.0260  0.3067
 7751SOL    HW234716   2.933   1.752   2.157 -0.9828  0.8175 -2.6048
 7752SOL     OW34717   3.661   0.578   7.100 -0.4181 -0.5511 -0.2631
 7752SOL    HW134718   3.597   0.547   7.036 -2.3901  1.8283  0.5098
 7752SOL    HW234719   3.618   0.659   7.129  0.5693 -0.2445  0.3506
 7753SOL     OW34720   3.274   0.541   1.753 -0.2260  0.5498  0.2907
 7753SOL    HW134721   3.244   0.451   1.763 -1.4835  0.7496 -1.8097
 7753SOL    HW234722   3.333   0.522   1.680 -1.3481  0.9255 -0.7123
 7754SOL     OW34723   4.125   1.014   2.939 -0.2582  0.1919  0.7909
 7754SOL    HW134724   4.152   0.989   2.851  2.5560 -0.0392  1.7072
 7754SOL    HW234725   4.184   1.088   2.949 -2.0077  1.8747 -1.4462
 7755SOL     OW34726   0.337   4.486   9.135  0.0760 -0.3151 -0.7477
 7755SOL    HW134727   0.373   4.529   9.213  4.2876 -3.0782 -1.1734
 7755SOL    HW234728   0.271   4.551   9.111 -0.1096  1.1131  3.5543
 7756SOL     OW34729   2.702   0.998  17.401  0.5613  0.0199 -0.1437
 7756SOL    HW134730   2.665   1.080  17.432  0.5485 -0.5241  1.2861
 7756SOL    HW234731   2.782   0.990  17.454 -0.6015 -0.0813  1.6120
 7757SOL     OW34732   4.596   0.620   9.351  0.1244 -0.2292  0.0102
 7757SOL    HW134733   4.639   0.629   9.436  0.2219 -1.0762  0.0567
 7757SOL    HW234734   4.523   0.681   9.353 -1.0538 -1.7444  2.6542
 7758SOL     OW34735   3.914   3.299   5.530 -0.4656 -0.2267 -0.4573
 7758SOL    HW134736   3.855   3.274   5.602  1.4590  3.1916  2.2545
 7758SOL    HW234737   3.994   3.257   5.562 -0.7199  1.1760  2.0032
 7759SOL     OW34738   3.673   1.485   3.037  0.2957  0.0375 -0.2808
 7759SOL    HW134739   3.743   1.436   3.081 -0.5739  1.3298  2.5114
 7759SOL    HW234740   3.629   1.404   3.010  0.6872  0.5644 -2.4794
 7760SOL     OW34741   2.392   0.781   7.680 -0.2077 -0.7270  0.3018
 7760SOL    HW134742   2.305   0.819   7.693 -0.7506 -1.1047 -2.4178
 7760SOL    HW234743   2.448   0.858   7.689 -0.1743 -0.5853 -1.2147
 7761SOL     OW34744   1.016   3.928  12.126  0.0712  0.1308  0.1831
 7761SOL    HW134745   1.047   3.914  12.037 -1.1345  0.9203 -0.3646
 7761SOL    HW234746   0.967   3.846  12.137  2.5840 -1.4738 -0.7190
 7762SOL     OW34747   3.096   4.703   6.365 -0.2214 -0.0886 -0.1934
 7762SOL    HW134748   3.077   4.690   6.272 -0.5216  0.0623 -0.1530
 7762SOL    HW234749   3.028   4.658   6.413  0.6815 -1.5367 -0.2752
 7763SOL     OW34750   1.473   1.419  12.254  0.2232  0.0109  0.1030
 7763SOL    HW134751   1.507   1.330  12.243  0.1975 -0.2031  1.6868
 7763SOL    HW234752   1.552   1.474  12.250  0.5636 -0.5476 -0.9149
 7764SOL     OW34753   4.653   0.785   7.584 -0.2066 -0.1078  0.1028
 7764SOL    HW134754   4.717   0.854   7.597  0.9418 -0.9462 -1.1207
 7764SOL    HW234755   4.701   0.712   7.624 -0.2526  0.7659  1.7564
 7765SOL     OW34756   3.689   2.142   5.329 -0.0808 -0.0736  0.6472
 7765SOL    HW134757   3.601   2.125   5.296  1.0146 -1.2973 -1.6119
 7765SOL    HW234758   3.720   2.199   5.259  0.4986 -1.5719 -0.3149
 7766SOL     OW34759   3.221   4.391   3.919 -0.3929  0.5976 -0.2448
 7766SOL    HW134760   3.242   4.475   3.960 -2.3202  0.9925 -0.0732
 7766SOL    HW234761   3.299   4.381   3.864  0.5262 -0.8469  1.3256
 7767SOL     OW34762   0.518   3.123  10.231  0.1034  0.2409 -0.5723
 7767SOL    HW134763   0.561   3.060  10.172  2.8770  0.6978  0.9697
 7767SOL    HW234764   0.594   3.142  10.285 -1.2771 -1.7587  2.0622
 7768SOL     OW34765   3.697   0.271   4.404 -0.1681 -0.2848 -0.3743
 7768SOL    HW134766   3.717   0.284   4.497 -1.4460  1.0526 -0.2924
 7768SOL    HW234767   3.604   0.251   4.408 -0.0407 -0.7888  0.0962
 7769SOL     OW34768   1.510   3.445  17.312 -0.7576 -0.2902 -0.1808
 7769SOL    HW134769   1.547   3.388  17.379 -4.0011 -0.4959  1.4434
 7769SOL    HW234770   1.484   3.384  17.243 -2.5683  0.5369 -0.2369
 7770SOL     OW34771   1.020   3.819   8.376  0.2138 -0.0615 -0.1925
 7770SOL    HW134772   1.035   3.725   8.379  1.9470  0.2021 -0.4978
 7770SOL    HW234773   1.027   3.840   8.469  0.7936  1.2579 -0.5278
 7771SOL     OW34774   4.039   0.920  10.692 -0.2578  0.8320  0.1747
 7771SOL    HW134775   4.064   0.945  10.781 -0.1117  1.3129  0.0017
 7771SOL    HW234776   4.108   0.972  10.651  0.6924 -0.3691  0.2489
 7772SOL     OW34777   3.843   3.872   0.963  0.1653  0.0872 -0.2149
 7772SOL    HW134778   3.852   3.785   0.926 -1.3060 -0.0936 -0.1437
 7772SOL    HW234779   3.881   3.922   0.891  0.1367  2.8505  1.6526
 7773SOL     OW34780   2.745   1.132   3.634 -0.0571  0.0990  0.0059
 7773SOL    HW134781   2.816   1.188   3.665  0.3883  0.8999 -2.4466
 7773SOL    HW234782   2.754   1.120   3.539  0.6226  1.7792 -0.1367
 7774SOL     OW34783   1.736   0.034   6.392  0.1700 -0.3893 -0.1158
 7774SOL    HW134784   1.748   0.108   6.332  0.7109  0.9691  1.6748
 7774SOL    HW234785   1.811   0.046   6.450  0.2185  2.3852 -0.7415
 7775SOL     OW34786   4.012   3.142   3.664 -0.1814  0.4139 -0.1654
 7775SOL    HW134787   4.042   3.152   3.573  2.3207  0.4489  0.6540
 7775SOL    HW234788   3.995   3.232   3.690 -0.7100  0.5003 -0.8074
 7776SOL     OW34789   1.293   0.554   1.320  0.3248 -0.1311  0.0919
 7776SOL    HW134790   1.382   0.560   1.286  0.3204 -1.2618 -0.0941
 7776SOL    HW234791   1.313   0.595   1.404  0.8011 -1.8503  0.8218
 7777SOL     OW34792   0.974   3.399   5.537  0.0842 -0.5282  0.0310
 7777SOL    HW134793   1.009   3.326   5.486  1.2250  0.2802 -0.3504
 7777SOL    HW234794   1.048   3.460   5.539  0.1178 -0.5059 -1.5291
 7778SOL     OW34795   4.270   2.559   7.422  0.8232 -0.4603 -0.1277
 7778SOL    HW134796   4.234   2.481   7.464  1.1185 -0.7986 -0.5003
 7778SOL    HW234797   4.351   2.531   7.379  1.0520  0.6756 -0.4544
 7779SOL     OW34798   3.039   4.684   5.044 -0.4445  0.4148 -0.0606
 7779SOL    HW134799   3.049   0.052   5.084  3.0375  0.6407 -1.4502
 7779SOL    HW234800   3.031   4.705   4.951 -2.9881 -2.6093 -0.5373
 7780SOL     OW34801   4.083   0.538   5.830 -0.0385 -0.0059  0.4567
 7780SOL    HW134802   4.156   0.576   5.879  1.0233 -0.5466 -0.7305
 7780SOL    HW234803   4.048   0.621   5.796 -1.3370 -1.2715 -1.2399
 7781SOL     OW34804   1.599   2.910   9.177  0.5838 -0.3028  0.3657
 7781SOL    HW134805   1.597   2.850   9.102 -1.3964  1.3548 -0.9065
 7781SOL    HW234806   1.610   2.847   9.247 -0.2179 -0.0998  0.6750
 7782SOL     OW34807   4.208   0.423   2.381 -0.1914  0.4958  0.3532
 7782SOL    HW134808   4.176   0.491   2.322  2.0995  0.2620 -1.1975
 7782SOL    HW234809   4.230   0.358   2.314  0.7557 -0.0202  1.1648
 7783SOL     OW34810   4.486   1.597   2.878  0.1954 -0.3229 -0.4386
 7783SOL    HW134811   4.497   1.619   2.970 -1.0166 -0.2228 -0.3204
 7783SOL    HW234812   4.530   1.511   2.874 -0.3416 -0.6624  0.9914
 7784SOL     OW34813   0.109   0.079   7.562  0.2209  0.1868  0.2696
 7784SOL    HW134814   0.072   0.054   7.647  1.4608  1.3246  1.1421
 7784SOL    HW234815   0.164   0.004   7.542 -0.2143  0.1329 -0.7065
 7785SOL     OW34816   0.002   1.950   7.546  0.2320  0.2561 -0.7245
 7785SOL    HW134817   0.089   1.976   7.577  0.1615 -1.1797  0.7082
 7785SOL    HW234818   4.660   2.019   7.576 -0.4323 -0.1191 -1.1920
 7786SOL     OW34819   1.829   3.758   2.944  0.2731  0.4533  0.1401
 7786SOL    HW134820   1.831   3.828   2.878  2.0321 -0.1725 -0.4616
 7786SOL    HW234821   1.912   3.716   2.924 -1.0511 -2.1800  0.1595
 7787SOL     OW34822   1.443   4.027   0.594  0.1643  0.5891  0.2353
 7787SOL    HW134823   1.470   4.116   0.617  0.6741  0.2512  0.9473
 7787SOL    HW234824   1.361   4.032   0.547 -1.5524 -1.8481  2.9298
 7788SOL     OW34825   1.973   4.293   4.214  0.0665  0.4602  0.2011
 7788SOL    HW134826   1.961   4.315   4.121 -0.2755  0.2430  0.1935
 7788SOL    HW234827   2.031   4.363   4.245  1.7705 -0.1538 -1.6553
 7789SOL     OW34828   1.927   2.126   7.586 -0.2563 -0.0817  0.2301
 7789SOL    HW134829   2.017   2.158   7.586 -1.8499  4.3601  1.1228
 7789SOL    HW234830   1.927   2.109   7.492 -2.1973  1.8705 -0.1263
 7790SOL     OW34831   3.219   2.435  10.398 -0.1353 -0.5923 -0.2684
 7790SOL    HW134832   3.190   2.387  10.320 -1.7302  0.7073 -0.4708
 7790SOL    HW234833   3.189   2.524  10.380 -1.1919 -0.8175  0.3915
 7791SOL     OW34834   2.403   4.395   4.248 -0.1814 -0.3406  0.0288
 7791SOL    HW134835   2.456   4.316   4.258 -0.6717 -0.6509  0.1863
 7791SOL    HW234836   2.413   4.431   4.336 -0.4623  0.7597 -0.3881
 7792SOL     OW34837   1.061   0.064   4.256 -0.1104  0.3408  0.0001
 7792SOL    HW134838   1.139   0.033   4.301  1.2450  0.4622 -2.3033
 7792SOL    HW234839   1.099   0.105   4.179  2.5237 -1.9738  0.0562
 7793SOL     OW34840   4.054   1.811   6.640  0.0675  0.3641 -0.1417
 7793SOL    HW134841   4.110   1.737   6.665 -0.0986  0.7944  1.4633
 7793SOL    HW234842   4.065   1.828   6.546 -1.3527 -1.1941 -0.5806
 7794SOL     OW34843   4.421   3.703   3.239  0.6359 -0.4462  0.1404
 7794SOL    HW134844   4.331   3.690   3.209  0.1989  1.4254  0.6380
 7794SOL    HW234845   4.460   3.772   3.185 -1.5295  1.3465  0.8560
 7795SOL     OW34846   4.592   1.919  17.099  0.1908  0.2525  0.6679
 7795SOL    HW134847   4.574   2.005  17.059  0.4015  0.1921  0.4451
 7795SOL    HW234848   4.680   1.930  17.135 -0.1762  0.5278  1.4850
 7796SOL     OW34849   2.206   1.130   2.300 -0.0491  0.2712 -0.6365
 7796SOL    HW134850   2.242   1.043   2.289  0.7393  0.5144 -0.0485
 7796SOL    HW234851   2.236   1.143   2.391  0.2280  0.9924 -0.8288
 7797SOL     OW34852   4.293   4.095   2.747 -0.2269 -0.0720 -0.2984
 7797SOL    HW134853   4.236   4.056   2.681 -2.6953  2.4440  0.3260
 7797SOL    HW234854   4.336   4.162   2.694 -0.7860 -0.7136 -1.5581
 7798SOL     OW34855   4.051   2.409   4.903 -0.1971  0.3265  0.7724
 7798SOL    HW134856   4.090   2.425   4.989  0.4332 -1.6721  0.8630
 7798SOL    HW234857   4.020   2.492   4.867  1.1903  0.9056  0.8826
 7799SOL     OW34858   2.778   2.031   2.442 -0.8770 -0.3944 -0.0230
 7799SOL    HW134859   2.777   2.125   2.458 -3.6587 -0.1568 -1.5481
 7799SOL    HW234860   2.713   2.023   2.371 -1.2757 -2.6751  0.5744
 7800SOL     OW34861   1.584   3.182  10.267 -0.0130  0.2959 -0.4083
 7800SOL    HW134862   1.512   3.242  10.244 -0.1546  0.3727  0.2236
 7800SOL    HW234863   1.656   3.226  10.222  0.7445 -0.4057  0.1279
 7801SOL     OW34864   1.458   4.605   0.385 -0.1331  0.1942 -0.2234
 7801SOL    HW134865   1.429   4.552   0.310  1.8992 -1.3925  0.1181
 7801SOL    HW234866   1.458   4.695   0.351  1.8010  0.9187  1.7587
 7802SOL     OW34867   2.089   0.373  11.860 -0.1835  0.4742  0.1370
 7802SOL    HW134868   2.114   0.426  11.936 -0.8474 -0.8448  1.2842
 7802SOL    HW234869   2.022   0.310  11.887 -0.0588  0.4447  0.3789
 7803SOL     OW34870   2.708   1.034  13.271 -0.1964 -0.3219 -0.5772
 7803SOL    HW134871   2.797   1.029  13.236 -0.0518  0.0436 -0.2606
 7803SOL    HW234872   2.722   0.968  13.339 -0.6894  2.0692  1.8464
 7804SOL     OW34873   0.569   0.726   6.561  0.2578  1.2211 -0.0691
 7804SOL    HW134874   0.527   0.703   6.644  2.6890  0.1520  0.8637
 7804SOL    HW234875   0.653   0.759   6.592 -0.1151  0.1052  2.1013
 7805SOL     OW34876   3.331   1.629   8.544 -0.0357 -0.8545 -0.2593
 7805SOL    HW134877   3.320   1.537   8.522  1.5765 -1.2942  0.8183
 7805SOL    HW234878   3.400   1.663   8.487 -0.5638 -1.1260 -1.0718
 7806SOL     OW34879   1.416   1.464   4.216  0.2542  0.0216 -0.1529
 7806SOL    HW134880   1.458   1.423   4.141  0.1285  0.5876 -0.5298
 7806SOL    HW234881   1.341   1.406   4.231 -0.5168  1.3380  1.1110
 7807SOL     OW34882   4.030   0.384   3.207 -0.6316  0.4567 -0.6532
 7807SOL    HW134883   4.078   0.334   3.142 -1.2613  2.8612 -2.9709
 7807SOL    HW234884   3.978   0.444   3.154 -0.6796 -0.6955 -1.8988
 7808SOL     OW34885   4.406   0.325  16.866 -0.1002  0.1330 -0.1310
 7808SOL    HW134886   4.463   0.323  16.943 -0.3555 -3.2596 -0.0080
 7808SOL    HW234887   4.324   0.359  16.902 -0.3573 -0.6313  0.0119
 7809SOL     OW34888   2.541   0.063   8.311 -0.1051  0.1777  0.3516
 7809SOL    HW134889   2.483   0.016   8.251  1.0140  1.1392 -1.4876
 7809SOL    HW234890   2.575   4.709   8.365 -2.2273  0.7179  2.3915
 7810SOL     OW34891   3.835   3.673   1.442 -0.9513  0.0906 -0.0968
 7810SOL    HW134892   3.901   3.685   1.373 -0.1837 -0.0688  0.6101
 7810SOL    HW234893   3.887   3.712   1.513 -1.4025 -0.1202  0.3493
 7811SOL     OW34894   2.895   3.291   9.037  0.2377 -0.0888  0.0135
 7811SOL    HW134895   2.847   3.286   8.954 -0.8439 -0.4372  0.6531
 7811SOL    HW234896   2.826   3.312   9.100  0.8743 -0.2952  0.7680
 7812SOL     OW34897   3.365   1.834  12.972 -1.0853  0.1104 -0.2683
 7812SOL    HW134898   3.301   1.902  12.950  0.5173  2.4831  2.3555
 7812SOL    HW234899   3.312   1.766  13.013 -0.5529 -0.6791 -0.8941
 7813SOL     OW34900   0.270   2.034   5.158  0.4754  0.1084 -0.5110
 7813SOL    HW134901   0.272   1.948   5.198 -1.9800  0.4130  0.2548
 7813SOL    HW234902   0.350   2.060   5.205  1.2917  0.4283 -2.0749
 7814SOL     OW34903   3.865   2.759   8.558 -0.0844 -0.0865 -0.0974
 7814SOL    HW134904   3.823   2.679   8.526  1.1260 -0.4856 -0.7016
 7814SOL    HW234905   3.805   2.822   8.517 -1.0947 -0.4340  0.8319
 7815SOL     OW34906   0.483   4.597   5.448 -0.1704  0.4932 -0.2232
 7815SOL    HW134907   0.427   4.567   5.520 -1.4604  2.4964 -0.3975
 7815SOL    HW234908   0.426   4.592   5.372 -1.9864  0.3351  1.1616
 7816SOL     OW34909   0.469   2.138   8.931 -0.2003  0.4716 -0.4033
 7816SOL    HW134910   0.379   2.105   8.929  0.6357 -1.9029  0.8855
 7816SOL    HW234911   0.479   2.161   9.024  2.2320 -2.2757  0.0122
 7817SOL     OW34912   1.635   0.467   2.387  0.4678 -0.2530  0.0798
 7817SOL    HW134913   1.547   0.468   2.424  0.2469 -0.4390 -0.4442
 7817SOL    HW234914   1.692   0.460   2.464 -0.7221 -0.2749  0.9554
 7818SOL     OW34915   4.509   0.420   6.215 -0.5574 -0.3837  0.0477
 7818SOL    HW134916   4.579   0.368   6.256  1.6732  1.6246 -1.1809
 7818SOL    HW234917   4.452   0.358   6.171 -1.1745  1.0270 -1.1498
 7819SOL     OW34918   1.059   0.304  15.873  0.1202 -0.2122  0.2797
 7819SOL    HW134919   0.978   0.353  15.887 -1.5865 -1.8474 -3.8071
 7819SOL    HW234920   1.079   0.282  15.963 -1.1113 -2.2249  0.0681
 7820SOL     OW34921   3.315   4.376  11.861 -0.5653 -0.0996  0.6400
 7820SOL    HW134922   3.249   4.426  11.814  1.5975  2.2117  0.0793
 7820SOL    HW234923   3.329   4.304  11.799 -0.6308 -0.0766  0.5986
 7821SOL     OW34924   1.295   4.262   6.486 -0.3230 -0.3737  0.0522
 7821SOL    HW134925   1.256   4.343   6.520 -0.4185 -0.8620  1.0924
 7821SOL    HW234926   1.265   4.255   6.396  1.8210  1.0999 -0.7789
 7822SOL     OW34927   3.372   2.339  13.310  0.1796 -0.1605  0.7710
 7822SOL    HW134928   3.334   2.406  13.367  0.3055  1.6443 -1.2629
 7822SOL    HW234929   3.320   2.262  13.333 -1.8180  0.3467 -1.9942
 7823SOL     OW34930   2.717   0.677   3.990 -0.3275  0.0761  0.2206
 7823SOL    HW134931   2.707   0.658   3.897  0.1880  0.3582  0.1043
 7823SOL    HW234932   2.810   0.691   4.009 -0.0344 -1.0243 -0.4383
 7824SOL     OW34933   4.182   3.919   7.105 -0.7163 -0.2637  0.7733
 7824SOL    HW134934   4.241   3.938   7.178 -1.3659 -0.8105  1.4304
 7824SOL    HW234935   4.244   3.876   7.046 -1.4780 -2.2212  1.4074
 7825SOL     OW34936   1.302   2.910  14.064  0.6527  0.0172  0.7438
 7825SOL    HW134937   1.388   2.953  14.055  1.1052 -1.4701 -2.1242
 7825SOL    HW234938   1.309   2.889  14.157 -0.0008 -0.5113  0.6677
 7826SOL     OW34939   3.774   3.322   4.665  0.2705  0.0019  0.3645
 7826SOL    HW134940   3.850   3.380   4.667  0.1359  0.1395  1.2074
 7826SOL    HW234941   3.770   3.297   4.757  1.8389 -2.8679 -0.3649
 7827SOL     OW34942   0.474   2.003   3.645 -0.1991 -0.2966 -0.0484
 7827SOL    HW134943   0.456   1.923   3.596  1.0318 -1.4604  1.3981
 7827SOL    HW234944   0.570   1.999   3.644 -0.3131 -3.7811  1.5142
 7828SOL     OW34945   3.180   2.166   5.779 -0.4990  0.0072 -0.4036
 7828SOL    HW134946   3.108   2.103   5.773  0.9720 -1.7343  0.2826
 7828SOL    HW234947   3.168   2.207   5.693  0.8788 -0.1052 -0.6435
 7829SOL     OW34948   0.797   0.810   4.074  0.5021  0.8327 -0.5244
 7829SOL    HW134949   0.733   0.741   4.090 -0.5697  2.0070  0.2570
 7829SOL    HW234950   0.877   0.758   4.066 -0.4098 -0.6710  0.2707
 7830SOL     OW34951   2.815   3.803   8.203 -0.2199  0.0725  0.0815
 7830SOL    HW134952   2.777   3.816   8.290 -0.3020 -0.8808  0.1892
 7830SOL    HW234953   2.771   3.870   8.150  1.8166  2.5739  1.5818
 7831SOL     OW34954   2.266   3.317   6.657  0.1411 -0.5285 -0.0787
 7831SOL    HW134955   2.178   3.281   6.652 -1.2443  2.9258 -0.8527
 7831SOL    HW234956   2.313   3.264   6.721  1.0084  1.4658  0.9434
 7832SOL     OW34957   1.951   1.654  17.429 -0.0950 -0.1952 -0.4156
 7832SOL    HW134958   1.882   1.587  17.426 -1.9242  1.6126  1.6187
 7832SOL    HW234959   1.948   1.664  17.334 -0.3008  0.8341 -0.2962
 7833SOL     OW34960   1.032   2.183   2.610 -0.4509 -0.3065 -0.0757
 7833SOL    HW134961   0.958   2.220   2.562  0.1775  1.8519  0.6080
 7833SOL    HW234962   1.077   2.266   2.623 -1.0306 -0.0126  0.0667
 7834SOL     OW34963   1.960   3.365   7.396 -0.1062  0.0260 -0.1095
 7834SOL    HW134964   1.978   3.458   7.407 -1.6835  0.2704  0.5538
 7834SOL    HW234965   1.956   3.333   7.487  1.1673  2.6432  0.8457
 7835SOL     OW34966   1.817   0.509   5.702 -0.3688  0.3496  0.0389
 7835SOL    HW134967   1.871   0.559   5.642 -0.1742  0.4993  0.3411
 7835SOL    HW234968   1.887   0.475   5.758 -0.5954 -0.6049 -0.2451
 7836SOL     OW34969   1.997   2.535  15.068  1.1049  0.0226 -1.1546
 7836SOL    HW134970   1.988   2.507  14.978 -0.5913 -1.8540 -0.3850
 7836SOL    HW234971   1.938   2.480  15.119 -0.2209  2.8409  0.3937
 7837SOL     OW34972   2.954   2.924   5.841 -0.1119 -0.0515 -0.0859
 7837SOL    HW134973   2.934   2.874   5.920  0.8805  0.1881  0.3231
 7837SOL    HW234974   2.894   2.996   5.859 -0.9775 -0.7341 -0.2469
 7838SOL     OW34975   1.704   3.671   4.880  0.0889  0.5537 -0.2053
 7838SOL    HW134976   1.793   3.636   4.886  0.8249  1.9620 -3.2960
 7838SOL    HW234977   1.692   3.688   4.787  1.1135  0.5016 -0.3398
 7839SOL     OW34978   0.616   0.916   2.458  0.2179 -0.3996 -0.1511
 7839SOL    HW134979   0.692   0.911   2.401  2.2018 -1.5287  2.6101
 7839SOL    HW234980   0.656   0.887   2.539  0.4610  0.8467  0.1677
 7840SOL     OW34981   0.929   0.214  17.471  0.0002  0.2760  0.2551
 7840SOL    HW134982   0.851   0.267  17.450 -1.5750 -2.0663  0.2387
 7840SOL    HW234983   0.895   0.173  17.550  0.1522  0.5388  0.4592
 7841SOL     OW34984   3.376   4.660   2.268 -0.0954 -0.4216 -0.2521
 7841SOL    HW134985   3.398   4.578   2.314  0.3522 -0.0588  0.1891
 7841SOL    HW234986   3.420   4.650   2.184 -4.0330 -0.4630 -2.3025
 7842SOL     OW34987   3.956   2.549  12.704 -0.0354 -0.0219  0.0253
 7842SOL    HW134988   3.983   2.612  12.771 -0.5922  0.4447 -0.1891
 7842SOL    HW234989   3.927   2.605  12.632 -0.9685 -2.0473 -1.1526
 7843SOL     OW34990   4.151   0.830   7.728  0.1265  0.0003 -0.0429
 7843SOL    HW134991   4.081   0.791   7.676  0.1660 -1.9426  1.3947
 7843SOL    HW234992   4.185   0.756   7.778  1.3952  2.0204  2.0947
 7844SOL     OW34993   3.458   1.005   8.011  0.1746 -0.4785  0.2773
 7844SOL    HW134994   3.550   0.985   7.991  0.4085  0.6446  0.2165
 7844SOL    HW234995   3.426   1.042   7.929  2.7382  0.7175 -0.1840
 7845SOL     OW34996   1.283   1.364   8.109 -0.5213 -0.4668 -0.1517
 7845SOL    HW134997   1.340   1.305   8.158 -0.4944  0.0789  0.4692
 7845SOL    HW234998   1.231   1.410   8.175 -0.6164  0.3191 -0.7696
 7846SOL     OW34999   3.514   2.358  17.159  0.0333 -0.5153 -0.2535
 7846SOL    HW135000   3.539   2.267  17.176  0.9396 -0.3741 -0.8593
 7846SOL    HW235001   3.514   2.393  17.248 -1.8108 -1.7595  0.2360
 7847SOL     OW35002   1.080   2.370  14.314  0.0486 -0.5318  0.8380
 7847SOL    HW135003   1.050   2.367  14.405  0.0724  0.9955  0.8927
 7847SOL    HW235004   1.002   2.368  14.259 -0.2553 -1.2943  1.3040
 7848SOL     OW35005   3.822   4.617   9.838 -0.1293  0.2459  0.5948
 7848SOL    HW135006   3.784   4.539   9.877 -1.6638 -0.5594 -2.5172
 7848SOL    HW235007   3.848   4.663   9.918 -0.4006 -1.6671  1.7865
 7849SOL     OW35008   4.051   1.233   3.573  0.4223 -0.6693 -0.0526
 7849SOL    HW135009   3.981   1.278   3.526  0.7892 -0.4425 -0.3772
 7849SOL    HW235010   4.013   1.250   3.659  2.2145  0.8638  0.4502
 7850SOL     OW35011   0.064   0.713  12.060  0.0886 -0.4134  0.0088
 7850SOL    HW135012   0.125   0.674  12.122 -1.0606  0.1492  1.5124
 7850SOL    HW235013   0.101   0.675  11.981 -2.1091 -3.4622  0.4463
 7851SOL     OW35014   2.765   4.086  13.120 -0.2661 -0.5240  0.5484
 7851SOL    HW135015   2.797   4.001  13.090 -1.0139 -0.3599 -0.7425
 7851SOL    HW235016   2.672   4.074  13.101  0.0508 -1.4928 -0.4153
 7852SOL     OW35017   2.414   0.051   7.575 -0.7238 -0.1394 -0.1019
 7852SOL    HW135018   2.380   0.092   7.495 -0.6634  0.2268  0.0592
 7852SOL    HW235019   2.363   4.688   7.569 -0.9637  0.0664 -0.8182
 7853SOL     OW35020   0.450   0.177  12.839  0.0507  0.0539  0.1783
 7853SOL    HW135021   0.501   0.109  12.883  1.9130  2.1227  1.2248
 7853SOL    HW235022   0.366   0.133  12.826  1.5985 -2.5268 -0.9719
 7854SOL     OW35023   0.895   0.865  11.530 -0.3121 -0.2220  0.2864
 7854SOL    HW135024   0.871   0.917  11.453 -2.8809  0.3442  1.4598
 7854SOL    HW235025   0.919   0.934  11.592 -0.6294  0.2275 -0.0891
 7855SOL     OW35026   2.838   4.463   8.723 -0.4297  0.3235  0.1224
 7855SOL    HW135027   2.828   4.371   8.749 -0.8470 -0.0614 -1.3448
 7855SOL    HW235028   2.797   4.501   8.800 -1.0621 -1.5080  0.6919
 7856SOL     OW35029   1.127   1.828   8.422 -0.9669  0.0078  0.4290
 7856SOL    HW135030   1.065   1.881   8.472  0.8384  2.1035  0.4121
 7856SOL    HW235031   1.093   1.738   8.427 -0.0512 -0.2426  2.1976
 7857SOL     OW35032   0.041   2.624   6.165 -0.2486  0.3930  0.3633
 7857SOL    HW135033   0.081   2.575   6.092  0.2126  0.2616  0.7086
 7857SOL    HW235034   4.666   2.622   6.141 -0.5179 -2.2872  1.5824
 7858SOL     OW35035   3.696   0.806   3.445 -0.0278 -0.1760  0.5684
 7858SOL    HW135036   3.685   0.823   3.539  1.2597  1.3530  0.4212
 7858SOL    HW235037   3.718   0.713   3.455 -0.1775  0.0177  2.6848
 7859SOL     OW35038   0.937   4.264   1.753 -0.6054  0.9116 -0.0360
 7859SOL    HW135039   0.943   4.297   1.663  1.1181 -1.4573 -0.7930
 7859SOL    HW235040   0.842   4.263   1.760 -0.7608  0.0292 -2.3148
 7860SOL     OW35041   4.071   3.899   4.442  0.3929 -0.2938 -0.0996
 7860SOL    HW135042   3.979   3.924   4.454  1.0932  1.8328  0.8264
 7860SOL    HW235043   4.062   3.828   4.377 -1.2588 -0.2817  0.1143
 7861SOL     OW35044   2.867   0.510   3.094  0.2412 -0.0732  0.2965
 7861SOL    HW135045   2.820   0.592   3.079  0.9930  0.4184  0.6160
 7861SOL    HW235046   2.949   0.536   3.052  0.9707 -1.0531  1.0893
 7862SOL     OW35047   0.102   2.983   4.866 -0.1691  0.3153 -0.6318
 7862SOL    HW135048   0.133   2.958   4.779  0.5749  0.4312 -0.3976
 7862SOL    HW235049   0.012   2.951   4.866 -0.4929  1.1996 -1.1146
 7863SOL     OW35050   0.509   1.387   8.808  0.4569 -0.1162 -0.2968
 7863SOL    HW135051   0.589   1.439   8.802  1.2514 -1.3901 -0.5842
 7863SOL    HW235052   0.480   1.415   8.896  1.3068  0.4866 -0.2059
 7864SOL     OW35053   2.990   1.891   4.892  0.2910 -0.0962  0.3516
 7864SOL    HW135054   3.022   1.806   4.861 -1.0295 -0.8135  0.9766
 7864SOL    HW235055   2.949   1.926   4.813 -1.9937 -0.5749  1.3271
 7865SOL     OW35056   0.153   2.459  17.307  0.1028  0.3650 -0.2320
 7865SOL    HW135057   0.134   2.467  17.400  0.8180 -2.2519  0.1437
 7865SOL    HW235058   0.073   2.425  17.268  0.0994  1.1533 -0.9117
 7866SOL     OW35059   4.571   4.381   4.571 -0.2157 -0.3201  0.0781
 7866SOL    HW135060   4.487   4.394   4.529 -0.3821 -0.6140  0.3208
 7866SOL    HW235061   4.584   4.290   4.544 -1.7259 -0.9002  1.3128
 7867SOL     OW35062   2.401   3.478   7.566 -0.4333 -0.5917  0.0209
 7867SOL    HW135063   2.306   3.464   7.567 -0.3630 -1.0170  0.6202
 7867SOL    HW235064   2.397   3.566   7.527  1.3204  0.5891  2.5173
 7868SOL     OW35065   0.718   3.099   8.684 -0.4407 -0.3316  0.0616
 7868SOL    HW135066   0.748   3.175   8.734 -0.8680  1.3249 -2.2047
 7868SOL    HW235067   0.751   3.030   8.741  0.2328  0.0411  0.1183
 7869SOL     OW35068   1.893   0.618  16.411  0.3637  0.1144  0.4296
 7869SOL    HW135069   1.928   0.534  16.440  0.9331  0.9572  2.1182
 7869SOL    HW235070   1.939   0.676  16.471 -0.5602  2.1368 -0.8175
 7870SOL     OW35071   4.406   3.461   4.529 -0.4868  0.1595  0.0849
 7870SOL    HW135072   4.396   3.544   4.482 -0.6245  0.3452  0.4402
 7870SOL    HW235073   4.335   3.424   4.476 -0.8450  0.4710  0.3499
 7871SOL     OW35074   2.060   0.230  12.545  0.0321 -0.0305  0.1485
 7871SOL    HW135075   2.070   0.183  12.628  0.0197  1.5588  1.0351
 7871SOL    HW235076   2.010   0.163  12.498  0.8973  0.4775 -1.4901
 7872SOL     OW35077   3.569   2.636   8.974  0.0728  0.1231 -0.1787
 7872SOL    HW135078   3.638   2.590   8.927 -1.7274 -1.3440 -1.3886
 7872SOL    HW235079   3.549   2.566   9.036 -1.6793 -0.8776 -1.8709
 7873SOL     OW35080   4.493   4.134   5.163  0.0349  0.0794  0.8654
 7873SOL    HW135081   4.549   4.124   5.241  0.8996 -1.0769  0.0953
 7873SOL    HW235082   4.545   4.103   5.089 -1.9926  2.3660 -1.5155
 7874SOL     OW35083   1.545   4.008  14.322  0.2924 -0.6938 -0.1250
 7874SOL    HW135084   1.533   4.102  14.339  1.9542 -0.1787 -1.7522
 7874SOL    HW235085   1.454   3.980  14.319  1.1512 -3.4338 -0.6566
 7875SOL     OW35086   0.546   1.259   2.523 -0.2025  0.0677  0.1250
 7875SOL    HW135087   0.614   1.241   2.588  1.8960  2.1392 -1.5095
 7875SOL    HW235088   0.594   1.254   2.441 -1.6746  1.8296 -0.8404
 7876SOL     OW35089   4.531   4.451  11.963  0.3809 -0.0208 -0.2118
 7876SOL    HW135090   4.598   4.456  11.895  1.7566  0.8379  1.1972
 7876SOL    HW235091   4.581   4.426  12.041 -1.8763 -1.2611  0.8191
 7877SOL     OW35092   1.274   2.608   9.262 -0.1537  0.4944 -0.1787
 7877SOL    HW135093   1.262   2.671   9.191  0.6745 -1.3851 -1.9787
 7877SOL    HW235094   1.338   2.647   9.320  2.0503 -1.6563 -1.1625
 7878SOL     OW35095   1.223   4.605  16.633 -0.3039 -0.2033  0.2314
 7878SOL    HW135096   1.310   4.643  16.645  0.7406 -2.8066  1.0453
 7878SOL    HW235097   1.166   4.666  16.679 -0.1879  1.0772 -1.3698
 7879SOL     OW35098   0.309   2.718  13.173  0.5516 -0.3240  0.7693
 7879SOL    HW135099   0.330   2.808  13.145 -0.7263  0.2468  1.6610
 7879SOL    HW235100   0.272   2.731  13.260  2.3056 -1.2731  1.6659
 7880SOL     OW35101   2.992   1.158  14.598 -0.2893  0.1802 -0.1759
 7880SOL    HW135102   2.912   1.116  14.567 -1.2420  0.6604  1.6469
 7880SOL    HW235103   2.943   1.184  14.676 -2.3216  2.7142 -2.3012
 7881SOL     OW35104   3.153   0.597   7.151 -0.3207 -0.4972 -0.1297
 7881SOL    HW135105   3.164   0.586   7.245 -1.7789  1.1589  0.2222
 7881SOL    HW235106   3.233   0.556   7.117  0.1170  1.5686 -1.6011
 7882SOL     OW35107   4.201   0.524   3.916 -0.6141  0.2263 -0.2878
 7882SOL    HW135108   4.129   0.463   3.900 -0.0158 -0.1066 -1.7297
 7882SOL    HW235109   4.180   0.561   4.001 -2.5540 -1.6267  0.0388
 7883SOL     OW35110   4.384   2.801   2.777  0.4772  0.5200  0.6779
 7883SOL    HW135111   4.361   2.852   2.699  0.4424 -2.0355 -1.0062
 7883SOL    HW235112   4.357   2.716   2.740  0.0467  0.4252  1.2115
 7884SOL     OW35113   1.026   1.862  15.604 -0.8453  0.1473 -0.6053
 7884SOL    HW135114   0.941   1.893  15.571 -0.4213  3.1586  1.1207
 7884SOL    HW235115   1.054   1.847  15.514  0.4297 -1.0879  0.0117
 7885SOL     OW35116   0.509   3.551   7.243  0.0695 -0.1335 -0.1534
 7885SOL    HW135117   0.452   3.543   7.320 -0.7268 -0.0850 -0.7348
 7885SOL    HW235118   0.586   3.504   7.273 -0.5086 -0.0313  1.5169
 7886SOL     OW35119   3.219   3.704  11.649  0.4185 -0.7633  0.5754
 7886SOL    HW135120   3.242   3.617  11.683 -1.0367 -1.3962 -0.0124
 7886SOL    HW235121   3.280   3.720  11.578  0.0102  1.6974  0.7732
 7887SOL     OW35122   2.842   2.024   6.498 -0.0844 -0.0633 -0.0622
 7887SOL    HW135123   2.747   2.030   6.498 -0.0605  0.3009 -0.2029
 7887SOL    HW235124   2.850   1.974   6.416  0.0213 -0.3673  0.1315
 7888SOL     OW35125   3.388   4.607   7.481  0.4725 -0.7025 -0.1411
 7888SOL    HW135126   3.329   4.634   7.411  0.3457 -0.5363  0.0300
 7888SOL    HW235127   3.340   4.534   7.520  1.2732 -0.4105  1.4212
 7889SOL     OW35128   2.354   0.612   3.985  0.2163  0.1647 -0.6299
 7889SOL    HW135129   2.414   0.634   4.055 -0.7710  0.3161  0.1682
 7889SOL    HW235130   2.395   0.545   3.930  0.3828 -0.1574 -0.1105
 7890SOL     OW35131   1.323   2.540   4.158  0.1049  0.1554 -0.3243
 7890SOL    HW135132   1.372   2.480   4.214 -1.7385  1.1135  2.3397
 7890SOL    HW235133   1.275   2.596   4.220  0.2858 -1.5829  1.3995
 7891SOL     OW35134   2.089   0.898  12.939 -0.1075 -0.0713 -0.5566
 7891SOL    HW135135   2.031   0.965  12.904 -1.7333 -2.2287 -1.9390
 7891SOL    HW235136   2.175   0.924  12.905  0.9148 -2.4848  0.1612
 7892SOL     OW35137   3.330   2.965   6.115  0.0913  0.2744 -0.2727
 7892SOL    HW135138   3.260   2.905   6.142 -0.4466  0.3980 -1.4205
 7892SOL    HW235139   3.306   2.980   6.024 -1.4307 -1.2902 -0.1374
 7893SOL     OW35140   1.577   1.843   0.844 -0.2651  0.0257  0.4073
 7893SOL    HW135141   1.543   1.803   0.764 -0.3182  1.2089 -0.1609
 7893SOL    HW235142   1.499   1.834   0.899 -0.1645 -2.2036  0.1977
 7894SOL     OW35143   2.902   3.361  15.665 -0.7577  0.3467  0.3982
 7894SOL    HW135144   2.995   3.354  15.689 -0.8454  0.1730  0.6890
 7894SOL    HW235145   2.914   3.414  15.586 -0.4327  0.2907  0.4104
 7895SOL     OW35146   1.352   3.277   2.093 -0.4771 -0.4942  0.8547
 7895SOL    HW135147   1.396   3.236   2.167 -2.9208 -0.5674  2.2853
 7895SOL    HW235148   1.428   3.295   2.038 -3.1132  0.3940 -2.5340
 7896SOL     OW35149   1.272   0.008  13.997 -0.2792  0.0215 -0.2555
 7896SOL    HW135150   1.262   0.085  13.940  1.3104  0.8122  0.5471
 7896SOL    HW235151   1.237   0.043  14.079  0.2481  2.1586 -0.9367
 7897SOL     OW35152   0.401   0.142   4.408  0.1778  0.3398  0.3865
 7897SOL    HW135153   0.428   0.090   4.484 -2.3062  2.0764  2.4380
 7897SOL    HW235154   0.469   0.209   4.408  2.0060 -1.4981  0.4308
 7898SOL     OW35155   2.159   3.402   4.304  0.2094  0.2279  0.1291
 7898SOL    HW135156   2.253   3.397   4.287  0.0258  1.6497 -1.2512
 7898SOL    HW235157   2.138   3.310   4.288  1.0243  0.0034  0.3383
 7899SOL     OW35158   0.161   0.470   6.673  0.2251 -0.3292 -0.6465
 7899SOL    HW135159   0.166   0.375   6.687 -2.8664 -0.6383 -1.5367
 7899SOL    HW235160   0.073   0.474   6.636  0.1273 -0.5948 -0.4444
 7900SOL     OW35161   0.338   3.824  12.787 -0.1085  0.1524  0.4762
 7900SOL    HW135162   0.316   3.898  12.730  1.0018 -0.3857 -0.6505
 7900SOL    HW235163   0.432   3.814  12.800 -0.1439  0.8314  1.3061
 7901SOL     OW35164   0.310   3.889  11.553  0.2064  0.1899 -0.3288
 7901SOL    HW135165   0.227   3.865  11.510 -1.0603  1.5120  1.3816
 7901SOL    HW235166   0.371   3.877  11.481 -0.7038 -0.9782 -0.9272
 7902SOL     OW35167   1.716   0.198  11.501  0.1700 -0.3186  0.3906
 7902SOL    HW135168   1.657   0.144  11.448 -0.3295 -0.3600  0.9871
 7902SOL    HW235169   1.649   0.256  11.535  0.6526 -0.9293  2.3995
 7903SOL     OW35170   3.645   3.051   8.948 -0.2337 -0.0896 -0.2323
 7903SOL    HW135171   3.645   3.080   9.039  1.9452  1.7608 -0.8144
 7903SOL    HW235172   3.738   3.071   8.935 -0.4805 -1.0235 -3.3786
 7904SOL     OW35173   0.434   2.655   2.844 -0.0703 -0.4656  0.3644
 7904SOL    HW135174   0.396   2.567   2.842  1.6510 -1.1685 -1.4859
 7904SOL    HW235175   0.407   2.679   2.756  0.8249 -1.5071 -0.1949
 7905SOL     OW35176   0.731   2.412   6.710  1.0797 -0.1145  0.1423
 7905SOL    HW135177   0.684   2.463   6.645 -0.4446  0.0621  1.3981
 7905SOL    HW235178   0.687   2.328   6.725 -0.7680  1.2513  2.4203
 7906SOL     OW35179   0.340   1.396   8.588 -0.1344  0.6834  0.2861
 7906SOL    HW135180   0.387   1.378   8.670  0.7393  0.3555 -0.2840
 7906SOL    HW235181   0.371   1.321   8.538 -0.0637  1.2938 -0.5808
 7907SOL     OW35182   1.713   1.620   5.432  0.0076  0.3151 -0.3608
 7907SOL    HW135183   1.753   1.620   5.345 -1.9613  0.7575 -1.2711
 7907SOL    HW235184   1.793   1.625   5.483 -0.6876  1.9608  0.5588
 7908SOL     OW35185   4.067   4.198   6.015  0.1007 -0.9884  0.3014
 7908SOL    HW135186   4.043   4.110   5.988 -2.2223  0.0019 -0.8547
 7908SOL    HW235187   4.047   4.187   6.108  1.2863  0.0114  0.6704
 7909SOL     OW35188   0.640   2.635   3.165  0.1421 -0.2520  0.3320
 7909SOL    HW135189   0.667   2.690   3.239 -0.3513 -0.4159  0.6315
 7909SOL    HW235190   0.721   2.632   3.113 -0.6249 -3.1180 -0.7080
 7910SOL     OW35191   1.832   2.947   7.398 -0.2129 -0.4614 -0.8048
 7910SOL    HW135192   1.767   2.945   7.468 -0.0826 -1.4603 -0.7097
 7910SOL    HW235193   1.905   2.997   7.435 -1.2391  0.8932 -0.6015
 7911SOL     OW35194   3.834   0.603   1.782 -0.5103 -0.1304  0.1250
 7911SOL    HW135195   3.751   0.632   1.822  2.0972  6.1979  0.8582
 7911SOL    HW235196   3.849   0.670   1.716 -0.0402  0.4183  0.7874
 7912SOL     OW35197   3.596   1.153   4.187 -0.1469  0.0809 -0.3262
 7912SOL    HW135198   3.629   1.137   4.275 -0.9779  0.4558  0.0529
 7912SOL    HW235199   3.504   1.169   4.207  0.7410  1.5524  2.4831
 7913SOL     OW35200   0.888   2.493   1.882 -0.4348 -0.3154 -0.1482
 7913SOL    HW135201   0.977   2.485   1.916 -0.4150 -2.3075 -0.6659
 7913SOL    HW235202   0.909   2.541   1.802 -1.2827 -0.0532 -0.2102
 7914SOL     OW35203   1.154   0.190   2.580 -0.4197 -0.3579 -0.4326
 7914SOL    HW135204   1.098   0.222   2.509  0.2771 -1.4562 -1.4913
 7914SOL    HW235205   1.098   0.200   2.657 -0.9376 -0.7023 -0.7628
 7915SOL     OW35206   3.979   4.292   8.308  0.6079  0.7029  0.1012
 7915SOL    HW135207   3.894   4.332   8.328 -0.3179 -0.7845 -0.8854
 7915SOL    HW235208   4.015   4.359   8.251 -0.5696  1.5102  0.3017
 7916SOL     OW35209   0.675   3.974   7.824  0.0314  0.0506 -0.2196
 7916SOL    HW135210   0.712   3.912   7.761  1.8375 -0.7616  1.6408
 7916SOL    HW235211   0.731   3.977   7.901  0.5257 -1.4080 -0.5197
 7917SOL     OW35212   2.288   0.705   6.015  0.1028  0.3432  0.2492
 7917SOL    HW135213   2.202   0.739   5.990 -0.6807 -0.4888  1.7925
 7917SOL    HW235214   2.321   0.787   6.051 -0.4957  1.3159 -1.4013
 7918SOL     OW35215   0.133   1.672   1.305  0.1151  0.0391  0.3910
 7918SOL    HW135216   0.106   1.580   1.300  0.6158 -0.0735 -0.1451
 7918SOL    HW235217   0.070   1.702   1.371 -0.0134 -0.4810  0.5083
 7919SOL     OW35218   3.827   1.782  12.974 -0.0246  0.1263  0.6772
 7919SOL    HW135219   3.870   1.860  12.939 -0.5943 -0.2425 -0.8623
 7919SOL    HW235220   3.888   1.772  13.047  0.8201  2.0455  0.2410
 7920SOL     OW35221   1.834   1.212   3.787  0.6605 -0.0584  0.2133
 7920SOL    HW135222   1.895   1.268   3.739 -1.1839  0.4585 -1.5164
 7920SOL    HW235223   1.861   1.132   3.742 -0.9336 -0.2546 -0.3901
 7921SOL     OW35224   3.631   1.359  13.186  1.0335  0.2739  0.3547
 7921SOL    HW135225   3.696   1.402  13.242  0.7887  0.1395  0.7403
 7921SOL    HW235226   3.668   1.278  13.152 -1.3084 -0.5199 -0.3261
 7922SOL     OW35227   3.998   1.879   4.209  0.3353 -0.2985 -0.0193
 7922SOL    HW135228   3.918   1.856   4.160  0.3495 -1.7609  0.6525
 7922SOL    HW235229   4.023   1.951   4.150 -0.8732  0.5259  0.4544
 7923SOL     OW35230   4.593   3.921   3.600 -0.0920 -0.4465 -0.0742
 7923SOL    HW135231   4.599   4.009   3.563  0.3120  0.0367  1.1230
 7923SOL    HW235232   4.506   3.921   3.639 -1.7242  2.5814 -3.7496
 7924SOL     OW35233   4.436   1.757   5.694 -0.0198  0.3000 -0.2577
 7924SOL    HW135234   4.470   1.791   5.777 -0.4053 -0.9793  0.4355
 7924SOL    HW235235   4.516   1.720   5.657 -0.3595 -0.5044 -0.2050
 7925SOL     OW35236   4.627   2.617  14.661  0.1198 -0.4684  0.3383
 7925SOL    HW135237   4.671   2.673  14.725  0.8969 -0.0654 -0.5437
 7925SOL    HW235238   4.537   2.647  14.670  1.1208  2.9702 -0.8432
 7926SOL     OW35239   2.311   1.882   1.819  0.4989 -0.1214  0.2540
 7926SOL    HW135240   2.255   1.851   1.890  0.2344  0.3286  0.2422
 7926SOL    HW235241   2.262   1.947   1.769 -1.4842 -2.0367 -0.2673
 7927SOL     OW35242   3.600   2.299   2.585  0.3068  0.5833 -0.4795
 7927SOL    HW135243   3.536   2.313   2.515 -0.1571  0.3820 -0.0853
 7927SOL    HW235244   3.627   2.211   2.559 -3.8022 -0.4873 -1.0391
 7928SOL     OW35245   4.708   1.379   5.982 -0.5783  0.1611 -0.0746
 7928SOL    HW135246   0.008   1.473   5.990 -0.4384  0.0581  0.7541
 7928SOL    HW235247   4.613   1.372   5.988 -0.7694  1.4259 -1.5251
 7929SOL     OW35248   0.186   0.522  14.275 -0.4956  0.0170 -0.5909
 7929SOL    HW135249   0.106   0.472  14.292  0.1573 -1.7050 -2.5323
 7929SOL    HW235250   0.233   0.516  14.358  0.0372 -0.0640 -0.8986
 7930SOL     OW35251   3.375   3.386   3.698  0.0485  0.2205  0.1049
 7930SOL    HW135252   3.349   3.411   3.610  0.5568  0.8217  0.1232
 7930SOL    HW235253   3.469   3.370   3.691 -0.1526  0.7238 -3.4911
 7931SOL     OW35254   2.038   3.580   2.920  0.0406  0.5386 -0.0163
 7931SOL    HW135255   2.017   3.488   2.904  0.7461  0.4718 -0.5823
 7931SOL    HW235256   2.132   3.574   2.938  0.1325  2.3198  0.0339
 7932SOL     OW35257   0.414   2.162   1.663  0.2061 -0.6162 -0.3449
 7932SOL    HW135258   0.495   2.124   1.698  1.0617 -0.0831 -1.7463
 7932SOL    HW235259   0.363   2.190   1.739 -1.0812  2.1549 -2.2384
 7933SOL     OW35260   1.867   0.984  10.091  0.1062 -0.0510 -0.0204
 7933SOL    HW135261   1.959   1.011  10.082  0.2188 -0.1280  0.8432
 7933SOL    HW235262   1.831   1.002  10.005  1.8092  0.0509 -0.7107
 7934SOL     OW35263   0.656   0.607  10.996 -0.0579  0.1528 -0.1617
 7934SOL    HW135264   0.632   0.599  11.088  1.4300  1.6114  0.3658
 7934SOL    HW235265   0.747   0.637  10.992  0.8636 -2.6628 -0.5948
 7935SOL     OW35266   1.306   2.401   3.925  0.3048 -0.0071  0.9269
 7935SOL    HW135267   1.341   2.315   3.948 -1.4685 -0.9056  0.2768
 7935SOL    HW235268   1.322   2.435   4.013  2.6426 -1.5123  1.0588
 7936SOL     OW35269   1.450   0.627  12.578  0.3864  0.3795  0.4030
 7936SOL    HW135270   1.366   0.586  12.595  0.0925 -0.6330 -3.5100
 7936SOL    HW235271   1.500   0.555  12.540 -1.2267 -2.2383  3.2601
 7937SOL     OW35272   1.608   3.804   3.351 -0.2067  0.5991  0.3582
 7937SOL    HW135273   1.685   3.778   3.301  0.5639  2.4836  0.5684
 7937SOL    HW235274   1.541   3.797   3.283 -0.6404  0.3865  0.8107
 7938SOL     OW35275   2.249   4.677   2.040  0.8705  0.1534 -0.3543
 7938SOL    HW135276   2.193   4.625   2.097  0.2733  0.9017 -0.2505
 7938SOL    HW235277   2.230   4.641   1.953 -1.6738 -1.9008  1.0586
 7939SOL     OW35278   4.563   4.134   4.493  0.1061  0.1353  0.1113
 7939SOL    HW135279   4.482   4.093   4.463  0.7518 -1.8401  1.0932
 7939SOL    HW235280   4.629   4.076   4.454 -0.6600 -0.8001  0.2010
 7940SOL     OW35281   0.971   3.767  15.941  0.0868  0.4669 -0.0708
 7940SOL    HW135282   0.984   3.840  15.879  0.0428 -1.1644 -1.9957
 7940SOL    HW235283   0.947   3.700  15.877 -2.1521  0.1694  1.0947
 7941SOL     OW35284   2.660   4.280   3.550 -0.4817 -0.1854  0.0516
 7941SOL    HW135285   2.637   4.204   3.496  2.4093  0.3120 -1.8905
 7941SOL    HW235286   2.638   4.348   3.486 -2.8345 -1.9372 -0.9874
 7942SOL     OW35287   1.081   0.105   1.727 -0.6376 -0.3412  0.6173
 7942SOL    HW135288   1.081   0.191   1.769  1.2033 -0.3031  0.5480
 7942SOL    HW235289   1.055   0.052   1.802  0.1137 -1.3999  0.1293
 7943SOL     OW35290   2.912   3.995   7.066 -0.3729 -0.2424 -0.1774
 7943SOL    HW135291   2.892   3.987   7.159  0.4174 -2.7327 -0.2140
 7943SOL    HW235292   3.003   4.026   7.069  0.2557 -2.1155 -0.2714
 7944SOL     OW35293   0.439   4.408   4.561 -0.7870  0.5258  0.3711
 7944SOL    HW135294   0.348   4.403   4.592 -0.7673 -1.2193  0.1845
 7944SOL    HW235295   0.458   4.315   4.574 -2.6959 -0.0980 -1.2224
 7945SOL     OW35296   3.353   4.635   0.829  0.3395 -0.0236 -0.1815
 7945SOL    HW135297   3.381   0.008   0.819 -3.3268  1.1652  0.3591
 7945SOL    HW235298   3.433   4.592   0.861  0.0025  1.9805  3.2655
 7946SOL     OW35299   1.326   3.417  12.264 -0.1332 -0.0160  0.0891
 7946SOL    HW135300   1.311   3.326  12.291 -0.9735  0.0902 -0.0190
 7946SOL    HW235301   1.237   3.441  12.239  0.8510  0.0382 -3.3642
 7947SOL     OW35302   1.985   0.913   6.218  0.1157  0.3729  0.1131
 7947SOL    HW135303   2.072   0.939   6.247  0.6352 -0.4077 -0.7709
 7947SOL    HW235304   1.928   0.990   6.226 -0.9680 -0.3643 -0.6373
 7948SOL     OW35305   3.582   3.680  16.768 -0.3771  0.1351 -0.6197
 7948SOL    HW135306   3.657   3.625  16.787  2.1567  3.7966  0.0208
 7948SOL    HW235307   3.615   3.766  16.794 -0.3208 -0.0127 -0.1990
 7949SOL     OW35308   0.732   0.869   8.713 -0.2938  0.2478 -0.0377
 7949SOL    HW135309   0.692   0.793   8.756  1.2406 -1.8209 -2.2686
 7949SOL    HW235310   0.757   0.929   8.784 -2.0130  0.3714  0.4747
 7950SOL     OW35311   1.562   4.394   6.080 -0.0090  0.7110  0.3306
 7950SOL    HW135312   1.589   4.302   6.076 -2.2801  0.2138 -2.8979
 7950SOL    HW235313   1.575   4.410   6.174 -2.4738 -1.2553  1.0204
 7951SOL     OW35314   3.638   2.856   3.052  0.0354  0.8355 -0.3531
 7951SOL    HW135315   3.731   2.870   3.037 -0.3953  1.6181 -2.2649
 7951SOL    HW235316   3.616   2.874   2.961 -3.4879  0.5705  0.4504
 7952SOL     OW35317   2.752   1.137   7.224 -0.2221 -0.6562 -0.3777
 7952SOL    HW135318   2.710   1.151   7.309  0.3383 -0.0153 -0.1992
 7952SOL    HW235319   2.842   1.162   7.244  0.4591 -3.0763 -0.4916
 7953SOL     OW35320   1.321   0.838   5.268  0.2586  0.6691 -0.2257
 7953SOL    HW135321   1.346   0.770   5.331 -0.3201  0.1914 -0.5139
 7953SOL    HW235322   1.250   0.880   5.317 -0.5381 -0.1629 -0.6711
 7954SOL     OW35323   3.653   2.508  16.653 -0.3030  0.1677 -0.5915
 7954SOL    HW135324   3.578   2.556  16.619  1.0108 -0.6079 -4.5353
 7954SOL    HW235325   3.704   2.580  16.690 -1.8370  0.3385  1.1710
 7955SOL     OW35326   4.499   0.421   8.518  0.2544 -0.9116  0.1289
 7955SOL    HW135327   4.493   0.503   8.468 -1.5076 -1.5759 -0.7767
 7955SOL    HW235328   4.415   0.439   8.560  0.4047  2.7501 -1.1422
 7956SOL     OW35329   0.015   2.836   4.452 -0.1217  0.1569 -0.0295
 7956SOL    HW135330   0.051   2.868   4.370 -1.0166  2.1421  0.3599
 7956SOL    HW235331   0.093   2.835   4.508 -0.4938 -1.0839  0.4633
 7957SOL     OW35332   3.149   2.265  12.967  0.4910 -0.4654  0.2801
 7957SOL    HW135333   3.144   2.249  12.873 -0.6303  0.7621  0.1298
 7957SOL    HW235334   3.163   2.174  12.992 -0.4282 -0.9220 -0.9063
 7958SOL     OW35335   1.634   0.591   2.837  0.0471  0.0095 -0.8653
 7958SOL    HW135336   1.559   0.544   2.871 -0.8021  2.4633  0.6203
 7958SOL    HW235337   1.662   0.641   2.914 -0.8156  1.1166 -1.2703
 7959SOL     OW35338   0.270   4.228   2.240  0.2910  0.5689 -0.5910
 7959SOL    HW135339   0.350   4.255   2.285  1.2588 -2.4996 -0.4872
 7959SOL    HW235340   0.207   4.240   2.311 -0.6877  0.3789 -1.4172
 7960SOL     OW35341   0.223   1.339   1.550  0.0051 -0.0786  0.0335
 7960SOL    HW135342   0.261   1.294   1.625 -2.6683 -1.3684  0.6021
 7960SOL    HW235343   0.262   1.427   1.557 -1.6563  0.3029  4.3109
 7961SOL     OW35344   0.440   1.605   7.148 -0.5461  0.0792  0.4813
 7961SOL    HW135345   0.378   1.668   7.184  1.1863  1.6453  0.7339
 7961SOL    HW235346   0.517   1.635   7.196 -0.1378  0.2904 -0.2908
 7962SOL     OW35347   3.153   0.955   4.113 -0.0825  0.0967 -0.2603
 7962SOL    HW135348   3.200   0.930   4.193 -1.8414 -1.4408  0.2970
 7962SOL    HW235349   3.171   0.880   4.057  0.1963  1.2782 -1.7393
 7963SOL     OW35350   0.153   2.874   8.858 -0.2424 -0.2746 -0.0522
 7963SOL    HW135351   0.086   2.906   8.919 -1.7574  0.1217 -1.9065
 7963SOL    HW235352   0.229   2.929   8.879  0.1934 -1.0215  0.3160
 7964SOL     OW35353   1.146   2.862   4.133 -0.2823 -0.2432  0.4833
 7964SOL    HW135354   1.223   2.889   4.083 -0.5757  0.5089  0.4536
 7964SOL    HW235355   1.088   2.822   4.069  0.9297  0.7161 -1.2250
 7965SOL     OW35356   4.698   1.072   2.416 -0.3780  0.8352 -0.0779
 7965SOL    HW135357   0.038   1.033   2.482 -0.0416 -1.1465 -1.5635
 7965SOL    HW235358   4.681   1.001   2.355  1.3603 -0.5118  1.0100
 7966SOL     OW35359   1.909   2.648   2.713 -0.0017 -0.5893  0.6778
 7966SOL    HW135360   1.854   2.570   2.698  0.2291 -0.5269 -0.5350
 7966SOL    HW235361   1.857   2.677   2.788 -1.4818 -1.2307 -0.0900
 7967SOL     OW35362   1.419   4.594   5.687  0.2719 -1.1109  0.1360
 7967SOL    HW135363   1.505   4.578   5.726  0.4763 -0.1860  0.0566
 7967SOL    HW235364   1.359   4.618   5.758 -1.1792 -0.9480 -1.1525
 7968SOL     OW35365   1.798   1.846   2.628  0.1284  0.0534  0.4455
 7968SOL    HW135366   1.836   1.789   2.561 -1.4511 -0.4416 -0.0315
 7968SOL    HW235367   1.829   1.927   2.586 -1.4390 -0.0525 -0.9198
 7969SOL     OW35368   0.125   0.413  11.076 -0.4023 -1.0436 -0.0530
 7969SOL    HW135369   0.075   0.348  11.125 -2.5388  2.1502  1.9697
 7969SOL    HW235370   0.059   0.455  11.021  1.2571  0.7034 -0.7261
 7970SOL     OW35371   4.012   0.674   7.566  0.3288 -0.0186  0.2215
 7970SOL    HW135372   3.938   0.664   7.505 -0.1687 -1.1105  1.0064
 7970SOL    HW235373   4.073   0.702   7.498  0.2007 -0.8256 -0.2242
 7971SOL     OW35374   0.290   3.169   7.676 -0.3291  0.0820 -0.7422
 7971SOL    HW135375   0.253   3.239   7.730  0.0899 -1.0084  0.9716
 7971SOL    HW235376   0.263   3.189   7.586 -1.9705  3.0555  0.4307
 7972SOL     OW35377   4.633   2.753  15.630 -0.2180 -0.4813  0.0971
 7972SOL    HW135378   4.691   2.765  15.705  2.3915 -1.2260 -1.7996
 7972SOL    HW235379   4.585   2.835  15.615  1.8252  0.8124  0.6141
 7973SOL     OW35380   1.314   4.036   6.871  0.1503  0.7230  0.5211
 7973SOL    HW135381   1.343   4.035   6.780  0.0642  1.6265  0.4865
 7973SOL    HW235382   1.271   4.121   6.882 -2.4619 -0.6242  0.7714
 7974SOL     OW35383   2.035   4.334   7.166  0.1053 -0.1611 -0.0117
 7974SOL    HW135384   2.090   4.412   7.155  1.3370 -0.9652  0.4290
 7974SOL    HW235385   1.952   4.377   7.146  0.8650 -0.1565 -3.2305
 7975SOL     OW35386   1.204   2.245   9.545  0.0568  0.0256  0.8717
 7975SOL    HW135387   1.121   2.209   9.514 -0.2661 -0.0148  1.7630
 7975SOL    HW235388   1.229   2.300   9.471 -0.2288 -0.8806  0.0982
 7976SOL     OW35389   1.018   0.933  17.170  0.0069  0.2127  0.0879
 7976SOL    HW135390   0.991   0.948  17.079 -0.5805  2.1378  0.5810
 7976SOL    HW235391   0.935   0.966  17.204 -0.0800  1.3039 -1.1545
 7977SOL     OW35392   0.925   1.050   6.825  0.1238  0.5325  0.0122
 7977SOL    HW135393   0.999   1.049   6.886  0.2183 -1.8436 -0.1506
 7977SOL    HW235394   0.923   1.145   6.809 -3.1685  0.1931 -1.5728
 7978SOL     OW35395   4.714   0.158  14.725  0.1446  1.1444  0.7576
 7978SOL    HW135396   4.671   0.149  14.810 -0.9844 -2.6192 -0.1967
 7978SOL    HW235397   0.058   0.086  14.732 -1.1675 -0.2478 -1.8901
 7979SOL     OW35398   4.373   1.528   4.796  0.0144  0.5133 -0.0212
 7979SOL    HW135399   4.464   1.547   4.774 -0.2646  0.3678 -1.3247
 7979SOL    HW235400   4.388   1.521   4.890  0.7405 -0.5538 -0.2196
 7980SOL     OW35401   4.492   3.597  12.801  0.2496 -0.2103 -0.4058
 7980SOL    HW135402   4.436   3.589  12.724  1.5080 -0.9827 -1.2535
 7980SOL    HW235403   4.425   3.587  12.868  0.1941 -0.7963 -0.5482
 7981SOL     OW35404   2.423   4.495   6.457  0.3160  0.5049  0.7401
 7981SOL    HW135405   2.394   4.411   6.423  1.1597  0.4457  0.1676
 7981SOL    HW235406   2.419   4.477   6.551  2.5990 -0.3612  0.6753
 7982SOL     OW35407   4.336   3.505   8.912 -0.0174  0.2789 -0.2777
 7982SOL    HW135408   4.387   3.472   8.838  0.1932 -0.6751  0.2902
 7982SOL    HW235409   4.330   3.599   8.892 -0.3271 -0.1055 -2.0328
 7983SOL     OW35410   3.026   2.570  11.036  0.7059  0.0842 -0.3072
 7983SOL    HW135411   3.016   2.521  11.118  0.8956  2.0604  0.8928
 7983SOL    HW235412   3.084   2.514  10.985 -0.1661  0.1540 -1.3735
 7984SOL     OW35413   3.055   4.255   0.974 -0.3882  0.6391  0.6388
 7984SOL    HW135414   3.086   4.331   0.924  0.6980 -0.8624 -0.9517
 7984SOL    HW235415   2.969   4.297   0.984 -0.5166  0.6012 -0.3492
 7985SOL     OW35416   1.780   0.979   4.998  0.0357 -0.6447 -0.1508
 7985SOL    HW135417   1.715   0.964   5.066  1.3979 -0.6372  1.1527
 7985SOL    HW235418   1.791   0.888   4.970 -0.6602 -0.7173 -0.1969
 7986SOL     OW35419   3.701   3.398   0.398 -0.0746 -0.0108 -0.1526
 7986SOL    HW135420   3.775   3.453   0.422  0.5763  0.3223 -2.9890
 7986SOL    HW235421   3.690   3.339   0.473  0.6117  0.1273  0.0513
 7987SOL     OW35422   2.559   3.692   5.036 -0.0389  0.1784 -0.9115
 7987SOL    HW135423   2.497   3.673   5.107  2.8860 -0.9623  1.3319
 7987SOL    HW235424   2.637   3.641   5.058  0.1226  1.3342  1.1756
 7988SOL     OW35425   0.642   4.495   0.133 -0.1001 -0.1895 -0.4565
 7988SOL    HW135426   0.594   4.530   0.058  0.7509  0.6802 -0.5990
 7988SOL    HW235427   0.670   4.412   0.096 -1.4099 -0.8001 -0.0724
 7989SOL     OW35428   2.951   0.062   8.920  0.4903  0.0492 -0.4412
 7989SOL    HW135429   2.971   0.097   9.007  0.0479  0.9314 -0.6889
 7989SOL    HW235430   2.892   4.706   8.936 -0.9994  1.2489 -0.4075
 7990SOL     OW35431   0.384   3.164   5.306 -0.2895  0.0283  0.1193
 7990SOL    HW135432   0.312   3.203   5.355 -1.9986 -1.9175 -0.8193
 7990SOL    HW235433   0.362   3.130   5.219 -0.4275  0.2033  0.0859
 7991SOL     OW35434   2.743   4.427   6.101  0.7451  0.3744 -0.5459
 7991SOL    HW135435   2.666   4.441   6.047 -0.4317 -0.6866  0.8837
 7991SOL    HW235436   2.710   4.440   6.189  3.6728 -0.7642  0.7395
 7992SOL     OW35437   2.585   1.919   8.345 -0.0008  0.3902 -0.0757
 7992SOL    HW135438   2.664   1.890   8.301  0.7321  0.9056  0.8955
 7992SOL    HW235439   2.590   2.014   8.344  1.2266  0.3437  1.2484
 7993SOL     OW35440   3.037   3.906   5.708 -0.1595  0.5133 -0.1321
 7993SOL    HW135441   3.005   3.992   5.680  1.6064  1.6497  1.3289
 7993SOL    HW235442   3.007   3.901   5.798  1.1407  1.4835  0.3551
 7994SOL     OW35443   3.659   1.996   3.265 -0.2568  0.6716  0.5144
 7994SOL    HW135444   3.618   1.992   3.179 -1.1507 -1.6743  1.0460
 7994SOL    HW235445   3.590   1.940   3.301  1.0599 -0.5717  1.0937
 7995SOL     OW35446   4.375   2.331  11.340 -0.1791 -0.5582  0.1559
 7995SOL    HW135447   4.432   2.383  11.397 -0.2416  1.3519 -1.5644
 7995SOL    HW235448   4.363   2.389  11.265 -0.8759  0.0515  0.7373
 7996SOL     OW35449   3.963   0.987   9.100  0.1808  0.7124 -0.1418
 7996SOL    HW135450   3.986   1.074   9.133 -0.0096 -0.0759  2.0258
 7996SOL    HW235451   4.051   0.953   9.086  0.2019  0.1497  1.3567
 7997SOL     OW35452   1.859   1.494   7.191  0.0553  0.3622  0.0804
 7997SOL    HW135453   1.768   1.463   7.189 -1.0665  3.3554  3.4151
 7997SOL    HW235454   1.893   1.441   7.120  4.0624  1.0268  1.5406
 7998SOL     OW35455   1.519   0.737   6.975  0.5379  0.0178  1.0387
 7998SOL    HW135456   1.447   0.681   6.948  0.2699  0.9794 -0.2110
 7998SOL    HW235457   1.588   0.670   6.974  0.6312  0.0381  4.6665
 7999SOL     OW35458   0.043   0.508   8.635 -0.4731  0.6348  0.6119
 7999SOL    HW135459   4.667   0.510   8.616  0.1018  0.7178 -2.1191
 7999SOL    HW235460   0.059   0.507   8.730  0.6580  0.7010  0.4219
 8000SOL     OW35461   3.832   0.644   4.313  0.0565 -0.3760  0.0911
 8000SOL    HW135462   3.777   0.588   4.259  2.4549 -2.2106 -0.4747
 8000SOL    HW235463   3.885   0.577   4.356  1.4839  0.5337 -0.2425
 8001SOL     OW35464   1.314   1.774   5.529  0.3698  0.4676 -0.1246
 8001SOL    HW135465   1.251   1.704   5.545  1.5848 -0.2755  1.3920
 8001SOL    HW235466   1.290   1.797   5.439  0.4712  0.6282 -0.1123
 8002SOL     OW35467   3.609   2.998   3.296 -0.2748 -0.4486 -0.1456
 8002SOL    HW135468   3.663   2.929   3.334 -0.0558 -0.1022  0.1728
 8002SOL    HW235469   3.583   2.948   3.219 -0.9570 -0.3775  0.0450
 8003SOL     OW35470   2.858   4.422   2.889  0.2867 -0.1071 -0.3999
 8003SOL    HW135471   2.799   4.490   2.857  0.2547  0.2235  0.3485
 8003SOL    HW235472   2.927   4.413   2.824  2.5801 -0.5481  2.0841
 8004SOL     OW35473   4.599   3.262   4.497 -0.6015 -0.0805  0.0174
 8004SOL    HW135474   4.584   3.233   4.407 -1.1607  1.0821 -0.2683
 8004SOL    HW235475   4.541   3.337   4.507 -0.4329  0.2056 -1.1702
 8005SOL     OW35476   2.804   0.359   9.518 -0.0625 -0.1442 -0.1420
 8005SOL    HW135477   2.802   0.438   9.464  0.3374  0.8805  1.3566
 8005SOL    HW235478   2.732   0.377   9.579 -0.9518  0.0138 -1.2381
 8006SOL     OW35479   2.758   0.520   5.062  0.2052 -0.3936 -0.2720
 8006SOL    HW135480   2.707   0.598   5.082  1.9216  0.5469  0.4984
 8006SOL    HW235481   2.838   0.563   5.031  0.8476 -0.5002  1.2120
 8007SOL     OW35482   4.164   4.114   6.454 -0.5663 -0.3515  0.6283
 8007SOL    HW135483   4.103   4.120   6.381 -0.1670  1.9313  0.4720
 8007SOL    HW235484   4.111   4.068   6.519  0.9093 -2.1005  0.5909
 8008SOL     OW35485   3.755   1.629   6.672 -0.2887  1.3360 -0.0879
 8008SOL    HW135486   3.747   1.541   6.710  1.0305  0.6034 -1.5158
 8008SOL    HW235487   3.781   1.684   6.746 -2.2469 -0.2067  1.7855
 8009SOL     OW35488   4.637   1.105   7.711  0.1545 -0.2828  0.0114
 8009SOL    HW135489   0.001   1.055   7.719  0.4891  0.3084  0.2731
 8009SOL    HW235490   4.647   1.146   7.626 -0.1425  0.4535  0.3357
 8010SOL     OW35491   4.385   2.620   4.933  0.3004 -0.0399 -0.2999
 8010SOL    HW135492   4.434   2.544   4.899  0.3003  1.0289 -2.6765
 8010SOL    HW235493   4.413   2.616   5.024 -2.7412 -1.4768  0.5448
 8011SOL     OW35494   2.493   3.580   4.539  0.1980  0.0029  0.2121
 8011SOL    HW135495   2.515   3.562   4.448 -0.6257 -1.2318  0.2485
 8011SOL    HW235496   2.449   3.664   4.534  0.3518 -0.0659 -2.4017
 8012SOL     OW35497   0.700   1.981   2.925  0.1496 -0.3770  0.3664
 8012SOL    HW135498   0.780   1.987   2.872  0.9725 -0.4070  1.5964
 8012SOL    HW235499   0.697   1.888   2.948 -1.7494 -0.1312  1.0784
 8013SOL     OW35500   4.316   1.322  10.487 -0.0621  0.1096 -0.1152
 8013SOL    HW135501   4.319   1.328  10.582  0.7879  1.8422 -0.2472
 8013SOL    HW235502   4.380   1.256  10.460  1.7125  1.0722  1.7109
 8014SOL     OW35503   1.454   0.244  16.888  0.7331 -0.2859  0.4611
 8014SOL    HW135504   1.544   0.259  16.859 -0.0340  0.8084 -1.3301
 8014SOL    HW235505   1.466   0.168  16.944  0.7304 -1.4967 -1.1982
 8015SOL     OW35506   4.328   1.057  14.479 -0.1171  0.5034  0.1509
 8015SOL    HW135507   4.380   1.128  14.441 -0.3615  0.3354 -0.4962
 8015SOL    HW235508   4.257   1.047  14.415 -1.2021  1.8137  1.1395
 8016SOL     OW35509   2.268   0.383  15.695 -0.1949 -0.2069 -0.5123
 8016SOL    HW135510   2.329   0.439  15.648 -0.7253  0.3068 -0.5924
 8016SOL    HW235511   2.220   0.329  15.632 -1.1436  0.3711 -0.2865
 8017SOL     OW35512   4.219   2.449   5.949  0.4593  0.0344 -0.1524
 8017SOL    HW135513   4.188   2.389   5.881 -1.1746 -1.3178  1.8086
 8017SOL    HW235514   4.200   2.399   6.028 -1.1157  1.1374  0.1630
 8018SOL     OW35515   1.655   4.714  12.619  0.5719  0.3605  0.2150
 8018SOL    HW135516   1.716   0.027  12.686 -1.1761 -0.7461  2.3366
 8018SOL    HW235517   1.643   4.623  12.646  2.6952 -0.9159 -3.1415
 8019SOL     OW35518   4.016   1.999   0.822  0.1154 -0.4089  0.2834
 8019SOL    HW135519   4.037   2.076   0.769 -1.8143 -0.4356 -0.5141
 8019SOL    HW235520   3.941   1.957   0.780 -0.4714  0.6480  0.2755
 8020SOL     OW35521   3.514   3.672  10.457 -0.5154 -0.8895  0.9109
 8020SOL    HW135522   3.592   3.670  10.512 -0.4114  0.1463  0.8044
 8020SOL    HW235523   3.545   3.661  10.367  3.9950  2.5693  2.0389
 8021SOL     OW35524   0.976   0.843   2.048 -0.7110 -0.0769  1.1139
 8021SOL    HW135525   0.995   0.794   2.127 -0.3075  1.1602  1.7951
 8021SOL    HW235526   1.032   0.919   2.066  1.2233 -1.2495 -0.0540
 8022SOL     OW35527   1.299   2.946   2.124  0.2898  0.3735 -0.1596
 8022SOL    HW135528   1.343   2.866   2.154  1.4699  2.0405  2.5909
 8022SOL    HW235529   1.229   2.957   2.188 -0.1554  1.2361 -0.8042
 8023SOL     OW35530   3.157   2.127  15.034  0.0518  0.3476  0.4770
 8023SOL    HW135531   3.077   2.080  15.013  0.9139 -0.9057  0.0117
 8023SOL    HW235532   3.200   2.126  14.948  0.0445 -1.0456  0.4843
 8024SOL     OW35533   2.404   1.759   7.927  0.5718  0.1852  0.0989
 8024SOL    HW135534   2.439   1.681   7.970 -2.2666 -0.7847  0.6708
 8024SOL    HW235535   2.347   1.790   7.997  2.6139  1.5429  1.1251
 8025SOL     OW35536   2.844   2.824   3.042  0.8489 -0.0165 -0.0419
 8025SOL    HW135537   2.760   2.801   3.002 -0.4181  2.1144  1.3542
 8025SOL    HW235538   2.885   2.739   3.058 -1.6597 -1.0604  0.9550
 8026SOL     OW35539   0.001   0.216   4.122  0.0415  0.2160  0.2930
 8026SOL    HW135540   4.651   0.149   4.131 -1.7539  2.2527  2.0766
 8026SOL    HW235541   0.055   0.191   4.197  0.1033  1.0994  0.5394
 8027SOL     OW35542   1.915   1.966   5.698 -0.5127  0.2247 -0.1309
 8027SOL    HW135543   1.982   1.969   5.767  0.1772 -0.5438 -0.7697
 8027SOL    HW235544   1.941   2.034   5.636  0.4048  0.0911  0.1142
 8028SOL     OW35545   4.474   2.036  14.876  0.4036  0.7299  0.0080
 8028SOL    HW135546   4.490   2.129  14.860  1.2306  0.7535  0.9846
 8028SOL    HW235547   4.564   2.007  14.866 -0.1756 -0.5047 -1.7185
 8029SOL     OW35548   2.199   3.610  17.529  0.0790 -0.3136 -0.6830
 8029SOL    HW135549   2.116   3.632  17.485 -0.2884 -0.3606 -0.0133
 8029SOL    HW235550   2.187   3.654  17.613 -0.9215 -0.5250 -0.7064
 8030SOL     OW35551   2.543   1.564  12.661  0.7771 -0.0108 -0.1064
 8030SOL    HW135552   2.609   1.588  12.727 -0.5197 -0.5905  1.4153
 8030SOL    HW235553   2.590   1.577  12.579  0.1998  1.1868 -0.2488
 8031SOL     OW35554   1.295   4.616   0.112 -0.4350  0.2127 -0.4814
 8031SOL    HW135555   1.344   4.626   0.031 -0.5757  3.0852 -0.2193
 8031SOL    HW235556   1.224   4.679   0.101 -0.4776  0.4938  1.3747
 8032SOL     OW35557   1.188   4.193  10.534 -0.3664  0.2388 -0.3125
 8032SOL    HW135558   1.214   4.113  10.489  2.2544  0.5377  0.6545
 8032SOL    HW235559   1.269   4.244  10.540  0.0815 -0.4109 -0.8209
 8033SOL     OW35560   1.270   2.860  14.324 -0.6536  0.5573 -0.2809
 8033SOL    HW135561   1.342   2.798  14.336 -0.7651  0.6878  1.0074
 8033SOL    HW235562   1.199   2.819  14.372 -1.9446  1.2144 -1.6238
 8034SOL     OW35563   3.842   2.855   2.087  0.2346 -0.2451  0.0318
 8034SOL    HW135564   3.788   2.776   2.076 -0.2909  0.4538 -2.4716
 8034SOL    HW235565   3.911   2.826   2.027  0.9394  0.2240  0.6217
 8035SOL     OW35566   1.722   1.248   2.339 -0.3236 -0.2640 -0.6844
 8035SOL    HW135567   1.784   1.231   2.410 -0.2955 -1.2243 -0.9437
 8035SOL    HW235568   1.645   1.275   2.389 -0.1167 -1.7356  0.4191
 8036SOL     OW35569   3.933   4.442   3.311  0.2467  0.6016 -0.1573
 8036SOL    HW135570   3.930   4.532   3.278 -1.2472  0.7985  0.5082
 8036SOL    HW235571   3.924   4.392   3.230 -3.9458 -0.3767  0.9418
 8037SOL     OW35572   3.773   3.741   8.857 -0.2725 -0.3050 -0.0041
 8037SOL    HW135573   3.757   3.672   8.793 -3.8862 -0.9002  1.5222
 8037SOL    HW235574   3.748   3.695   8.937 -2.6519 -2.5776 -2.0464
 8038SOL     OW35575   2.620   3.025  17.619  0.3302 -0.2354  0.0342
 8038SOL    HW135576   2.667   3.009   0.027  1.9760  0.2589 -0.8100
 8038SOL    HW235577   2.612   3.120  17.626  0.0834 -0.4036  2.1941
 8039SOL     OW35578   3.640   2.753   5.867  0.4048 -0.4084 -0.3845
 8039SOL    HW135579   3.605   2.813   5.932  0.7600 -0.4384 -0.1605
 8039SOL    HW235580   3.562   2.735   5.816  1.3043 -1.3634 -1.4348
 8040SOL     OW35581   0.147   3.304   2.706 -0.6659 -0.4073 -0.1675
 8040SOL    HW135582   0.238   3.309   2.735 -0.9167 -1.0969  0.7769
 8040SOL    HW235583   0.104   3.284   2.790 -3.1697 -0.0785 -1.3873
 8041SOL     OW35584   1.207   0.660   7.880  0.1916 -0.8192  0.0047
 8041SOL    HW135585   1.245   0.642   7.966 -0.5737 -0.1416  0.4759
 8041SOL    HW235586   1.280   0.630   7.826  1.1159 -0.0225  0.8162
 8042SOL     OW35587   2.385   1.047   8.315 -0.0677 -0.5562 -0.3738
 8042SOL    HW135588   2.471   1.012   8.337  0.4660  0.1606 -1.3373
 8042SOL    HW235589   2.398   1.133   8.355 -0.8603  0.1211 -1.5766
 8043SOL     OW35590   3.595   4.275   7.205 -0.9128 -0.1305  0.5553
 8043SOL    HW135591   3.603   4.219   7.128  0.9156 -0.3200  0.8878
 8043SOL    HW235592   3.633   4.356   7.171  1.2407 -1.5901 -0.4832
 8044SOL     OW35593   2.612   0.384   2.113 -0.1372  0.0236  0.1542
 8044SOL    HW135594   2.615   0.436   2.033 -1.4549 -0.1190  0.0113
 8044SOL    HW235595   2.704   0.399   2.135  0.1954 -0.3634 -1.0082
 8045SOL     OW35596   3.556   1.943   9.000  0.3511 -0.7887 -0.1368
 8045SOL    HW135597   3.536   2.036   9.007 -1.1660 -1.1768  0.6259
 8045SOL    HW235598   3.476   1.911   9.042  0.3304 -0.9720 -0.3105
 8046SOL     OW35599   0.042   2.691   5.085 -0.3727  0.2633 -0.0724
 8046SOL    HW135600   0.130   2.717   5.114 -0.6263 -1.2142  2.0004
 8046SOL    HW235601   0.069   2.607   5.047 -0.9775  0.5711 -1.1718
 8047SOL     OW35602   2.040   4.009  16.438  0.3884 -0.8273 -0.4295
 8047SOL    HW135603   2.135   4.016  16.454  0.1617  0.1787  0.5028
 8047SOL    HW235604   2.002   4.068  16.503  1.5667 -0.7628  0.2068
 8048SOL     OW35605   4.098   3.453  16.214  0.1744  0.5311  0.5915
 8048SOL    HW135606   4.071   3.432  16.303  1.3295  0.1981  0.8645
 8048SOL    HW235607   4.177   3.508  16.217  0.6361 -0.0528 -1.1345
 8049SOL     OW35608   3.274   1.674   4.116  0.3958  0.4303  0.4053
 8049SOL    HW135609   3.233   1.758   4.135  0.7099  1.1225 -1.9798
 8049SOL    HW235610   3.333   1.712   4.050 -0.2092  1.0935  0.2533
 8050SOL     OW35611   3.778   2.275   0.915 -0.2801  0.1634  0.4370
 8050SOL    HW135612   3.828   2.223   0.852  0.0105 -0.6094  1.3111
 8050SOL    HW235613   3.711   2.313   0.857 -0.0425  1.0238  0.7320
 8051SOL     OW35614   2.633   4.658   6.806  0.6774 -0.5071  0.1473
 8051SOL    HW135615   2.557   4.637   6.859 -0.2579 -1.6345 -1.6316
 8051SOL    HW235616   2.698   4.599   6.844  1.1567 -0.1407 -0.0878
 8052SOL     OW35617   3.423   2.078  11.239 -0.1332  0.5058  0.1663
 8052SOL    HW135618   3.437   2.161  11.285 -0.7413  0.3727  0.6011
 8052SOL    HW235619   3.494   2.023  11.273 -0.3229  0.3911  0.3815
 8053SOL     OW35620   2.369   2.210  15.717  0.2685 -0.3545 -0.3460
 8053SOL    HW135621   2.379   2.168  15.631 -0.5383 -1.7825  0.2528
 8053SOL    HW235622   2.456   2.193  15.751 -0.2210 -1.8020  0.1795
 8054SOL     OW35623   0.237   2.037   5.545 -0.3605  0.6566  0.4516
 8054SOL    HW135624   0.294   1.981   5.597  0.8782  1.4097 -0.1021
 8054SOL    HW235625   0.233   1.982   5.466  0.6591  0.4767  0.5219
 8055SOL     OW35626   3.012   3.893   9.170  0.1811  0.6782 -0.1795
 8055SOL    HW135627   3.103   3.863   9.181 -0.7312 -1.6155  1.3128
 8055SOL    HW235628   2.970   3.809   9.154  0.6509  0.4961 -0.4513
 8056SOL     OW35629   0.622   0.097   6.025 -0.2995 -0.1648  0.2797
 8056SOL    HW135630   0.589   0.092   6.114 -1.1328 -0.4643 -0.0375
 8056SOL    HW235631   0.716   0.113   6.033 -0.0204 -1.8309  0.3169
 8057SOL     OW35632   0.971   2.674  17.578 -0.6809 -0.2797  0.5715
 8057SOL    HW135633   0.996   2.711  17.493 -0.7685 -0.5237  0.4394
 8057SOL    HW235634   0.924   2.740  17.629 -1.9563 -0.7370 -0.0182
 8058SOL     OW35635   3.644   2.588   8.497 -0.0408  0.6058 -0.4980
 8058SOL    HW135636   3.664   2.498   8.473 -2.0740 -0.0579  0.2867
 8058SOL    HW235637   3.572   2.607   8.437 -0.9221  0.5985  0.5475
 8059SOL     OW35638   3.674   1.691   5.100 -0.2273 -0.4581 -0.6060
 8059SOL    HW135639   3.719   1.769   5.133 -3.2856  2.0788 -2.4456
 8059SOL    HW235640   3.677   1.637   5.179  2.3126 -0.9478 -1.0194
 8060SOL     OW35641   4.356   3.685   7.418 -0.4171  0.0630  0.2107
 8060SOL    HW135642   4.321   3.744   7.484 -0.6273 -0.0226  0.1774
 8060SOL    HW235643   4.284   3.621   7.416 -0.9006  0.6124  0.1990
 8061SOL     OW35644   1.407   0.804  15.815  0.3700 -0.3206  0.5784
 8061SOL    HW135645   1.468   0.857  15.866  1.6809 -1.6887  0.4464
 8061SOL    HW235646   1.423   0.715  15.845  0.3433 -0.2809  0.7108
 8062SOL     OW35647   3.961   3.476   7.621 -0.4855  0.1069 -0.6178
 8062SOL    HW135648   3.926   3.517   7.700  1.0104 -1.1426  0.6987
 8062SOL    HW235649   3.908   3.396   7.626  0.0703 -0.2286 -0.0199
 8063SOL     OW35650   0.396   2.981   1.752  0.4600 -0.0707 -0.1298
 8063SOL    HW135651   0.384   2.903   1.699 -1.8446 -0.5068  1.0536
 8063SOL    HW235652   0.433   3.037   1.684 -1.9144 -0.7932 -2.0126
 8064SOL     OW35653   3.150   1.162   9.870 -0.7772 -0.1519 -0.6500
 8064SOL    HW135654   3.069   1.116   9.847 -0.0325 -1.4877 -0.5751
 8064SOL    HW235655   3.116   1.252   9.877  0.5169  0.3889 -1.2848
 8065SOL     OW35656   3.463   1.380   3.806 -0.0472  0.3071  0.8393
 8065SOL    HW135657   3.456   1.408   3.898  4.2249  2.1970  0.6174
 8065SOL    HW235658   3.398   1.310   3.807  2.2713 -1.8114  2.0414
 8066SOL     OW35659   1.498   3.868   5.112 -0.4790  0.0079 -0.5582
 8066SOL    HW135660   1.409   3.865   5.077 -0.8153 -2.2354  0.4394
 8066SOL    HW235661   1.533   3.781   5.093 -1.0379 -1.3819  4.6400
 8067SOL     OW35662   0.751   3.054   5.494 -0.5143 -1.0153  0.5145
 8067SOL    HW135663   0.846   3.060   5.503 -0.2319 -3.2725 -0.9235
 8067SOL    HW235664   0.734   2.975   5.442  0.3624 -0.7473 -0.1614
 8068SOL     OW35665   1.553   3.224   2.608 -0.1902 -0.0974  0.1630
 8068SOL    HW135666   1.638   3.193   2.578  0.1807  0.5937  0.5060
 8068SOL    HW235667   1.572   3.308   2.649  2.1884 -0.8445  0.5795
 8069SOL     OW35668   3.089   2.202   3.087 -0.7591  0.3979  0.1158
 8069SOL    HW135669   3.040   2.243   3.158  1.4972  1.2427  1.1965
 8069SOL    HW235670   3.022   2.150   3.042  0.1977 -1.5083  0.8934
 8070SOL     OW35671   2.592   3.008   1.849  0.7075  0.0877  0.0285
 8070SOL    HW135672   2.557   2.923   1.877  1.1058  0.0431  0.3988
 8070SOL    HW235673   2.596   2.993   1.755  2.1192 -0.7241  0.2043
 8071SOL     OW35674   4.304   2.984   7.825 -0.2417 -0.3098 -0.1321
 8071SOL    HW135675   4.306   2.946   7.737  0.7674  1.5556 -0.9182
 8071SOL    HW235676   4.290   2.909   7.883  0.4747 -1.4235 -1.4091
 8072SOL     OW35677   3.189   2.109   8.840 -0.5556  0.5273  0.0338
 8072SOL    HW135678   3.167   2.127   8.931 -0.6327  0.2263  0.0736
 8072SOL    HW235679   3.269   2.155   8.814 -1.0609  1.5021  0.2073
 8073SOL     OW35680   2.116   2.377  16.961  0.1119 -0.2479  0.0932
 8073SOL    HW135681   2.181   2.325  17.007  1.5522  0.9541 -0.5721
 8073SOL    HW235682   2.034   2.336  16.988 -0.7287  0.4295 -1.4407
 8074SOL     OW35683   2.454   0.505   5.729  0.0649  0.0675 -0.5302
 8074SOL    HW135684   2.549   0.512   5.734 -0.1093  0.2883  2.3425
 8074SOL    HW235685   2.419   0.591   5.707  0.3687 -0.2074 -2.1238
 8075SOL     OW35686   4.477   0.410  14.588 -0.0426 -0.4522 -0.3287
 8075SOL    HW135687   4.395   0.373  14.618 -0.6517 -1.0819 -2.7769
 8075SOL    HW235688   4.457   0.410  14.494 -3.8020  0.3474  0.4871
 8076SOL     OW35689   3.403   4.698  16.482 -0.2052  0.2564 -0.0848
 8076SOL    HW135690   3.383   4.664  16.569  0.4876  0.5154  0.1757
 8076SOL    HW235691   3.377   4.617  16.439  0.8285 -0.9047  1.4684
 8077SOL     OW35692   2.367   1.767   8.428 -0.1090 -0.4968 -0.0897
 8077SOL    HW135693   2.414   1.834   8.378 -0.1006  0.0002  0.5805
 8077SOL    HW235694   2.346   1.817   8.507 -2.8867  2.2431 -2.5657
 8078SOL     OW35695   0.222   1.215  12.727 -0.7307 -0.4470 -0.0009
 8078SOL    HW135696   0.179   1.300  12.715  1.6605  0.7086 -0.5874
 8078SOL    HW235697   0.240   1.186  12.638  0.9045  0.7539 -0.0690
 8079SOL     OW35698   1.243   2.389   8.158 -0.7691 -0.0503  0.3320
 8079SOL    HW135699   1.198   2.309   8.185  2.3227 -1.7246  0.3823
 8079SOL    HW235700   1.216   2.399   8.066 -0.5815  3.2362  0.6275
 8080SOL     OW35701   4.064   3.564   3.454 -0.2381 -0.3857  0.1309
 8080SOL    HW135702   4.018   3.647   3.447 -1.0512 -0.8179  0.2917
 8080SOL    HW235703   4.124   3.588   3.525  1.1328  1.5588 -1.6823
 8081SOL     OW35704   3.509   4.207   0.854 -0.1286  0.3229 -0.0062
 8081SOL    HW135705   3.457   4.143   0.903 -2.4953  3.7415  1.9431
 8081SOL    HW235706   3.444   4.252   0.800 -0.1804  1.9214  1.3866
 8082SOL     OW35707   1.847   3.110   3.614  0.7679 -0.0366 -0.1446
 8082SOL    HW135708   1.878   3.124   3.703 -0.7215  1.2877  0.1809
 8082SOL    HW235709   1.913   3.158   3.563  0.3756  0.8729  0.2010
 8083SOL     OW35710   2.777   2.327   6.670  0.5103 -0.5057 -0.7427
 8083SOL    HW135711   2.695   2.310   6.716 -0.7810  2.2978 -2.0092
 8083SOL    HW235712   2.810   2.407   6.711  1.9093 -0.4173 -2.0205
 8084SOL     OW35713   4.532   2.817   7.013 -0.4818 -0.3306 -0.1817
 8084SOL    HW135714   4.501   2.902   6.982  1.1560  0.3623  0.0845
 8084SOL    HW235715   4.507   2.760   6.940  0.6717 -2.2626  0.9517
 8085SOL     OW35716   1.474   1.637  12.422  0.4982 -0.3145  0.3444
 8085SOL    HW135717   1.475   1.602  12.511 -0.7391  0.8395  0.8126
 8085SOL    HW235718   1.454   1.553  12.379 -1.7715 -0.7043  2.1880
 8086SOL     OW35719   2.934   3.769  16.604 -0.5463 -0.0452  0.1414
 8086SOL    HW135720   3.015   3.736  16.642 -0.5652  0.4894  0.6476
 8086SOL    HW235721   2.884   3.691  16.581  0.0039  0.8280 -3.9511
 8087SOL     OW35722   1.425   0.935   9.341  0.0514  0.1912  0.0381
 8087SOL    HW135723   1.416   1.016   9.291 -0.1516  0.1321 -0.0235
 8087SOL    HW235724   1.514   0.936   9.374  0.1547  1.2490 -0.2440
 8088SOL     OW35725   4.129   1.612   9.091  0.3904  0.1302 -0.2708
 8088SOL    HW135726   4.203   1.648   9.042  1.1109  0.4987  1.0973
 8088SOL    HW235727   4.084   1.687   9.129  2.0913  0.5919  0.8029
 8089SOL     OW35728   3.109   4.588   2.363 -0.7415 -0.4075  0.1055
 8089SOL    HW135729   3.176   4.652   2.339 -0.9644 -0.2090  0.0114
 8089SOL    HW235730   3.116   4.532   2.285 -1.6372  0.8790 -0.8809
 8090SOL     OW35731   3.762   2.187   8.894  0.4030  0.7984  0.0667
 8090SOL    HW135732   3.799   2.217   8.811  1.3866 -2.4020 -0.6639
 8090SOL    HW235733   3.837   2.206   8.950 -0.8871  1.0606  1.6894
 8091SOL     OW35734   2.158   4.276   8.376  0.0770  0.6375  0.1417
 8091SOL    HW135735   2.113   4.194   8.358  0.7604 -0.1910  2.1226
 8091SOL    HW235736   2.092   4.342   8.356 -0.5541  0.7407  2.5393
 8092SOL     OW35737   3.060   1.178   2.368 -0.5109 -0.2037  0.1263
 8092SOL    HW135738   3.132   1.117   2.350  0.1524  0.2272  1.3585
 8092SOL    HW235739   2.984   1.122   2.356  0.6801 -1.9683  0.8243
 8093SOL     OW35740   1.336   1.847   9.182  0.6590  0.3189 -0.7610
 8093SOL    HW135741   1.295   1.849   9.096 -2.9530 -2.8724  0.9195
 8093SOL    HW235742   1.350   1.942   9.190 -0.2421  0.4695 -0.9994
 8094SOL     OW35743   2.276   2.045  10.160  0.6917 -0.7181 -0.0836
 8094SOL    HW135744   2.309   1.969  10.208  3.4212 -0.0843 -0.9753
 8094SOL    HW235745   2.202   2.050  10.221 -2.2258  1.2386 -3.8148
 8095SOL     OW35746   2.079   2.390  11.922 -0.6595  0.2434  0.0411
 8095SOL    HW135747   2.071   2.295  11.923  0.2214  0.1304 -3.1993
 8095SOL    HW235748   2.023   2.423  11.993  0.4976  1.3157  0.4738
 8096SOL     OW35749   4.383   3.500  10.780  0.5105 -0.0825  0.3288
 8096SOL    HW135750   4.313   3.527  10.721  0.4695 -2.9220 -0.8899
 8096SOL    HW235751   4.451   3.481  10.716 -0.2427  1.3352 -0.9014
 8097SOL     OW35752   2.343   2.536   8.886 -0.0689  0.3581  0.3404
 8097SOL    HW135753   2.385   2.452   8.869 -1.6543 -0.4328  0.3095
 8097SOL    HW235754   2.267   2.508   8.937 -0.2035 -0.3767 -0.2633
 8098SOL     OW35755   4.048   3.600   7.180 -0.1251  0.2175 -0.2768
 8098SOL    HW135756   4.102   3.678   7.169  1.6290 -0.6796  1.8485
 8098SOL    HW235757   4.100   3.558   7.250 -0.1994 -2.5769 -1.8901
 8099SOL     OW35758   2.376   0.251   4.340  0.2179  1.2935  0.2484
 8099SOL    HW135759   2.439   0.318   4.311  1.8716 -0.2624  0.2864
 8099SOL    HW235760   2.388   0.274   4.432 -0.4933 -0.3119  0.7464
 8100SOL     OW35761   3.403   2.619   7.481  0.1270 -0.4201 -0.9823
 8100SOL    HW135762   3.457   2.552   7.438  3.0491  0.6066  1.1259
 8100SOL    HW235763   3.416   2.591   7.572  1.4339 -2.0120 -1.6442
 8101SOL     OW35764   4.591   1.356  15.807 -0.3983  0.1537  0.4072
 8101SOL    HW135765   4.653   1.299  15.761  0.9506  2.7334 -0.9311
 8101SOL    HW235766   4.575   1.301  15.884  2.0527  1.3774  1.7559
 8102SOL     OW35767   3.829   4.012   5.829 -0.1629 -0.5857  0.3453
 8102SOL    HW135768   3.858   4.058   5.750 -0.5122 -1.0405 -0.0531
 8102SOL    HW235769   3.822   3.930   5.780 -0.4471  0.4746 -1.3848
 8103SOL     OW35770   2.710   0.018   3.238 -0.1420  0.5247 -0.2044
 8103SOL    HW135771   2.789   4.683   3.232 -1.4776 -1.6226  1.1490
 8103SOL    HW235772   2.729   0.106   3.207  1.3695  0.7144  1.2665
 8104SOL     OW35773   0.787   4.166   0.661  0.7155 -0.0337 -0.3997
 8104SOL    HW135774   0.835   4.111   0.724 -3.1271 -3.1141 -0.2067
 8104SOL    HW235775   0.853   4.236   0.655 -0.0931  0.6684 -0.9879
 8105SOL     OW35776   1.948   1.935  16.686 -1.0415 -0.4032 -0.6492
 8105SOL    HW135777   2.008   1.891  16.626  0.2863  1.1349 -0.4435
 8105SOL    HW235778   1.906   1.996  16.625  0.0951 -0.4172 -1.4304
 8106SOL     OW35779   0.727   0.435   8.745  0.4408 -0.1639 -0.0223
 8106SOL    HW135780   0.816   0.469   8.734 -0.2632  1.6754  0.1052
 8106SOL    HW235781   0.741   0.344   8.718 -3.5295 -0.7884  0.1160
 8107SOL     OW35782   2.231   4.711   6.494 -0.2111  0.6983 -0.0577
 8107SOL    HW135783   2.266   4.625   6.468 -2.8048 -0.2411 -0.4880
 8107SOL    HW235784   2.305   0.027   6.544  1.6884  0.7536 -2.8981
 8108SOL     OW35785   0.804   1.321  13.378 -0.3367 -0.1379 -0.6283
 8108SOL    HW135786   0.877   1.378  13.403 -0.6804 -0.3296  0.8145
 8108SOL    HW235787   0.856   1.247  13.346 -0.0747 -0.3832  0.3646
 8109SOL     OW35788   1.864   3.612   6.240  0.3998  0.3972 -0.6143
 8109SOL    HW135789   1.827   3.686   6.193 -0.7353  1.5765  2.1519
 8109SOL    HW235790   1.788   3.562   6.270  1.2551  0.9057  2.3928
 8110SOL     OW35791   2.718   1.791   4.689  0.3653 -0.1442  0.3986
 8110SOL    HW135792   2.801   1.760   4.652 -0.3194 -1.4422 -0.0416
 8110SOL    HW235793   2.661   1.822   4.618  0.1776 -3.4975 -0.8975
 8111SOL     OW35794   1.927   4.212   2.855  0.4431  0.7713 -0.4571
 8111SOL    HW135795   1.941   4.250   2.941 -0.2511  1.2723 -0.5639
 8111SOL    HW235796   2.018   4.210   2.825  0.3765 -1.3892 -0.5239
 8112SOL     OW35797   1.935   2.299   2.918 -0.1792 -0.6809 -0.0932
 8112SOL    HW135798   1.921   2.253   3.001 -4.4963 -0.2417 -0.5762
 8112SOL    HW235799   1.993   2.242   2.869  0.5835  0.9053 -1.0428
 8113SOL     OW35800   0.336   0.936   3.714  0.1089 -0.1471 -0.1194
 8113SOL    HW135801   0.431   0.927   3.725  0.4366  1.6870 -1.5669
 8113SOL    HW235802   0.326   1.031   3.713 -1.1242 -0.2758  0.3033
 8114SOL     OW35803   4.389   2.394   3.679  0.2417 -0.5816 -0.3895
 8114SOL    HW135804   4.371   2.472   3.731 -1.4673  0.2115 -2.2042
 8114SOL    HW235805   4.353   2.436   3.601  1.6746 -1.5670 -1.5849
 8115SOL     OW35806   3.491   4.119   4.426 -0.4300  0.8015 -0.1702
 8115SOL    HW135807   3.451   4.167   4.499  0.3910  0.2968  0.6132
 8115SOL    HW235808   3.428   4.139   4.356  1.0056  0.1229 -1.6302
 8116SOL     OW35809   4.173   0.595  13.946 -0.1192  0.1000 -0.5307
 8116SOL    HW135810   4.216   0.650  13.880 -0.1941  0.2165 -0.4827
 8116SOL    HW235811   4.174   0.506  13.911  0.6963 -1.0072  2.4070
 8117SOL     OW35812   2.733   2.888  15.852  0.8109  0.3183 -0.0788
 8117SOL    HW135813   2.723   2.834  15.774  0.0395  1.4704 -0.7756
 8117SOL    HW235814   2.760   2.975  15.823  3.9055 -0.7577 -0.4863
 8118SOL     OW35815   1.835   3.057   8.206  0.0729 -0.0750 -0.2514
 8118SOL    HW135816   1.799   3.011   8.282  0.6944 -1.0177 -0.5342
 8118SOL    HW235817   1.755   3.054   8.153  0.3440  0.5238 -0.7020
 8119SOL     OW35818   3.909   1.635   0.542 -0.0122 -0.2885  0.3771
 8119SOL    HW135819   3.838   1.695   0.523  1.5180  1.6213  0.7189
 8119SOL    HW235820   3.877   1.598   0.625 -0.1542  0.0923  0.4907
 8120SOL     OW35821   3.426   3.342   8.031  0.3255 -0.5940 -0.3673
 8120SOL    HW135822   3.468   3.266   8.070 -1.6876 -1.5971 -0.1285
 8120SOL    HW235823   3.497   3.407   8.031 -0.4541  0.2594 -2.4429
 8121SOL     OW35824   0.675   4.325   6.994  0.4731 -0.5211  0.4516
 8121SOL    HW135825   0.586   4.290   6.992  1.7599 -3.7707 -0.6639
 8121SOL    HW235826   0.711   4.272   7.065 -0.6086 -2.8433 -0.7348
 8122SOL     OW35827   1.015   2.563   4.589  0.0851  0.1439 -0.1641
 8122SOL    HW135828   0.967   2.610   4.657  1.6422 -0.2037  1.1667
 8122SOL    HW235829   1.074   2.633   4.561  0.8132 -1.7964 -3.4984
 8123SOL     OW35830   3.271   1.939   4.128 -0.1036 -0.1078 -0.1190
 8123SOL    HW135831   3.290   1.987   4.209  0.4380 -0.8970  0.2255
 8123SOL    HW235832   3.352   1.955   4.079 -0.5654 -0.4127 -0.9867
 8124SOL     OW35833   1.142   0.677  15.498  0.0828 -0.0667 -0.0763
 8124SOL    HW135834   1.134   0.633  15.583  0.2411 -2.2063 -1.1518
 8124SOL    HW235835   1.168   0.765  15.526  1.1278 -0.6324  0.7481
 8125SOL     OW35836   3.433   3.130  10.363  0.5278 -0.8630  0.2223
 8125SOL    HW135837   3.406   3.114  10.454 -0.2754  3.0939  0.6581
 8125SOL    HW235838   3.386   3.052  10.332  1.6522 -1.9672  1.2716
 8126SOL     OW35839   0.180   0.383   6.980 -0.4161  0.5146 -0.5788
 8126SOL    HW135840   0.190   0.338   6.896  0.7716 -0.1808 -0.0722
 8126SOL    HW235841   0.118   0.326   7.024 -1.0178 -0.0881 -2.2058
 8127SOL     OW35842   4.066   0.530   2.199 -0.1867 -0.1967 -0.2213
 8127SOL    HW135843   4.028   0.601   2.148  1.9345  1.4741  0.5099
 8127SOL    HW235844   4.025   0.454   2.158 -1.3152 -0.4065  1.2728
 8128SOL     OW35845   4.442   0.140  16.657  0.2391  0.4913 -0.0061
 8128SOL    HW135846   4.413   0.199  16.726  0.7816  0.2515  0.4280
 8128SOL    HW235847   4.491   0.205  16.606 -0.2080 -0.2033 -1.3198
 8129SOL     OW35848   4.527   0.744   4.005 -0.6531  0.4202 -0.3943
 8129SOL    HW135849   4.554   0.825   4.047  1.3419  0.3750 -1.5692
 8129SOL    HW235850   4.481   0.702   4.077 -1.8884  0.9170 -0.8927
 8130SOL     OW35851   3.942   1.167   2.375  0.1291 -0.1292 -0.5239
 8130SOL    HW135852   3.903   1.130   2.295  1.2336 -1.7856 -0.2981
 8130SOL    HW235853   4.031   1.172   2.339  0.0884  1.8433 -0.3268
 8131SOL     OW35854   2.668   4.500   6.345 -0.6004  0.3269 -0.3911
 8131SOL    HW135855   2.719   4.471   6.421  0.8484  0.5638 -1.2698
 8131SOL    HW235856   2.583   4.513   6.386  0.0189 -0.6534  1.1984
 8132SOL     OW35857   3.907   1.950  12.068 -0.5336 -0.0543 -0.0803
 8132SOL    HW135858   3.971   2.020  12.052  0.6560 -0.9842  0.5188
 8132SOL    HW235859   3.842   1.967  12.000 -1.8710 -2.1404  0.6793
 8133SOL     OW35860   1.901   0.312  17.408 -0.0246  0.8385 -0.2569
 8133SOL    HW135861   1.955   0.233  17.403 -0.6155  0.3489  1.0734
 8133SOL    HW235862   1.828   0.280  17.461 -0.7597 -0.0724 -1.8230
 8134SOL     OW35863   4.194   1.758   2.305  0.2303  0.0642 -0.2836
 8134SOL    HW135864   4.253   1.738   2.378 -0.5253 -2.6330 -0.3899
 8134SOL    HW235865   4.232   1.691   2.247  0.7971 -0.0183  0.1763
 8135SOL     OW35866   0.024   1.876   1.071  0.6634 -0.3497 -0.0951
 8135SOL    HW135867   0.088   1.947   1.073  3.0530 -2.4992 -0.7610
 8135SOL    HW235868   4.715   1.883   1.163 -0.5742 -2.1396 -0.3139
 8136SOL     OW35869   4.598   1.869   4.010  0.2925 -0.8036  0.0025
 8136SOL    HW135870   4.571   1.918   3.933  1.3961 -0.3307 -0.0756
 8136SOL    HW235871   4.537   1.796   4.005 -2.0290  1.2477 -1.3840
 8137SOL     OW35872   3.051   2.030   6.690  0.3864 -0.4305  0.2964
 8137SOL    HW135873   2.997   2.013   6.613  0.6974 -4.0586  0.8820
 8137SOL    HW235874   3.134   2.015   6.643 -1.9340  0.2305 -4.0599
 8138SOL     OW35875   1.461   1.328  17.307  0.1753 -0.4079 -0.7081
 8138SOL    HW135876   1.488   1.308  17.218 -1.3994 -1.5001 -0.9364
 8138SOL    HW235877   1.475   1.423  17.307  3.1742 -0.8558 -0.1087
 8139SOL     OW35878   2.342   1.583   6.107 -0.6320 -0.5859  0.3213
 8139SOL    HW135879   2.333   1.491   6.086  1.3116 -1.1998  2.1178
 8139SOL    HW235880   2.336   1.619   6.018  1.2147 -0.9099  0.0653
 8140SOL     OW35881   3.572   4.439   0.469  0.5390  0.2636 -0.6962
 8140SOL    HW135882   3.652   4.438   0.521  0.1015  1.5380 -0.0125
 8140SOL    HW235883   3.573   4.534   0.462  0.5491  0.3924  1.1385
 8141SOL     OW35884   3.644   3.872  17.098  0.3300  0.3718  0.8865
 8141SOL    HW135885   3.704   3.894  17.170  0.0729 -0.1824  1.2638
 8141SOL    HW235886   3.562   3.877  17.148 -1.9432  2.5024 -3.0686
 8142SOL     OW35887   2.605   0.259   3.673 -0.1268  0.6257  0.1059
 8142SOL    HW135888   2.678   0.197   3.677 -0.5055  0.0712 -1.6326
 8142SOL    HW235889   2.586   0.258   3.580 -0.8469 -1.4177  0.2916
 8143SOL     OW35890   2.045   0.054  17.670  0.4985  0.7181  0.0969
 8143SOL    HW135891   2.040   0.079  17.578 -0.9306 -0.9018 -0.2519
 8143SOL    HW235892   2.107   0.118   0.031  1.9798 -0.2881 -0.6857
 8144SOL     OW35893   4.484   2.104   8.220 -0.4502  0.0129  0.6608
 8144SOL    HW135894   4.479   2.098   8.125 -2.3486  0.1596  0.7406
 8144SOL    HW235895   4.462   2.014   8.245  2.0800 -0.3009  1.7019
 8145SOL     OW35896   1.406   1.177   3.727  0.2880 -0.0280 -0.1657
 8145SOL    HW135897   1.359   1.098   3.698  2.7454 -0.6079 -2.6050
 8145SOL    HW235898   1.340   1.245   3.714 -1.7107 -1.9922 -0.3047
 8146SOL     OW35899   0.342   0.271   8.527  0.3186  0.0020  0.8238
 8146SOL    HW135900   0.331   0.193   8.472  0.6818 -0.7422  1.8011
 8146SOL    HW235901   0.253   0.304   8.537  0.0091 -0.6263  0.1441
 8147SOL     OW35902   0.866   4.659   5.689  0.0983 -0.1583 -0.2124
 8147SOL    HW135903   0.860   4.662   5.594  0.6841 -1.4103 -0.2979
 8147SOL    HW235904   0.910   0.024   5.708 -1.5655  0.8590 -0.8259
 8148SOL     OW35905   1.195   1.033   3.669  0.3001  0.2624 -0.1975
 8148SOL    HW135906   1.131   1.039   3.739  0.6558  2.0827 -0.0386
 8148SOL    HW235907   1.137   1.046   3.594 -1.6210 -0.9916  1.0709
 8149SOL     OW35908   2.826   0.231   5.677 -0.2812 -0.2897 -0.1386
 8149SOL    HW135909   2.783   0.168   5.736 -1.4997  1.3864  0.7398
 8149SOL    HW235910   2.911   0.192   5.655  0.0126 -1.1289  2.4629
 8150SOL     OW35911   3.838   3.500  12.604  0.2225  0.3934  0.2648
 8150SOL    HW135912   3.773   3.435  12.576  0.0773  0.5572  0.2163
 8150SOL    HW235913   3.821   3.498  12.699 -0.3655  0.9848  0.1729
 8151SOL     OW35914   2.271   2.473  15.069 -0.9676 -0.3227 -0.2577
 8151SOL    HW135915   2.183   2.506  15.050 -0.4599 -0.1949 -2.4519
 8151SOL    HW235916   2.299   2.483  14.977  0.4362 -2.5866 -0.0650
 8152SOL     OW35917   4.540   0.007   4.153  0.4203 -0.3771  0.4189
 8152SOL    HW135918   4.594   4.646   4.158  1.3699  0.1144 -1.8702
 8152SOL    HW235919   4.491   0.009   4.235 -0.4495  0.7321 -0.1265
 8153SOL     OW35920   3.881   1.018   6.482 -0.2480  0.2715 -0.6068
 8153SOL    HW135921   3.971   1.016   6.449 -1.0345  0.5367 -2.7773
 8153SOL    HW235922   3.859   1.096   6.431 -0.7853  2.7123  3.3409
 8154SOL     OW35923   2.833   2.387   4.743 -0.3922 -0.1222  0.4764
 8154SOL    HW135924   2.886   2.412   4.819  1.4409  2.9748 -1.8243
 8154SOL    HW235925   2.787   2.469   4.726  2.8910  1.3157 -1.6015
 8155SOL     OW35926   4.147   2.664   6.113 -0.8134 -0.0698 -0.0415
 8155SOL    HW135927   4.228   2.666   6.163 -1.6502  1.1064  1.2535
 8155SOL    HW235928   4.178   2.601   6.047 -3.2962 -2.3736  1.0340
 8156SOL     OW35929   2.591   4.429   7.202  0.3378 -0.6778 -0.1046
 8156SOL    HW135930   2.632   4.345   7.222  0.5020 -0.8538 -1.1827
 8156SOL    HW235931   2.506   4.417   7.244  0.1124  1.1051 -0.0687
 8157SOL     OW35932   2.960   0.652   8.874  0.0534  0.1506 -0.2173
 8157SOL    HW135933   2.905   0.731   8.877 -0.4425 -0.2918  2.5396
 8157SOL    HW235934   2.906   0.576   8.851  2.1722 -1.8560  1.4431
 8158SOL     OW35935   2.480   0.295   4.603  0.3510  0.0203  0.1578
 8158SOL    HW135936   2.514   0.382   4.580 -2.5554  1.6379  2.0414
 8158SOL    HW235937   2.408   0.320   4.660  0.5283  1.4996 -0.2477
 8159SOL     OW35938   4.474   4.478   5.019  0.0824  0.0512  0.7781
 8159SOL    HW135939   4.522   4.500   5.099  0.5416 -0.2205  0.5789
 8159SOL    HW235940   4.439   4.394   5.046 -0.6676  0.5100  1.2443
 8160SOL     OW35941   3.264   1.639   7.566 -0.7293  0.1766 -0.2403
 8160SOL    HW135942   3.264   1.592   7.649 -0.2988  0.1512 -0.2564
 8160SOL    HW235943   3.358   1.657   7.565 -0.2552 -2.3356  1.7674
 8161SOL     OW35944   0.652   3.416   4.212 -0.7028  0.0577 -0.1783
 8161SOL    HW135945   0.663   3.504   4.174  1.1416 -0.7250 -1.4680
 8161SOL    HW235946   0.710   3.421   4.288 -1.0501  1.4093  0.0004
 8162SOL     OW35947   4.224   4.554   1.216 -0.2789 -0.1476  0.3946
 8162SOL    HW135948   4.243   4.487   1.151 -0.4240 -0.4410  0.6496
 8162SOL    HW235949   4.147   4.600   1.184  1.3049  1.9791 -0.3201
 8163SOL     OW35950   3.020   0.270   6.697  0.2436 -0.2283 -0.6013
 8163SOL    HW135951   2.947   0.260   6.636 -0.4484 -0.2987  0.2372
 8163SOL    HW235952   2.974   0.227   6.769 -0.1813  0.3671 -0.5118
 8164SOL     OW35953   3.931   0.217   8.117  0.3573 -0.1482  0.0033
 8164SOL    HW135954   3.922   0.256   8.030 -0.1882 -1.0012 -0.3239
 8164SOL    HW235955   3.964   0.282   8.179  1.9139 -0.6964 -0.2428
 8165SOL     OW35956   1.244   4.387  16.374 -0.0679 -0.2771 -0.1114
 8165SOL    HW135957   1.273   4.440  16.448  0.4039 -0.8525  0.1203
 8165SOL    HW235958   1.311   4.319  16.386 -1.0016 -1.4806 -1.7166
 8166SOL     OW35959   0.986   1.895   0.802 -0.3711 -0.4050 -0.2428
 8166SOL    HW135960   0.958   1.986   0.799  1.7870  0.3418  2.8566
 8166SOL    HW235961   0.930   1.865   0.874 -0.7965  2.4602  0.6174
 8167SOL     OW35962   4.377   2.899   6.154  0.0403  0.1590  0.2696
 8167SOL    HW135963   4.447   2.960   6.130  0.2779 -0.6485 -1.1171
 8167SOL    HW235964   4.370   2.925   6.246  0.8867  1.8595 -0.1561
 8168SOL     OW35965   4.683   3.751   1.612  0.2347 -0.0103 -0.0526
 8168SOL    HW135966   0.012   3.774   1.532 -1.6387  1.9555 -0.5788
 8168SOL    HW235967   4.666   3.656   1.611  0.1870  0.0014 -0.2968
 8169SOL     OW35968   4.145   2.356   4.181  0.1442  0.1217 -0.0470
 8169SOL    HW135969   4.192   2.429   4.221  1.9439 -0.2420 -1.4706
 8169SOL    HW235970   4.064   2.381   4.225  0.6484  3.5764 -1.0369
 8170SOL     OW35971   2.867   4.477   2.441  0.0926 -0.3620  0.3958
 8170SOL    HW135972   2.880   4.390   2.404 -0.2220 -0.7568  1.2157
 8170SOL    HW235973   2.948   4.524   2.421  0.5790 -1.0415  0.7758
 8171SOL     OW35974   1.909   2.125   3.807  0.1963 -0.1660  0.0936
 8171SOL    HW135975   1.845   2.123   3.736  1.6769 -0.6228 -1.2223
 8171SOL    HW235976   1.851   2.098   3.879 -0.5208 -1.1368 -0.8425
 8172SOL     OW35977   1.336   4.368   8.722 -0.4976  1.0929  0.3846
 8172SOL    HW135978   1.403   4.409   8.667 -1.4854  0.5406 -1.2372
 8172SOL    HW235979   1.388   4.336   8.795 -1.3639 -0.6204  0.2537
 8173SOL     OW35980   1.455   2.086   8.651 -0.1637  0.4143 -0.3407
 8173SOL    HW135981   1.488   2.070   8.563  1.4497 -1.1400  0.5428
 8173SOL    HW235982   1.362   2.104   8.638 -0.9065 -0.9731  3.0042
 8174SOL     OW35983   3.605   0.107  11.246  0.0310 -0.5602 -0.0027
 8174SOL    HW135984   3.631   0.021  11.278 -1.4189 -0.6733  0.8577
 8174SOL    HW235985   3.650   0.114  11.162  0.2845  1.0336  0.2657
 8175SOL     OW35986   4.332   2.338  16.967  0.1813 -0.2309  0.2365
 8175SOL    HW135987   4.289   2.302  16.889 -1.8773 -0.5764  1.5290
 8175SOL    HW235988   4.263   2.386  17.013  3.4303  2.4890  2.2540
 8176SOL     OW35989   2.783   0.576  12.162  0.4530  0.1068  0.5760
 8176SOL    HW135990   2.742   0.631  12.095  2.4074  0.3958 -0.4073
 8176SOL    HW235991   2.723   0.579  12.236 -2.7803 -0.8589 -2.0234
 8177SOL     OW35992   3.539   3.233   7.414  0.0618  0.1403 -0.1052
 8177SOL    HW135993   3.455   3.274   7.392 -0.0697  0.0296  0.2009
 8177SOL    HW235994   3.599   3.306   7.401 -1.2683  1.0896 -1.0355
 8178SOL     OW35995   3.154   1.391   4.709  0.1618 -0.2440 -0.0668
 8178SOL    HW135996   3.175   1.331   4.638  1.3675  2.0489 -1.6264
 8178SOL    HW235997   3.113   1.465   4.664  0.2857  0.8894  1.6776
 8179SOL     OW35998   1.599   0.132   9.656 -0.2072 -1.1737 -0.2597
 8179SOL    HW135999   1.550   0.071   9.712  0.5622  0.4414  2.1932
 8179SOL    HW236000   1.661   0.151   9.727  1.9557  2.8863 -3.2511
 8180SOL     OW36001   2.216   0.133   7.982  0.4280  0.0960  0.5001
 8180SOL    HW136002   2.235   0.188   7.907  2.1281 -0.8538  0.2433
 8180SOL    HW236003   2.159   0.065   7.946 -0.4839  0.9009  0.4054
 8181SOL     OW36004   0.584   4.632   5.786 -0.5354  0.1411  0.7410
 8181SOL    HW136005   0.491   4.646   5.772 -0.8761 -1.8923  0.9335
 8181SOL    HW236006   0.609   4.701   5.847 -1.9061  0.3483  1.0674
 8182SOL     OW36007   1.554   1.769   3.257  0.1706 -0.4478 -0.6538
 8182SOL    HW136008   1.583   1.855   3.288 -0.5086 -1.1547  1.9744
 8182SOL    HW236009   1.541   1.792   3.165  2.1185  1.5566 -0.4463
 8183SOL     OW36010   3.814   3.947   4.401  0.1776  0.2495  0.6444
 8183SOL    HW136011   3.769   3.962   4.318 -1.1383  0.5243  1.4069
 8183SOL    HW236012   3.749   3.893   4.445 -0.2480  0.1389 -0.1304
 8184SOL     OW36013   1.029   4.590  12.536  0.1485  0.4699 -0.1710
 8184SOL    HW136014   1.073   4.541  12.605  1.0954  1.4018 -0.1175
 8184SOL    HW236015   0.943   4.604  12.577  0.8196  1.9218  0.7681
 8185SOL     OW36016   1.935   1.723   5.577  0.2603 -0.1812 -0.2193
 8185SOL    HW136017   2.008   1.719   5.515  0.3919 -0.5077 -0.0441
 8185SOL    HW236018   1.937   1.815   5.605  0.1595 -0.5529  1.0150
 8186SOL     OW36019   0.454   4.446   2.076  0.1094  0.4925 -0.3247
 8186SOL    HW136020   0.525   4.424   2.137  1.3724 -0.3824 -2.1091
 8186SOL    HW236021   0.373   4.429   2.124  1.1103 -2.1302  0.4472
 8187SOL     OW36022   0.762   1.486   3.499 -0.2932 -0.0683  0.1418
 8187SOL    HW136023   0.786   1.443   3.581  1.5142  1.7534  0.5715
 8187SOL    HW236024   0.803   1.571   3.520  3.2584 -1.7773  0.1895
 8188SOL     OW36025   3.985   2.517   5.538 -0.1323  0.7972  0.0166
 8188SOL    HW136026   4.055   2.454   5.548 -0.0400  1.4191  3.3764
 8188SOL    HW236027   3.945   2.514   5.625 -1.5282  2.2924 -0.5529
 8189SOL     OW36028   0.830   3.667   1.537  0.0964 -0.3665 -0.1404
 8189SOL    HW136029   0.754   3.616   1.510  1.6766 -3.5967  1.5063
 8189SOL    HW236030   0.866   3.703   1.456 -1.1228 -1.1217 -1.0105
 8190SOL     OW36031   2.885   1.910   8.011 -0.7108  0.0006 -0.0287
 8190SOL    HW136032   2.811   1.911   7.950 -0.9350  0.9031  0.2683
 8190SOL    HW236033   2.842   1.879   8.091 -2.0810  0.6001 -0.5342
 8191SOL     OW36034   2.139   3.760   0.071  0.0773  0.1713 -0.4231
 8191SOL    HW136035   2.144   3.817   0.148  2.5570  0.2603 -0.6846
 8191SOL    HW236036   2.044   3.763   0.055  0.2433  1.3366 -1.1270
 8192SOL     OW36037   1.952   4.075  11.968  0.2411  0.0897  0.8065
 8192SOL    HW136038   1.982   4.165  11.978  1.2657 -0.1451 -0.0935
 8192SOL    HW236039   1.924   4.058  12.058  0.9586 -2.4771  0.5436
 8193SOL     OW36040   3.283   3.500   0.987  0.2073 -0.2201 -0.1633
 8193SOL    HW136041   3.224   3.456   0.926 -1.1993 -0.2489  1.2311
 8193SOL    HW236042   3.350   3.537   0.930  1.3238 -0.7421  0.7788
 8194SOL     OW36043   1.585   1.346   4.841  0.1404  0.0002  0.0164
 8194SOL    HW136044   1.679   1.325   4.845 -0.2001 -1.4785  0.1010
 8194SOL    HW236045   1.557   1.367   4.930  3.3500 -2.1298  1.5449
 8195SOL     OW36046   2.989   0.981   8.626  0.1325 -0.0814  0.7646
 8195SOL    HW136047   3.005   1.041   8.552  0.2126 -1.1849 -0.1145
 8195SOL    HW236048   2.945   1.039   8.689 -0.2842  1.4794 -0.9277
 8196SOL     OW36049   3.807   0.579  12.934  0.4669  0.0377 -0.0678
 8196SOL    HW136050   3.741   0.646  12.916  1.6629  0.6070 -2.3771
 8196SOL    HW236051   3.882   0.638  12.937  0.7304 -0.4348  2.3147
 8197SOL     OW36052   1.256   2.311   5.269  0.1544  0.3965  0.1368
 8197SOL    HW136053   1.225   2.251   5.201 -3.8036  1.6895  0.7603
 8197SOL    HW236054   1.296   2.255   5.336  1.0194 -0.4118 -1.0617
 8198SOL     OW36055   3.531   0.795   2.204 -0.7656  0.5137  0.2916
 8198SOL    HW136056   3.500   0.708   2.230  2.8399 -0.8368 -0.0336
 8198SOL    HW236057   3.453   0.828   2.160 -0.0026  2.1122  0.1527
 8199SOL     OW36058   4.505   2.581   5.814  0.1925 -0.6140 -0.3464
 8199SOL    HW136059   4.599   2.596   5.803 -0.3035  2.1358 -0.8265
 8199SOL    HW236060   4.491   2.548   5.726  1.2257  0.1197 -0.7838
 8200SOL     OW36061   1.761   1.590   1.506  0.4486 -0.4418 -0.0184
 8200SOL    HW136062   1.750   1.515   1.563  0.7665 -0.2827  0.2519
 8200SOL    HW236063   1.761   1.542   1.423  1.3601  1.2649 -1.0301
 8201SOL     OW36064   2.838   3.944   5.921  0.5002  0.3298 -0.1054
 8201SOL    HW136065   2.765   3.887   5.945  0.8818  0.2582  0.8782
 8201SOL    HW236066   2.804   3.971   5.836 -1.1782  0.7535  0.6857
 8202SOL     OW36067   0.968   0.331   2.128  0.1920 -0.0193  0.4173
 8202SOL    HW136068   0.876   0.306   2.137 -0.0252  0.3056 -1.0185
 8202SOL    HW236069   0.986   0.379   2.209 -2.0367  0.8174  0.4091
 8203SOL     OW36070   3.635   0.551   1.344  0.2752 -1.0968  0.2135
 8203SOL    HW136071   3.548   0.565   1.307  0.5142 -1.2862 -0.4194
 8203SOL    HW236072   3.702   0.596   1.292  2.0972 -0.6806  2.9135
 8204SOL     OW36073   2.314   3.096   6.876 -0.5880  0.3757  0.9900
 8204SOL    HW136074   2.267   3.019   6.907 -1.7003  1.3524  1.7203
 8204SOL    HW236075   2.310   3.150   6.955 -0.4987  0.9879  0.5798
 8205SOL     OW36076   3.257   0.829   6.769 -0.1244  0.7555  0.2755
 8205SOL    HW136077   3.162   0.833   6.780 -0.3071  0.7919 -1.3172
 8205SOL    HW236078   3.256   0.876   6.686 -1.3308  0.7960  0.3155
 8206SOL     OW36079   0.298   3.048  12.933 -0.3503  0.0544  0.5019
 8206SOL    HW136080   0.243   3.125  12.949 -0.5907 -0.0361  0.1066
 8206SOL    HW236081   0.305   3.010  13.020  0.9433  0.2722  0.4984
 8207SOL     OW36082   4.138   1.352   7.897  0.2289  0.0244 -0.2685
 8207SOL    HW136083   4.176   1.298   7.828  0.1145 -2.9043  1.9378
 8207SOL    HW236084   4.215   1.359   7.953  0.6676  0.1749 -0.8999
 8208SOL     OW36085   1.850   1.696   1.209 -0.2969 -0.0964  0.0871
 8208SOL    HW136086   1.875   1.788   1.217  2.4719 -1.1633  3.5086
 8208SOL    HW236087   1.830   1.698   1.115  0.1700 -0.1792 -0.0131
 8209SOL     OW36088   3.369   2.112  12.249  0.4842  0.3861 -0.0760
 8209SOL    HW136089   3.359   2.063  12.168  0.9205 -0.6157  0.4777
 8209SOL    HW236090   3.463   2.129  12.239 -0.3194  3.4758 -2.5873
 8210SOL     OW36091   3.957   0.016  14.407  0.7198 -0.8313 -0.2042
 8210SOL    HW136092   3.867   4.706  14.387  0.0441 -0.2094  2.0078
 8210SOL    HW236093   3.993   0.003  14.319  2.2403 -2.4840  0.6494
 8211SOL     OW36094   1.224   2.163  13.913 -0.6373  0.1259 -0.1654
 8211SOL    HW136095   1.153   2.131  13.857  0.7922 -3.1113 -0.1055
 8211SOL    HW236096   1.230   2.253  13.884  0.4088 -0.0544 -0.4921
 8212SOL     OW36097   2.448   2.368   5.692 -0.2968  0.1799  0.5306
 8212SOL    HW136098   2.537   2.396   5.674 -0.1266 -1.4196 -1.0675
 8212SOL    HW236099   2.446   2.286   5.642  0.3689 -0.7648  2.0527
 8213SOL     OW36100   0.362   1.846  16.683  0.1965  0.0626 -0.3773
 8213SOL    HW136101   0.434   1.887  16.636  0.4793  0.6457  0.5542
 8213SOL    HW236102   0.407   1.769  16.718  0.3855  0.7846  0.9930
 8214SOL     OW36103   3.905   0.330  15.402  0.1330 -0.1971  0.0749
 8214SOL    HW136104   3.889   0.409  15.453 -1.0818 -1.2632  1.3483
 8214SOL    HW236105   3.851   0.349  15.325 -1.2699 -0.6257  0.9625
 8215SOL     OW36106   4.396   4.475   8.539 -0.3776  1.0930 -0.1637
 8215SOL    HW136107   4.368   4.558   8.580  1.2273  2.2454 -1.3974
 8215SOL    HW236108   4.330   4.413   8.570 -0.6044  1.0078 -0.8134
 8216SOL     OW36109   1.119   2.216  14.822 -0.1434 -0.6017  0.0424
 8216SOL    HW136110   1.149   2.185  14.737 -2.3163 -1.6355 -0.3560
 8216SOL    HW236111   1.145   2.307  14.832  1.2975 -0.8550 -1.4793
 8217SOL     OW36112   4.337   3.524   9.181 -0.0045  0.8748  0.4200
 8217SOL    HW136113   4.357   3.440   9.223 -1.2748  0.1694 -0.3906
 8217SOL    HW236114   4.320   3.500   9.090 -0.8676  0.3146  0.7361
 8218SOL     OW36115   1.629   3.749   2.399  0.4909 -0.2049  0.2806
 8218SOL    HW136116   1.605   3.679   2.338  1.4140 -1.5232  1.4222
 8218SOL    HW236117   1.710   3.767   2.351  0.8471 -2.0262  0.1963
 8219SOL     OW36118   4.309   4.579  12.787 -0.2208  0.1325  0.4736
 8219SOL    HW136119   4.358   4.534  12.856 -1.8233  2.3589  3.0856
 8219SOL    HW236120   4.309   4.515  12.716  2.0258  0.2054  0.4292
 8220SOL     OW36121   0.805   1.776   3.840 -0.6665 -0.6453 -0.0457
 8220SOL    HW136122   0.835   1.751   3.753 -0.6282  0.9924 -0.5150
 8220SOL    HW236123   0.846   1.863   3.841  0.0817 -1.0442  2.8388
 8221SOL     OW36124   3.975   2.690   1.901 -0.9055  0.0078  0.1238
 8221SOL    HW136125   4.041   2.721   1.839 -0.3133 -2.6501 -0.5709
 8221SOL    HW236126   3.942   2.613   1.855 -1.4529 -0.7642  1.8188
 8222SOL     OW36127   4.321   4.061   7.725  0.2434 -0.0317  0.1433
 8222SOL    HW136128   4.413   4.084   7.738  0.6851 -1.7175  0.0100
 8222SOL    HW236129   4.295   4.128   7.661 -0.0738 -1.3771 -1.1519
 8223SOL     OW36130   1.162   2.518  14.012 -0.0327 -0.0733 -0.1590
 8223SOL    HW136131   1.074   2.514  14.050 -0.7722  0.4123 -1.8037
 8223SOL    HW236132   1.212   2.498  14.090 -0.7319  0.2436  0.3729
 8224SOL     OW36133   4.347   3.249   9.286  0.1436  0.1110 -0.3085
 8224SOL    HW136134   4.321   3.201   9.365  1.0377  1.0219  0.5440
 8224SOL    HW236135   4.434   3.215   9.267 -0.4767 -1.4977 -0.2922
 8225SOL     OW36136   2.134   2.540   6.862  0.0279 -0.2692 -0.1496
 8225SOL    HW136137   2.140   2.503   6.950 -1.2071 -2.7391 -1.1233
 8225SOL    HW236138   2.138   2.465   6.803 -2.8010  0.1606 -0.8975
 8226SOL     OW36139   1.003   1.031   3.067  0.7320  0.5783  0.3118
 8226SOL    HW136140   0.956   0.967   3.121 -1.9772  0.1770 -2.4764
 8226SOL    HW236141   1.092   0.998   3.075  0.8236  0.5895 -0.6240
 8227SOL     OW36142   3.380   0.209   5.711 -0.2970  0.1623 -0.1270
 8227SOL    HW136143   3.309   0.244   5.765 -1.3643 -1.6025 -0.3868
 8227SOL    HW236144   3.400   0.128   5.758 -1.6321  0.8112  1.5439
 8228SOL     OW36145   3.196   1.940   6.318 -0.1385 -0.0462 -0.6822
 8228SOL    HW136146   3.172   1.938   6.411 -0.7444 -2.1295 -0.9036
 8228SOL    HW236147   3.109   1.936   6.280  0.1029 -1.9681 -1.0479
 8229SOL     OW36148   4.261   1.176   2.594 -0.4099  0.1824 -0.4202
 8229SOL    HW136149   4.325   1.239   2.559 -0.6506  1.1800  0.9362
 8229SOL    HW236150   4.172   1.210   2.606 -1.3053 -1.5771 -2.0290
 8230SOL     OW36151   2.483   1.564   7.084 -0.6029 -0.3511  0.2412
 8230SOL    HW136152   2.506   1.656   7.097  0.1484 -0.7947  1.9606
 8230SOL    HW236153   2.570   1.540   7.053 -1.7184 -0.7616 -2.6147
 8231SOL     OW36154   3.998   2.024   3.273  0.7239 -0.8021  0.0819
 8231SOL    HW136155   4.071   2.004   3.331  0.8997  2.1084  0.8545
 8231SOL    HW236156   3.989   1.948   3.215 -2.1316 -1.6570  1.6281
 8232SOL     OW36157   3.224   1.224   6.708  0.4916 -0.2271 -0.5795
 8232SOL    HW136158   3.157   1.165   6.674  0.6787  0.0432 -1.4132
 8232SOL    HW236159   3.301   1.166   6.714  0.9163  0.4594  0.5772
 8233SOL     OW36160   2.353   3.664   2.436 -0.1496 -0.0749  0.1527
 8233SOL    HW136161   2.397   3.732   2.487 -1.0428  0.6776 -0.0780
 8233SOL    HW236162   2.405   3.661   2.355 -0.7900  0.8968 -0.2996
 8234SOL     OW36163   2.108   2.925  13.155  0.7694 -0.4028  0.3934
 8234SOL    HW136164   2.069   2.978  13.225  0.0500  0.2873 -0.5297
 8234SOL    HW236165   2.183   2.886  13.200 -0.1782 -2.9129 -0.1912
 8235SOL     OW36166   2.310   3.326   0.984 -0.5207  0.0350 -0.0576
 8235SOL    HW136167   2.351   3.249   1.023  0.6202  0.9468  0.5603
 8235SOL    HW236168   2.384   3.366   0.938 -0.1709 -0.9751 -0.3774
 8236SOL     OW36169   0.005   1.450   1.435  0.1855 -0.5656 -0.5455
 8236SOL    HW136170   0.083   1.398   1.453  0.6335  1.2866  2.8435
 8236SOL    HW236171   4.686   1.463   1.523 -1.2673  2.1976 -1.5464
 8237SOL     OW36172   4.195   0.872   5.263 -0.3564  0.0235  0.5604
 8237SOL    HW136173   4.100   0.863   5.252 -0.1537 -1.0749 -0.3177
 8237SOL    HW236174   4.225   0.782   5.274  0.8382  0.2674 -0.6940
 8238SOL     OW36175   0.310   4.525   3.024 -0.6761 -0.6666 -0.1805
 8238SOL    HW136176   0.299   4.449   3.080 -0.4372 -0.4186  0.2030
 8238SOL    HW236177   0.219   4.556   3.026  0.3497  2.4541 -2.0243
 8239SOL     OW36178   1.757   0.306  10.313 -0.0568  0.1713 -0.0179
 8239SOL    HW136179   1.833   0.315  10.371  0.3518 -0.4584 -0.4653
 8239SOL    HW236180   1.698   0.370  10.354 -1.2560 -1.2387  0.4544
 8240SOL     OW36181   3.677   4.428   0.844 -0.4134 -0.6040 -0.2026
 8240SOL    HW136182   3.638   4.478   0.916  0.3522  0.2861 -0.4022
 8240SOL    HW236183   3.655   4.336   0.858 -0.3373 -0.5625  0.1765
 8241SOL     OW36184   0.945   3.783  10.494  0.1959 -0.3424 -0.7396
 8241SOL    HW136185   1.034   3.817  10.504 -0.1197  0.9132 -2.1415
 8241SOL    HW236186   0.907   3.865  10.462  2.7006  0.9390 -0.5166
 8242SOL     OW36187   4.310   4.589   3.259 -0.1060  0.5914  0.1448
 8242SOL    HW136188   4.363   4.668   3.268 -0.9453  1.1625 -0.0193
 8242SOL    HW236189   4.335   4.540   3.338  0.1499  0.6586  0.1055
 8243SOL     OW36190   1.739   1.520  17.366 -0.1241  0.3715 -0.2555
 8243SOL    HW136191   1.785   1.456  17.312  1.4795  0.3715  1.1326
 8243SOL    HW236192   1.698   1.575  17.299 -0.3689  0.6220  0.1012
 8244SOL     OW36193   2.308   0.052   8.471  0.6448  0.7029 -0.0269
 8244SOL    HW136194   2.394   0.076   8.435  1.4073  1.1300  2.0957
 8244SOL    HW236195   2.287   4.701   8.408 -3.0695  1.4215  0.4457
 8245SOL     OW36196   2.304   2.741   7.292 -0.2147 -0.0336 -0.2109
 8245SOL    HW136197   2.349   2.703   7.367  2.1017  0.1899 -1.5074
 8245SOL    HW236198   2.345   2.827   7.300  2.9638 -1.5306 -0.3798
 8246SOL     OW36199   0.279   0.572   6.175 -0.0461 -0.1109 -0.3777
 8246SOL    HW136200   0.260   0.478   6.182 -2.0789  0.4933  2.2989
 8246SOL    HW236201   0.328   0.568   6.093  2.9799  1.0665  1.3888
 8247SOL     OW36202   2.801   3.644   7.184 -0.2636  0.3836 -0.1113
 8247SOL    HW136203   2.894   3.650   7.162  0.2316  0.2107  1.8669
 8247SOL    HW236204   2.779   3.552   7.177 -0.1605  0.3492  0.0100
 8248SOL     OW36205   3.897   0.282   8.767  0.1807  0.3489 -0.3475
 8248SOL    HW136206   3.981   0.255   8.730  0.8361 -0.4008  1.6419
 8248SOL    HW236207   3.919   0.287   8.860  0.1956 -2.0935 -0.1967
 8249SOL     OW36208   4.569   0.208   8.245  0.1492  0.1946 -0.1971
 8249SOL    HW136209   4.478   0.212   8.216 -0.5874  0.1824  2.1162
 8249SOL    HW236210   4.618   0.196   8.163  0.6026  0.1305  0.0821
 8250SOL     OW36211   3.132   3.524  12.917  0.2008  0.1942 -0.3575
 8250SOL    HW136212   3.131   3.505  13.010 -0.3555 -2.2880 -0.8706
 8250SOL    HW236213   3.071   3.454  12.895 -0.2734  0.3379  0.5263
 8251SOL     OW36214   1.448   2.810   4.035  0.5218  0.0422  0.6394
 8251SOL    HW136215   1.523   2.752   4.050  0.4467 -0.6506 -1.6958
 8251SOL    HW236216   1.397   2.754   3.976 -0.3373  2.4430 -0.8995
 8252SOL     OW36217   3.815   0.774   0.836  0.2053  0.4638  0.6125
 8252SOL    HW136218   3.867   0.833   0.891 -1.4787  3.0713 -0.6008
 8252SOL    HW236219   3.779   0.718   0.904  1.4874  0.0277  0.9295
 8253SOL     OW36220   2.932   2.556   6.511 -0.5697  0.4478  0.4141
 8253SOL    HW136221   2.856   2.540   6.567 -2.0657 -1.6490 -2.2526
 8253SOL    HW236222   2.951   2.649   6.522 -0.8217  0.0862  4.0113
 8254SOL     OW36223   1.217   1.720   8.181  0.3351  0.2941  0.1587
 8254SOL    HW136224   1.205   1.751   8.270  0.6219  0.6888  0.0571
 8254SOL    HW236225   1.128   1.692   8.159  0.4418 -0.1741  0.3132
 8255SOL     OW36226   1.135   0.367   3.163 -0.6583 -0.0970 -0.2939
 8255SOL    HW136227   1.069   0.305   3.133 -2.4432  1.5994  0.0916
 8255SOL    HW236228   1.080   0.436   3.202 -0.4638 -1.1661  1.8797
 8256SOL     OW36229   2.727   0.540  14.118 -0.5686  0.5619  0.0988
 8256SOL    HW136230   2.751   0.581  14.035  0.4340 -1.2661 -0.5239
 8256SOL    HW236231   2.811   0.511  14.156 -0.8923 -0.2395  0.1994
 8257SOL     OW36232   1.160   0.201   4.023 -0.4807 -0.2440 -0.0162
 8257SOL    HW136233   1.180   0.177   3.933  1.0126 -2.3248  0.8768
 8257SOL    HW236234   1.140   0.291   3.999  2.6617  0.4716  0.0826
 8258SOL     OW36235   0.398   1.031   2.558 -0.1642 -0.3780  0.2421
 8258SOL    HW136236   0.436   1.118   2.566 -0.5179 -0.1327 -0.8022
 8258SOL    HW236237   0.480   0.986   2.539 -0.4469 -1.5844  1.8548
 8259SOL     OW36238   1.769   2.333   7.660  0.7621  0.6549 -0.0107
 8259SOL    HW136239   1.827   2.264   7.630  2.4290  1.3493  1.6258
 8259SOL    HW236240   1.728   2.359   7.577 -1.1357 -3.8516 -0.4832
 8260SOL     OW36241   3.456   1.216   7.792  0.5479  0.2904  0.1209
 8260SOL    HW136242   3.529   1.242   7.736  0.0524  1.2807 -0.0650
 8260SOL    HW236243   3.485   1.251   7.877  1.1536 -2.3747  1.0193
 8261SOL     OW36244   0.724   3.839   5.728  0.4248 -0.0523 -0.4529
 8261SOL    HW136245   0.716   3.767   5.665 -0.8289  0.5744 -1.0014
 8261SOL    HW236246   0.670   3.801   5.797  0.3789  2.0973  0.7149
 8262SOL     OW36247   2.175   1.128   5.908  0.6825 -0.5527 -0.7427
 8262SOL    HW136248   2.165   1.130   5.813 -2.1646  1.7556 -0.3730
 8262SOL    HW236249   2.091   1.085   5.926  1.7256 -0.9250  3.2491
 8263SOL     OW36250   3.521   4.199  15.311 -0.4894 -0.1439  0.0982
 8263SOL    HW136251   3.440   4.211  15.360 -0.8489 -0.6467 -0.3741
 8263SOL    HW236252   3.587   4.187  15.379 -1.1632 -3.0703  0.2132
 8264SOL     OW36253   3.079   0.203   5.147  1.3164 -0.2529  0.0864
 8264SOL    HW136254   3.123   0.154   5.217 -0.4637 -0.2645  1.1845
 8264SOL    HW236255   2.995   0.235   5.180  1.2831  0.6768 -0.9042
 8265SOL     OW36256   1.056   3.702  14.540 -0.5990  0.0872 -0.0236
 8265SOL    HW136257   1.013   3.775  14.584 -0.1402 -0.4624  1.3469
 8265SOL    HW236258   1.003   3.702  14.460  2.4860 -0.4580 -2.0476
 8266SOL     OW36259   0.896   2.226   4.757  0.0469 -0.2114  0.0951
 8266SOL    HW136260   0.945   2.146   4.774 -0.7009 -0.6745  0.0827
 8266SOL    HW236261   0.926   2.289   4.822  1.3233  0.3095 -0.9989
 8267SOL     OW36262   4.455   1.227   9.216  0.9407  0.1633  0.0067
 8267SOL    HW136263   4.467   1.197   9.306 -0.6556  1.5961  0.6922
 8267SOL    HW236264   4.370   1.266   9.237 -0.0788 -1.0262 -1.9047
 8268SOL     OW36265   4.445   2.374   4.556  0.2010  0.0966 -0.0221
 8268SOL    HW136266   4.538   2.370   4.532  0.0352  2.3618 -1.1214
 8268SOL    HW236267   4.439   2.469   4.572 -1.5961  0.0715 -0.5120
 8269SOL     OW36268   3.858   2.684  13.051 -0.2755  0.0933 -0.3216
 8269SOL    HW136269   3.778   2.632  13.048 -0.2997 -0.0511  3.1377
 8269SOL    HW236270   3.892   2.684  12.961  1.0536 -1.3620  0.1892
 8270SOL     OW36271   3.196   4.261   2.516  0.1614 -0.0714 -0.0359
 8270SOL    HW136272   3.149   4.282   2.435  0.5301  1.1087  0.0491
 8270SOL    HW236273   3.190   4.166   2.504 -0.3226  0.1778 -1.7800
 8271SOL     OW36274   0.144   0.792   4.177 -0.1532 -0.1749 -0.1075
 8271SOL    HW136275   0.121   0.757   4.091 -3.0217  0.3710  0.4262
 8271SOL    HW236276   0.063   0.801   4.227  0.3188  0.9625  0.4477
 8272SOL     OW36277   3.086   2.632   6.940  0.1430 -0.1730 -0.0471
 8272SOL    HW136278   3.155   2.565   6.936  2.2613  2.1336 -1.8957
 8272SOL    HW236279   3.071   2.646   7.033 -0.3510 -0.3803 -0.0968
 8273SOL     OW36280   1.609   1.464   7.886  0.6478 -0.4704 -0.2901
 8273SOL    HW136281   1.584   1.512   7.964  2.4233 -0.1936  0.1021
 8273SOL    HW236282   1.662   1.537   7.855  1.7117 -0.2816  1.9736
 8274SOL     OW36283   4.430   3.075  15.214  0.8092 -0.6664 -0.1272
 8274SOL    HW136284   4.368   3.018  15.260  0.3630  0.0847  0.2163
 8274SOL    HW236285   4.385   3.159  15.224  1.0367 -0.8532  2.3856
 8275SOL     OW36286   4.246   0.335   2.647  0.0694 -0.3130 -0.5327
 8275SOL    HW136287   4.180   0.395   2.683 -0.0500 -1.3713  1.0370
 8275SOL    HW236288   4.243   0.359   2.555  1.7694  0.0744 -0.4912
 8276SOL     OW36289   0.316   2.846   1.273 -0.0216 -0.6367  0.0826
 8276SOL    HW136290   0.346   2.758   1.251  0.1811 -0.1723 -1.5090
 8276SOL    HW236291   0.233   2.829   1.318 -0.1609  2.3129  0.9088
 8277SOL     OW36292   2.102   2.085   2.906  0.7283  0.2428  0.0132
 8277SOL    HW136293   2.016   2.043   2.907  0.8461  0.0678  1.8876
 8277SOL    HW236294   2.146   2.071   2.822 -0.6862 -2.5436 -0.2581
 8278SOL     OW36295   2.160   1.683   4.385  0.6399  0.0259  0.1684
 8278SOL    HW136296   2.094   1.739   4.426 -1.3953 -2.3314  0.1202
 8278SOL    HW236297   2.112   1.601   4.391 -0.5319  0.9777  4.1606
 8279SOL     OW36298   2.117   3.014  10.504  0.0074 -0.8354  0.0500
 8279SOL    HW136299   2.083   2.925  10.494 -0.8204 -0.4621 -0.4745
 8279SOL    HW236300   2.155   3.024  10.417 -1.7772  1.9085 -0.4305
 8280SOL     OW36301   3.989   0.804   2.762  0.0435 -0.1347 -0.2155
 8280SOL    HW136302   3.920   0.859   2.724  0.0862 -0.1165 -0.2657
 8280SOL    HW236303   4.069   0.813   2.710  0.0458  1.4882  0.0681
 8281SOL     OW36304   4.537   0.555   4.641  0.3338 -0.1735 -0.9743
 8281SOL    HW136305   4.578   0.641   4.649 -0.5711  0.0524  1.0746
 8281SOL    HW236306   4.451   0.586   4.668  0.8261  1.6731 -1.5131
 8282SOL     OW36307   4.439   2.172   5.435 -0.6029 -0.2896 -0.3232
 8282SOL    HW136308   4.501   2.128   5.378 -0.7274 -0.7673 -0.0946
 8282SOL    HW236309   4.355   2.183   5.391 -1.7700  1.3827  2.3387
 8283SOL     OW36310   2.882   0.630   2.434 -0.0476 -0.1643 -0.2637
 8283SOL    HW136311   2.871   0.668   2.521  3.7131  0.7860 -0.1936
 8283SOL    HW236312   2.863   0.710   2.384 -2.5273 -0.8361 -0.4012
 8284SOL     OW36313   4.611   0.667   6.809 -0.5600  0.0677  0.4464
 8284SOL    HW136314   4.568   0.586   6.837 -3.2312  0.7093 -1.7940
 8284SOL    HW236315   4.676   0.678   6.878  1.9858  0.3496 -2.0283
 8285SOL     OW36316   1.927   4.513   1.840  0.4576 -0.0840 -0.0041
 8285SOL    HW136317   1.855   4.576   1.847  0.0411 -0.4922 -0.5313
 8285SOL    HW236318   1.995   4.563   1.796 -1.9077  3.2802  0.1728
 8286SOL     OW36319   4.469   4.681   7.999 -0.1438 -0.5948  0.2381
 8286SOL    HW136320   4.389   4.717   7.961 -0.6593  1.1566  3.0396
 8286SOL    HW236321   4.440   4.673   8.090 -0.6000 -0.3170  0.1178
 8287SOL     OW36322   1.569   3.588   5.098  0.7358 -0.4932  0.1819
 8287SOL    HW136323   1.624   3.523   5.142  2.3121  0.4797 -0.3784
 8287SOL    HW236324   1.624   3.615   5.024  0.3550 -2.7960 -0.9643
 8288SOL     OW36325   1.242   3.078   6.843 -0.3922 -0.2465 -0.4186
 8288SOL    HW136326   1.247   3.007   6.779  1.5097  0.7161 -1.3470
 8288SOL    HW236327   1.209   3.041   6.925  0.1026 -1.0474 -0.5805
 8289SOL     OW36328   0.359   4.373   6.068  0.3926  0.0452  0.4797
 8289SOL    HW136329   0.361   4.284   6.104 -1.2678 -1.0793 -2.1414
 8289SOL    HW236330   0.446   4.370   6.027  0.1288  0.9844 -0.1512
 8290SOL     OW36331   0.907   3.625   6.399  0.2079  0.0447 -0.6182
 8290SOL    HW136332   0.975   3.596   6.337  0.5025  1.3691 -0.9252
 8290SOL    HW236333   0.939   3.597   6.484 -0.1435 -1.3135 -0.9338
 8291SOL     OW36334   0.687   4.506  12.494 -1.4892 -0.4428  0.8445
 8291SOL    HW136335   0.663   4.423  12.535 -0.4277 -0.6312  1.0979
 8291SOL    HW236336   0.729   4.471  12.415 -0.2721  0.3770  1.1317
 8292SOL     OW36337   4.556   0.433  14.941 -0.4822  0.4560 -0.2893
 8292SOL    HW136338   4.512   0.352  14.968  1.2491  0.1686  1.6898
 8292SOL    HW236339   4.578   0.459  15.030  0.3334  0.1964 -0.4137
 8293SOL     OW36340   4.173   3.127   9.110 -0.3112  0.1597  0.6583
 8293SOL    HW136341   4.237   3.161   9.173 -1.9863 -0.5652  2.7392
 8293SOL    HW236342   4.169   3.208   9.059 -2.5338 -1.4276 -1.6378
 8294SOL     OW36343   1.822   3.704  11.371  0.4749  0.0029 -0.8010
 8294SOL    HW136344   1.745   3.759  11.358 -0.6923 -1.5338 -0.2944
 8294SOL    HW236345   1.890   3.771  11.373  0.1889  0.3089 -1.2999
 8295SOL     OW36346   0.838   3.629  17.596 -0.5109 -0.2609  0.3831
 8295SOL    HW136347   0.908   3.570  17.623 -0.2448 -1.1800 -2.3339
 8295SOL    HW236348   0.783   3.640   0.000  0.6202  1.2213  0.9483
 8296SOL     OW36349   3.667   2.577   2.691  0.3751  0.1720  0.1725
 8296SOL    HW136350   3.681   2.499   2.637 -1.0325 -1.0003  1.5073
 8296SOL    HW236351   3.571   2.583   2.692  0.4805  1.8302 -0.0817
 8297SOL     OW36352   1.888   2.040   9.669  0.6118 -0.2062 -0.3026
 8297SOL    HW136353   1.863   2.091   9.746  1.3259  1.8517 -1.4571
 8297SOL    HW236354   1.968   2.082   9.640  0.5130  1.7611  2.2918
 8298SOL     OW36355   3.157   2.299   5.525  0.0809 -0.0191  0.2421
 8298SOL    HW136356   3.135   2.246   5.449 -3.2851  0.7631  0.6575
 8298SOL    HW236357   3.243   2.263   5.547  0.9514  0.0315 -3.1747
 8299SOL     OW36358   2.190   0.931   3.065 -0.2707  0.0841 -0.0052
 8299SOL    HW136359   2.169   0.862   3.128 -1.9205  0.2878 -0.3402
 8299SOL    HW236360   2.254   0.889   3.006 -1.2660  0.2086 -1.1857
 8300SOL     OW36361   1.019   1.203   8.854  0.1722  0.6298 -0.1793
 8300SOL    HW136362   1.103   1.155   8.851  0.1665  0.6140 -0.1018
 8300SOL    HW236363   0.968   1.162   8.924  0.3816 -0.6431 -0.7636
 8301SOL     OW36364   3.036   1.022   8.140  0.2150  0.1227 -1.0173
 8301SOL    HW136365   3.129   1.031   8.163 -0.1624 -2.0520  1.3674
 8301SOL    HW236366   3.039   1.086   8.069 -1.8587 -0.4859 -1.6565
 8302SOL     OW36367   1.093   0.595   7.507  0.8968 -0.2068  0.0119
 8302SOL    HW136368   1.050   0.628   7.586 -0.0449  3.3641 -2.0109
 8302SOL    HW236369   1.118   0.678   7.465  0.0282  0.8369  1.5671
 8303SOL     OW36370   0.798   4.682   1.702 -0.1561 -0.3086  0.1288
 8303SOL    HW136371   0.717   4.639   1.729 -0.8505  0.3253 -0.9334
 8303SOL    HW236372   0.817   0.007   1.785 -0.2969 -1.1859  0.6164
 8304SOL     OW36373   2.237   1.753   2.439  0.2080 -0.5346 -0.4042
 8304SOL    HW136374   2.191   1.825   2.395  0.0682 -0.3990 -0.0365
 8304SOL    HW236375   2.170   1.686   2.425 -0.5326 -0.0050  0.5568
 8305SOL     OW36376   1.532   3.578   3.155 -0.5200  0.0312 -0.4203
 8305SOL    HW136377   1.545   3.604   3.064  1.2741  1.3612  0.2127
 8305SOL    HW236378   1.447   3.618   3.176 -0.5040 -1.3066  2.2639
 8306SOL     OW36379   1.867   3.897   0.783  0.2489  0.5637  0.6347
 8306SOL    HW136380   1.782   3.940   0.776  0.1861  0.2450 -0.5420
 8306SOL    HW236381   1.842   3.807   0.762  3.4096 -0.7455  2.5789
 8307SOL     OW36382   3.823   1.370   4.513 -0.0777  0.0132  0.5004
 8307SOL    HW136383   3.817   1.464   4.498 -1.0838 -0.4775 -2.1770
 8307SOL    HW236384   3.894   1.346   4.454 -1.5863 -0.7472 -1.0162
 8308SOL     OW36385   2.398   2.658   7.532  0.1648  0.0514  0.1007
 8308SOL    HW136386   2.354   2.688   7.611 -0.3536 -1.3421  0.3461
 8308SOL    HW236387   2.488   2.689   7.542 -0.5530  1.9448  0.5828
 8309SOL     OW36388   0.628   1.002   4.377  0.3766  0.1656 -0.0790
 8309SOL    HW136389   0.541   1.017   4.338  0.9342  0.1080 -1.3580
 8309SOL    HW236390   0.607   0.924   4.429  2.1215  0.3752  0.9079
 8310SOL     OW36391   0.545   3.307   1.809  0.7432  0.4729  0.1895
 8310SOL    HW136392   0.503   3.279   1.728 -1.5452 -0.2786  1.6257
 8310SOL    HW236393   0.632   3.268   1.805  0.6288  0.3040 -0.6803
 8311SOL     OW36394   4.705   2.283   0.199  0.4050  0.4233 -0.2602
 8311SOL    HW136395   0.036   2.280   0.282 -0.1806  0.7138  0.0897
 8311SOL    HW236396   0.048   2.320   0.134  1.2252 -1.4416 -0.5583
 8312SOL     OW36397   4.460   3.706   4.388 -0.1085  0.4523  0.6024
 8312SOL    HW136398   4.378   3.751   4.369 -1.1200 -2.3497 -1.7177
 8312SOL    HW236399   4.487   3.756   4.465  0.8448 -0.3517  0.7916
 8313SOL     OW36400   4.251   0.672  15.527 -0.1618 -0.2379 -0.0823
 8313SOL    HW136401   4.190   0.600  15.545  0.3648 -0.7237 -0.2397
 8313SOL    HW236402   4.267   0.680  15.433 -1.6732 -1.5503 -0.4552
 8314SOL     OW36403   1.769   3.038   4.906  0.3851  0.1961 -0.4326
 8314SOL    HW136404   1.737   2.951   4.931 -0.5603  0.9242  0.9200
 8314SOL    HW236405   1.855   3.007   4.876  1.4595  1.0260  1.7956
 8315SOL     OW36406   3.049   3.810   5.045  0.1368 -0.3040 -0.1554
 8315SOL    HW136407   3.013   3.860   5.118  0.0398  1.9256 -1.7357
 8315SOL    HW236408   3.137   3.843   5.027  0.1429 -2.0133 -3.1736
 8316SOL     OW36409   3.666   0.278   1.412  0.2140  0.7696  0.8723
 8316SOL    HW136410   3.634   0.365   1.388 -0.4452  1.2495  3.5200
 8316SOL    HW236411   3.685   0.289   1.505  1.1313  0.5669  0.7027
 8317SOL     OW36412   4.626   1.343  10.788 -0.0666  0.1254  0.1133
 8317SOL    HW136413   4.581   1.273  10.836 -0.9600  0.4482 -0.2715
 8317SOL    HW236414   4.553   1.392  10.752  1.2746  1.0510 -1.3441
 8318SOL     OW36415   1.773   0.096  15.517 -0.3933  0.0897 -0.3271
 8318SOL    HW136416   1.687   0.067  15.487 -0.5373  0.7713 -0.5607
 8318SOL    HW236417   1.746   0.086  15.608  1.2518  0.8932  0.2552
 8319SOL     OW36418   4.080   2.973   9.370  0.0297 -0.3540  0.5304
 8319SOL    HW136419   4.067   2.934   9.284 -0.4135  2.1013 -0.5239
 8319SOL    HW236420   4.063   2.911   9.441  0.2759 -4.2987 -2.8411
 8320SOL     OW36421   3.678   4.690  13.779 -0.5420 -0.0185 -0.2748
 8320SOL    HW136422   3.651   4.610  13.824  0.8568  1.4698  3.2003
 8320SOL    HW236423   3.612   0.030  13.817 -0.6133 -0.4144  0.2006
 8321SOL     OW36424   2.602   2.766  17.282 -0.2802  0.5039  0.0100
 8321SOL    HW136425   2.637   2.825  17.215 -2.8026  1.0557 -0.8024
 8321SOL    HW236426   2.510   2.787  17.270 -0.0097  0.8928 -1.3521
 8322SOL     OW36427   2.334   1.778   3.103 -0.3048 -0.1378  0.4331
 8322SOL    HW136428   2.369   1.807   3.019  0.9941  0.3836  1.1421
 8322SOL    HW236429   2.280   1.703   3.079 -1.3683  0.6566  0.3447
 8323SOL     OW36430   1.347   0.884  13.797 -0.4621 -0.4746  0.2213
 8323SOL    HW136431   1.373   0.907  13.886  1.0415 -0.9151 -0.1023
 8323SOL    HW236432   1.259   0.850  13.815  0.6938 -3.2117  0.6857
 8324SOL     OW36433   2.094   1.708   4.697  0.3844  0.8229 -0.4518
 8324SOL    HW136434   2.152   1.782   4.715  0.4887  0.5085  0.4909
 8324SOL    HW236435   2.057   1.733   4.612 -0.3876  0.5801 -0.1906
 8325SOL     OW36436   1.518   2.555  14.045 -0.2065 -0.6414 -0.2660
 8325SOL    HW136437   1.434   2.532  14.084  0.7386 -1.2642  1.4030
 8325SOL    HW236438   1.562   2.470  14.050 -1.7442 -1.4356 -0.1446
 8326SOL     OW36439   3.699   0.816   8.028 -0.4818  0.3370 -0.4794
 8326SOL    HW136440   3.762   0.864   7.974  0.0700  1.5338  1.2169
 8326SOL    HW236441   3.755   0.748   8.066 -0.0458  0.3275 -1.1342
 8327SOL     OW36442   2.460   3.110  16.472  0.0251 -0.7786  0.5307
 8327SOL    HW136443   2.430   3.064  16.550  1.8599 -2.1516  0.4353
 8327SOL    HW236444   2.542   3.148  16.503 -0.3191 -1.1465  1.8970
 8328SOL     OW36445   0.668   1.237   6.373  0.2576  0.8252  0.1498
 8328SOL    HW136446   0.674   1.288   6.292 -1.8290  1.3276  0.3107
 8328SOL    HW236447   0.702   1.151   6.347  0.3517  0.0257  2.8960
 8329SOL     OW36448   3.086   0.081   4.537  0.5711  0.8499  0.1779
 8329SOL    HW136449   3.041   0.030   4.470  2.4132  0.1026 -0.4873
 8329SOL    HW236450   3.044   0.057   4.620 -2.3555  2.2709 -0.8867
 8330SOL     OW36451   2.033   1.349   2.288 -0.0180  0.4655  0.1685
 8330SOL    HW136452   2.109   1.292   2.301  1.9934  3.2637  0.5902
 8330SOL    HW236453   1.976   1.343   2.366 -0.5046 -0.2930 -0.2469
 8331SOL     OW36454   1.884   2.788   5.829  0.2949 -0.6621 -0.3677
 8331SOL    HW136455   1.927   2.734   5.763  2.1995 -0.0636  0.3916
 8331SOL    HW236456   1.957   2.836   5.868  2.0724 -1.2340 -2.9921
 8332SOL     OW36457   0.003   2.913   1.742  0.2047 -0.0693 -0.0200
 8332SOL    HW136458   0.063   2.948   1.808 -0.6780  0.8890  0.2620
 8332SOL    HW236459   0.018   2.963   1.662  0.3223 -0.0581  0.0085
 8333SOL     OW36460   0.679   4.680   9.261  0.8845  0.0854 -0.1844
 8333SOL    HW136461   0.664   4.664   9.354  0.6603  3.1680  0.3114
 8333SOL    HW236462   0.592   4.688   9.223  0.4638 -0.1529  0.7212
 8334SOL     OW36463   2.663   2.120  17.440 -0.0297 -0.1853 -0.3732
 8334SOL    HW136464   2.754   2.122  17.408  0.0825 -2.8620 -0.1994
 8334SOL    HW236465   2.677   2.126  17.534 -0.8939 -1.3074 -0.1693
 8335SOL     OW36466   4.680   0.289   8.008 -0.2520 -0.5289  0.1408
 8335SOL    HW136467   4.619   0.326   7.945  0.6434 -0.7956 -0.8729
 8335SOL    HW236468   0.036   0.348   8.024 -2.1085  1.8360 -0.0470
 8336SOL     OW36469   1.777   3.640   8.328 -0.2776 -0.1000  0.2910
 8336SOL    HW136470   1.802   3.566   8.383  1.3318  0.6276  0.5494
 8336SOL    HW236471   1.843   3.703   8.359 -2.2714  1.3196  1.6372
 8337SOL     OW36472   2.749   2.318   6.989  0.1187  0.0615  0.1611
 8337SOL    HW136473   2.789   2.243   6.945 -1.5550  0.7522 -2.6073
 8337SOL    HW236474   2.785   2.310   7.077 -1.7701 -2.9295  0.6494
 8338SOL     OW36475   4.211   3.308   8.651  0.2645 -0.1525 -0.6295
 8338SOL    HW136476   4.254   3.223   8.661  0.4383  0.0432  0.2781
 8338SOL    HW236477   4.285   3.361   8.680  1.0851 -1.4441 -0.3620
 8339SOL     OW36478   0.446   3.753  13.456 -0.1462  0.3932  0.1786
 8339SOL    HW136479   0.445   3.807  13.377 -2.7196 -1.6500 -1.2001
 8339SOL    HW236480   0.513   3.685  13.445 -0.7546 -0.4615  1.6505
 8340SOL     OW36481   2.409   2.400   7.215 -0.1587  0.6193  0.4843
 8340SOL    HW136482   2.402   2.401   7.311 -2.4826  0.6236  0.3277
 8340SOL    HW236483   2.419   2.492   7.189 -1.0910  0.2857 -1.0904
 8341SOL     OW36484   2.755   4.366   6.593 -0.1914 -0.7093 -0.1593
 8341SOL    HW136485   2.765   4.272   6.605  0.2480 -0.5354  0.8269
 8341SOL    HW236486   2.712   4.393   6.674  0.8157 -0.6418  0.3471
 8342SOL     OW36487   3.895   2.806   7.347  0.2740 -0.5894  0.0689
 8342SOL    HW136488   3.906   2.899   7.327  0.0911 -0.2899  1.3530
 8342SOL    HW236489   3.827   2.801   7.415 -1.9924  2.4581 -1.9513
 8343SOL     OW36490   3.735   2.604   0.994  0.1241 -0.1628 -0.3985
 8343SOL    HW136491   3.773   2.608   0.906  0.7049 -1.3948 -0.1925
 8343SOL    HW236492   3.650   2.639   0.968  0.0956 -0.8360 -1.1898
 8344SOL     OW36493   4.530   2.502   2.409 -0.0314  0.1472  0.0222
 8344SOL    HW136494   4.579   2.423   2.386  3.2087  2.1926 -0.1198
 8344SOL    HW236495   4.451   2.452   2.433  0.1422  1.1432  2.6935
 8345SOL     OW36496   2.953   1.436   6.066 -0.3178  0.3839 -0.2288
 8345SOL    HW136497   2.905   1.512   6.098  1.7594  0.8928  1.7085
 8345SOL    HW236498   3.000   1.408   6.145  2.3279  0.9550 -1.6056
 8346SOL     OW36499   2.309   1.403   4.076 -0.1118  0.3274  0.3057
 8346SOL    HW136500   2.399   1.372   4.066  0.1800  1.1876  0.2071
 8346SOL    HW236501   2.270   1.359   4.151  0.2564  2.2032  1.6043
 8347SOL     OW36502   2.774   3.890   4.795  0.3965 -0.2855  0.1378
 8347SOL    HW136503   2.765   3.867   4.888 -3.2320  0.7310  0.0739
 8347SOL    HW236504   2.869   3.893   4.790  0.4561  1.3197  1.9647
 8348SOL     OW36505   1.603   2.985   2.292  0.0842  0.7937 -0.2330
 8348SOL    HW136506   1.685   2.940   2.312  1.2226  2.0015 -2.2236
 8348SOL    HW236507   1.560   2.912   2.248 -1.6052  1.2211  0.7338
 8349SOL     OW36508   2.480   3.177   8.511 -0.0921  0.2201  0.3018
 8349SOL    HW136509   2.422   3.112   8.470  1.0860  1.1311 -2.8339
 8349SOL    HW236510   2.517   3.119   8.577 -0.7850 -0.5662  0.0013
 8350SOL     OW36511   0.846   0.965   8.945  0.0978 -0.6842 -0.1444
 8350SOL    HW136512   0.816   1.048   8.983  2.0724  0.3135 -0.7351
 8350SOL    HW236513   0.819   0.916   9.023  3.0284 -0.7066  0.8416
 8351SOL     OW36514   2.913   2.539   3.502  0.1027 -0.4205  0.0280
 8351SOL    HW136515   2.866   2.536   3.418 -0.5077  0.0742  0.3519
 8351SOL    HW236516   2.998   2.544   3.457 -0.8619  0.1590 -1.7497
 8352SOL     OW36517   0.849   1.761   6.637 -0.2387  0.6202 -0.2576
 8352SOL    HW136518   0.926   1.723   6.680 -0.8461 -1.0869 -0.6997
 8352SOL    HW236519   0.864   1.853   6.657 -1.8250  0.7874  0.1277
 8353SOL     OW36520   2.395   2.044   2.954  0.3157  0.5522  0.6412
 8353SOL    HW136521   2.365   2.031   2.864  1.5881  4.9866 -0.4300
 8353SOL    HW236522   2.320   2.016   3.006  0.5965  0.6946  1.1270
 8354SOL     OW36523   2.537   4.481   3.350  0.9355  0.9692 -0.1950
 8354SOL    HW136524   2.581   4.434   3.279 -0.3650  1.2133 -1.1658
 8354SOL    HW236525   2.533   4.558   3.293  1.4927 -0.9444 -2.8582
 8355SOL     OW36526   3.681   0.793   2.869  0.0053 -0.2187  0.0212
 8355SOL    HW136527   3.670   0.873   2.817 -2.9222  0.4833  1.7175
 8355SOL    HW236528   3.736   0.831   2.937 -1.5644  0.0307  1.1522
 8356SOL     OW36529   0.570   0.582  11.273  0.3124  0.3602 -0.3426
 8356SOL    HW136530   0.502   0.516  11.258  1.0309 -0.5711  0.5118
 8356SOL    HW236531   0.513   0.659  11.266 -0.1846  0.2250  2.1162
 8357SOL     OW36532   2.276   4.487   7.200 -0.0314  0.1348  0.3513
 8357SOL    HW136533   2.318   4.570   7.220 -2.3818  1.1766  1.0125
 8357SOL    HW236534   2.300   4.443   7.281 -0.3959  1.2919  1.0849
 8358SOL     OW36535   4.653   0.194   0.395  0.2958 -0.7882 -0.0236
 8358SOL    HW136536   4.597   0.225   0.325 -0.2060 -3.5357 -0.8588
 8358SOL    HW236537   4.632   0.257   0.463  0.3592  1.8217 -2.4459
 8359SOL     OW36538   2.460   0.363   2.705 -0.1804 -0.4839  0.0100
 8359SOL    HW136539   2.384   0.314   2.677 -2.1008  2.9536 -0.8498
 8359SOL    HW236540   2.524   0.298   2.736  0.2022 -0.1761 -0.1264
 8360SOL     OW36541   4.238   2.520  14.234 -0.3730  0.0891 -0.2880
 8360SOL    HW136542   4.304   2.452  14.222 -1.2658 -0.7171 -0.6732
 8360SOL    HW236543   4.198   2.490  14.316  0.9285  2.1922  1.1207
 8361SOL     OW36544   3.380   3.934  11.982  0.1987  0.1366  0.1735
 8361SOL    HW136545   3.427   3.998  12.035 -0.1290  1.0830 -0.6910
 8361SOL    HW236546   3.455   3.879  11.961 -0.3784 -1.1932  1.5800
 8362SOL     OW36547   3.016   1.766   7.463 -0.4303 -0.0510 -0.1235
 8362SOL    HW136548   3.085   1.731   7.521 -0.1293 -0.8947 -0.9936
 8362SOL    HW236549   3.062   1.761   7.379  1.6068 -0.5480  1.0228
 8363SOL     OW36550   2.967   2.484   4.944 -0.5671  0.0182 -0.1028
 8363SOL    HW136551   3.036   2.524   4.892 -0.7458  0.0722 -0.3005
 8363SOL    HW236552   3.003   2.428   5.013 -0.6735  0.7314  0.5227
 8364SOL     OW36553   0.223   2.353   8.454 -0.0384  0.1646  0.0921
 8364SOL    HW136554   0.161   2.423   8.432  1.0578  0.5327 -1.8304
 8364SOL    HW236555   0.167   2.275   8.455 -0.3210  0.3284 -1.5415
 8365SOL     OW36556   2.618   4.460   4.005  0.5166 -0.2250 -0.0133
 8365SOL    HW136557   2.613   4.399   3.932  0.7332 -0.1197 -0.1177
 8365SOL    HW236558   2.524   4.479   4.011  0.6569  0.4770 -0.0193
 8366SOL     OW36559   3.624   2.042   6.642  0.1423  0.2667 -0.5254
 8366SOL    HW136560   3.696   2.024   6.702 -1.1894  1.8568  1.5140
 8366SOL    HW236561   3.562   2.080   6.704  1.9165  0.3318  1.2050
 8367SOL     OW36562   2.589   0.626  15.526  0.3662  0.2927  0.3746
 8367SOL    HW136563   2.627   0.538  15.533  2.7647  1.4757  2.4796
 8367SOL    HW236564   2.503   0.596  15.498  0.8268  0.6062 -1.4017
 8368SOL     OW36565   0.022   3.340   6.985  0.4829  0.0427 -0.3779
 8368SOL    HW136566   0.117   3.352   6.995  0.7136 -1.4068 -0.9046
 8368SOL    HW236567   4.711   3.428   6.960 -0.5848 -0.1859  0.0513
 8369SOL     OW36568   0.446   2.366  16.209 -0.4446 -0.0294  0.4306
 8369SOL    HW136569   0.391   2.326  16.276 -0.3097 -2.1162 -0.6943
 8369SOL    HW236570   0.397   2.377  16.128 -0.0491 -1.2638  0.0270
 8370SOL     OW36571   1.700   0.133  17.556 -0.7033  0.2207 -0.4402
 8370SOL    HW136572   1.702   0.136  17.652  0.4338 -1.8558 -0.3933
 8370SOL    HW236573   1.656   0.049  17.541  1.8393 -1.0178 -0.9643
 8371SOL     OW36574   3.174   4.245  16.550 -0.6206 -0.4271  0.4155
 8371SOL    HW136575   3.166   4.186  16.475  1.4065 -2.0349  1.4718
 8371SOL    HW236576   3.228   4.195  16.613 -0.2344 -1.5201 -0.7841
 8372SOL     OW36577   3.503   0.628  14.686  0.3102  0.3376  0.4241
 8372SOL    HW136578   3.585   0.638  14.637  1.0425 -0.4146  1.5116
 8372SOL    HW236579   3.512   0.705  14.742  1.9818 -0.4128  1.1880
 8373SOL     OW36580   2.630   0.131   5.428 -0.0834 -0.6007 -0.2677
 8373SOL    HW136581   2.589   0.045   5.439  0.0985 -0.3102  2.5938
 8373SOL    HW236582   2.592   0.184   5.498  0.3165 -3.0948  1.8223
 8374SOL     OW36583   4.654   2.050   9.739 -0.1368 -0.1997  0.4993
 8374SOL    HW136584   4.563   2.058   9.711  0.6037 -0.6246 -2.0542
 8374SOL    HW236585   4.695   2.133   9.713 -1.6311  0.2025 -0.5539
 8375SOL     OW36586   3.444   0.120   7.141 -0.3317  0.5440 -0.1544
 8375SOL    HW136587   3.471   0.187   7.203 -1.4781  0.2915  0.6248
 8375SOL    HW236588   3.412   0.165   7.063 -2.4435 -0.1225  0.3232
 8376SOL     OW36589   1.125   4.282   4.460 -0.3522  0.6294  0.2375
 8376SOL    HW136590   1.218   4.305   4.453 -0.4571  0.6488 -0.9928
 8376SOL    HW236591   1.116   4.270   4.555 -2.0800 -0.0776 -0.0073
 8377SOL     OW36592   1.369   0.682   5.489  0.3201 -0.3116  0.8386
 8377SOL    HW136593   1.415   0.601   5.469  0.6657 -0.2636  1.4457
 8377SOL    HW236594   1.288   0.642   5.520  1.0703 -0.7897  2.1914
 8378SOL     OW36595   2.846   2.187   6.198  0.4602 -0.8476  0.5945
 8378SOL    HW136596   2.849   2.188   6.102  1.3338 -1.7021  0.6213
 8378SOL    HW236597   2.898   2.266   6.215 -0.1144 -0.1460 -0.8745
 8379SOL     OW36598   1.028   3.052   6.531  0.1566  0.4741 -0.0065
 8379SOL    HW136599   1.082   3.130   6.545 -2.2218  1.9209  1.0712
 8379SOL    HW236600   0.991   3.083   6.448  0.7986  0.0144 -0.4689
 8380SOL     OW36601   0.788   3.131   8.397 -0.7867  1.0430  0.7665
 8380SOL    HW136602   0.709   3.178   8.421 -1.0190  0.0542  1.8909
 8380SOL    HW236603   0.816   3.107   8.485 -0.6113 -0.8498  0.1858
 8381SOL     OW36604   4.324   3.066   9.497  0.1048 -0.1543 -0.8568
 8381SOL    HW136605   4.246   3.012   9.483 -0.5604  0.3452  0.9373
 8381SOL    HW236606   4.343   3.053   9.590  1.5568 -1.2928 -1.3218
 8382SOL     OW36607   2.911   1.564   3.449  0.0097 -0.0943  0.3550
 8382SOL    HW136608   2.827   1.535   3.412 -0.1838 -1.1135  1.5907
 8382SOL    HW236609   2.972   1.509   3.401  0.6081  0.6996  0.2059
 8383SOL     OW36610   3.366   4.115  16.694  0.3027 -0.1658 -0.5444
 8383SOL    HW136611   3.451   4.084  16.663  0.2441  0.6855 -1.5410
 8383SOL    HW236612   3.404   4.183  16.750  0.8128  0.0335 -1.1457
 8384SOL     OW36613   1.939   4.183  16.873  0.6079  0.4107  0.1055
 8384SOL    HW136614   1.964   4.257  16.928 -3.7883  1.1581  1.0653
 8384SOL    HW236615   2.010   4.124  16.899  0.7278  0.0228 -1.0886
 8385SOL     OW36616   2.002   3.924  14.868  0.1598  0.0980 -1.0511
 8385SOL    HW136617   1.918   3.950  14.830 -0.0848  0.8859  0.0251
 8385SOL    HW236618   2.047   3.900  14.787  1.1836 -0.2993 -0.3533
 8386SOL     OW36619   3.431   3.384  13.101  0.4023 -0.2740 -0.4298
 8386SOL    HW136620   3.509   3.330  13.120 -0.3404 -1.3783 -0.5022
 8386SOL    HW236621   3.444   3.413  13.011  0.4632 -1.7821 -0.9148
 8387SOL     OW36622   2.490   4.496  14.876 -0.5717  0.4601  0.1068
 8387SOL    HW136623   2.550   4.543  14.935  0.1027  1.3789 -1.2961
 8387SOL    HW236624   2.532   4.527  14.795 -1.3865 -0.8014 -0.7838
 8388SOL     OW36625   3.163   3.182  11.988 -0.7557 -0.3339 -0.3304
 8388SOL    HW136626   3.137   3.252  12.048  1.6652  0.5374 -0.3034
 8388SOL    HW236627   3.101   3.186  11.916 -0.2065 -1.5739 -0.8832
 8389SOL     OW36628   0.485   2.499   6.221  0.0907  0.6128 -0.0397
 8389SOL    HW136629   0.520   2.518   6.134 -1.6191 -1.8792 -1.2927
 8389SOL    HW236630   0.552   2.433   6.240 -1.1840 -0.7740 -0.3839
 8390SOL     OW36631   4.104   4.599   8.995 -0.5661 -0.5292  0.3702
 8390SOL    HW136632   4.083   4.561   8.910  0.4661  1.3673 -0.7132
 8390SOL    HW236633   4.198   4.591   8.984 -0.7117 -0.3686 -0.9274
 8391SOL     OW36634   0.136   4.440   3.607 -0.0890  0.5075 -0.6297
 8391SOL    HW136635   0.046   4.426   3.579  0.4376 -1.1990 -1.4314
 8391SOL    HW236636   0.134   4.529   3.642 -0.3280  0.3729 -0.2993
 8392SOL     OW36637   0.887   0.423   4.180 -0.5580  0.2024 -0.2479
 8392SOL    HW136638   0.965   0.397   4.230 -0.9805 -0.7699 -0.1037
 8392SOL    HW236639   0.881   0.518   4.192 -3.1938 -0.2186  1.6607
 8393SOL     OW36640   2.535   1.628   3.225  0.3840  0.5403  0.2491
 8393SOL    HW136641   2.604   1.686   3.193 -1.3120  1.3202 -1.9742
 8393SOL    HW236642   2.466   1.647   3.161  0.2897 -0.1065  0.1645
 8394SOL     OW36643   0.003   0.654   3.846  0.2074 -0.3859 -0.4234
 8394SOL    HW136644   0.008   0.562   3.873 -0.2945 -0.9618 -2.2711
 8394SOL    HW236645   4.645   0.684   3.896 -0.3063 -1.7569 -0.3883
 8395SOL     OW36646   1.491   4.680   6.521  0.5791 -0.2785  0.0516
 8395SOL    HW136647   1.554   0.033   6.508 -0.2641  0.4852  0.1745
 8395SOL    HW236648   1.551   4.617   6.560 -0.8552 -0.3374  2.1337
 8396SOL     OW36649   0.823   2.600  12.675 -1.0436  0.5079  0.2504
 8396SOL    HW136650   0.814   2.593  12.770  0.9655 -0.6851  0.3432
 8396SOL    HW236651   0.755   2.665  12.655 -0.0236  2.2058  2.3919
 8397SOL     OW36652   1.437   2.389  11.228 -0.0545  0.0910  0.0435
 8397SOL    HW136653   1.343   2.374  11.213 -0.3802  1.1172  1.1006
 8397SOL    HW236654   1.461   2.324  11.294  0.4232  1.1703  0.9307
 8398SOL     OW36655   1.857   3.820  16.364  0.8989  0.3291  0.1347
 8398SOL    HW136656   1.917   3.885  16.401 -1.6949  0.6088  3.8265
 8398SOL    HW236657   1.902   3.796  16.283 -0.4647 -1.0144 -0.2281
 8399SOL     OW36658   1.671   0.511  17.613 -0.2290  0.8591 -0.5672
 8399SOL    HW136659   1.686   0.437  17.671 -1.2180  1.2054  0.1195
 8399SOL    HW236660   1.578   0.529  17.625 -0.4654 -1.2987  0.8752
 8400SOL     OW36661   0.053   0.760   0.690  0.4775 -0.2827 -0.0674
 8400SOL    HW136662   4.711   0.835   0.689 -2.3124 -2.5189  0.5228
 8400SOL    HW236663   0.062   0.753   0.785 -0.1468 -1.2160 -0.0813
 8401SOL     OW36664   3.678   3.389   2.723  0.3555  0.5950 -0.2863
 8401SOL    HW136665   3.689   3.307   2.770  1.2078  1.0292  0.2563
 8401SOL    HW236666   3.687   3.350   2.636 -0.0454 -0.8045  0.2973
 8402SOL     OW36667   0.919   1.964   2.747  0.4089  0.4634 -0.6000
 8402SOL    HW136668   0.982   2.029   2.716 -1.7237  1.6474 -2.4423
 8402SOL    HW236669   0.961   1.879   2.731 -1.3780 -0.6624  0.6069
 8403SOL     OW36670   2.060   0.363   7.250 -0.6266  0.4457  0.1472
 8403SOL    HW136671   2.108   0.283   7.272 -2.4390 -0.6244  0.2140
 8403SOL    HW236672   2.122   0.436   7.255 -0.9578  0.8247 -1.1585
 8404SOL     OW36673   3.428   3.726  11.483  0.2350 -0.0080  0.0595
 8404SOL    HW136674   3.459   3.635  11.489 -0.3638 -0.2347 -0.3048
 8404SOL    HW236675   3.513   3.767  11.495  0.0109  0.3261  0.5208
 8405SOL     OW36676   1.480   1.819  13.730 -0.2473 -0.5706 -0.2949
 8405SOL    HW136677   1.494   1.913  13.744  1.1409 -0.4802 -2.1655
 8405SOL    HW236678   1.514   1.777  13.809  1.5160 -0.7671 -1.1396
 8406SOL     OW36679   0.730   1.069  11.332  0.2816 -0.6775  0.4534
 8406SOL    HW136680   0.804   1.096  11.385  1.1052  0.6308 -1.3570
 8406SOL    HW236681   0.664   1.066  11.401 -2.9284 -0.9062 -2.6044
 8407SOL     OW36682   3.988   1.387   8.608 -0.0759  0.4023  0.0247
 8407SOL    HW136683   4.044   1.434   8.670  1.6680 -1.1907 -0.3439
 8407SOL    HW236684   3.976   1.313   8.668  0.9775  1.7117  1.8328
 8408SOL     OW36685   3.661   3.916   1.608  0.2629 -0.2813 -0.4138
 8408SOL    HW136686   3.742   3.888   1.651 -0.4090  0.2061  1.1671
 8408SOL    HW236687   3.648   3.999   1.654 -0.3255 -0.9818  0.7032
 8409SOL     OW36688   3.257   1.942   8.243  0.3139 -0.6020  0.8153
 8409SOL    HW136689   3.174   1.987   8.225  1.9058  1.6282 -0.9665
 8409SOL    HW236690   3.262   1.954   8.338  0.2651  0.3262  0.7007
 8410SOL     OW36691   0.715   3.757   8.641 -0.0466  0.5188  0.2488
 8410SOL    HW136692   0.795   3.800   8.610  0.6531 -3.1958 -3.0500
 8410SOL    HW236693   0.658   3.832   8.622  0.6092  1.0263  0.2566
 8411SOL     OW36694   0.809   3.996   3.338  0.1123 -0.1239  0.2289
 8411SOL    HW136695   0.847   4.056   3.275 -2.4375  0.5465 -0.6938
 8411SOL    HW236696   0.731   4.042   3.369  0.8867  0.4216  1.3416
 8412SOL     OW36697   3.740   0.768  16.512  0.4935  0.2928 -0.6497
 8412SOL    HW136698   3.685   0.802  16.441  2.9413 -1.1946 -3.2709
 8412SOL    HW236699   3.692   0.691  16.543 -0.5484  0.6882 -1.2799
 8413SOL     OW36700   0.569   2.193   6.705  0.4953  0.1013  0.3540
 8413SOL    HW136701   0.477   2.217   6.696  1.1263  2.2444 -0.3357
 8413SOL    HW236702   0.559   2.122   6.768 -1.2242 -0.5700 -0.6766
 8414SOL     OW36703   4.141   3.669   4.653  0.0179  1.0786  0.4387
 8414SOL    HW136704   4.152   3.632   4.741 -0.4265 -0.6319 -0.2314
 8414SOL    HW236705   4.230   3.701   4.636  0.8365 -0.8637  1.0243
 8415SOL     OW36706   4.435   0.458  10.613  0.4216  0.6667 -0.4524
 8415SOL    HW136707   4.416   0.373  10.574  2.5107  0.1186 -0.2536
 8415SOL    HW236708   4.365   0.468  10.678  0.2105  0.0380 -0.5802
 8416SOL     OW36709   2.464   3.165   4.524 -0.1405  0.5359  0.2353
 8416SOL    HW136710   2.378   3.125   4.535 -0.2112  0.3875 -0.8644
 8416SOL    HW236711   2.471   3.185   4.431  0.0420 -0.0785  0.1179
 8417SOL     OW36712   3.680   0.973   6.707  0.4758 -0.2817 -0.2889
 8417SOL    HW136713   3.642   0.887   6.690  0.9900 -0.5577 -0.0349
 8417SOL    HW236714   3.743   0.993   6.638  0.8699 -0.5948 -0.0204
 8418SOL     OW36715   4.297   0.851   1.372  0.2619 -0.1660  0.3739
 8418SOL    HW136716   4.393   0.856   1.373  0.2404  0.2381 -0.1053
 8418SOL    HW236717   4.294   0.781   1.438 -0.7392 -0.7291 -0.2704
 8419SOL     OW36718   2.353   1.712   9.065 -0.3639  0.0281 -0.6918
 8419SOL    HW136719   2.353   1.798   9.023 -0.2591  0.9170  1.1446
 8419SOL    HW236720   2.386   1.734   9.152 -1.6041 -0.1031 -0.1878
 8420SOL     OW36721   4.519   1.935  15.404  0.0243 -0.0602  0.8287
 8420SOL    HW136722   4.508   1.973  15.317  0.7905 -0.3596  0.5988
 8420SOL    HW236723   4.515   1.840  15.390  2.5299  0.2172 -1.8247
 8421SOL     OW36724   3.807   2.438  13.401  0.0097  0.1204  0.1573
 8421SOL    HW136725   3.867   2.494  13.352 -0.9035 -0.1774 -1.2888
 8421SOL    HW236726   3.738   2.422  13.338  0.8156  1.2113 -0.9960
 8422SOL     OW36727   4.405   2.445  13.844 -0.1634  0.0327 -0.2940
 8422SOL    HW136728   4.484   2.480  13.803 -0.0792 -0.0194 -0.1723
 8422SOL    HW236729   4.367   2.408  13.764 -0.6947  0.3836 -0.2038
 8423SOL     OW36730   4.514   1.740  15.837  0.0161 -0.1740 -0.9200
 8423SOL    HW136731   4.476   1.754  15.750 -1.6303 -2.2694 -0.5428
 8423SOL    HW236732   4.604   1.719  15.811  0.2065  0.0381 -0.4275
 8424SOL     OW36733   1.198   2.351   3.673 -0.6108  0.2851 -0.2711
 8424SOL    HW136734   1.276   2.320   3.628  0.4843  0.6266  1.3801
 8424SOL    HW236735   1.231   2.373   3.760 -0.7498  0.5765 -0.2935
 8425SOL     OW36736   2.566   2.837   2.984 -0.2704  0.0399 -0.1276
 8425SOL    HW136737   2.492   2.841   2.923  0.7435  1.3647 -1.2798
 8425SOL    HW236738   2.564   2.924   3.024 -2.4681  1.1329 -2.6182
 8426SOL     OW36739   3.928   0.340   6.773 -0.1235  0.0959 -0.4485
 8426SOL    HW136740   3.835   0.319   6.781  0.0183 -0.2795  0.1862
 8426SOL    HW236741   3.967   0.263   6.733  0.4320  0.8342 -1.3265
 8427SOL     OW36742   3.539   2.132  14.323 -0.7425  0.1599 -0.1917
 8427SOL    HW136743   3.472   2.196  14.347 -0.6505 -0.4645  1.7488
 8427SOL    HW236744   3.596   2.137  14.400  1.1492  0.1133 -1.5878
 8428SOL     OW36745   0.583   1.320   6.644 -0.1626 -0.2514 -0.8442
 8428SOL    HW136746   0.649   1.387   6.660 -1.0266  0.4687 -0.3113
 8428SOL    HW236747   0.595   1.310   6.549  1.0038 -3.0692 -0.4010
 8429SOL     OW36748   1.126   1.585  12.437 -0.3387 -0.3131 -0.0239
 8429SOL    HW136749   1.089   1.543  12.514 -0.7256  0.3591  0.1495
 8429SOL    HW236750   1.195   1.524  12.409  0.5826  1.7648 -2.3144
 8430SOL     OW36751   1.785   0.828   5.824 -0.0953 -0.2253  0.2025
 8430SOL    HW136752   1.703   0.779   5.818 -0.8161  0.7305  2.2399
 8430SOL    HW236753   1.774   0.855   5.733  0.0203  0.0008  0.2549
 8431SOL     OW36754   3.877   3.225  13.619 -0.4459 -0.4185  0.6412
 8431SOL    HW136755   3.821   3.290  13.662  0.4663  0.5449  0.3739
 8431SOL    HW236756   3.961   3.268  13.602 -0.1604 -0.7319  1.2807
 8432SOL     OW36757   0.679   0.731   7.786 -0.1152 -0.3078 -0.0170
 8432SOL    HW136758   0.703   0.694   7.871  1.7100  0.3786 -0.2362
 8432SOL    HW236759   0.648   0.656   7.734 -2.9511  0.4507  0.5845
 8433SOL     OW36760   1.590   4.023   2.421  0.4309  0.6036 -0.0079
 8433SOL    HW136761   1.670   4.039   2.470  0.7004 -1.8948  0.3282
 8433SOL    HW236762   1.597   3.928   2.416  1.5178  0.7372 -0.9255
 8434SOL     OW36763   0.290   3.539   5.248  0.2924  0.3279  0.2763
 8434SOL    HW136764   0.286   3.490   5.330 -1.4753 -1.0370 -0.6210
 8434SOL    HW236765   0.376   3.514   5.213  0.5837  0.0810  1.1772
 8435SOL     OW36766   1.119   3.883  11.904 -0.0784  0.8632 -0.4138
 8435SOL    HW136767   1.213   3.881  11.885 -0.1892  3.5922 -1.2148
 8435SOL    HW236768   1.091   3.936  11.830 -2.1879  2.8641  1.8022
 8436SOL     OW36769   0.820   2.871   0.977 -0.1124  0.3029 -0.4283
 8436SOL    HW136770   0.860   2.875   1.064 -0.7354  0.7805 -0.1671
 8436SOL    HW236771   0.891   2.838   0.922 -0.4552 -1.5885  0.2486
 8437SOL     OW36772   3.647   1.861   1.593  0.5324  0.4088 -0.1700
 8437SOL    HW136773   3.566   1.842   1.640  0.1132  0.5478 -0.8312
 8437SOL    HW236774   3.622   1.903   1.511  0.5114  1.5899  0.4361
 8438SOL     OW36775   2.725   2.864  15.011 -0.3536  0.5582 -1.0773
 8438SOL    HW136776   2.708   2.770  15.018  1.1403  0.3623  0.0402
 8438SOL    HW236777   2.636   2.895  14.996 -0.7464  0.6865  1.4888
 8439SOL     OW36778   1.670   0.950   9.442 -0.3024  0.3947  0.1958
 8439SOL    HW136779   1.759   0.916   9.452 -0.4000  0.0241 -0.1697
 8439SOL    HW236780   1.650   0.960   9.535  0.6334  0.9727  0.3283
 8440SOL     OW36781   3.845   2.323   3.721  0.9071 -0.2314  0.4218
 8440SOL    HW136782   3.912   2.384   3.750  0.0641  0.7918  0.2152
 8440SOL    HW236783   3.866   2.239   3.762  1.2980 -0.3250  0.0263
 8441SOL     OW36784   3.367   4.339   0.638  0.6389  0.1319  0.1233
 8441SOL    HW136785   3.430   4.379   0.578  0.6488  2.0383  1.3965
 8441SOL    HW236786   3.297   4.404   0.631 -0.5466 -1.4557 -2.4781
 8442SOL     OW36787   3.750   1.226   8.839 -0.0239 -0.3758 -0.0842
 8442SOL    HW136788   3.846   1.232   8.833  0.1055 -1.8725  0.7173
 8442SOL    HW236789   3.730   1.309   8.882  0.5569 -0.1280 -0.2847
 8443SOL     OW36790   0.450   3.984  10.900  0.3783 -0.5698  0.5805
 8443SOL    HW136791   0.432   3.945  10.814 -1.1053 -2.0702  1.5825
 8443SOL    HW236792   0.364   3.986  10.942 -0.2335 -0.3809 -0.6623
 8444SOL     OW36793   1.586   1.132  15.489  0.2608 -0.1635 -0.0975
 8444SOL    HW136794   1.659   1.178  15.530 -0.9144  0.2134  1.5648
 8444SOL    HW236795   1.534   1.092  15.559 -0.1003  1.4984  0.5761
 8445SOL     OW36796   2.957   0.648  13.550 -0.0872  0.1933 -0.2304
 8445SOL    HW136797   3.041   0.694  13.551 -1.4683  2.7365 -1.0744
 8445SOL    HW236798   2.969   0.616  13.640 -0.8585 -0.0777 -0.2313
 8446SOL     OW36799   1.026   4.056  11.685  0.3564  0.1238 -0.5630
 8446SOL    HW136800   1.075   4.113  11.626  2.1802  1.0085  1.7764
 8446SOL    HW236801   0.956   4.027  11.627  0.0223  4.7441 -2.4599
 8447SOL     OW36802   3.369   3.699   2.294  0.4571 -0.1304  0.4147
 8447SOL    HW136803   3.380   3.703   2.199  3.6192  2.0088  0.8501
 8447SOL    HW236804   3.378   3.791   2.317 -1.1168 -0.1387  1.0560
 8448SOL     OW36805   0.772   4.368   6.201  0.6904  0.6488  0.3462
 8448SOL    HW136806   0.710   4.334   6.265  0.7073  0.7681  0.4262
 8448SOL    HW236807   0.819   4.288   6.177  0.7439  1.4377 -2.2167
 8449SOL     OW36808   2.585   3.720  14.938  0.4073 -0.2746 -0.0076
 8449SOL    HW136809   2.524   3.681  14.875 -1.0762  1.7704  0.1775
 8449SOL    HW236810   2.638   3.769  14.875  1.0563 -2.0383 -0.8362
 8450SOL     OW36811   1.510   1.050   0.357 -0.2599 -0.0565  0.2994
 8450SOL    HW136812   1.554   1.067   0.440 -0.1862  3.2559 -0.4104
 8450SOL    HW236813   1.483   0.959   0.372 -1.4788  0.5230  1.6095
 8451SOL     OW36814   2.443   4.074   2.316 -0.0704 -0.2286 -0.1170
 8451SOL    HW136815   2.479   3.989   2.339  1.4740  0.5259  0.2893
 8451SOL    HW236816   2.523   4.111   2.278 -0.4738  0.7066 -0.0551
 8452SOL     OW36817   3.695   4.275  13.834  0.3506  0.1203 -0.0695
 8452SOL    HW136818   3.766   4.221  13.868 -1.8276 -1.5976  1.7825
 8452SOL    HW236819   3.658   4.220  13.765 -0.0161  0.4253 -0.1159
 8453SOL     OW36820   4.686   2.103   5.882 -0.2845 -0.4296  0.0562
 8453SOL    HW136821   0.064   2.100   5.885 -0.3184 -1.4024  0.3235
 8453SOL    HW236822   4.676   2.087   5.788 -0.3425 -0.1713  0.0194
 8454SOL     OW36823   3.475   0.236   0.348 -0.0036 -0.1583 -0.2099
 8454SOL    HW136824   3.454   0.212   0.258 -3.4142  0.9150  0.3225
 8454SOL    HW236825   3.511   0.151   0.375  0.6512  0.7708  1.9218
 8455SOL     OW36826   0.938   0.581   1.437 -0.5278 -0.0424  0.1340
 8455SOL    HW136827   0.984   0.503   1.468  0.2798  0.2582 -0.3153
 8455SOL    HW236828   0.858   0.546   1.397 -0.2023 -0.1265 -0.4470
 8456SOL     OW36829   3.932   2.935   5.634 -0.0083 -0.0766  0.4551
 8456SOL    HW136830   3.973   2.895   5.711 -0.5560 -2.3543 -0.4584
 8456SOL    HW236831   3.951   3.028   5.647 -0.5366  0.0531  0.2730
 8457SOL     OW36832   4.066   3.958  17.566  0.1823  0.1624  0.1388
 8457SOL    HW136833   4.068   4.046  17.602  1.9914  0.0960  0.2070
 8457SOL    HW236834   3.989   3.965  17.509  0.0207 -0.4183  0.2816
 8458SOL     OW36835   0.532   2.508   5.946 -0.2220  0.1433 -0.3901
 8458SOL    HW136836   0.551   2.573   5.879  2.5574  0.0527  0.3125
 8458SOL    HW236837   0.624   2.501   5.970 -0.4108 -1.0426  0.0064
 8459SOL     OW36838   3.475   1.577   7.822  0.2823 -0.6541 -0.2613
 8459SOL    HW136839   3.498   1.628   7.745  1.2713 -0.0719  0.4143
 8459SOL    HW236840   3.559   1.546   7.857 -0.9257 -1.5959  1.7853
 8460SOL     OW36841   2.835   4.178   9.745  0.4347 -0.2390  0.3663
 8460SOL    HW136842   2.893   4.253   9.730  1.0785 -0.6088  0.9914
 8460SOL    HW236843   2.835   4.167   9.840 -1.4297 -0.5498  0.3140
 8461SOL     OW36844   0.611   0.608   4.154 -0.3539  0.2283  0.0879
 8461SOL    HW136845   0.601   0.527   4.104 -0.9241  0.5558 -0.3288
 8461SOL    HW236846   0.522   0.634   4.179 -1.3213 -2.0289 -1.0296
 8462SOL     OW36847   0.130   1.158   9.328  0.0331 -0.1931  0.4958
 8462SOL    HW136848   0.221   1.127   9.328  0.4216  0.9535 -1.6107
 8462SOL    HW236849   0.090   1.092   9.385 -1.5589  0.6205  0.2952
 8463SOL     OW36850   1.363   1.819   4.657 -0.4370  0.0452  0.8226
 8463SOL    HW136851   1.300   1.780   4.597  0.8154 -1.3941  0.4278
 8463SOL    HW236852   1.390   1.745   4.712  0.9722  1.1843  1.6821
 8464SOL     OW36853   2.257   3.978   7.485 -0.0290  0.9792 -0.0673
 8464SOL    HW136854   2.299   4.053   7.526  3.0034 -0.7814  0.0360
 8464SOL    HW236855   2.163   3.995   7.481 -0.2666 -0.2530  0.4808
 8465SOL     OW36856   2.101   1.857   6.362  0.0312  0.6491  0.3728
 8465SOL    HW136857   2.129   1.909   6.286  1.2938  1.6990  1.5453
 8465SOL    HW236858   2.063   1.776   6.329 -1.9791  2.0774 -0.8216
 8466SOL     OW36859   0.148   2.915   7.648  0.3629  0.5633 -0.4978
 8466SOL    HW136860   0.211   2.866   7.701 -1.4678  0.8109  1.8673
 8466SOL    HW236861   0.178   3.006   7.647  0.3245  0.5781  0.0456
 8467SOL     OW36862   1.591   0.176  12.434  0.1086  0.0765  0.1510
 8467SOL    HW136863   1.631   0.106  12.487  0.7921  0.8660  0.6680
 8467SOL    HW236864   1.626   0.154  12.348  1.1016  0.2054  0.5277
 8468SOL     OW36865   1.319   3.880   2.192 -0.0871 -0.3387  0.0338
 8468SOL    HW136866   1.309   3.788   2.217 -2.4174 -0.0785  0.0646
 8468SOL    HW236867   1.361   3.919   2.268 -0.5858  0.5941 -0.1582
 8469SOL     OW36868   3.876   4.584   1.112 -0.1439 -0.4439 -0.4795
 8469SOL    HW136869   3.806   4.629   1.161 -0.4086  0.5541 -1.7859
 8469SOL    HW236870   3.934   4.659   1.107  1.4150 -1.6677 -0.7079
 8470SOL     OW36871   3.802   3.397   5.303 -0.3263 -0.2536  0.1548
 8470SOL    HW136872   3.861   3.383   5.377 -0.5229 -1.9678 -0.0078
 8470SOL    HW236873   3.719   3.403   5.351 -0.6521 -0.0817 -0.4202
 8471SOL     OW36874   4.113   1.087   3.937 -0.4876  0.6591 -0.3266
 8471SOL    HW136875   4.028   1.058   3.969  0.4475 -2.3798 -0.5838
 8471SOL    HW236876   4.164   1.008   3.920 -0.1798  0.6472  0.6878
 8472SOL     OW36877   2.489   2.327   2.260 -0.3143  0.4131  0.6900
 8472SOL    HW136878   2.564   2.320   2.200  0.4766 -2.3837  2.0407
 8472SOL    HW236879   2.457   2.414   2.235 -1.3005  0.0379  0.6815
 8473SOL     OW36880   3.636   0.837   3.701 -0.3008  0.0640 -0.7343
 8473SOL    HW136881   3.642   0.762   3.760 -1.5515 -1.4727 -2.5492
 8473SOL    HW236882   3.672   0.908   3.755 -2.8669 -0.6094  1.8802
 8474SOL     OW36883   0.924   0.545   3.267  0.3173  0.1079  0.2014
 8474SOL    HW136884   0.959   0.630   3.240 -0.2639  0.2990  0.0552
 8474SOL    HW236885   0.845   0.537   3.214  0.5495  3.0162 -0.5765
 8475SOL     OW36886   1.232   1.328   0.996  0.5156  0.2633  0.0965
 8475SOL    HW136887   1.311   1.275   0.988  0.9029  0.8450  0.0870
 8475SOL    HW236888   1.199   1.289   1.077  1.6267 -1.2387 -0.1772
 8476SOL     OW36889   3.128   0.837   4.548  0.0595  0.3429 -1.0904
 8476SOL    HW136890   3.064   0.784   4.500 -1.4695 -0.3043  1.6637
 8476SOL    HW236891   3.083   0.921   4.546  0.9999  0.8786  0.9042
 8477SOL     OW36892   2.552   3.476   3.367  0.2365 -0.0192  0.1483
 8477SOL    HW136893   2.468   3.435   3.346  0.1057 -0.2938  1.1991
 8477SOL    HW236894   2.566   3.448   3.457  0.1088  1.9811  0.7848
 8478SOL     OW36895   0.781   4.197   8.537  0.4835 -0.0816  0.1791
 8478SOL    HW136896   0.723   4.268   8.564  1.4315  1.7297 -2.5241
 8478SOL    HW236897   0.869   4.230   8.557  0.1319  0.1072  1.3821
 8479SOL     OW36898   2.316   0.159   1.755  0.5464  0.4053 -0.0720
 8479SOL    HW136899   2.365   0.155   1.838 -1.8342  1.2351  1.3802
 8479SOL    HW236900   2.354   0.236   1.712 -0.6493  0.3416 -1.2136
 8480SOL     OW36901   4.535   3.019   2.002 -0.6377 -0.5813 -0.7797
 8480SOL    HW136902   4.498   2.955   1.940 -1.2586 -0.6724 -0.3131
 8480SOL    HW236903   4.548   2.964   2.080 -1.8528 -0.2815 -0.3748
 8481SOL     OW36904   0.318   0.533  15.008 -0.2932  0.6506 -0.1788
 8481SOL    HW136905   0.355   0.568  14.927 -1.0845  2.3637  0.2017
 8481SOL    HW236906   0.329   0.604  15.071 -0.1570 -0.1599  0.7144
 8482SOL     OW36907   4.035   4.552   7.099 -0.3519 -0.0608  0.5369
 8482SOL    HW136908   4.123   4.523   7.078 -0.5023  0.4395 -0.7793
 8482SOL    HW236909   4.050   4.646   7.088  2.1552 -0.4069  1.1060
 8483SOL     OW36910   4.623   2.742   0.892  0.2773  0.0707 -0.7133
 8483SOL    HW136911   4.529   2.734   0.878  0.0821  2.2082 -0.6342
 8483SOL    HW236912   4.627   2.687   0.970  3.7251  0.3289 -0.7139
 8484SOL     OW36913   4.537   1.160  10.413 -0.7193 -0.4997 -0.3297
 8484SOL    HW136914   4.631   1.177  10.419 -0.5112 -1.0088 -2.2941
 8484SOL    HW236915   4.541   1.065  10.415  2.4990 -0.3882 -2.4180
 8485SOL     OW36916   3.369   3.212   3.112 -0.1288 -0.2641  0.5078
 8485SOL    HW136917   3.352   3.175   3.025  0.3726 -1.9129  1.1059
 8485SOL    HW236918   3.320   3.155   3.172  0.9596 -1.0152  0.6648
 8486SOL     OW36919   0.158   0.582   3.609 -0.1060  0.0067  0.1123
 8486SOL    HW136920   0.113   0.612   3.688  0.5580  3.5609 -0.8580
 8486SOL    HW236921   0.130   0.651   3.549 -0.3930 -0.0201  0.2140
 8487SOL     OW36922   0.692   4.431   8.229 -0.1780  0.1380 -0.5502
 8487SOL    HW136923   0.699   4.525   8.211  1.2290  0.6050  2.4502
 8487SOL    HW236924   0.778   4.407   8.195  0.0293  0.6321 -0.3744
 8488SOL     OW36925   3.640   2.726  11.595  0.2901  0.1707  0.0844
 8488SOL    HW136926   3.621   2.814  11.563  1.3436  0.7822  1.1613
 8488SOL    HW236927   3.709   2.745  11.658  1.2276 -0.0036 -0.9028
 8489SOL     OW36928   3.409   3.854   1.204  0.8134 -0.5997 -0.7985
 8489SOL    HW136929   3.476   3.787   1.188  0.9980 -0.4832 -0.5244
 8489SOL    HW236930   3.334   3.800   1.227  0.1608  0.9436  0.6238
 8490SOL     OW36931   3.347   3.768   5.270  0.1660 -0.0946  0.1976
 8490SOL    HW136932   3.334   3.772   5.365 -2.9173 -0.0861 -0.2178
 8490SOL    HW236933   3.442   3.765   5.276  0.1514  0.5727  0.7077
 8491SOL     OW36934   4.255   3.181   4.190  0.7152 -0.0048  0.0438
 8491SOL    HW136935   4.185   3.236   4.155 -0.2219 -1.0394  0.2836
 8491SOL    HW236936   4.269   3.112   4.125  0.2902  0.3475 -0.4266
 8492SOL     OW36937   3.550   1.204   6.039  0.3717 -0.1225 -0.6747
 8492SOL    HW136938   3.589   1.241   5.960 -0.0102  0.5278 -0.5581
 8492SOL    HW236939   3.618   1.146   6.072  0.8671  0.1147 -1.2734
 8493SOL     OW36940   3.347   4.378  17.066 -0.0852 -0.6983 -0.0191
 8493SOL    HW136941   3.416   4.387  17.131  1.4086  1.1814 -1.8514
 8493SOL    HW236942   3.277   4.419  17.117 -0.7968 -1.8142 -0.1052
 8494SOL     OW36943   2.168   1.944   7.730  0.0885 -0.4052 -0.1475
 8494SOL    HW136944   2.133   2.029   7.705  0.6399  0.2377  1.2854
 8494SOL    HW236945   2.263   1.948   7.715  0.5600  0.4850  3.1424
 8495SOL     OW36946   1.266   1.229  12.199  0.3473 -0.2101  0.0289
 8495SOL    HW136947   1.328   1.255  12.267 -2.4537  1.2072  2.0528
 8495SOL    HW236948   1.187   1.225  12.252 -0.1815  0.6628 -0.6754
 8496SOL     OW36949   0.899   1.006   1.315 -0.5931 -0.0055  0.2728
 8496SOL    HW136950   0.941   0.949   1.380 -1.6409 -0.6149  0.4207
 8496SOL    HW236951   0.809   0.986   1.340 -0.5871 -0.3059  0.0556
 8497SOL     OW36952   1.136   3.418   3.231  0.3779  0.0570 -0.1710
 8497SOL    HW136953   1.089   3.363   3.294 -1.7419  0.8564 -1.0476
 8497SOL    HW236954   1.087   3.393   3.152  1.5236  0.2688 -0.9583
 8498SOL     OW36955   3.102   2.308   5.079 -0.0712  0.5425 -0.4071
 8498SOL    HW136956   3.077   2.235   5.022  0.9736  1.2470 -1.7681
 8498SOL    HW236957   3.122   2.262   5.161 -3.4627  0.1511  0.1805
 8499SOL     OW36958   0.094   1.633   7.435 -0.2124  0.1387  0.6407
 8499SOL    HW136959   0.011   1.606   7.475 -1.2718  1.4608 -0.6803
 8499SOL    HW236960   0.103   1.578   7.358 -2.0903  1.1686 -0.3116
 8500SOL     OW36961   2.432   2.960  15.727 -0.1439 -0.9094  0.0942
 8500SOL    HW136962   2.521   2.965  15.692 -1.0046  1.2517 -1.8077
 8500SOL    HW236963   2.427   3.034  15.787 -2.8284 -0.8346 -0.2299
 8501SOL     OW36964   3.138   0.345   4.487 -0.1677 -0.2178  0.0092
 8501SOL    HW136965   3.143   0.259   4.529 -2.0813 -0.1529  0.3775
 8501SOL    HW236966   3.087   0.314   4.412  0.6688  1.5978 -1.2862
 8502SOL     OW36967   2.833   4.179   8.808  0.1543  0.1326  0.1344
 8502SOL    HW136968   2.882   4.116   8.861 -0.9290 -1.9117 -1.3341
 8502SOL    HW236969   2.825   4.119   8.734  0.1100 -1.0964  1.1302
 8503SOL     OW36970   0.658   1.615   7.345 -0.7565 -0.8647 -0.3855
 8503SOL    HW136971   0.671   1.557   7.420 -1.0879 -0.2413  0.1574
 8503SOL    HW236972   0.749   1.611   7.313  0.0501 -0.5030  1.8732
 8504SOL     OW36973   4.650   0.625  14.699  0.1499 -0.2886 -0.0289
 8504SOL    HW136974   0.021   0.655  14.721 -0.2925 -0.5803  2.1320
 8504SOL    HW236975   4.603   0.700  14.662 -1.2006 -0.6390  0.9487
 8505SOL     OW36976   2.243   0.870   4.381  0.0892 -0.5314 -0.8177
 8505SOL    HW136977   2.151   0.896   4.384  0.5925  0.9843  1.3145
 8505SOL    HW236978   2.230   0.782   4.345  0.2392  0.8316 -4.1404
 8506SOL     OW36979   3.511   2.655   4.595 -0.0408 -0.7249 -0.3482
 8506SOL    HW136980   3.486   2.643   4.687 -0.0229  1.9292  0.0009
 8506SOL    HW236981   3.606   2.658   4.592  0.0603 -0.2479  2.5115
 8507SOL     OW36982   2.649   0.197  16.798 -0.0843 -0.2951 -0.7917
 8507SOL    HW136983   2.564   0.220  16.760  0.1403  2.0367  0.1087
 8507SOL    HW236984   2.706   0.221  16.725  0.3799  1.9105  0.2924
 8508SOL     OW36985   3.311   0.259   4.869 -0.2026 -0.4245 -0.4029
 8508SOL    HW136986   3.231   0.303   4.839  0.2500  0.9115  0.3241
 8508SOL    HW236987   3.347   0.323   4.931  0.7348  0.2564 -1.6527
 8509SOL     OW36988   1.255   4.185   3.863 -0.1053 -0.0616 -0.0201
 8509SOL    HW136989   1.223   4.232   3.786 -1.2099  2.3071  1.8751
 8509SOL    HW236990   1.341   4.167   3.825  0.1492 -1.6918  1.3183
 8510SOL     OW36991   4.614   3.924   2.887  0.0783 -0.8792  0.0612
 8510SOL    HW136992   4.706   3.897   2.896  0.4346  0.3456  0.0274
 8510SOL    HW236993   4.568   3.842   2.869 -1.3124  0.5812 -2.8824
 8511SOL     OW36994   1.577   0.250   4.894  0.4095  0.1198  0.1633
 8511SOL    HW136995   1.508   0.228   4.831 -0.7322  1.6026  0.8900
 8511SOL    HW236996   1.523   0.282   4.965 -0.0743  0.1957 -0.2370
 8512SOL     OW36997   3.035   4.419   2.665  0.3060 -0.5063  0.0696
 8512SOL    HW136998   2.954   4.393   2.623  1.8426 -2.1486 -1.8666
 8512SOL    HW236999   3.094   4.360   2.618  0.6795 -2.8235  3.4783
 8513SOL     OW37000   3.088   3.367  11.573 -0.1688  0.0524  0.4484
 8513SOL    HW137001   3.109   3.348  11.664 -0.7612 -0.1385  0.5474
 8513SOL    HW237002   3.001   3.402  11.593 -0.1829 -0.5358  1.3891
 8514SOL     OW37003   3.746   2.422  12.820 -0.2790  0.3459  0.0174
 8514SOL    HW137004   3.679   2.486  12.846 -0.4111 -0.6262  2.0840
 8514SOL    HW237005   3.814   2.462  12.765  0.9923 -2.0779 -0.1427
 8515SOL     OW37006   2.416   0.818   5.269 -0.3888 -0.4095 -0.5984
 8515SOL    HW137007   2.426   0.734   5.225 -0.8134 -1.1946  0.7887
 8515SOL    HW237008   2.333   0.804   5.313  1.0241 -0.1941  2.1360
 8516SOL     OW37009   4.698   3.502  12.927 -0.2707 -0.2566 -0.0933
 8516SOL    HW137010   4.620   3.523  12.876 -1.7962 -2.4191  1.3308
 8516SOL    HW237011   0.045   3.544  12.870 -0.0436 -1.2574 -0.5707
 8517SOL     OW37012   1.371   1.593   6.978 -0.4174 -0.0715 -0.1320
 8517SOL    HW137013   1.355   1.555   7.064  0.7190 -0.6023 -0.1569
 8517SOL    HW237014   1.452   1.645   6.984  0.5278 -1.5340 -0.1771
 8518SOL     OW37015   1.493   1.705   5.292 -0.5634  0.4145  0.1645
 8518SOL    HW137016   1.441   1.626   5.304  2.0954 -1.4240 -0.3939
 8518SOL    HW237017   1.541   1.692   5.374  1.6841  0.1533 -1.1909
 8519SOL     OW37018   2.474   4.561   4.811 -0.1733  0.0591 -0.6029
 8519SOL    HW137019   2.455   4.631   4.749 -0.2569 -0.5018 -1.2085
 8519SOL    HW237020   2.412   4.493   4.783  1.3601 -1.9251  0.8231
 8520SOL     OW37021   0.121   1.873  16.800  0.3581  0.1874 -0.4701
 8520SOL    HW137022   0.076   1.893  16.718  0.7639 -0.8421 -0.9395
 8520SOL    HW237023   0.207   1.858  16.762  0.8744 -1.0393  1.1705
 8521SOL     OW37024   4.206   3.411   6.778  0.5990  0.1503  0.7506
 8521SOL    HW137025   4.140   3.401   6.709  1.7991 -0.5920 -0.2720
 8521SOL    HW237026   4.179   3.338   6.833  2.3946  0.1151  1.5679
 8522SOL     OW37027   0.833   3.359   4.838  0.2379 -0.3449  0.1922
 8522SOL    HW137028   0.794   3.276   4.864  1.4571 -0.8797  0.3130
 8522SOL    HW237029   0.802   3.369   4.748  0.3386  0.0828  0.2041
 8523SOL     OW37030   1.204   0.850   0.919 -0.0345  0.1782 -0.1687
 8523SOL    HW137031   1.237   0.939   0.910  0.6481 -0.3139 -2.4669
 8523SOL    HW237032   1.277   0.800   0.958 -0.8626 -0.9864 -0.1041
 8524SOL     OW37033   0.902   3.876  12.778  0.4140 -0.2309  0.4200
 8524SOL    HW137034   0.945   3.939  12.721 -0.8251  1.1412  1.0057
 8524SOL    HW237035   0.915   3.803  12.717  3.4973 -0.1725  0.9976
 8525SOL     OW37036   1.704   3.744  13.543 -0.1587  0.2605  0.0784
 8525SOL    HW137037   1.620   3.726  13.586 -0.6060 -0.2739 -1.0019
 8525SOL    HW237038   1.680   3.750  13.451  2.0659  1.0118 -0.4482
 8526SOL     OW37039   2.933   4.325   3.359 -0.4025 -0.0550  0.2046
 8526SOL    HW137040   2.942   4.230   3.363 -2.0153 -0.2692 -1.3612
 8526SOL    HW237041   3.001   4.347   3.422  0.5648 -1.6071 -0.3178
 8527SOL     OW37042   0.894   1.552   9.187 -0.2705 -0.0231 -0.3937
 8527SOL    HW137043   0.987   1.553   9.164 -0.0044 -0.4150  0.6781
 8527SOL    HW237044   0.896   1.521   9.277 -0.4803  0.4561 -0.2237
 8528SOL     OW37045   2.994   0.369   7.932  0.2589 -0.6560 -0.7268
 8528SOL    HW137046   3.066   0.309   7.951 -0.0805 -0.6520  0.6045
 8528SOL    HW237047   2.950   0.338   7.853 -2.2787 -1.2974  0.9453
 8529SOL     OW37048   2.759   1.389   8.290  0.0038  0.1316 -0.0252
 8529SOL    HW137049   2.828   1.328   8.314  0.3742  1.2669  1.7759
 8529SOL    HW237050   2.739   1.382   8.196  3.1932  0.9583 -0.7636
 8530SOL     OW37051   1.749   1.509   2.864 -0.1762 -0.4545  0.4310
 8530SOL    HW137052   1.714   1.588   2.823 -2.0716 -1.4238  0.2053
 8530SOL    HW237053   1.685   1.488   2.932 -0.4736  0.4643  0.4360
 8531SOL     OW37054   1.818   4.084   8.278 -0.1021 -0.0886 -0.1320
 8531SOL    HW137055   1.913   4.084   8.266 -0.0782 -3.7881  0.0598
 8531SOL    HW237056   1.787   4.030   8.206  1.7938 -1.0999 -0.1802
 8532SOL     OW37057   0.436   1.455  13.645  0.3326 -0.2569  0.2753
 8532SOL    HW137058   0.399   1.519  13.707 -0.7749 -1.5529  0.9539
 8532SOL    HW237059   0.393   1.378  13.681  1.3282 -0.7432  0.4096
 8533SOL     OW37060   1.873   0.431   8.706 -0.7034  0.4800  0.1163
 8533SOL    HW137061   1.859   0.520   8.672 -0.5903  0.4214 -0.0806
 8533SOL    HW237062   1.822   0.437   8.787  0.3345 -0.7476  0.8547
 8534SOL     OW37063   3.846   3.716  12.012 -0.0392 -0.4155 -0.4320
 8534SOL    HW137064   3.933   3.742  11.983  0.9734 -0.4530  2.6466
 8534SOL    HW237065   3.865   3.687  12.101 -0.9172 -1.8075 -0.6914
 8535SOL     OW37066   2.388   2.492  15.996 -0.3219  0.0671 -0.2542
 8535SOL    HW137067   2.412   2.560  15.933 -0.2702 -0.1965 -0.5224
 8535SOL    HW237068   2.418   2.541  16.073  0.2779  2.7576 -2.1865
 8536SOL     OW37069   0.220   2.991   5.937 -0.1781 -0.0720  0.0107
 8536SOL    HW137070   0.173   3.015   5.857  1.5685  0.9059 -0.7277
 8536SOL    HW237071   0.286   3.060   5.945  0.4843 -0.7893  0.6743
 8537SOL     OW37072   1.407   1.359  12.933 -0.2003  0.5599  0.4074
 8537SOL    HW137073   1.345   1.414  12.886 -0.2826 -1.1337 -1.4353
 8537SOL    HW237074   1.454   1.422  12.989 -0.4816  0.9929  0.1524
 8538SOL     OW37075   3.843   3.515  11.830 -0.6290  0.2546  0.2755
 8538SOL    HW137076   3.783   3.447  11.861 -0.5439  0.5167  1.0290
 8538SOL    HW237077   3.857   3.568  11.909  1.7907 -0.6488  0.4479
 8539SOL     OW37078   1.361   0.063  12.534  0.2392 -0.1123  0.1107
 8539SOL    HW137079   1.442   0.106  12.506  0.7407 -2.5119 -2.0743
 8539SOL    HW237080   1.359   0.072  12.630 -1.0014 -0.4347  0.1189
 8540SOL     OW37081   1.322   1.499  12.639  0.7592  0.3428  0.3015
 8540SOL    HW137082   1.295   1.576  12.689  0.3403  0.0183  0.5755
 8540SOL    HW237083   1.406   1.484  12.682  0.3829  0.4533  1.0694
 8541SOL     OW37084   0.372   3.284  14.137  0.5253 -0.0299 -0.3764
 8541SOL    HW137085   0.382   3.215  14.071 -1.8520 -1.5238  0.8272
 8541SOL    HW237086   0.299   3.339  14.108 -0.2422 -1.3857 -0.9827
 8542SOL     OW37087   0.792   3.044  16.081  0.3623 -0.3478 -0.3270
 8542SOL    HW137088   0.844   2.999  16.014  1.6629 -0.2554  0.6171
 8542SOL    HW237089   0.859   3.094  16.129  2.4999  0.6195 -4.3480
 8543SOL     OW37090   3.212   4.625   5.685  0.1404 -0.1812 -0.4847
 8543SOL    HW137091   3.304   4.645   5.702  0.3108  0.3249 -2.0239
 8543SOL    HW237092   3.224   4.546   5.631 -2.9174 -1.9235  1.3842
 8544SOL     OW37093   0.941   2.381   4.370  0.6090 -0.4273 -0.0623
 8544SOL    HW137094   0.993   2.432   4.432 -0.7540  0.6148  0.2271
 8544SOL    HW237095   0.866   2.365   4.427  0.3974  0.5722 -0.0609
 8545SOL     OW37096   1.434   0.260  15.861 -0.2296 -0.2360 -0.1641
 8545SOL    HW137097   1.507   0.199  15.850 -0.5173 -0.5975 -0.0747
 8545SOL    HW237098   1.386   0.227  15.937  0.1455 -1.7942 -0.6197
 8546SOL     OW37099   0.168   4.230   4.892 -0.5327  0.0495  0.1937
 8546SOL    HW137100   0.232   4.243   4.962  0.1013  0.3587 -0.4428
 8546SOL    HW237101   0.094   4.190   4.938  0.2642  0.4818  1.8919
 8547SOL     OW37102   0.617   4.164   0.418 -0.2532  0.4036  0.0435
 8547SOL    HW137103   0.597   4.257   0.408 -2.0092  0.1219  0.9684
 8547SOL    HW237104   0.683   4.176   0.487 -0.9490  0.4168  0.7016
 8548SOL     OW37105   1.107   4.404   3.217  0.0107 -0.5521  0.2110
 8548SOL    HW137106   1.071   4.381   3.303 -1.0739 -1.3977 -0.4829
 8548SOL    HW237107   1.042   4.365   3.160 -0.8081  0.2667  0.5805
 8549SOL     OW37108   2.599   3.898   4.289  0.0822  0.1284 -0.0138
 8549SOL    HW137109   2.514   3.866   4.320 -0.2232  1.3738  0.4109
 8549SOL    HW237110   2.622   3.969   4.348  0.5041 -1.3029  1.5448
 8550SOL     OW37111   2.985   2.212   0.324  0.1444 -0.3261 -0.1771
 8550SOL    HW137112   3.021   2.301   0.328 -0.4667 -0.0594 -0.5981
 8550SOL    HW237113   2.948   2.204   0.236 -0.8817  1.2414  0.1093
 8551SOL     OW37114   4.288   4.270   9.311  0.3370 -0.4506 -0.3191
 8551SOL    HW137115   4.312   4.189   9.357  2.8475  1.3191  1.4865
 8551SOL    HW237116   4.301   4.333   9.383 -2.0952 -0.0252 -0.2419
 8552SOL     OW37117   0.357   1.197   3.462 -0.2353 -0.5387  0.0385
 8552SOL    HW137118   0.394   1.285   3.458  2.0804 -1.6009 -1.6255
 8552SOL    HW237119   0.431   1.141   3.486  2.0012  2.0054 -0.9767
 8553SOL     OW37120   2.883   1.188   2.064  0.1352  0.2653  1.0127
 8553SOL    HW137121   2.839   1.147   1.989 -2.9599  0.0513  2.9276
 8553SOL    HW237122   2.976   1.178   2.043 -1.1474 -2.8227 -3.3532
 8554SOL     OW37123   3.184   0.865   5.726  0.5047  0.3987  0.2708
 8554SOL    HW137124   3.088   0.864   5.731  0.5995  0.4103  2.3355
 8554SOL    HW237125   3.198   0.960   5.727 -0.9773  0.6181 -0.7121
 8555SOL     OW37126   4.510   0.667  12.314  0.1237  0.3319  0.1631
 8555SOL    HW137127   4.594   0.687  12.356 -0.7708  0.6997  1.7879
 8555SOL    HW237128   4.530   0.626  12.230  1.0805 -0.6234  0.8604
 8556SOL     OW37129   3.276   1.056   5.380  0.1546  0.2964 -0.4206
 8556SOL    HW137130   3.286   0.965   5.406 -1.6834  0.5902  1.3571
 8556SOL    HW237131   3.182   1.064   5.363  0.1866 -2.0215 -1.6558
 8557SOL     OW37132   2.797   1.579   5.488  0.4374  0.6782  0.0657
 8557SOL    HW137133   2.776   1.671   5.502  1.1479  0.8209  0.1990
 8557SOL    HW237134   2.841   1.581   5.403  1.5792 -0.9525  0.6202
 8558SOL     OW37135   3.288   3.880   8.154 -0.3086  0.6082  0.0385
 8558SOL    HW137136   3.365   3.903   8.103  0.7506 -0.1029  1.3327
 8558SOL    HW237137   3.287   3.786   8.137 -1.2039  0.5757  0.2642
 8559SOL     OW37138   1.418   1.201   8.279 -0.4589 -0.2065 -0.3133
 8559SOL    HW137139   1.398   1.216   8.372  1.0646  0.0360 -0.0171
 8559SOL    HW237140   1.512   1.182   8.278 -0.3355  0.3660  0.5673
 8560SOL     OW37141   4.143   3.514  11.759  0.7955  0.2617  0.3763
 8560SOL    HW137142   4.110   3.591  11.805  1.5656  1.0103 -0.3231
 8560SOL    HW237143   4.232   3.522  11.793  0.3704 -0.3530  1.6308
 8561SOL     OW37144   0.231   3.409   1.925 -0.7590  0.4844 -0.7256
 8561SOL    HW137145   0.207   3.459   2.003 -1.2118 -2.3640  0.9640
 8561SOL    HW237146   0.325   3.426   1.915 -0.3503 -0.1061  2.2135
 8562SOL     OW37147   0.514   2.889   3.414 -0.8899 -0.2049  0.0904
 8562SOL    HW137148   0.492   2.827   3.344  1.5493  0.2448 -1.0381
 8562SOL    HW237149   0.456   2.963   3.396 -1.1480 -0.3702  0.2354
 8563SOL     OW37150   1.574   4.716  15.704  0.4084 -0.3518  0.0159
 8563SOL    HW137151   1.546   4.681  15.788  0.9857  0.5819  0.6084
 8563SOL    HW237152   1.603   4.645  15.647  4.2119  0.1301  1.3075
 8564SOL     OW37153   3.301   4.559   7.016  0.4723  0.5042  0.0902
 8564SOL    HW137154   3.306   4.635   6.958 -0.2999 -0.2506 -0.9638
 8564SOL    HW237155   3.373   4.509   6.977 -0.4865 -1.0605  0.3390
 8565SOL     OW37156   3.304   3.916   7.174  0.2770 -0.6794  0.0638
 8565SOL    HW137157   3.340   3.877   7.094 -0.4342  0.2174 -0.6904
 8565SOL    HW237158   3.253   3.993   7.148  1.2927 -0.4737 -1.3058
 8566SOL     OW37159   1.131   1.242   7.860  0.3346  0.1773  0.0439
 8566SOL    HW137160   1.155   1.235   7.953  2.9122 -1.2652 -0.7269
 8566SOL    HW237161   1.085   1.158   7.860  1.9911 -0.7460 -1.1615
 8567SOL     OW37162   3.843   2.653   6.192  0.4803  0.1464  0.0346
 8567SOL    HW137163   3.862   2.566   6.227  1.0944 -0.4112 -1.6718
 8567SOL    HW237164   3.886   2.642   6.107 -0.1815 -1.1264 -0.1419
 8568SOL     OW37165   3.501   0.760   5.097 -0.3166  0.3022  0.4545
 8568SOL    HW137166   3.588   0.727   5.071 -0.2532  0.8718 -0.0666
 8568SOL    HW237167   3.499   0.848   5.059 -0.5423  0.3427  0.5609
 8569SOL     OW37168   3.603   2.507   7.314 -0.2029 -0.5596  0.5723
 8569SOL    HW137169   3.540   2.440   7.289 -0.2563 -0.2863 -0.0317
 8569SOL    HW237170   3.623   2.550   7.231 -0.7010 -0.8368  0.3081
 8570SOL     OW37171   0.129   0.909   3.905  0.1203  0.5006 -0.0712
 8570SOL    HW137172   0.093   0.824   3.880  0.3831  1.0268 -2.2556
 8570SOL    HW237173   0.197   0.921   3.838 -0.4886 -0.2242 -0.8238
 8571SOL     OW37174   4.597   4.028   7.127  0.2967  0.1202  0.0316
 8571SOL    HW137175   4.607   4.106   7.181 -1.2080  0.1245  0.2989
 8571SOL    HW237176   4.588   3.959   7.193  0.7963 -0.9894 -1.0429
 8572SOL     OW37177   2.169   3.285   8.880  0.3633  0.1529  0.3353
 8572SOL    HW137178   2.236   3.219   8.897  1.1116  0.5725 -1.0122
 8572SOL    HW237179   2.081   3.251   8.894 -0.8943  2.5716 -1.6344
 8573SOL     OW37180   4.071   0.058   1.105 -0.4729  0.1422  0.2498
 8573SOL    HW137181   4.144   0.063   1.042 -0.4991  2.4045  0.3980
 8573SOL    HW237182   4.014   0.133   1.083 -1.4261 -0.5746  0.2940
 8574SOL     OW37183   1.287   4.542   0.727 -0.3220 -0.5737  0.3617
 8574SOL    HW137184   1.225   4.471   0.742  0.1042 -0.7779  1.1544
 8574SOL    HW237185   1.220   4.600   0.690  0.4733 -0.3630 -0.7375
 8575SOL     OW37186   3.147   0.266   3.703  0.4025  0.2131 -0.3460
 8575SOL    HW137187   3.183   0.220   3.627 -0.1221  0.1234 -0.5480
 8575SOL    HW237188   3.052   0.273   3.686  0.6448  0.1733 -1.7580
 8576SOL     OW37189   2.511   1.839   7.040 -0.2953  0.0502  0.2628
 8576SOL    HW137190   2.496   1.916   7.095  1.8290  0.2858  0.5113
 8576SOL    HW237191   2.501   1.873   6.951  1.0682  1.6290  0.7257
 8577SOL     OW37192   4.288   0.903   3.135 -0.5927 -0.3615 -0.2756
 8577SOL    HW137193   4.210   0.929   3.086  0.1650  0.9299 -0.7766
 8577SOL    HW237194   4.351   0.966   3.101  0.1481  0.4228  2.5376
 8578SOL     OW37195   2.607   0.274   2.952  0.5029  0.1442  0.1421
 8578SOL    HW137196   2.668   0.262   3.025 -0.2452 -4.3841 -0.0037
 8578SOL    HW237197   2.656   0.253   2.872 -1.1515 -0.7028 -0.6361
 8579SOL     OW37198   2.723   4.640   2.842 -0.4762 -0.4892  0.0778
 8579SOL    HW137199   2.640   4.602   2.871 -0.3343 -1.7736 -1.1999
 8579SOL    HW237200   2.711   4.695   2.764  0.2564  0.5252  0.6985
 8580SOL     OW37201   0.716   3.142   7.251 -0.0406  0.0383  0.1958
 8580SOL    HW137202   0.768   3.062   7.260 -1.7904 -1.3235 -1.7482
 8580SOL    HW237203   0.688   3.167   7.338 -0.3918 -0.3067  0.1808
 8581SOL     OW37204   1.757   0.373  12.529  0.3891 -0.2676 -0.0825
 8581SOL    HW137205   1.695   0.308  12.495 -0.6974 -0.2577  1.9002
 8581SOL    HW237206   1.774   0.343  12.618  0.2822  0.7359  0.2727
 8582SOL     OW37207   3.162   4.517  17.224  0.0920  0.2598 -0.4532
 8582SOL    HW137208   3.216   4.537  17.300 -2.1716 -2.4822  1.8599
 8582SOL    HW237209   3.074   4.544  17.250  0.5726  1.8303 -0.4492
 8583SOL     OW37210   4.379   3.575   6.037  0.5088  0.1204 -0.5602
 8583SOL    HW137211   4.428   3.542   5.961  1.4104 -2.2697  1.0399
 8583SOL    HW237212   4.440   3.644   6.062 -1.6073  0.9034  2.4497
 8584SOL     OW37213   2.529   1.520   3.606 -0.2583  0.0359  0.1402
 8584SOL    HW137214   2.537   1.586   3.675  2.5233  1.9439 -1.9807
 8584SOL    HW237215   2.451   1.545   3.557 -1.6206  0.5947  2.5627
 8585SOL     OW37216   2.283   2.952   3.024  0.1917 -0.1201  0.0643
 8585SOL    HW137217   2.235   2.871   3.006 -1.0305  0.5884  0.0885
 8585SOL    HW237218   2.261   3.010   2.952 -1.6187 -0.3472  0.4324
 8586SOL     OW37219   3.968   3.149  12.483  0.1500  0.1089  0.4037
 8586SOL    HW137220   4.023   3.116  12.412  0.2037  0.8062  0.1249
 8586SOL    HW237221   3.887   3.161  12.434 -0.0381 -0.3082  0.6089
 8587SOL     OW37222   4.359   2.181   6.813  0.2704  0.3606  0.2340
 8587SOL    HW137223   4.356   2.156   6.906  0.4990 -1.9218 -0.3611
 8587SOL    HW237224   4.279   2.140   6.780  1.2511 -1.2797 -0.0999
 8588SOL     OW37225   1.108   1.251  11.016 -0.3261 -0.0191  0.7030
 8588SOL    HW137226   1.073   1.326  11.063  1.1572  0.1605  1.5287
 8588SOL    HW237227   1.057   1.181  11.056  2.2068 -1.6532  1.1289
 8589SOL     OW37228   0.643   2.444   7.494  0.0367  0.3553 -0.0025
 8589SOL    HW137229   0.644   2.494   7.575 -1.6514  0.4418 -0.0239
 8589SOL    HW237230   0.557   2.404   7.507 -0.6510  1.7629 -0.1810
 8590SOL     OW37231   1.849   0.017   0.170  0.6392  0.1672 -0.0239
 8590SOL    HW137232   1.912   0.046   0.104  2.3916  4.1090  3.3642
 8590SOL    HW237233   1.787   0.088   0.153  0.5805  0.1245  0.0135
 8591SOL     OW37234   1.935   2.714   6.188  0.3765 -0.3977 -0.3869
 8591SOL    HW137235   1.951   2.628   6.227  0.4258 -0.5318 -0.6995
 8591SOL    HW237236   1.972   2.766   6.259 -0.4261  0.9311 -0.9566
 8592SOL     OW37237   2.752   1.554   8.975 -0.4141 -0.4863 -0.5140
 8592SOL    HW137238   2.663   1.535   8.944 -1.7711  0.3112  2.8971
 8592SOL    HW237239   2.740   1.648   8.992  0.5673 -0.2223 -1.2971
 8593SOL     OW37240   3.991   2.771   3.691  0.1352  0.6281  0.0679
 8593SOL    HW137241   3.960   2.861   3.693  2.3271  1.3868 -0.2510
 8593SOL    HW237242   4.074   2.782   3.739 -0.4803 -0.1575  1.3242
 8594SOL     OW37243   1.547   4.498   4.742 -0.0101 -0.4848  0.3819
 8594SOL    HW137244   1.521   4.408   4.723 -0.5217 -0.5141  1.2329
 8594SOL    HW237245   1.475   4.543   4.698 -0.2113 -0.2652  0.9411
 8595SOL     OW37246   1.627   0.972   1.460 -0.6192  0.4730 -0.0988
 8595SOL    HW137247   1.616   0.957   1.554  0.5274  0.3576  0.0177
 8595SOL    HW237248   1.689   1.045   1.468 -1.4970  0.9718  2.2982
 8596SOL     OW37249   4.065   3.120   2.712 -0.2709  0.2186 -0.0076
 8596SOL    HW137250   4.094   3.055   2.777  0.3115  0.4164 -0.0718
 8596SOL    HW237251   4.047   3.054   2.645  1.0895 -0.0540 -0.1171
 8597SOL     OW37252   2.307   4.599   6.140  0.3331  0.5502 -0.2308
 8597SOL    HW137253   2.243   4.616   6.070 -1.3865  0.4804  1.3208
 8597SOL    HW237254   2.292   4.507   6.163  0.4927  0.0822 -1.9938
 8598SOL     OW37255   0.162   2.527   3.690  0.2936  0.0552 -0.4019
 8598SOL    HW137256   0.097   2.463   3.720  0.3520  0.1399 -0.0979
 8598SOL    HW237257   0.232   2.502   3.751  0.1829  2.8507  0.8576
 8599SOL     OW37258   3.362   0.150   3.534  0.2608  0.0833 -0.3796
 8599SOL    HW137259   3.432   0.209   3.561  0.3411  0.0342 -0.4805
 8599SOL    HW237260   3.400   0.128   3.449 -0.9167 -2.5156 -0.2261
 8600SOL     OW37261   1.728   3.409   7.701 -0.1021  0.4701 -0.1884
 8600SOL    HW137262   1.688   3.449   7.624 -0.9292  1.9800  1.0152
 8600SOL    HW237263   1.664   3.446   7.762  2.1101  2.1909  1.1073
 8601SOL     OW37264   2.653   1.775   1.906 -0.1157  0.5049 -0.5597
 8601SOL    HW137265   2.701   1.779   1.989 -0.3474 -0.6381 -0.3686
 8601SOL    HW237266   2.677   1.858   1.866 -0.5809  0.0287 -1.8282
 8602SOL     OW37267   1.722   1.860   4.344 -0.0713  0.1407  0.0351
 8602SOL    HW137268   1.764   1.819   4.269  1.2959  1.1284  0.2588
 8602SOL    HW237269   1.649   1.799   4.349  0.6468 -0.6954  0.3072
 8603SOL     OW37270   0.726   4.213   3.722 -0.3230 -0.3943  0.1939
 8603SOL    HW137271   0.772   4.240   3.801  0.5529 -1.3529  0.0222
 8603SOL    HW237272   0.746   4.119   3.718 -0.0428 -0.2876 -1.1570
 8604SOL     OW37273   1.350   1.426   6.203  0.2559 -0.1237 -0.1126
 8604SOL    HW137274   1.371   1.519   6.206  1.6379 -0.4469  0.1063
 8604SOL    HW237275   1.259   1.430   6.175 -0.0270  0.6839  0.9175
 8605SOL     OW37276   4.315   4.103   6.110  0.0086 -0.1769  0.2139
 8605SOL    HW137277   4.282   4.183   6.152 -0.5776 -0.5342  0.4374
 8605SOL    HW237278   4.272   4.103   6.025 -2.0606 -0.2784  1.2646
 8606SOL     OW37279   0.812   4.673  15.893 -0.2140  0.5424 -0.1542
 8606SOL    HW137280   0.768   0.027  15.849  1.9832  1.5178 -0.7964
 8606SOL    HW237281   0.838   4.615  15.821  1.7585  2.0114 -0.6311
 8607SOL     OW37282   4.211   1.418   0.983 -0.7062 -0.1609 -0.2139
 8607SOL    HW137283   4.267   1.477   0.933 -0.1209  0.1877  0.8560
 8607SOL    HW237284   4.221   1.446   1.074  2.6558  0.2053 -0.7264
 8608SOL     OW37285   3.981   1.288   2.611  0.3229  0.2495  0.3487
 8608SOL    HW137286   3.948   1.231   2.541  0.3187 -0.4567  0.9298
 8608SOL    HW237287   3.920   1.362   2.604 -0.0762 -0.0981  0.1552
 8609SOL     OW37288   4.575   3.918   8.198 -0.0644  0.0419 -0.3825
 8609SOL    HW137289   4.656   3.887   8.157 -1.9565 -2.8945 -1.9100
 8609SOL    HW237290   4.611   4.000   8.231  0.0643 -0.7268  1.3774
 8610SOL     OW37291   1.402   4.133  15.611  0.0430 -0.1093  0.0078
 8610SOL    HW137292   1.330   4.141  15.548 -0.0570  3.6465  0.5617
 8610SOL    HW237293   1.366   4.178  15.687 -3.2136  0.3421 -1.8354
 8611SOL     OW37294   0.891   2.289   7.408  0.6570 -0.4737 -0.5405
 8611SOL    HW137295   0.807   2.327   7.432 -0.1876 -1.0784 -2.5312
 8611SOL    HW237296   0.955   2.339   7.460  0.9728 -1.0971 -0.3283
 8612SOL     OW37297   4.274   2.802   8.034 -0.4124 -0.4452 -0.4423
 8612SOL    HW137298   4.196   2.747   8.036 -2.4032  2.4482  0.8301
 8612SOL    HW237299   4.260   2.865   8.105 -2.0636 -0.6678 -0.5732
 8613SOL     OW37300   4.509   3.304   2.043  0.0736 -0.3177  0.6675
 8613SOL    HW137301   4.443   3.291   2.110 -0.0078  4.0185  1.4535
 8613SOL    HW237302   4.535   3.213   2.033  0.6353 -0.3819  2.8234
 8614SOL     OW37303   4.708   3.451   6.106 -0.4302 -0.2882  0.2806
 8614SOL    HW137304   0.066   3.400   6.135  0.9424  1.5216 -0.1175
 8614SOL    HW237305   4.659   3.445   6.188 -0.9950  1.1569  0.0453
 8615SOL     OW37306   3.298   1.957   6.582  0.3606  0.0735  0.0840
 8615SOL    HW137307   3.377   1.978   6.531  0.2465  0.6907  0.1555
 8615SOL    HW237308   3.326   1.885   6.638  0.7180  1.4147  1.6174
 8616SOL     OW37309   2.285   4.188   2.102 -0.3359 -0.2412 -0.0228
 8616SOL    HW137310   2.358   4.190   2.164 -0.7768  0.5454  0.4782
 8616SOL    HW237311   2.214   4.239   2.142  0.1592 -0.8784  1.6810
 8617SOL     OW37312   2.843   2.441   9.330 -0.6179 -0.0540  0.2817
 8617SOL    HW137313   2.808   2.400   9.251  0.1863  0.0668 -0.1385
 8617SOL    HW237314   2.797   2.402   9.404 -1.2387 -0.3798 -0.2665
 8618SOL     OW37315   0.570   4.418   0.371 -0.0338  0.4268  0.1768
 8618SOL    HW137316   0.583   4.458   0.285 -2.0000 -2.3623 -1.4276
 8618SOL    HW237317   0.481   4.381   0.367  0.8209 -1.8568  2.5592
 8619SOL     OW37318   0.952   2.281   3.600  0.2637 -0.6955  0.1456
 8619SOL    HW137319   1.022   2.315   3.656  2.0420 -1.4504 -1.6217
 8619SOL    HW237320   0.985   2.289   3.511  3.4912  0.2482  1.4166
 8620SOL     OW37321   1.172   0.795  17.510 -0.3322 -0.0173  0.7586
 8620SOL    HW137322   1.112   0.804  17.585 -1.3446  0.5041 -0.1139
 8620SOL    HW237323   1.180   0.887  17.486 -1.1912 -0.0838  0.2213
 8621SOL     OW37324   0.408   2.460   6.827  0.2903  0.3170 -0.1280
 8621SOL    HW137325   0.384   2.453   6.920 -2.6983  0.0044 -0.9161
 8621SOL    HW237326   0.370   2.382   6.788  0.4140  0.0697  0.2522
 8622SOL     OW37327   3.210   2.906  11.954  0.3035 -0.0291 -0.9486
 8622SOL    HW137328   3.199   2.999  11.971 -1.6178 -0.8855  2.4785
 8622SOL    HW237329   3.289   2.915  11.901  0.0091  0.2426 -1.3392
 8623SOL     OW37330   4.131   0.758   3.303  0.2217  0.2409 -0.2291
 8623SOL    HW137331   4.214   0.789   3.267 -0.8580  1.3763 -1.7731
 8623SOL    HW237332   4.121   0.842   3.347  1.8452 -0.3462  1.2259
 8624SOL     OW37333   1.324   4.575   6.042  0.1821  0.7338 -0.1908
 8624SOL    HW137334   1.245   4.522   6.047  0.0787  0.8453 -0.7061
 8624SOL    HW237335   1.393   4.522   6.084 -0.5604 -0.5823 -0.6254
 8625SOL     OW37336   2.804   0.387   2.515 -0.7586  0.2094  0.2236
 8625SOL    HW137337   2.821   0.478   2.488 -1.0617  0.4426  0.8033
 8625SOL    HW237338   2.867   0.343   2.459  0.3491  3.3275 -1.0146
 8626SOL     OW37339   0.062   2.318   4.461  0.7338 -0.5627 -0.3239
 8626SOL    HW137340   0.149   2.349   4.435  0.9724 -0.6978  0.3273
 8626SOL    HW237341   0.016   2.392   4.422 -0.6649 -0.3540  1.7193
 8627SOL     OW37342   1.618   3.911   9.145 -0.4858  0.1313  0.0089
 8627SOL    HW137343   1.578   3.990   9.181 -0.0498 -0.2620  1.3811
 8627SOL    HW237344   1.613   3.849   9.218 -2.7939  0.6144  0.2458
 8628SOL     OW37345   3.088   4.568   1.836  0.4242  0.2680 -0.0271
 8628SOL    HW137346   3.136   4.495   1.797 -0.4077  0.4030 -1.2938
 8628SOL    HW237347   3.033   4.598   1.764 -1.8121 -0.4185  1.3729
 8629SOL     OW37348   2.055   1.625   1.580  0.1123 -0.2147  0.2651
 8629SOL    HW137349   1.972   1.649   1.540  1.2571  0.9131 -1.4089
 8629SOL    HW237350   2.018   1.580   1.657 -1.1237  1.4563  0.6286
 8630SOL     OW37351   3.257   1.186  10.823  0.4782 -0.5917 -0.1640
 8630SOL    HW137352   3.334   1.216  10.871  1.0826 -0.7754 -1.0178
 8630SOL    HW237353   3.193   1.191  10.895  0.7523 -2.5922  0.2322
 8631SOL     OW37354   0.504   0.533   4.549 -0.2728  0.0283 -0.0025
 8631SOL    HW137355   0.509   0.457   4.491 -0.3221 -1.0944  1.4585
 8631SOL    HW237356   0.523   0.491   4.634 -0.3758 -2.0157 -0.9943
 8632SOL     OW37357   0.767   2.367   2.122  0.2722 -0.0568  0.8940
 8632SOL    HW137358   0.742   2.274   2.123 -0.4259  0.1170 -0.8004
 8632SOL    HW237359   0.780   2.387   2.029 -1.3931 -0.0274  0.6619
 8633SOL     OW37360   1.108   2.979   3.406  0.5096 -0.0273 -0.6017
 8633SOL    HW137361   1.049   2.929   3.350 -1.0572  2.3067 -1.0155
 8633SOL    HW237362   1.171   3.022   3.347  1.5299 -0.3781  0.2291
 8634SOL     OW37363   0.866   2.491   7.027  0.0763 -0.3132 -0.0337
 8634SOL    HW137364   0.824   2.425   7.082 -0.1784 -0.6036 -0.5713
 8634SOL    HW237365   0.790   2.542   6.999 -0.2933 -0.4636  0.7028
 8635SOL     OW37366   4.129   1.734   1.371 -0.0209  0.4138 -0.5929
 8635SOL    HW137367   4.189   1.808   1.378 -0.4553  0.7846 -0.7531
 8635SOL    HW237368   4.048   1.766   1.410  0.5612  1.8732 -0.5630
 8636SOL     OW37369   1.115   3.285   2.242 -0.0815  0.0719  0.7050
 8636SOL    HW137370   1.189   3.306   2.185 -0.0327 -2.2197 -0.0612
 8636SOL    HW237371   1.148   3.210   2.292  0.3142  0.0465  0.4010
 8637SOL     OW37372   4.469   2.348  13.520 -0.6948  0.6092  0.5323
 8637SOL    HW137373   4.495   2.412  13.454  1.8803  0.4912  1.4298
 8637SOL    HW237374   4.375   2.360  13.513 -0.6857 -0.3475 -1.1644
 8638SOL     OW37375   2.414   3.765  10.928 -0.1305  0.2153 -0.0186
 8638SOL    HW137376   2.342   3.771  10.991  0.5318  0.0098  0.7405
 8638SOL    HW237377   2.421   3.670  10.919 -1.4454  0.2268 -1.3284
 8639SOL     OW37378   1.525   0.430   4.594  0.5277  0.0945 -0.0609
 8639SOL    HW137379   1.555   0.501   4.651  1.4495  2.3656 -3.3634
 8639SOL    HW237380   1.487   0.473   4.518  0.1777  1.1709  0.7275
 8640SOL     OW37381   1.526   0.820  17.417 -0.0471 -0.0476  0.0415
 8640SOL    HW137382   1.480   0.752  17.465  0.3017  0.1439  0.6381
 8640SOL    HW237383   1.615   0.803  17.448  1.5790  2.0905 -3.3858
 8641SOL     OW37384   0.278   2.554   4.685  0.6646 -0.1893 -0.5191
 8641SOL    HW137385   0.278   2.514   4.598  0.1736 -0.4846 -0.3794
 8641SOL    HW237386   0.304   2.470   4.723  0.1228  0.5307  1.4691
 8642SOL     OW37387   3.076   1.714   6.542 -0.0642  0.5373  0.3982
 8642SOL    HW137388   3.064   1.628   6.581 -0.4075  0.5615  0.3478
 8642SOL    HW237389   3.170   1.718   6.523 -0.3218 -2.0041 -1.4121
 8643SOL     OW37390   1.795   3.985   7.787 -0.4381 -0.2107 -0.0099
 8643SOL    HW137391   1.801   3.962   7.880  0.4071 -0.6678 -0.1796
 8643SOL    HW237392   1.834   4.072   7.782 -2.0916  0.5274  0.0125
 8644SOL     OW37393   3.574   1.558   4.652  0.0173 -0.2401 -0.1165
 8644SOL    HW137394   3.639   1.627   4.640  0.1739 -0.2266  0.7595
 8644SOL    HW237395   3.580   1.516   4.566  1.2772  0.4496 -0.3613
 8645SOL     OW37396   3.849   2.225  10.206  0.1167 -0.3923 -0.0003
 8645SOL    HW137397   3.797   2.287  10.258  1.1540  0.8451 -0.4457
 8645SOL    HW237398   3.926   2.212  10.261 -0.5379  0.8930  1.2449
 8646SOL     OW37399   2.054   3.856  13.242 -0.0759  0.3014  0.2624
 8646SOL    HW137400   2.110   3.793  13.288  0.6493 -2.7630 -4.7187
 8646SOL    HW237401   2.062   3.925  13.307  0.7228  1.7799 -1.4072
 8647SOL     OW37402   1.323   4.276  16.854 -0.0948 -0.6941 -0.5780
 8647SOL    HW137403   1.261   4.293  16.784  0.2170 -0.1585 -0.7250
 8647SOL    HW237404   1.258   4.286  16.924  0.2597  0.8103 -0.4624
 8648SOL     OW37405   2.169   2.960   4.054  0.1720 -0.3414  0.2271
 8648SOL    HW137406   2.122   2.889   4.011  1.1843 -0.9967  0.1902
 8648SOL    HW237407   2.259   2.928   4.046  0.9627  2.3879 -1.5944
 8649SOL     OW37408   3.055   4.329   9.407  0.7116  0.1062 -0.1597
 8649SOL    HW137409   3.041   4.262   9.474 -0.0849  0.5767  0.1364
 8649SOL    HW237410   3.024   4.275   9.334  1.7878  0.5168 -0.9241
 8650SOL     OW37411   0.380   1.840   6.757 -0.3414 -0.1974  0.2038
 8650SOL    HW137412   0.306   1.855   6.817  0.8474 -0.7372  1.8230
 8650SOL    HW237413   0.444   1.885   6.811 -0.0660 -1.0665  0.6151
 8651SOL     OW37414   2.516   4.307  14.557 -0.0431 -0.3399 -0.3657
 8651SOL    HW137415   2.423   4.331  14.552  0.2769  0.5150 -1.9416
 8651SOL    HW237416   2.551   4.387  14.596  1.5673 -0.7949 -0.9168
 8652SOL     OW37417   0.764   4.512   3.719  0.2391  0.3126 -0.2626
 8652SOL    HW137418   0.843   4.476   3.679 -0.1998 -0.4409 -0.4520
 8652SOL    HW237419   0.728   4.438   3.768 -1.6733  0.1111 -1.9574
 8653SOL     OW37420   0.801   1.932   8.933 -0.0294  0.5025  0.2360
 8653SOL    HW137421   0.751   1.861   8.892  2.7899 -1.0793 -0.4688
 8653SOL    HW237422   0.753   1.944   9.014  0.8424  0.4268  0.7634
 8654SOL     OW37423   1.546   4.371   6.367 -0.0951 -0.7924 -0.3679
 8654SOL    HW137424   1.603   4.407   6.435 -1.2728  1.7726 -0.7394
 8654SOL    HW237425   1.466   4.381   6.418  1.8768 -1.4483  2.8225
 8655SOL     OW37426   2.168   3.822   3.047  0.5121  0.1822 -0.0097
 8655SOL    HW137427   2.164   3.909   3.008 -2.2625 -0.3532 -0.9344
 8655SOL    HW237428   2.082   3.812   3.087 -0.1904  0.3381 -1.5056
 8656SOL     OW37429   4.375   2.139  10.255 -0.0806  0.1167  0.0367
 8656SOL    HW137430   4.416   2.057  10.282 -2.3058 -1.0898 -0.2472
 8656SOL    HW237431   4.446   2.179  10.206  0.4639 -1.1536 -0.2123
 8657SOL     OW37432   1.718   0.731   3.366 -0.5345  0.4640 -0.5217
 8657SOL    HW137433   1.647   0.739   3.430 -0.4587  1.7213 -0.5948
 8657SOL    HW237434   1.685   0.658   3.314 -1.5604  1.9581 -1.9855
 8658SOL     OW37435   1.113   0.081   4.894  0.1949  0.1313  0.2024
 8658SOL    HW137436   1.065   0.116   4.969 -0.0588  1.9930 -0.8335
 8658SOL    HW237437   1.154   0.004   4.933  2.5562  1.4407  0.2939
 8659SOL     OW37438   0.050   2.227   5.431  0.3506 -0.5293  0.1141
 8659SOL    HW137439   0.117   2.259   5.370 -2.3484  0.0554 -2.5282
 8659SOL    HW237440   0.110   2.165   5.472  1.2814 -0.8457 -1.7107
 8660SOL     OW37441   1.720   4.311   0.380 -0.1392 -0.3815  0.4280
 8660SOL    HW137442   1.710   4.401   0.348  1.7395 -0.6117 -0.7587
 8660SOL    HW237443   1.737   4.258   0.303 -0.6684 -0.4334  0.3434
 8661SOL     OW37444   2.273   1.619   6.913  0.0818  0.1949 -0.1502
 8661SOL    HW137445   2.359   1.609   6.954  1.0682  1.4365 -1.8959
 8661SOL    HW237446   2.245   1.695   6.964  0.2183  1.2692 -1.6734
 8662SOL     OW37447   1.771   0.433  12.271  0.2063  0.2731 -0.0140
 8662SOL    HW137448   1.768   0.429  12.367  0.7320  0.4265  0.0129
 8662SOL    HW237449   1.827   0.359  12.247 -0.0237  0.4277 -1.0229
 8663SOL     OW37450   0.415   2.538   1.660 -0.4706  0.2540 -0.0272
 8663SOL    HW137451   0.496   2.490   1.644 -0.9364 -0.5987  0.1671
 8663SOL    HW237452   0.416   2.518   1.754  1.3211 -0.1748 -0.1440
 8664SOL     OW37453   1.298   0.781   5.921  0.0053  0.3564  0.2956
 8664SOL    HW137454   1.214   0.790   5.876 -0.0350 -1.4697  0.0226
 8664SOL    HW237455   1.337   0.721   5.858 -0.5579  0.4732 -0.1708
 8665SOL     OW37456   0.747   0.378  17.441  0.0194  0.0322 -0.4857
 8665SOL    HW137457   0.774   0.439  17.372  0.5332  0.0716 -0.2535
 8665SOL    HW237458   0.744   0.434  17.518  0.5306  0.7219 -0.9613
 8666SOL     OW37459   1.737   2.309   9.037 -0.4268 -0.3146  0.4139
 8666SOL    HW137460   1.676   2.252   8.990 -0.9148  1.2291 -0.8361
 8666SOL    HW237461   1.814   2.301   8.981 -1.6949  1.6548 -1.6274
 8667SOL     OW37462   2.703   3.535  13.571 -0.0896  0.3550 -0.4531
 8667SOL    HW137463   2.705   3.495  13.484 -0.6049  0.6933 -0.6213
 8667SOL    HW237464   2.796   3.540  13.592 -0.0819 -0.2073 -0.3636
 8668SOL     OW37465   3.751   1.775   6.226 -0.4665  0.2944 -0.4557
 8668SOL    HW137466   3.822   1.736   6.176 -0.3312  0.4127 -0.3568
 8668SOL    HW237467   3.759   1.725   6.308  1.3302  2.2150  0.5487
 8669SOL     OW37468   1.057   4.046  14.488  0.3584  0.4626  0.3319
 8669SOL    HW137469   1.114   4.005  14.553  2.2436 -0.9101 -2.1740
 8669SOL    HW237470   1.060   4.141  14.499  2.6155  0.2087  2.0939
 8670SOL     OW37471   1.241   0.626  11.027  0.1073 -0.2617 -0.6565
 8670SOL    HW137472   1.161   0.573  11.028  1.3441 -2.1105 -0.0789
 8670SOL    HW237473   1.196   0.699  10.984 -0.4963  0.2008  0.7665
 8671SOL     OW37474   2.400   0.778  12.531  0.1240 -0.0735 -0.0792
 8671SOL    HW137475   2.399   0.725  12.611 -0.4500  0.3115  0.1670
 8671SOL    HW237476   2.309   0.807  12.528  0.6333  1.7019  1.6333
 8672SOL     OW37477   4.246   4.682   5.737  0.3144  0.8896  0.9971
 8672SOL    HW137478   4.230   4.636   5.654  0.2831  1.3454  0.7477
 8672SOL    HW237479   4.168   0.020   5.741 -0.9003 -0.7829  0.4982
 8673SOL     OW37480   3.843   1.012   1.756  0.2527  0.2610 -0.4129
 8673SOL    HW137481   3.815   0.973   1.839  1.3633 -0.2687 -0.2864
 8673SOL    HW237482   3.937   1.006   1.773  0.0830  2.8157  1.4140
 8674SOL     OW37483   2.927   1.889  13.528  0.3237  0.0547  0.1217
 8674SOL    HW137484   2.834   1.910  13.539 -0.0633 -1.5734 -0.1358
 8674SOL    HW237485   2.976   1.929  13.601  0.1502  2.3080 -0.9929
 8675SOL     OW37486   0.737   1.373   8.288  0.2357  0.0937  0.1594
 8675SOL    HW137487   0.686   1.310   8.236  0.6388  0.5321 -0.7658
 8675SOL    HW237488   0.826   1.339   8.292  0.7622  1.7235  2.3113
 8676SOL     OW37489   4.583   4.163  17.565 -0.0018  0.2003  0.2125
 8676SOL    HW137490   4.495   4.152  17.530  0.3218 -0.8995 -0.2559
 8676SOL    HW237491   4.630   4.119  17.495 -0.2507 -0.4925  0.4831
 8677SOL     OW37492   3.978   1.302   6.740  0.3098 -0.1073  0.1510
 8677SOL    HW137493   4.056   1.312   6.794  0.2715 -3.2549  0.7939
 8677SOL    HW237494   3.903   1.332   6.791  1.9077  1.9685  1.3165
 8678SOL     OW37495   4.055   0.601   0.972 -0.2822  0.2066  0.1961
 8678SOL    HW137496   4.100   0.683   0.990 -3.2191  1.8966 -0.1842
 8678SOL    HW237497   4.001   0.587   1.050 -1.8858  1.6288 -0.6539
 8679SOL     OW37498   0.108   3.576   4.248 -0.3915  0.7819 -0.5059
 8679SOL    HW137499   0.126   3.620   4.165  1.0113 -1.9902 -1.6735
 8679SOL    HW237500   0.160   3.499   4.228 -0.5481  0.6136 -0.2696
 8680SOL     OW37501   3.527   1.889   7.018  0.5678  0.0673  0.5900
 8680SOL    HW137502   3.537   1.807   6.969  1.2494  0.8176 -0.5333
 8680SOL    HW237503   3.458   1.933   6.968  0.3560 -1.7180 -0.6685
 8681SOL     OW37504   0.290   1.481   1.935  0.2876 -0.2145  0.0029
 8681SOL    HW137505   0.348   1.457   2.008 -1.9663  0.5961  2.0695
 8681SOL    HW237506   0.339   1.453   1.858 -1.5976 -2.5531 -0.3571
 8682SOL     OW37507   1.667   2.088   7.406 -0.2841 -0.9052  0.3828
 8682SOL    HW137508   1.656   2.177   7.441 -1.2924 -0.4685 -1.0108
 8682SOL    HW237509   1.576   2.058   7.400 -0.0236 -1.5269 -0.5135
 8683SOL     OW37510   3.971   4.418  16.776 -0.0539 -0.2721  0.0227
 8683SOL    HW137511   3.985   4.512  16.764 -0.7372 -0.3561 -1.4676
 8683SOL    HW237512   3.997   4.390  16.864  2.4068  0.1545 -0.5903
 8684SOL     OW37513   3.431   0.964  16.098 -0.1078 -0.0439  0.7640
 8684SOL    HW137514   3.357   0.939  16.042 -2.0312  0.7914  2.9506
 8684SOL    HW237515   3.387   0.988  16.180 -0.0434  0.5311  0.6293
 8685SOL     OW37516   2.057   1.285   8.510 -0.0912 -0.6601  0.2765
 8685SOL    HW137517   2.100   1.272   8.425  0.5518 -1.9696  0.8037
 8685SOL    HW237518   2.126   1.327   8.561  0.1440 -0.8333  0.1020
 8686SOL     OW37519   3.031   1.305   4.057  0.3536 -0.1917  0.5557
 8686SOL    HW137520   2.961   1.367   4.037  0.6732  0.2485  0.7943
 8686SOL    HW237521   3.100   1.351   4.009  1.8483 -0.8430  2.0543
 8687SOL     OW37522   2.288   3.655   4.298 -0.5382 -0.3199 -0.4663
 8687SOL    HW137523   2.214   3.606   4.334  0.4165 -1.9195 -0.7141
 8687SOL    HW237524   2.312   3.608   4.218 -0.7250  0.6757 -1.1101
 8688SOL     OW37525   2.106   2.304   4.593 -0.3014  0.1648 -0.3442
 8688SOL    HW137526   2.024   2.271   4.631  0.3982  0.4182  1.4058
 8688SOL    HW237527   2.077   2.366   4.527  0.0758  0.8345  0.1205
 8689SOL     OW37528   0.303   0.009   6.648  0.6230 -0.1714 -0.1453
 8689SOL    HW137529   0.380   4.717   6.591  0.3789 -1.6337 -0.2166
 8689SOL    HW237530   0.293   4.642   6.690  1.5599 -0.2029  0.0250
 8690SOL     OW37531   1.078   4.350   8.487 -0.6445  0.2277 -0.5459
 8690SOL    HW137532   1.132   4.409   8.540  1.5946 -1.8156 -0.5330
 8690SOL    HW237533   0.997   4.401   8.488  0.4249  1.8962  0.7198
 8691SOL     OW37534   3.968   3.435   8.708 -0.1147 -0.2094  0.7172
 8691SOL    HW137535   4.055   3.405   8.681  0.3621  1.5591  0.2725
 8691SOL    HW237536   3.967   3.531   8.708  0.5071 -0.1791 -2.5026
 8692SOL     OW37537   1.792   1.614   2.349  0.2269 -0.3388 -0.0401
 8692SOL    HW137538   1.698   1.613   2.332  0.0844  0.3850  0.7087
 8692SOL    HW237539   1.820   1.528   2.319  2.0203  0.2814 -0.1218
 8693SOL     OW37540   2.157   2.645  12.022 -0.1642 -0.0126  0.1308
 8693SOL    HW137541   2.138   2.701  11.946  1.9974 -0.6437 -0.8550
 8693SOL    HW237542   2.146   2.551  12.008 -1.9727  0.1146  0.6793
 8694SOL     OW37543   2.532   2.557  16.842 -0.2535 -0.4093 -0.0959
 8694SOL    HW137544   2.565   2.520  16.760 -0.8879  0.6573 -0.8282
 8694SOL    HW237545   2.590   2.514  16.905  0.2418  0.9924  0.3933
 8695SOL     OW37546   4.095   2.900   6.802  0.0585  0.9316 -0.6032
 8695SOL    HW137547   4.090   2.971   6.866 -1.3365 -0.4327  0.7874
 8695SOL    HW237548   4.036   2.836   6.840  0.9841  0.3279 -0.1713
 8696SOL     OW37549   3.652   1.516  10.550  0.1578  0.5930 -0.1517
 8696SOL    HW137550   3.630   1.428  10.520 -2.0536  1.3057 -0.6051
 8696SOL    HW237551   3.652   1.496  10.644  3.3408  1.5058  0.0629
 8697SOL     OW37552   3.326   3.694  10.820  0.2956 -0.6486  0.6752
 8697SOL    HW137553   3.299   3.700  10.912 -2.1906  1.6284 -0.1962
 8697SOL    HW237554   3.302   3.780  10.785 -0.2238 -1.9182 -2.0273
 8698SOL     OW37555   4.377   2.954   8.972  0.6982  0.4656 -0.9747
 8698SOL    HW137556   4.370   2.859   8.975  1.2864  0.3721 -2.3169
 8698SOL    HW237557   4.304   2.978   9.028 -0.9098 -1.5995 -2.1875
 8699SOL     OW37558   2.920   1.328   6.852 -0.4528  0.5318 -0.2065
 8699SOL    HW137559   2.875   1.246   6.871  0.1287  0.1889 -0.3387
 8699SOL    HW237560   2.932   1.320   6.757  0.4712 -0.5471  0.0076
 8700SOL     OW37561   3.288   4.334   7.182 -0.2535  0.0533 -0.4818
 8700SOL    HW137562   3.381   4.346   7.200  0.2380 -1.0233 -2.3522
 8700SOL    HW237563   3.271   4.413   7.132  0.3837  0.4181 -0.1218
 8701SOL     OW37564   3.588   3.858  15.478 -0.1176  0.2458 -0.1368
 8701SOL    HW137565   3.586   3.795  15.551 -1.6223  0.1189 -0.2853
 8701SOL    HW237566   3.494   3.873  15.473 -0.2849 -1.0889 -0.8065
 8702SOL     OW37567   3.772   3.344  16.082 -0.0263 -0.7629  0.0505
 8702SOL    HW137568   3.734   3.390  16.157  1.5698  0.1724  0.2763
 8702SOL    HW237569   3.693   3.307  16.041  0.7640 -2.3403 -0.0396
 8703SOL     OW37570   0.532   4.606   6.492  0.1601 -0.4477  0.1669
 8703SOL    HW137571   0.577   4.527   6.521 -0.9529 -0.2668  2.3621
 8703SOL    HW237572   0.462   4.574   6.434  1.1216  1.2880 -1.9383
 8704SOL     OW37573   3.192   3.802   7.386  0.0199  0.3690 -0.1917
 8704SOL    HW137574   3.248   3.754   7.448  1.5763  2.2539 -0.1695
 8704SOL    HW237575   3.242   3.799   7.305 -0.0992  1.8458 -0.3137
 8705SOL     OW37576   1.721   1.312  14.608 -0.1427  0.0601 -0.0389
 8705SOL    HW137577   1.750   1.355  14.527  0.9977 -0.3586  0.1487
 8705SOL    HW237578   1.804   1.304  14.655  1.5026  0.7067 -2.8611
 8706SOL     OW37579   3.260   1.143  12.500  0.2576  0.4169  0.1002
 8706SOL    HW137580   3.207   1.220  12.480 -0.3973  0.3264  1.4586
 8706SOL    HW237581   3.304   1.177  12.578  1.1276 -0.2058 -0.1200
 8707SOL     OW37582   4.694   1.593  16.639 -0.3303  0.0083  0.4740
 8707SOL    HW137583   4.629   1.591  16.709  0.0589  0.8835  0.8556
 8707SOL    HW237584   4.695   1.683  16.607  0.5904  0.1108  0.7884
 8708SOL     OW37585   0.637   2.883   5.838  0.2387  0.2033 -0.2433
 8708SOL    HW137586   0.613   2.953   5.776 -0.5160  0.6420  0.5458
 8708SOL    HW237587   0.575   2.816   5.811  2.6848 -2.6580  1.3485
 8709SOL     OW37588   3.696   1.216   3.265  0.0377  0.2487  0.0637
 8709SOL    HW137589   3.741   1.154   3.322  1.2316  1.5848  0.5896
 8709SOL    HW237590   3.762   1.277   3.232  0.0011  0.1760 -0.1455
 8710SOL     OW37591   3.370   2.383   5.932 -0.0505  0.1309  0.5997
 8710SOL    HW137592   3.281   2.355   5.953  0.3962 -1.0576  0.8844
 8710SOL    HW237593   3.376   2.357   5.840  1.2788  0.4328  0.5982
 8711SOL     OW37594   4.282   4.018   5.034  0.5063  0.7519  0.7910
 8711SOL    HW137595   4.348   4.073   5.077  1.5449 -0.4087  0.6951
 8711SOL    HW237596   4.291   4.056   4.947  0.6191 -1.0128  0.0248
 8712SOL     OW37597   0.868   4.633   6.218 -0.4065  0.3304  0.4670
 8712SOL    HW137598   0.824   4.548   6.226 -0.4437  0.1936 -1.1494
 8712SOL    HW237599   0.885   4.632   6.124 -1.2106  0.6385  0.3167
 8713SOL     OW37600   0.543   3.485   6.032 -0.2871  0.4211  0.4182
 8713SOL    HW137601   0.516   3.545   5.963 -2.8266 -1.5677 -0.2964
 8713SOL    HW237602   0.462   3.438   6.050  0.5224 -0.3258  2.1140
 8714SOL     OW37603   1.699   1.665  13.002 -0.0755  0.3096  0.9593
 8714SOL    HW137604   1.794   1.674  12.999 -0.0244 -0.4884  0.0296
 8714SOL    HW237605   1.670   1.752  12.977 -2.3318 -1.0202 -1.0381
 8715SOL     OW37606   1.487   0.152   8.436 -0.8960 -0.0945  0.0541
 8715SOL    HW137607   1.565   0.168   8.489 -1.3696 -0.8600  0.9921
 8715SOL    HW237608   1.433   0.102   8.499 -0.5751  0.9761  1.1763
 8716SOL     OW37609   2.801   1.223   3.316 -0.0085  0.0490 -0.0326
 8716SOL    HW137610   2.766   1.310   3.332  2.2968  1.0347 -0.3593
 8716SOL    HW237611   2.829   1.213   3.225 -1.5507 -1.5017 -0.3481
 8717SOL     OW37612   4.618   4.561   8.307 -0.0826 -0.2576  0.5339
 8717SOL    HW137613   4.697   4.612   8.326 -0.1932  0.3892 -0.8094
 8717SOL    HW237614   4.589   4.533   8.394  1.8646 -0.0014  1.2753
 8718SOL     OW37615   4.488   2.121   7.896  0.4394  0.0165  0.3222
 8718SOL    HW137616   4.454   2.166   7.818  1.0365 -2.4498 -1.3479
 8718SOL    HW237617   4.448   2.036   7.879  0.5692 -0.1650  0.9407
 8719SOL     OW37618   2.854   1.311  16.018  0.0002  0.0206 -0.0794
 8719SOL    HW137619   2.777   1.351  15.979  0.3808  2.2107  1.4098
 8719SOL    HW237620   2.923   1.371  15.989  0.1188 -0.1055 -0.0618
 8720SOL     OW37621   0.156   2.216   8.741 -0.2925  0.1460 -0.4727
 8720SOL    HW137622   0.081   2.230   8.684 -1.5600 -0.7334  0.9964
 8720SOL    HW237623   0.116   2.230   8.827  0.9710 -0.1967  0.1737
 8721SOL     OW37624   4.695   2.161   6.773  0.0402  0.1518 -0.9171
 8721SOL    HW137625   0.005   2.072   6.749  5.2057  1.6162 -0.3933
 8721SOL    HW237626   0.037   2.180   6.846  0.1723 -2.5664 -0.2874
 8722SOL     OW37627   1.152   3.933   3.868  0.0611 -0.2655 -0.0039
 8722SOL    HW137628   1.198   3.991   3.928 -1.2415  1.8070 -0.9808
 8722SOL    HW237629   1.062   3.946   3.900  0.3934 -2.1729  1.6711
 8723SOL     OW37630   3.536   1.872  14.819  0.5067  0.1025  0.4227
 8723SOL    HW137631   3.463   1.883  14.880  0.3205 -1.3338  0.4677
 8723SOL    HW237632   3.473   1.863  14.748  0.6039  1.7000  0.1469
 8724SOL     OW37633   1.127   3.333   4.840  0.4128 -0.3549  0.2074
 8724SOL    HW137634   1.141   3.397   4.910 -0.5488  1.1209 -0.9580
 8724SOL    HW237635   1.036   3.343   4.812  0.3001 -1.0596  0.3234
 8725SOL     OW37636   2.685   3.692   3.832 -0.1579 -0.5935  0.4110
 8725SOL    HW137637   2.712   3.653   3.749  0.6117  0.2607  0.2593
 8725SOL    HW237638   2.726   3.627   3.888  0.1071 -0.1689  0.7147
 8726SOL     OW37639   3.367   4.464   9.062 -0.3441 -0.2234  0.1614
 8726SOL    HW137640   3.313   4.448   9.139 -0.2056 -2.2763 -0.1795
 8726SOL    HW237641   3.399   4.378   9.037  1.1297  0.5317 -0.5423
 8727SOL     OW37642   4.076   2.394   3.908 -0.3149 -0.6315 -0.3196
 8727SOL    HW137643   4.127   2.470   3.879  1.9996 -1.2097  2.2551
 8727SOL    HW237644   4.091   2.392   4.002  1.3306  2.0496 -0.5190
 8728SOL     OW37645   4.186   2.381   5.654 -0.1627  0.2781  0.0241
 8728SOL    HW137646   4.267   2.433   5.659  0.0632 -0.4279  3.6941
 8728SOL    HW237647   4.215   2.293   5.677  0.2509  0.0136 -1.5431
 8729SOL     OW37648   0.456   2.774   2.042  0.3634  1.0997  0.5708
 8729SOL    HW137649   0.416   2.814   1.964 -0.0474 -1.0339 -0.3218
 8729SOL    HW237650   0.527   2.722   2.006 -0.2209  1.1731 -0.7173
 8730SOL     OW37651   4.097   2.608  14.477 -0.0991  0.0141  0.0411
 8730SOL    HW137652   4.008   2.575  14.466  0.4263 -1.6918  0.9379
 8730SOL    HW237653   4.087   2.653  14.561 -1.5984  0.9690 -0.6474
 8731SOL     OW37654   0.423   2.038  13.288 -0.6220 -0.2752  0.6141
 8731SOL    HW137655   0.411   2.122  13.332  0.9256  1.5264 -2.4557
 8731SOL    HW237656   0.375   1.989  13.355 -0.7924 -1.1567 -0.1530
 8732SOL     OW37657   3.137   4.298   5.045 -0.2013  0.5497  0.1442
 8732SOL    HW137658   3.155   4.383   5.004 -1.1354  0.7121  0.0645
 8732SOL    HW237659   3.200   4.237   5.007 -0.8125 -0.4289  0.7195
 8733SOL     OW37660   2.171   0.718   6.838  0.0029 -0.1135  0.0520
 8733SOL    HW137661   2.220   0.736   6.758 -0.3022  2.8395  0.5235
 8733SOL    HW237662   2.090   0.681   6.803  0.8463 -1.2461 -0.7068
 8734SOL     OW37663   0.130   0.399  14.874  0.1024 -0.1966  0.2241
 8734SOL    HW137664   0.085   0.357  14.947 -0.1200 -1.4371 -0.6392
 8734SOL    HW237665   0.210   0.424  14.920  0.7337 -2.7565  0.4765
 8735SOL     OW37666   4.531   3.009   8.224 -0.0174 -0.1324 -0.2730
 8735SOL    HW137667   4.529   3.027   8.130  0.4654  1.9484  0.1099
 8735SOL    HW237668   4.565   2.920   8.235  0.4061  0.2860  1.8315
 8736SOL     OW37669   2.271   2.987   3.309 -0.0451  0.0421 -0.0236
 8736SOL    HW137670   2.271   2.980   3.213  0.1596 -0.0210 -0.0180
 8736SOL    HW237671   2.310   2.910   3.351 -0.0776  0.8199  1.4106
 8737SOL     OW37672   1.483   4.694  10.394 -0.7105  0.3041  0.6207
 8737SOL    HW137673   1.535   0.005  10.318 -0.6447 -2.3066 -0.3063
 8737SOL    HW237674   1.398   4.680  10.353  0.7560 -4.8140 -0.5857
 8738SOL     OW37675   0.071   0.799   4.987  0.6421  0.3015  0.2878
 8738SOL    HW137676   0.064   0.718   4.936  3.2781  1.5339 -2.0164
 8738SOL    HW237677   4.703   0.778   5.024  1.6013  0.6853  2.6946
 8739SOL     OW37678   1.909   4.050   0.121 -0.8361  0.5242  0.2257
 8739SOL    HW137679   1.900   3.974   0.063 -0.5310  0.4658  0.2514
 8739SOL    HW237680   1.992   4.091   0.096 -0.3626 -0.7498 -0.3478
 8740SOL     OW37681   1.295   0.049  12.200 -0.1956 -0.1041  0.0731
 8740SOL    HW137682   1.330   4.692  12.151 -1.5771 -0.3904 -0.4639
 8740SOL    HW237683   1.339   0.119  12.151  2.3302 -0.1446  2.2936
 8741SOL     OW37684   0.459   0.752   2.993  0.9187 -0.4726 -0.1813
 8741SOL    HW137685   0.533   0.812   2.978  0.8487 -0.7288 -1.5591
 8741SOL    HW237686   0.509   0.672   2.979  0.9890 -0.6021  0.8134
 8742SOL     OW37687   0.648   1.585   3.932  0.4585  0.1894  0.2949
 8742SOL    HW137688   0.707   1.649   3.893  0.2399 -0.3270 -0.9015
 8742SOL    HW237689   0.563   1.624   3.910 -0.0738 -0.3196  1.4075
 8743SOL     OW37690   2.936   2.908   4.980 -0.2379 -0.1924 -0.0246
 8743SOL    HW137691   3.027   2.904   4.951  0.3064  0.5458  1.6081
 8743SOL    HW237692   2.940   2.999   5.008 -0.5958  0.9780 -3.7349
 8744SOL     OW37693   0.135   3.131   3.020 -0.1100 -0.0456  0.1255
 8744SOL    HW137694   0.069   3.200   3.028  2.1355  2.2582 -1.2346
 8744SOL    HW237695   0.210   3.177   3.057 -0.7433  2.7240 -1.9868
 8745SOL     OW37696   0.988   4.506   4.562 -0.4342 -0.1239  0.4613
 8745SOL    HW137697   1.058   4.556   4.604 -0.8954  1.1576 -0.3000
 8745SOL    HW237698   1.038   4.453   4.501 -0.5555  0.4555 -0.1388
 8746SOL     OW37699   4.427   0.988  14.895 -0.4427  0.6618 -0.0822
 8746SOL    HW137700   4.445   1.054  14.961 -0.9269  0.7568 -0.0402
 8746SOL    HW237701   4.350   1.027  14.853 -1.1667  0.4489  1.0553
 8747SOL     OW37702   4.258   1.016   7.546 -0.0027  1.0904  0.1258
 8747SOL    HW137703   4.229   0.968   7.623 -2.3369  1.6117 -0.4165
 8747SOL    HW237704   4.310   0.949   7.502 -0.5694 -0.2883  1.5510
 8748SOL     OW37705   2.862   0.953  10.482 -0.0304  0.2588  0.1991
 8748SOL    HW137706   2.949   0.979  10.512  0.8173 -0.3135 -1.7599
 8748SOL    HW237707   2.863   0.860  10.504  1.1850  0.2587  0.1591
 8749SOL     OW37708   0.488   3.170   6.008  0.0679 -0.8480  0.1506
 8749SOL    HW137709   0.574   3.212   6.000 -0.6147  0.6947  0.9508
 8749SOL    HW237710   0.472   3.162   5.914  1.5484 -1.8689 -0.0208
 8750SOL     OW37711   2.513   2.440   9.574 -0.7465 -0.3938 -0.4660
 8750SOL    HW137712   2.473   2.411   9.656 -0.4372  0.6362  0.0409
 8750SOL    HW237713   2.467   2.523   9.558 -0.1567 -0.2270 -1.3039
 8751SOL     OW37714   3.823   3.690   7.804 -0.1933  0.1938 -0.9387
 8751SOL    HW137715   3.881   3.749   7.852 -1.4244  1.1017 -0.5646
 8751SOL    HW237716   3.762   3.752   7.765 -0.3339  0.5147 -0.2129
 8752SOL     OW37717   0.756   0.604   8.009  0.0855  0.0946 -0.2152
 8752SOL    HW137718   0.720   0.517   8.027  2.0612 -1.0008 -1.6976
 8752SOL    HW237719   0.768   0.641   8.097 -1.0716 -3.3450  1.4175
 8753SOL     OW37720   0.060   3.125   6.244  0.1768 -0.1243 -0.1443
 8753SOL    HW137721   0.042   3.093   6.332 -1.3067  2.9420  0.6536
 8753SOL    HW237722   0.080   3.038   6.210  2.0149  0.3323 -0.2234
 8754SOL     OW37723   0.503   1.627  16.741 -0.3126 -0.6118 -0.1894
 8754SOL    HW137724   0.597   1.608  16.743 -0.2298 -0.0907  0.6686
 8754SOL    HW237725   0.466   1.592  16.660 -1.2417  1.0283 -0.4669
 8755SOL     OW37726   4.237   2.276  14.586 -0.1329  0.5815 -0.2598
 8755SOL    HW137727   4.251   2.196  14.535  0.1172  0.9926 -0.8301
 8755SOL    HW237728   4.321   2.317  14.568 -0.4273  0.2910 -2.3097
 8756SOL     OW37729   3.218   3.200   4.930 -0.2047  0.1050 -0.4149
 8756SOL    HW137730   3.146   3.163   4.981  0.6192 -2.4788 -1.1153
 8756SOL    HW237731   3.189   3.290   4.922 -2.5868 -0.8130 -2.0849
 8757SOL     OW37732   0.766   3.570   6.999 -0.1108  0.3809  0.0161
 8757SOL    HW137733   0.695   3.601   7.055 -1.7100  0.3158 -1.9885
 8757SOL    HW237734   0.803   3.494   7.043 -1.4480 -1.5292 -2.1745
 8758SOL     OW37735   1.620   1.679   5.727 -0.4374 -0.3265 -0.5283
 8758SOL    HW137736   1.685   1.716   5.668 -0.4101 -1.5338 -1.2480
 8758SOL    HW237737   1.652   1.722   5.807 -0.3865 -0.1444 -0.6468
 8759SOL     OW37738   2.478   0.581   2.540  0.1797 -0.2523  0.0932
 8759SOL    HW137739   2.493   0.557   2.448  1.3554  2.6097 -0.4703
 8759SOL    HW237740   2.469   0.496   2.583  3.2488 -1.2996 -1.2955
 8760SOL     OW37741   1.983   0.237  15.088  0.3418  0.4227 -0.1645
 8760SOL    HW137742   1.969   0.161  15.146 -0.8697  0.2496 -0.6813
 8760SOL    HW237743   2.044   0.196  15.027 -0.5147 -0.9064 -0.1389
 8761SOL     OW37744   3.280   2.411  16.142 -0.0801  0.0565 -0.1081
 8761SOL    HW137745   3.345   2.454  16.198  0.2443  2.5970 -2.4880
 8761SOL    HW237746   3.256   2.481  16.082 -2.1909 -0.0552  0.5971
 8762SOL     OW37747   1.209   3.791  13.019  0.9054 -0.1107 -0.8168
 8762SOL    HW137748   1.204   3.887  13.015  0.1006 -0.1263 -0.3174
 8762SOL    HW237749   1.125   3.774  12.976 -0.5468  1.0220  1.4981
 8763SOL     OW37750   1.828   0.292   3.723 -0.8098  0.4533  0.1768
 8763SOL    HW137751   1.897   0.282   3.789 -0.7941 -0.9237 -0.0483
 8763SOL    HW237752   1.746   0.293   3.772 -0.7133 -1.0739  0.3803
 8764SOL     OW37753   0.314   1.772   1.149  0.0173 -0.0942  0.5178
 8764SOL    HW137754   0.252   1.740   1.215  1.7652 -2.5619  0.9314
 8764SOL    HW237755   0.290   1.865   1.144  0.4796 -0.1541 -2.5661
 8765SOL     OW37756   1.168   1.432   6.855  0.1435 -0.3480  0.2071
 8765SOL    HW137757   1.223   1.354   6.844 -0.9480 -0.8887 -1.3940
 8765SOL    HW237758   1.235   1.492   6.889  0.9097 -0.0415 -1.8293
 8766SOL     OW37759   3.216   0.255  12.377 -0.1611  0.0054  0.1494
 8766SOL    HW137760   3.226   0.305  12.458 -0.8583  2.0694 -1.0298
 8766SOL    HW237761   3.231   0.167  12.410 -1.8778  0.1991  1.4132
 8767SOL     OW37762   2.577   2.916   6.072 -0.4640  0.3163 -0.0805
 8767SOL    HW137763   2.602   2.857   6.143  1.0301 -1.2507 -1.9103
 8767SOL    HW237764   2.508   2.867   6.027  0.1828  1.1784 -2.0165
 8768SOL     OW37765   3.094   2.214   4.673  0.5660  0.1689  0.6017
 8768SOL    HW137766   3.024   2.267   4.712 -0.6548  0.0489 -1.4527
 8768SOL    HW237767   3.129   2.179   4.755 -1.9456 -0.0191  1.5952
 8769SOL     OW37768   0.812   4.699   8.255  0.1736  0.1802  0.0278
 8769SOL    HW137769   0.905   4.693   8.231 -0.4301  0.4423 -2.3321
 8769SOL    HW237770   0.786   0.050   8.194  0.3250  0.4951  0.3119
 8770SOL     OW37771   3.336   1.385   5.961  0.1221  0.2086 -0.0110
 8770SOL    HW137772   3.394   1.335   6.018  2.5971  2.2129 -0.7843
 8770SOL    HW237773   3.347   1.472   6.000 -1.6340  1.0043 -1.2963
 8771SOL     OW37774   3.703   1.272   7.679  0.0618 -0.4771 -0.5037
 8771SOL    HW137775   3.741   1.254   7.593  2.2678  1.3533  0.0793
 8771SOL    HW237776   3.779   1.273   7.737 -0.2458  1.9120 -0.1629
 8772SOL     OW37777   4.515   0.808   0.159  0.2912 -0.0913  0.1100
 8772SOL    HW137778   4.485   0.875   0.220  0.0446  0.9895 -1.2158
 8772SOL    HW237779   4.610   0.802   0.172  0.6326 -2.3434 -3.4322
 8773SOL     OW37780   3.012   3.507  16.232 -0.2027  0.8262 -0.1111
 8773SOL    HW137781   3.072   3.534  16.302 -1.8863  1.4635  1.0942
 8773SOL    HW237782   3.026   3.579  16.171  2.3459  0.5766  0.1764
 8774SOL     OW37783   1.406   2.968   0.827  0.5818 -0.1273 -0.1752
 8774SOL    HW137784   1.468   2.938   0.760  1.6530  0.8706  0.3782
 8774SOL    HW237785   1.429   2.903   0.893  0.5431 -0.1570 -0.1909
 8775SOL     OW37786   2.030   4.220   1.260  0.4545 -0.7572 -0.6926
 8775SOL    HW137787   2.113   4.242   1.303 -0.0011 -0.3930 -0.0102
 8775SOL    HW237788   2.000   4.304   1.225 -0.2313 -0.4354  0.6980
 8776SOL     OW37789   2.664   1.402  14.029  0.3370 -0.7412  0.3394
 8776SOL    HW137790   2.569   1.391  14.026  0.3476 -0.4381 -1.1921
 8776SOL    HW237791   2.665   1.442  13.942 -0.7935 -1.3010  0.0606
 8777SOL     OW37792   1.040   1.135  13.332 -0.0727 -0.5054 -0.3196
 8777SOL    HW137793   1.052   1.060  13.389 -1.7333 -1.1205 -0.7780
 8777SOL    HW237794   1.079   1.091  13.256  4.5305  2.9019  0.0773
 8778SOL     OW37795   2.961   4.445   8.015 -0.0717  0.3281  0.0860
 8778SOL    HW137796   2.919   4.530   7.999 -0.9191 -0.0147  0.4856
 8778SOL    HW237797   3.043   4.451   7.967  0.8248 -1.5443  1.4075
 8779SOL     OW37798   4.586   3.256   7.761  0.0642 -0.4775 -0.1940
 8779SOL    HW137799   4.592   3.274   7.667 -1.4986 -2.1556 -0.6267
 8779SOL    HW237800   4.499   3.292   7.777  0.3206 -0.6030  1.4666
 8780SOL     OW37801   1.090   1.235  14.740  0.4455 -0.2760 -0.1865
 8780SOL    HW137802   1.033   1.173  14.694 -0.3296  0.3234 -0.0244
 8780SOL    HW237803   1.159   1.242  14.674 -0.3967 -0.5503 -1.0891
 8781SOL     OW37804   0.714   3.488  15.329 -0.0478  0.1159 -0.2834
 8781SOL    HW137805   0.672   3.573  15.311 -2.3178 -0.4868  2.1629
 8781SOL    HW237806   0.772   3.475  15.253  1.9276 -0.4131  1.3280
 8782SOL     OW37807   3.461   1.370   5.367 -0.5203 -0.0856  0.0877
 8782SOL    HW137808   3.427   1.309   5.433  0.2951  0.8962  1.4053
 8782SOL    HW237809   3.394   1.369   5.298  2.2490 -1.3083 -2.5932
 8783SOL     OW37810   2.763   3.100   5.341 -0.0004 -0.5059  0.1180
 8783SOL    HW137811   2.698   3.053   5.290 -0.1775 -1.1538  0.9299
 8783SOL    HW237812   2.850   3.074   5.311  0.6990  0.6457  1.1193
 8784SOL     OW37813   4.570   1.115   8.412  0.5378  0.1124 -0.1777
 8784SOL    HW137814   4.514   1.041   8.389 -0.5118  1.1590 -1.0349
 8784SOL    HW237815   4.621   1.064   8.475  0.5937 -2.3838 -2.2228
 8785SOL     OW37816   3.085   4.451   4.307  0.0561 -0.4436 -0.7245
 8785SOL    HW137817   3.108   4.371   4.259 -0.2608 -0.3297 -1.0610
 8785SOL    HW237818   3.003   4.459   4.258 -1.6274  0.9686  2.2951
 8786SOL     OW37819   0.320   4.597   6.312 -0.1035 -0.1936 -0.2111
 8786SOL    HW137820   0.277   4.520   6.348 -0.3681 -0.2503 -0.6493
 8786SOL    HW237821   0.369   4.551   6.244  0.8104  2.6848 -1.5183
 8787SOL     OW37822   0.726   1.303   7.368 -0.2212  0.0530 -0.5450
 8787SOL    HW137823   0.805   1.249   7.378 -0.4724 -0.0831  0.7858
 8787SOL    HW237824   0.707   1.312   7.461  2.6320  1.4949 -0.1144
 8788SOL     OW37825   2.038   0.460   6.206  0.0255 -0.5649  0.8870
 8788SOL    HW137826   2.122   0.413   6.212 -0.0140 -0.5583  1.4134
 8788SOL    HW237827   2.058   0.549   6.235 -1.8015 -0.2766  1.2398
 8789SOL     OW37828   0.784   4.580  10.068 -0.0979  0.1456  0.4971
 8789SOL    HW137829   0.795   4.497  10.022  3.0032  0.8076  0.0703
 8789SOL    HW237830   0.698   4.561  10.106  0.0017 -0.6048  0.3459
 8790SOL     OW37831   1.993   3.662   3.831 -0.3043  0.1191 -0.1533
 8790SOL    HW137832   1.995   3.605   3.908  0.4033  1.1599  0.6202
 8790SOL    HW237833   1.976   3.746   3.874  0.3597 -1.4159  3.0809
 8791SOL     OW37834   1.527   1.132  14.544 -0.1325  0.4156  0.1994
 8791SOL    HW137835   1.596   1.197  14.557 -0.0061  0.6764 -1.7321
 8791SOL    HW237836   1.578   1.051  14.551 -2.0962 -0.9169 -0.8245
 8792SOL     OW37837   0.433   4.647  10.109  0.4184  0.1822  0.2177
 8792SOL    HW137838   0.488   4.588  10.160 -1.5374 -0.5699  1.4830
 8792SOL    HW237839   0.362   4.585  10.088  1.8195 -1.3995  0.1241
 8793SOL     OW37840   1.382   3.353   7.188  0.1060 -0.1647  0.1370
 8793SOL    HW137841   1.441   3.286   7.221 -1.4692 -0.9563  1.3103
 8793SOL    HW237842   1.307   3.297   7.169 -0.6386  0.5738  0.9450
 8794SOL     OW37843   4.046   2.871  11.763  0.0221 -0.5033  0.2371
 8794SOL    HW137844   4.116   2.924  11.724 -0.1930 -0.4256 -0.0417
 8794SOL    HW237845   4.031   2.807  11.694 -1.5465 -1.0742  1.0962
 8795SOL     OW37846   2.820   0.664   3.329  0.0308 -0.0322  0.7297
 8795SOL    HW137847   2.752   0.599   3.312 -0.3363  1.5272 -3.9114
 8795SOL    HW237848   2.881   0.643   3.258 -0.2841  0.8946  0.1869
 8796SOL     OW37849   0.583   3.170  15.329 -0.4093 -0.0296  0.0122
 8796SOL    HW137850   0.670   3.210  15.335 -0.9345  0.5623  3.4002
 8796SOL    HW237851   0.527   3.248  15.337 -2.0550 -1.1219 -0.7782
 8797SOL     OW37852   0.607   0.846   5.262 -1.1916 -0.0338  0.6112
 8797SOL    HW137853   0.632   0.889   5.344 -1.6545 -1.3151  1.4287
 8797SOL    HW237854   0.572   0.763   5.294 -2.1177 -0.6990 -2.1133
 8798SOL     OW37855   3.469   3.014   2.336  0.6058 -0.1275 -0.0933
 8798SOL    HW137856   3.444   3.104   2.357 -1.7025 -0.3839 -1.7455
 8798SOL    HW237857   3.469   2.972   2.422  0.3228  2.6679  1.2746
 8799SOL     OW37858   2.982   3.998  16.692  0.5123  0.6405 -0.2958
 8799SOL    HW137859   2.950   3.912  16.664 -0.8966  0.8311  0.7065
 8799SOL    HW237860   3.066   3.992  16.647  0.4781 -0.6228 -0.1831
 8800SOL     OW37861   0.305   0.869   6.607 -0.2553 -0.1685  0.5163
 8800SOL    HW137862   0.366   0.857   6.680 -0.1167  0.7445  0.5605
 8800SOL    HW237863   0.356   0.917   6.542 -2.2620  1.9881  0.5344
 8801SOL     OW37864   2.551   2.066   6.421  0.3727 -0.1224 -0.2297
 8801SOL    HW137865   2.471   2.080   6.472 -1.8263 -1.9504 -3.1788
 8801SOL    HW237866   2.565   2.148   6.375 -1.3311 -1.1581 -2.6134
 8802SOL     OW37867   1.618   4.286  10.774  0.3486  0.8166 -0.2763
 8802SOL    HW137868   1.599   4.226  10.847 -0.3619 -1.5139 -2.3845
 8802SOL    HW237869   1.539   4.339  10.782  0.7930  1.6050 -1.0853
 8803SOL     OW37870   1.869   3.028  10.105 -0.1756  0.3977  0.0607
 8803SOL    HW137871   1.825   2.944  10.116 -2.4209  1.2366 -2.4325
 8803SOL    HW237872   1.910   3.000  10.024  0.2088 -0.8774  0.6972
 8804SOL     OW37873   4.191   2.408  13.500  0.3041  0.3922  0.1158
 8804SOL    HW137874   4.144   2.459  13.566 -0.8521 -1.3485  0.6341
 8804SOL    HW237875   4.155   2.458  13.427  1.2356  0.3171 -0.3928
 8805SOL     OW37876   0.806   4.626   6.760  0.1908 -0.3813  0.6550
 8805SOL    HW137877   0.896   4.649   6.737 -0.3218  1.3663  0.4486
 8805SOL    HW237878   0.790   4.691   6.828  0.3581  1.6290 -1.2552
 8806SOL     OW37879   1.050   3.715  17.245  0.3749  0.3443 -0.5132
 8806SOL    HW137880   1.052   3.800  17.199  1.3543  0.7448  0.2917
 8806SOL    HW237881   1.089   3.655  17.181  2.2752  0.1759  0.8283
 8807SOL     OW37882   1.004   1.136   3.881 -0.0086 -0.1120 -0.3608
 8807SOL    HW137883   1.073   1.201   3.865  0.8066 -0.7605  0.4792
 8807SOL    HW237884   1.044   1.116   3.966 -0.7324  0.6158  0.1537
 8808SOL     OW37885   3.898   1.268   7.898  0.0292 -0.5153  0.8553
 8808SOL    HW137886   3.864   1.263   7.987  0.7023 -1.9110  1.0237
 8808SOL    HW237887   3.975   1.324   7.909 -0.2448  0.0181  0.1091
 8809SOL     OW37888   1.076   1.293   7.166 -0.1408 -0.0819  0.0615
 8809SOL    HW137889   1.052   1.294   7.258 -3.3915 -0.5065 -0.7925
 8809SOL    HW237890   1.132   1.370   7.172  0.1201 -0.2935  0.3187
 8810SOL     OW37891   2.710   3.934   5.072  0.3615 -0.2356 -0.6925
 8810SOL    HW137892   2.679   4.023   5.055  1.2220  0.2684  0.3600
 8810SOL    HW237893   2.627   3.887   5.085  0.9170 -0.9427  0.3347
 8811SOL     OW37894   0.163   3.641   6.273 -0.4316 -0.0637  0.6206
 8811SOL    HW137895   0.185   3.677   6.360  2.3568  0.3146 -0.2389
 8811SOL    HW237896   0.103   3.567   6.280 -1.2911  0.3870 -2.0357
 8812SOL     OW37897   4.229   0.225   6.848 -0.4741 -0.5075  0.6194
 8812SOL    HW137898   4.194   0.167   6.915 -1.0953  2.0113  2.4847
 8812SOL    HW237899   4.194   0.311   6.874 -0.2443  0.3360 -1.8533
 8813SOL     OW37900   4.428   2.083   5.970  0.3005  0.0044 -0.8515
 8813SOL    HW137901   4.498   2.106   5.909 -0.3205 -1.3414 -2.0975
 8813SOL    HW237902   4.442   1.990   5.989 -0.2237 -0.1573 -1.2418
 8814SOL     OW37903   2.534   1.323   5.416 -0.0481 -0.1000  0.1630
 8814SOL    HW137904   2.456   1.268   5.409  0.9697 -1.3935 -0.9342
 8814SOL    HW237905   2.504   1.410   5.391 -3.1162 -0.9503  0.8286
 8815SOL     OW37906   0.448   1.218  11.760  0.2315  0.1690  0.4228
 8815SOL    HW137907   0.380   1.194  11.697 -0.9045  0.1291  1.6704
 8815SOL    HW237908   0.446   1.314  11.763 -0.9990  0.1079  1.3954
 8816SOL     OW37909   3.083   1.518   5.086 -0.5729 -0.0920 -0.4391
 8816SOL    HW137910   3.075   1.613   5.078  5.0155  0.3755 -0.6466
 8816SOL    HW237911   3.176   1.496   5.094 -0.3163  1.3095  0.5566
 8817SOL     OW37912   3.454   2.470   7.706  0.0890  0.2354 -0.3176
 8817SOL    HW137913   3.505   2.484   7.786  0.7414 -0.3197 -0.6409
 8817SOL    HW237914   3.397   2.398   7.731  1.1029 -0.4193  0.1108
 8818SOL     OW37915   0.051   2.611   8.865 -0.4142 -0.2300 -0.1828
 8818SOL    HW137916   0.073   2.570   8.948 -1.1534  1.9182  1.0646
 8818SOL    HW237917   0.093   2.697   8.856  1.2975 -1.2657 -2.2918
 8819SOL     OW37918   1.076   4.652   8.171  0.3588 -0.2192  0.2515
 8819SOL    HW137919   1.067   4.556   8.169  1.3280 -0.3414  1.4703
 8819SOL    HW237920   1.170   4.667   8.171  0.4504 -0.7417 -1.8430
 8820SOL     OW37921   1.478   4.008  17.511  0.0631 -0.5711 -0.1887
 8820SOL    HW137922   1.387   4.011  17.483 -0.0935  0.6319  0.4387
 8820SOL    HW237923   1.509   4.062  17.438 -0.0247 -2.1177 -1.3667
 8821SOL     OW37924   1.121   3.993   0.829  0.3003  0.1529  0.5627
 8821SOL    HW137925   1.122   4.060   0.760  0.5983 -2.6689 -2.2004
 8821SOL    HW237926   1.033   3.994   0.865 -1.0224  0.1086 -2.6676
 8822SOL     OW37927   4.629   4.434   3.473  0.0565 -0.4272  0.5821
 8822SOL    HW137928   4.672   4.484   3.404 -0.7648  1.0064  1.1205
 8822SOL    HW237929   4.554   4.490   3.492  1.7192  1.3912  1.8037
 8823SOL     OW37930   0.270   0.413   5.337  0.9650  0.5254  0.0930
 8823SOL    HW137931   0.261   0.317   5.337 -1.9630  0.7892 -0.2648
 8823SOL    HW237932   0.333   0.424   5.266  0.6964  2.3958  0.1405
 8824SOL     OW37933   1.813   4.084   1.978 -0.2787  0.1674 -0.1735
 8824SOL    HW137934   1.812   3.989   1.991 -1.1763  0.0980 -0.7765
 8824SOL    HW237935   1.735   4.109   2.027  0.5569  2.3576  0.0687
 8825SOL     OW37936   0.620   1.916   4.881 -0.1103  0.4463  0.1140
 8825SOL    HW137937   0.634   1.840   4.937  3.0480  2.1182  1.6049
 8825SOL    HW237938   0.694   1.903   4.822  1.3120 -0.7667  2.1737
 8826SOL     OW37939   3.806   2.118   5.573  0.3730 -0.2345  0.3098
 8826SOL    HW137940   3.819   2.023   5.572  1.1199 -0.1100 -1.2303
 8826SOL    HW237941   3.785   2.134   5.481 -1.0882 -1.4315  0.4313
 8827SOL     OW37942   3.960   0.556   6.610 -0.0887 -0.6891  0.0363
 8827SOL    HW137943   3.953   0.491   6.680  0.0662 -1.5025 -0.7009
 8827SOL    HW237944   3.868   0.552   6.583  0.6331  0.1482 -2.4736
 8828SOL     OW37945   0.534   2.939  13.667 -0.1740 -0.2113 -0.4082
 8828SOL    HW137946   0.609   2.964  13.721 -0.1124 -0.2494 -0.4764
 8828SOL    HW237947   0.565   2.960  13.580 -2.3204  3.5592 -0.2716
 8829SOL     OW37948   2.016   4.632   1.514  0.4702 -0.5088 -0.5332
 8829SOL    HW137949   1.933   4.680   1.510  0.4235 -0.3274  2.6316
 8829SOL    HW237950   2.055   4.676   1.590  0.7545 -0.0432 -0.9449
 8830SOL     OW37951   4.326   0.408   6.526  0.4119  0.0603  0.4187
 8830SOL    HW137952   4.316   0.319   6.561  0.1976 -0.6493 -1.4527
 8830SOL    HW237953   4.250   0.409   6.468 -0.2654 -0.6757  1.2856
 8831SOL     OW37954   1.914   2.579   8.340  0.0230 -0.3289 -0.0810
 8831SOL    HW137955   1.906   2.484   8.335  1.2256 -0.4494  0.2749
 8831SOL    HW237956   1.913   2.593   8.245  0.2390  0.7158  0.0775
 8832SOL     OW37957   0.978   1.014  15.895 -0.1578  0.5593  1.1722
 8832SOL    HW137958   0.957   1.061  15.975 -3.0225  1.4881 -0.1356
 8832SOL    HW237959   0.927   1.062  15.830  0.2662  0.4408  0.7466
 8833SOL     OW37960   1.075   1.386   6.216 -0.4785 -0.4683 -0.0751
 8833SOL    HW137961   1.100   1.304   6.259 -1.8337 -0.9479 -0.2190
 8833SOL    HW237962   1.052   1.433   6.296 -2.8271 -0.3409 -0.8314
 8834SOL     OW37963   1.252   3.645   6.690 -0.5638  0.1792  0.7157
 8834SOL    HW137964   1.305   3.666   6.613  0.3402  0.3522  1.3833
 8834SOL    HW237965   1.319   3.640   6.757  1.3284  1.3603 -1.0850
 8835SOL     OW37966   0.405   2.521   0.871  0.3678  0.5957  0.4696
 8835SOL    HW137967   0.492   2.547   0.901  0.6717  2.3622 -1.9461
 8835SOL    HW237968   0.362   2.606   0.861  0.6437  0.5503 -1.0894
 8836SOL     OW37969   3.107   1.649   5.966 -0.5601  0.0888  0.3584
 8836SOL    HW137970   3.057   1.568   5.976 -1.5660  0.7035  0.3010
 8836SOL    HW237971   3.169   1.641   6.039  1.0977 -1.3429 -1.2206
 8837SOL     OW37972   4.070   0.061   2.673 -0.3765  0.1385 -0.4621
 8837SOL    HW137973   4.023   4.695   2.677  1.3760 -0.7334  1.9521
 8837SOL    HW237974   4.026   0.100   2.598  0.4859 -0.7970 -1.4584
 8838SOL     OW37975   0.560   1.924   6.231  0.0474  0.8471 -0.3619
 8838SOL    HW137976   0.525   1.950   6.316 -2.8825 -2.3506 -0.6035
 8838SOL    HW237977   0.655   1.936   6.237  0.0979 -0.7531  1.7462
 8839SOL     OW37978   2.392   3.107   6.146 -0.1806  0.1302 -0.4519
 8839SOL    HW137979   2.461   3.042   6.130  1.7285  1.8111  0.9915
 8839SOL    HW237980   2.322   3.044   6.165  0.0323 -0.0591 -0.2954
 8840SOL     OW37981   2.300   4.373  13.684  0.3149  0.0987  0.1049
 8840SOL    HW137982   2.266   4.462  13.696 -1.8143 -1.0258  2.4852
 8840SOL    HW237983   2.365   4.373  13.754 -0.7224  0.3966  1.0768
 8841SOL     OW37984   1.131   2.343   2.287 -0.2730 -0.0513  0.0294
 8841SOL    HW137985   1.213   2.335   2.336 -0.5470  0.4315  0.5594
 8841SOL    HW237986   1.149   2.434   2.263 -1.8843 -0.0765 -1.2101
 8842SOL     OW37987   2.303   4.237   3.239 -0.2140 -0.6206 -0.0290
 8842SOL    HW137988   2.302   4.324   3.199 -0.2581  0.4887  2.3893
 8842SOL    HW237989   2.256   4.181   3.177 -2.1045 -2.3030  2.8999
 8843SOL     OW37990   0.691   1.610  13.618 -0.0934  0.2524  0.1108
 8843SOL    HW137991   0.704   1.520  13.651  0.1740  1.7826  4.1627
 8843SOL    HW237992   0.647   1.643  13.696  1.0248  2.9002 -0.3711
 8844SOL     OW37993   3.226   4.627   3.515 -0.3954 -0.4153  0.6531
 8844SOL    HW137994   3.233   0.004   3.502  0.2131 -0.5095  0.2888
 8844SOL    HW237995   3.215   4.625   3.610  2.7030 -0.1191  1.0234
 8845SOL     OW37996   4.112   3.628   0.960 -0.3681  0.0665 -0.2706
 8845SOL    HW137997   4.022   3.600   0.943 -0.3695  0.4790 -0.9346
 8845SOL    HW237998   4.080   3.684   1.030 -2.3666 -1.0936 -0.2567
 8846SOL     OW37999   0.551   0.522   2.086  0.0847 -0.2578  0.0918
 8846SOL    HW138000   0.634   0.570   2.085 -1.2212  1.9855 -2.3645
 8846SOL    HW238001   0.575   0.429   2.093  0.6115 -0.2392 -1.5074
 8847SOL     OW38002   3.069   2.798   3.291 -0.2233 -0.2184  0.7899
 8847SOL    HW138003   2.985   2.823   3.329 -2.4804 -2.5054 -2.7203
 8847SOL    HW238004   3.045   2.708   3.267  0.7835 -0.4937  0.8090
 8848SOL     OW38005   3.642   3.893   5.174 -0.3216  0.0740  0.2342
 8848SOL    HW138006   3.690   3.832   5.230  2.0839 -0.2273 -2.1114
 8848SOL    HW238007   3.625   3.850   5.090 -1.5174  1.7819 -0.4047
 8849SOL     OW38008   2.356   2.130   3.605  0.2810  0.1455 -0.1652
 8849SOL    HW138009   2.285   2.087   3.653  0.1989  0.5652  0.0826
 8849SOL    HW238010   2.310   2.212   3.588 -1.3161 -0.8431 -0.6599
 8850SOL     OW38011   3.508   2.066   4.027 -0.2948 -0.2888  0.5293
 8850SOL    HW138012   3.520   2.153   4.065  1.4487  0.0597 -0.7903
 8850SOL    HW238013   3.516   2.090   3.935  0.9473  0.1919  0.7586
 8851SOL     OW38014   3.945   3.908   3.835 -0.3810 -0.6758 -0.6395
 8851SOL    HW138015   3.885   3.976   3.864 -1.0450 -1.2523 -0.6748
 8851SOL    HW238016   3.986   3.948   3.758  3.2353 -0.6082  1.2879
 8852SOL     OW38017   2.748   3.393   2.700  0.0680 -0.1385  0.8134
 8852SOL    HW138018   2.839   3.372   2.679 -0.6770 -2.8589  0.3324
 8852SOL    HW238019   2.726   3.325   2.764  0.2297 -1.7694 -0.8657
 8853SOL     OW38020   1.052   3.094  10.306 -0.1975 -0.6154  0.0912
 8853SOL    HW138021   1.041   3.001  10.283 -0.2996 -0.1118 -1.9185
 8853SOL    HW238022   1.072   3.129  10.219  1.0648  0.7971  0.9451
 8854SOL     OW38023   3.695   0.985   8.975  0.1837  0.3063 -0.4923
 8854SOL    HW138024   3.722   1.069   8.940  0.9564  1.0615  1.9290
 8854SOL    HW238025   3.779   0.946   9.001 -0.7555 -1.4444 -0.0706
 8855SOL     OW38026   0.136   4.125  14.642 -0.0154 -0.5528 -0.1036
 8855SOL    HW138027   0.130   4.217  14.667 -0.2400 -0.7885  0.7091
 8855SOL    HW238028   0.098   4.085  14.720 -1.9627  0.9440 -0.2886
 8856SOL     OW38029   4.428   0.059   7.452  0.3034  0.0428  0.0814
 8856SOL    HW138030   4.457   0.081   7.363  2.0464 -3.2143 -0.1691
 8856SOL    HW238031   4.452   0.143   7.492 -1.0896  0.7619 -0.5768
 8857SOL     OW38032   2.958   3.958   7.778 -0.6884 -0.1527  0.4912
 8857SOL    HW138033   2.957   3.925   7.688  0.3908 -2.4464  1.3372
 8857SOL    HW238034   2.953   4.053   7.763  0.3248 -0.4804 -1.9138
 8858SOL     OW38035   2.387   1.020   5.667  0.1899  0.2397  0.4438
 8858SOL    HW138036   2.373   1.104   5.710 -0.3113  0.7664 -0.7359
 8858SOL    HW238037   2.402   1.048   5.577 -3.4005 -1.3740 -0.6772
 8859SOL     OW38038   0.625   2.591   1.959 -0.1067  0.0475 -0.0205
 8859SOL    HW138039   0.561   2.540   2.007  4.0772 -4.2607  0.9734
 8859SOL    HW238040   0.676   2.524   1.913 -0.5943  2.0741 -3.5347
 8860SOL     OW38041   2.305   0.310  11.136  0.1501 -0.2654  0.5073
 8860SOL    HW138042   2.343   0.224  11.115 -1.5255 -0.4949 -1.6101
 8860SOL    HW238043   2.335   0.362  11.062  2.2984 -1.3920  0.5879
 8861SOL     OW38044   3.627   2.166   8.168  0.0139 -0.4724  0.1559
 8861SOL    HW138045   3.681   2.199   8.240 -1.5174  0.2409  0.9824
 8861SOL    HW238046   3.698   2.145   8.107 -0.4358 -2.7411  0.4410
 8862SOL     OW38047   0.858   0.861   4.459  0.3792  0.4984 -0.6181
 8862SOL    HW138048   0.803   0.917   4.404  0.1658 -0.9540 -1.8689
 8862SOL    HW238049   0.804   0.782   4.463  2.0883 -0.6218  0.2838
 8863SOL     OW38050   2.364   2.931  11.307 -0.6790  0.3072 -0.0240
 8863SOL    HW138051   2.295   2.866  11.291 -1.1077  1.0558 -1.2260
 8863SOL    HW238052   2.393   2.928  11.398  1.2029  0.4782 -0.6186
 8864SOL     OW38053   2.866   0.148   1.829 -0.0133  0.7537 -0.0014
 8864SOL    HW138054   2.865   0.208   1.754  1.0717 -1.7256 -2.0143
 8864SOL    HW238055   2.873   0.065   1.781  3.2750  1.4175 -0.6657
 8865SOL     OW38056   1.582   3.913  17.220  0.4795  0.2861  0.3213
 8865SOL    HW138057   1.514   3.891  17.157 -0.2815  0.2625  1.1534
 8865SOL    HW238058   1.604   3.824  17.248  3.4460  1.0894  0.6049
 8866SOL     OW38059   3.253   1.467   3.561  0.0080  0.0176 -0.2748
 8866SOL    HW138060   3.223   1.478   3.652  0.6052  0.0895 -0.0864
 8866SOL    HW238061   3.314   1.539   3.548 -1.7107  1.4971 -0.1681
 8867SOL     OW38062   4.574   3.238   1.413 -0.6698  0.0206  0.5927
 8867SOL    HW138063   4.521   3.161   1.392 -1.6573  0.6413  0.8099
 8867SOL    HW238064   4.513   3.311   1.398 -0.2452 -0.4246 -3.3041
 8868SOL     OW38065   3.616   3.084   9.881 -0.6034 -0.0721  0.1030
 8868SOL    HW138066   3.657   3.171   9.885  1.4682 -1.0156 -0.5440
 8868SOL    HW238067   3.703   3.044   9.883  0.0846  1.4729  1.0172
 8869SOL     OW38068   2.710   1.569   4.835  0.3193 -0.0222 -0.4151
 8869SOL    HW138069   2.619   1.542   4.846  0.0319  1.1437  0.0767
 8869SOL    HW238070   2.698   1.651   4.788  1.1688 -0.5224 -1.5136
 8870SOL     OW38071   0.879   4.129   6.129 -0.0305 -0.2475 -0.3452
 8870SOL    HW138072   0.812   4.095   6.070 -1.5096 -1.1024  1.8291
 8870SOL    HW238073   0.960   4.103   6.085 -1.1618 -2.4749 -1.1183
 8871SOL     OW38074   0.919   4.261   4.263  0.2308 -0.2920  0.4283
 8871SOL    HW138075   0.865   4.265   4.342  1.7300 -3.2441  1.6497
 8871SOL    HW238076   1.005   4.263   4.306 -0.7938 -1.6005  2.5655
 8872SOL     OW38077   3.401   0.169   6.093 -0.3431  0.3876 -0.1846
 8872SOL    HW138078   3.417   0.240   6.156 -1.4776 -0.4026  0.9936
 8872SOL    HW238079   3.454   0.096   6.125 -1.3563  0.0577  0.7114
 8873SOL     OW38080   1.637   1.379   5.602  0.0978 -0.0554 -0.2192
 8873SOL    HW138081   1.715   1.345   5.647 -1.5723 -3.4158  0.1467
 8873SOL    HW238082   1.619   1.455   5.658 -1.1546 -1.1649  0.8757
 8874SOL     OW38083   3.705   0.199   1.906  0.7569  0.5721  0.0263
 8874SOL    HW138084   3.637   0.154   1.856  0.7442  0.0207  0.5398
 8874SOL    HW238085   3.773   0.132   1.911  0.1263  0.0095  0.9533
 8875SOL     OW38086   0.702   0.556  17.649 -0.5085 -0.3229  0.6307
 8875SOL    HW138087   0.740   0.591   0.055  1.9774  2.1034 -1.6537
 8875SOL    HW238088   0.677   0.635  17.602  0.9492 -0.3906 -0.2628
 8876SOL     OW38089   0.900   0.382   4.990 -0.0186 -0.8569  0.1143
 8876SOL    HW138090   0.869   0.466   5.024  0.6081 -0.4349 -0.3500
 8876SOL    HW238091   0.986   0.381   5.031  0.0101  0.9043  0.1029
 8877SOL     OW38092   1.147   2.320  13.120  0.1206 -0.6640  0.9672
 8877SOL    HW138093   1.068   2.324  13.067  0.2692  2.7613  1.0157
 8877SOL    HW238094   1.171   2.413  13.115 -0.2478 -0.5954  0.4635
 8878SOL     OW38095   1.255   0.545   4.670 -0.0096 -0.1515  0.0016
 8878SOL    HW138096   1.216   0.462   4.696  0.5732 -0.1486  0.8863
 8878SOL    HW238097   1.298   0.538   4.584  1.5655 -0.8482  0.8397
 8879SOL     OW38098   3.896   1.501   0.297 -0.4349 -0.5369 -0.4726
 8879SOL    HW138099   3.870   1.562   0.366  1.5302  0.0039 -0.2126
 8879SOL    HW238100   3.867   1.419   0.337 -0.0889 -0.7226 -0.6095
 8880SOL     OW38101   0.718   2.866   5.327  0.7732  0.2975  0.4347
 8880SOL    HW138102   0.769   2.785   5.327  0.9594  0.4158 -0.0934
 8880SOL    HW238103   0.639   2.836   5.281  1.6477 -0.9662 -0.2568
 8881SOL     OW38104   4.006   0.500  15.158 -0.8498 -0.3290  0.4026
 8881SOL    HW138105   4.046   0.570  15.209 -0.4772 -0.9081  0.8927
 8881SOL    HW238106   4.068   0.496  15.085  0.9447 -1.0912  1.9900
 8882SOL     OW38107   3.674   2.813   1.347 -0.1331 -0.5032  0.3346
 8882SOL    HW138108   3.626   2.872   1.290  1.6051  1.7105  1.2016
 8882SOL    HW238109   3.605   2.786   1.409  0.6405 -1.2848  0.8598
 8883SOL     OW38110   4.092   2.988   6.481  0.8091  0.1805 -0.3980
 8883SOL    HW138111   4.089   2.969   6.575 -0.4343 -3.7325 -1.2025
 8883SOL    HW238112   4.081   2.900   6.444  2.1033  0.9032 -2.4607
 8884SOL     OW38113   4.081   3.769  11.893  0.3211 -0.5131  0.0428
 8884SOL    HW138114   4.155   3.826  11.914 -0.0685  0.0217 -0.0659
 8884SOL    HW238115   4.033   3.809  11.821  2.0694 -1.8597 -1.9209
 8885SOL     OW38116   2.220   2.183   5.314 -0.2681  0.1106  0.3256
 8885SOL    HW138117   2.130   2.160   5.293 -0.7666 -0.0982  2.6649
 8885SOL    HW238118   2.223   2.272   5.281  0.1462 -0.6019 -1.5309
 8886SOL     OW38119   2.664   4.564  16.270 -1.1553  0.0509  0.1239
 8886SOL    HW138120   2.732   4.497  16.285 -2.3696 -1.5565 -1.5888
 8886SOL    HW238121   2.718   4.643  16.277  0.1742 -0.8324 -0.0992
 8887SOL     OW38122   0.802   0.686  14.310 -0.0721  0.4132  0.2373
 8887SOL    HW138123   0.886   0.694  14.355  0.7763  2.9860 -1.7432
 8887SOL    HW238124   0.767   0.612  14.359 -2.2523 -0.3466 -2.4858
 8888SOL     OW38125   0.143   1.497   4.148 -0.1216 -0.1387 -0.4500
 8888SOL    HW138126   0.188   1.582   4.148 -0.7136  0.1858  1.5785
 8888SOL    HW238127   0.217   1.437   4.138  1.2685  1.3343  0.9125
 8889SOL     OW38128   2.391   2.715   6.278  0.1818  0.1931  0.2081
 8889SOL    HW138129   2.380   2.727   6.183  0.2901  2.0606  0.4308
 8889SOL    HW238130   2.336   2.785   6.312  0.0152 -0.6667  1.7220
 8890SOL     OW38131   0.016   0.917   7.116 -0.1332  0.0261  0.3626
 8890SOL    HW138132   4.716   1.011   7.112  0.1518  0.0232 -1.0367
 8890SOL    HW238133   0.024   0.901   7.022  0.5401  0.4576  0.3455
 8891SOL     OW38134   2.401   3.114   1.130  0.2085  0.3318 -0.3559
 8891SOL    HW138135   2.354   3.049   1.182  0.4770 -0.2491 -0.8453
 8891SOL    HW238136   2.471   3.059   1.095 -0.5560 -1.6975  1.2841
 8892SOL     OW38137   1.876   0.037   0.764  0.1699  0.1888 -0.1163
 8892SOL    HW138138   1.965   0.023   0.797 -0.2401  0.9043  1.2541
 8892SOL    HW238139   1.831   4.670   0.764  0.4483  0.0506  0.8108
 8893SOL     OW38140   4.129   1.066   6.560  0.3860 -0.1428  0.1797
 8893SOL    HW138141   4.072   1.110   6.624 -0.0303 -0.7918  0.2513
 8893SOL    HW238142   4.126   0.980   6.602 -1.3717 -0.5652 -0.8063
 8894SOL     OW38143   1.165   0.317   5.073 -0.0363  0.4497  0.4992
 8894SOL    HW138144   1.192   0.281   5.158  1.0682 -0.1669 -0.1033
 8894SOL    HW238145   1.236   0.373   5.042 -0.9911  0.2820 -1.9753
 8895SOL     OW38146   1.392   2.570   0.752 -0.3238  0.0246  0.3506
 8895SOL    HW138147   1.409   2.476   0.759 -0.3725  0.0087  0.2529
 8895SOL    HW238148   1.375   2.591   0.844  1.1613  0.6394  0.4831
 8896SOL     OW38149   2.956   2.442   8.367 -0.1341  0.2919  0.6811
 8896SOL    HW138150   2.982   2.451   8.275 -2.2128 -0.5013  0.0109
 8896SOL    HW238151   2.984   2.522   8.411 -1.0497  1.9144 -1.7276
 8897SOL     OW38152   1.936   0.369  12.794  0.2505 -0.3432 -0.3475
 8897SOL    HW138153   1.926   0.321  12.876 -2.0489 -1.6006 -1.3741
 8897SOL    HW238154   1.942   0.458  12.827  1.1890 -0.6119  0.2231
 8898SOL     OW38155   0.675   2.719  11.726 -0.3553 -0.7976  0.4578
 8898SOL    HW138156   0.624   2.671  11.791 -0.8306 -1.9407 -0.7563
 8898SOL    HW238157   0.606   2.762  11.677 -0.7000 -0.9883  0.7802
 8899SOL     OW38158   0.983   1.692   8.832  0.2844  0.0413  0.1929
 8899SOL    HW138159   0.912   1.650   8.880  1.3670 -2.7273 -0.6369
 8899SOL    HW238160   1.044   1.620   8.814 -0.4871 -0.2918 -1.0491
 8900SOL     OW38161   2.467   2.697   9.306 -0.5571 -0.6655 -0.0068
 8900SOL    HW138162   2.533   2.727   9.368 -1.8885 -1.3097  1.7285
 8900SOL    HW238163   2.390   2.691   9.362  1.2496  0.4676  2.5540
 8901SOL     OW38164   1.336   0.964   8.581 -0.5042  0.2388  0.2711
 8901SOL    HW138165   1.393   0.891   8.605  0.1623  1.7372  3.2512
 8901SOL    HW238166   1.262   0.927   8.533  0.0926 -0.6527  0.0434
 8902SOL     OW38167   3.259   3.100  12.280 -0.6280 -0.1225  0.5012
 8902SOL    HW138168   3.218   3.014  12.269 -2.5524  0.6311  1.6593
 8902SOL    HW238169   3.215   3.135  12.357 -1.4297  1.8540 -0.8543
 8903SOL     OW38170   4.564   3.658   5.247 -0.1454  0.5232  0.1186
 8903SOL    HW138171   4.646   3.671   5.199 -0.1313 -0.8666 -0.2304
 8903SOL    HW238172   4.579   3.730   5.308  0.7249 -0.2235  0.7726
 8904SOL     OW38173   0.350   4.287   8.579  0.3499 -0.5853 -0.2396
 8904SOL    HW138174   0.425   4.338   8.550 -0.2245 -0.0117 -0.7015
 8904SOL    HW238175   0.277   4.344   8.554  0.3657 -0.6216 -0.3700
 8905SOL     OW38176   1.681   0.094   3.178 -0.0124  0.4008 -0.5719
 8905SOL    HW138177   1.632   0.177   3.177 -1.3429 -0.3515  1.5884
 8905SOL    HW238178   1.665   0.065   3.268 -2.1514  2.1213 -0.3894
 8906SOL     OW38179   3.696   0.293   8.287  0.4520 -0.1008 -0.3053
 8906SOL    HW138180   3.616   0.263   8.244  1.5330 -1.6894 -1.1907
 8906SOL    HW238181   3.762   0.240   8.243  0.0611  0.6475 -1.7652
 8907SOL     OW38182   3.623   1.047   2.463  0.1945 -0.0557 -0.1217
 8907SOL    HW138183   3.576   0.964   2.461  1.6114 -0.8196 -2.3186
 8907SOL    HW238184   3.685   1.031   2.392 -0.8728  3.3648 -1.8552
 8908SOL     OW38185   3.116   1.447   3.322 -0.1544 -0.3359 -0.4397
 8908SOL    HW138186   3.142   1.367   3.275  3.1322  0.3593  0.2183
 8908SOL    HW238187   3.175   1.446   3.397  0.8097  0.5160 -1.1817
 8909SOL     OW38188   1.782   3.275   6.016  0.0108  0.1997 -0.3058
 8909SOL    HW138189   1.852   3.219   6.049 -0.1321  0.0663 -0.2249
 8909SOL    HW238190   1.742   3.219   5.950  1.4247  0.4545 -1.3672
 8910SOL     OW38191   4.465   2.313   8.384 -0.1419  0.3697 -0.2297
 8910SOL    HW138192   4.473   2.247   8.315 -0.2843 -0.0658  0.1700
 8910SOL    HW238193   4.379   2.352   8.365 -0.7857 -1.2742 -0.7156
 8911SOL     OW38194   0.137   4.352   5.315  0.4134  0.1752 -0.0618
 8911SOL    HW138195   0.119   4.277   5.258  0.8842  0.6340 -0.8052
 8911SOL    HW238196   0.144   4.305   5.399 -1.1150  0.8125  0.4297
 8912SOL     OW38197   3.935   2.261  11.096 -0.2396 -0.3458  0.1087
 8912SOL    HW138198   3.988   2.335  11.066  1.9629 -1.4762  1.1660
 8912SOL    HW238199   3.983   2.194  11.047 -0.5180  0.1592 -0.8480
 8913SOL     OW38200   0.976   1.691  13.265 -0.0168  0.2670 -0.3811
 8913SOL    HW138201   0.938   1.731  13.186 -0.0544 -1.9391 -1.4868
 8913SOL    HW238202   0.922   1.732  13.333  1.8218 -1.2774  2.0051
 8914SOL     OW38203   2.765   0.141   4.890 -0.7093  0.0623  0.3977
 8914SOL    HW138204   2.767   0.180   4.802 -1.7975  1.5983  1.0498
 8914SOL    HW238205   2.836   0.188   4.934 -0.3292  0.8366 -1.0201
 8915SOL     OW38206   2.460   1.902   1.572 -0.2100 -0.2077  0.1859
 8915SOL    HW138207   2.398   1.975   1.565 -1.5602 -1.2553  1.2649
 8915SOL    HW238208   2.500   1.898   1.485 -0.9501 -1.5341 -0.0943
 8916SOL     OW38209   1.231   3.518   5.301 -0.1890 -0.3526 -0.1554
 8916SOL    HW138210   1.309   3.473   5.334  0.3825 -0.1798 -1.2501
 8916SOL    HW238211   1.182   3.546   5.378  1.0876 -1.0043  0.8890
 8917SOL     OW38212   4.224   0.820   3.899 -0.0128  0.5653  0.8281
 8917SOL    HW138213   4.150   0.795   3.954 -0.4724  0.1307  0.0031
 8917SOL    HW238214   4.251   0.738   3.859 -0.8188  0.4852  0.4391
 8918SOL     OW38215   0.579   4.288   4.893  0.0057  0.1282  0.0572
 8918SOL    HW138216   0.637   4.342   4.839  0.0797 -0.6780 -0.6712
 8918SOL    HW238217   0.641   4.229   4.937  0.9136  1.5527  0.7105
 8919SOL     OW38218   1.157   3.062  16.018 -0.3673 -0.2350 -0.5934
 8919SOL    HW138219   1.232   3.010  16.045  0.1943  1.2180  0.6861
 8919SOL    HW238220   1.100   2.992  15.986 -1.2153 -0.2708  0.9841
 8920SOL     OW38221   0.080   2.269   7.001  0.0704  0.5182 -0.7472
 8920SOL    HW138222   4.711   2.308   6.993  0.1489  0.2164 -3.2870
 8920SOL    HW238223   0.118   2.338   6.947  0.6524  0.6871 -0.1239
 8921SOL     OW38224   3.902   1.823   6.866 -0.4008  0.3405  0.1120
 8921SOL    HW138225   3.971   1.804   6.929 -0.5360 -1.8561 -0.3987
 8921SOL    HW238226   3.956   1.818   6.787  0.7203 -0.2871  0.9100
 8922SOL     OW38227   3.355   0.597   4.221 -0.3133 -0.1932  0.3680
 8922SOL    HW138228   3.445   0.602   4.190  0.0291  0.4661  1.4697
 8922SOL    HW238229   3.343   0.688   4.250  1.8968  0.0345  0.5223
 8923SOL     OW38230   2.297   1.903   3.443  0.1450  0.0069 -0.4355
 8923SOL    HW138231   2.283   1.992   3.475 -0.1654 -0.0394 -0.4484
 8923SOL    HW238232   2.226   1.905   3.379 -0.7326 -1.4796  0.4871
 8924SOL     OW38233   2.314   1.598   3.429  0.3549 -0.2270  0.3301
 8924SOL    HW138234   2.262   1.673   3.402 -0.4504 -1.4064 -1.4026
 8924SOL    HW238235   2.391   1.610   3.373 -0.2914  0.6529 -0.3786
 8925SOL     OW38236   2.361   0.358   6.770  0.1994  0.6979  0.1088
 8925SOL    HW138237   2.340   0.391   6.682  0.9907 -3.0270 -1.4805
 8925SOL    HW238238   2.291   0.387   6.829  0.0077 -1.0155  0.7216
 8926SOL     OW38239   0.769   4.692   4.592 -0.4641  0.0873 -0.2369
 8926SOL    HW138240   0.814   4.608   4.601  0.6255  0.8142  1.0857
 8926SOL    HW238241   0.838   0.038   4.578 -1.1913  0.1344 -3.5218
 8927SOL     OW38242   1.925   3.951   2.754 -0.3269 -0.1321 -0.2927
 8927SOL    HW138243   2.015   3.920   2.742  0.2196  2.0811 -1.8192
 8927SOL    HW238244   1.935   4.028   2.810 -0.5642 -0.4169  0.1406
 8928SOL     OW38245   3.968   1.181  12.220  0.1067 -0.0260 -0.1171
 8928SOL    HW138246   3.993   1.169  12.311  1.2531 -2.7262 -0.7816
 8928SOL    HW238247   3.887   1.130  12.226 -0.8378  1.6412  1.3035
 8929SOL     OW38248   3.223   2.309   8.330 -0.9368  0.2196 -0.1825
 8929SOL    HW138249   3.295   2.257   8.365  0.6593  2.1575 -0.5672
 8929SOL    HW238250   3.177   2.313   8.415 -1.1073  0.8322 -0.3036
 8930SOL     OW38251   2.347   1.612   5.427  0.2908  0.3647  0.3837
 8930SOL    HW138252   2.413   1.629   5.360  0.0877  0.4108  0.1944
 8930SOL    HW238253   2.389   1.663   5.496 -0.6278 -0.2125  1.3787
 8931SOL     OW38254   2.155   4.561   1.282  0.7137 -0.2255  0.6086
 8931SOL    HW138255   2.072   4.535   1.241 -0.0939 -0.1109  2.1869
 8931SOL    HW238256   2.123   4.612   1.356  0.1820 -2.3655  1.8826
 8932SOL     OW38257   4.530   3.156   6.112 -0.2609  0.2431  0.9516
 8932SOL    HW138258   4.602   3.192   6.164  0.4917 -0.7927  0.6172
 8932SOL    HW238259   4.540   3.203   6.029 -1.9857 -2.2000 -0.6307
 8933SOL     OW38260   3.820   4.412   7.096 -0.0071 -0.2217  0.2310
 8933SOL    HW138261   3.771   4.492   7.114 -0.1563  0.0979 -1.6298
 8933SOL    HW238262   3.907   4.451   7.085  0.6053 -1.2746  1.2120
 8934SOL     OW38263   2.796   2.358  12.165  0.3241 -0.6727  0.7254
 8934SOL    HW138264   2.730   2.360  12.096 -1.9841  0.0190  2.9914
 8934SOL    HW238265   2.874   2.329  12.117 -0.6387  1.0859 -1.9083
 8935SOL     OW38266   1.104   3.415  11.556 -0.2585  0.2286 -0.4584
 8935SOL    HW138267   1.101   3.436  11.462  2.3059  1.9066 -0.1738
 8935SOL    HW238268   1.160   3.338  11.560  0.2052  0.5871 -0.0989
 8936SOL     OW38269   1.177   3.114   2.969  0.2370  0.3100 -0.0057
 8936SOL    HW138270   1.162   3.065   3.050  0.0165 -1.9375 -1.3884
 8936SOL    HW238271   1.105   3.106   2.907  1.4938 -1.0023 -1.3162
 8937SOL     OW38272   0.351   0.587   3.421 -0.0562  0.5797  0.6524
 8937SOL    HW138273   0.342   0.497   3.388 -0.3773  1.3789 -1.4624
 8937SOL    HW238274   0.293   0.584   3.497 -0.6899  1.3995  0.2025
 8938SOL     OW38275   3.995   0.104   1.940  0.3989  0.0149  0.2678
 8938SOL    HW138276   4.019   0.012   1.945  0.0658 -0.2043 -2.3260
 8938SOL    HW238277   4.037   0.137   1.860  0.6509  0.6522  0.6654
 8939SOL     OW38278   1.416   3.965  12.783 -0.5728  0.0446  0.3249
 8939SOL    HW138279   1.346   3.911  12.746 -0.4504 -0.3134  0.6160
 8939SOL    HW238280   1.370   3.997  12.861  0.1768  1.6270  0.1141
 8940SOL     OW38281   4.550   3.775   4.114  0.3587  0.1419  0.3227
 8940SOL    HW138282   4.585   3.804   4.198  2.1383  1.6691 -0.9382
 8940SOL    HW238283   4.458   3.789   4.134  0.4312  0.5116  0.3968
 8941SOL     OW38284   4.214   1.747   9.803 -0.2404 -0.3671  0.0764
 8941SOL    HW138285   4.176   1.789   9.726  2.2953 -1.2054 -1.6044
 8941SOL    HW238286   4.174   1.799   9.874 -0.5948  0.1320 -0.4872
 8942SOL     OW38287   0.500   4.487   8.798  0.6605 -0.9436 -0.0393
 8942SOL    HW138288   0.419   4.529   8.767 -0.0277 -1.3048  1.2510
 8942SOL    HW238289   0.458   4.409   8.835  1.8276 -1.5080  0.0887
 8943SOL     OW38290   3.951   0.802   7.119 -0.6311  0.0953 -0.1881
 8943SOL    HW138291   3.922   0.719   7.083 -0.3048  0.9665 -2.4490
 8943SOL    HW238292   3.896   0.870   7.080  0.0913  1.4505  1.1476
 8944SOL     OW38293   0.487   1.903   8.077  0.4397  0.0968 -0.2393
 8944SOL    HW138294   0.394   1.887   8.089  1.2473 -3.0657  1.6653
 8944SOL    HW238295   0.494   1.939   7.989 -2.2286  2.9126  0.7096
 8945SOL     OW38296   1.034   0.835  10.678  0.1088  0.0836  0.1953
 8945SOL    HW138297   1.125   0.805  10.683  0.5593  1.1599 -1.6637
 8945SOL    HW238298   1.017   0.835  10.772  3.1809 -2.3698  0.7559
 8946SOL     OW38299   4.577   3.249   7.435  0.2499 -0.1280 -0.0863
 8946SOL    HW138300   4.540   3.166   7.464 -0.7347  0.6990  1.0148
 8946SOL    HW238301   4.638   3.217   7.368 -0.1307 -1.5629  0.2612
 8947SOL     OW38302   3.916   2.221   4.722 -0.2824  0.0373  0.1830
 8947SOL    HW138303   3.986   2.194   4.663 -0.7910 -0.4662 -0.1882
 8947SOL    HW238304   3.964   2.279   4.780  0.7022 -1.0982  0.4909
 8948SOL     OW38305   3.662   3.967  15.932  0.1908 -0.3423  0.3285
 8948SOL    HW138306   3.749   3.939  15.958 -0.1144 -2.2063 -0.6703
 8948SOL    HW238307   3.621   3.982  16.017 -2.2246 -0.2249 -0.8325
 8949SOL     OW38308   3.376   3.110  10.633  0.0929 -0.3232 -0.1497
 8949SOL    HW138309   3.281   3.104  10.625  0.0868 -2.7357  1.6145
 8949SOL    HW238310   3.396   3.199  10.660 -2.5554 -0.0062  0.7476
 8950SOL     OW38311   1.426   4.171   0.234  0.4487  0.3628  0.2040
 8950SOL    HW138312   1.403   4.103   0.171 -1.2037  0.6115  0.5626
 8950SOL    HW238313   1.516   4.192   0.207  1.2742 -1.1702  1.7724
 8951SOL     OW38314   3.031   0.584   4.930  0.3732 -0.5604  0.0262
 8951SOL    HW138315   3.114   0.628   4.911  0.9258 -1.5062  0.2936
 8951SOL    HW238316   3.029   0.501   4.883 -0.0492 -1.1967  1.1581
 8952SOL     OW38317   3.666   0.446   0.322 -0.1873 -0.4423 -0.2524
 8952SOL    HW138318   3.725   0.413   0.390  0.6638 -0.5665 -1.0337
 8952SOL    HW238319   3.602   0.375   0.319 -2.8160  1.9663 -1.3391
 8953SOL     OW38320   1.815   3.055  11.510  0.5430  0.6612  0.4699
 8953SOL    HW138321   1.792   3.134  11.558  1.0893 -0.2807  2.2968
 8953SOL    HW238322   1.771   3.064  11.426 -0.0532 -1.0257  0.5840
 8954SOL     OW38323   3.814   4.217  16.635  0.2522  0.2632  0.0856
 8954SOL    HW138324   3.891   4.214  16.579 -1.2959 -0.4641 -1.9936
 8954SOL    HW238325   3.849   4.269  16.708 -0.7033  1.3270 -0.2094
 8955SOL     OW38326   3.710   0.802   1.137  0.2540 -0.5600  0.2113
 8955SOL    HW138327   3.795   0.776   1.172  0.9321  0.7298 -0.5027
 8955SOL    HW238328   3.723   0.895   1.118 -2.2588 -0.2250  0.0070
 8956SOL     OW38329   1.196   4.685   5.299 -0.3363 -0.4829 -0.0497
 8956SOL    HW138330   1.222   4.594   5.290 -0.3902 -0.5717  0.7193
 8956SOL    HW238331   1.252   0.007   5.233 -0.5817 -0.2194 -0.1019
 8957SOL     OW38332   1.358   4.356   5.842  0.5066  0.0687 -0.2373
 8957SOL    HW138333   1.358   4.434   5.899  1.4126 -0.0089 -0.1302
 8957SOL    HW238334   1.421   4.381   5.775 -0.9055 -1.9322 -2.2807
 8958SOL     OW38335   1.466   1.295   6.574 -0.1615  0.5758 -0.1331
 8958SOL    HW138336   1.454   1.247   6.492 -2.0744  0.4389  0.2240
 8958SOL    HW238337   1.412   1.242   6.633  0.8081 -0.7084 -0.4067
 8959SOL     OW38338   0.885   4.465   5.433 -0.3012 -0.2000 -0.0541
 8959SOL    HW138339   0.885   4.427   5.345 -1.0839 -0.3468  0.0074
 8959SOL    HW238340   0.798   4.447   5.468  0.4865 -1.3228  1.2971
 8960SOL     OW38341   0.591   0.850   6.012  0.8310  0.2655 -0.5167
 8960SOL    HW138342   0.657   0.874   6.077  1.5467 -1.9134 -0.4610
 8960SOL    HW238343   0.533   0.926   6.008 -0.3680 -0.7050 -1.2516
 8961SOL     OW38344   0.239   0.756   4.676 -0.0366 -0.3684 -0.3206
 8961SOL    HW138345   0.254   0.670   4.716 -1.5378  0.7005  2.4991
 8961SOL    HW238346   0.198   0.714   4.601 -0.4857 -2.2578  0.9767
 8962SOL     OW38347   0.707   3.990   6.869  0.3171  0.4194 -0.3638
 8962SOL    HW138348   0.761   4.069   6.865  0.5304  0.2138 -1.6530
 8962SOL    HW238349   0.749   3.952   6.792 -0.3959 -2.1381  0.5300
 8963SOL     OW38350   0.111   3.581   5.556 -0.0118  0.0469 -0.4210
 8963SOL    HW138351   0.018   3.569   5.574  0.6101  1.0319  3.4527
 8963SOL    HW238352   0.122   3.646   5.487 -1.1810  0.4489 -0.2209
 8964SOL     OW38353   0.863   2.197  17.494  0.5182 -0.4193 -0.4963
 8964SOL    HW138354   0.781   2.163  17.531  1.0809 -1.7522 -0.4615
 8964SOL    HW238355   0.838   2.288  17.479 -0.2147 -0.7277 -1.1590
 8965SOL     OW38356   1.070   0.198  14.786 -0.3855 -0.1453 -0.3478
 8965SOL    HW138357   1.064   0.205  14.690 -1.9530  2.1158 -0.0795
 8965SOL    HW238358   1.099   0.108  14.800 -1.7683 -0.3475  1.2480
 8966SOL     OW38359   3.040   2.217   4.276 -0.3329  0.2933 -0.3268
 8966SOL    HW138360   2.974   2.275   4.314 -1.5141 -0.8021 -0.6953
 8966SOL    HW238361   2.983   2.141   4.265  0.8316 -0.5092 -0.9175
 8967SOL     OW38362   1.291   1.019  10.068 -0.4806  0.0812  0.1778
 8967SOL    HW138363   1.278   1.051   9.978 -1.4713  2.3498  1.1211
 8967SOL    HW238364   1.271   0.926  10.056 -1.8545  0.0966  2.4261
 8968SOL     OW38365   4.366   0.087   4.355  0.8396  0.4549 -0.2402
 8968SOL    HW138366   4.324   0.150   4.296  1.6338 -0.6311 -1.9655
 8968SOL    HW238367   4.378   0.134   4.437 -0.6076  0.5780 -0.0985
 8969SOL     OW38368   0.412   0.001   3.869  0.4925 -0.8170 -0.4507
 8969SOL    HW138369   0.406   0.004   3.964 -0.0669  2.3962 -0.5790
 8969SOL    HW238370   0.501   0.036   3.863 -0.0195  1.2497  4.1581
 8970SOL     OW38371   0.343   1.930   3.379  0.4068  0.1154  0.0530
 8970SOL    HW138372   0.340   1.869   3.305 -0.0434  0.3140 -0.0940
 8970SOL    HW238373   0.416   1.989   3.363  0.1991  0.5281  0.6355
 8971SOL     OW38374   0.386   2.542   3.915 -0.4174 -0.0613  0.3413
 8971SOL    HW138375   0.464   2.596   3.898  0.4533 -1.2188  0.6391
 8971SOL    HW238376   0.427   2.457   3.934  1.6431  1.3949  2.4311
 8972SOL     OW38377   2.773   1.534   2.361 -0.1906 -0.2865 -0.3341
 8972SOL    HW138378   2.840   1.481   2.318  0.8837  1.4913 -0.8951
 8972SOL    HW238379   2.702   1.471   2.367  1.1023 -1.8019 -1.0655
 8973SOL     OW38380   4.514   3.169   3.706 -0.2194 -0.4221  0.5054
 8973SOL    HW138381   4.511   3.120   3.623 -1.6503 -0.1323  0.3800
 8973SOL    HW238382   4.493   3.257   3.675  1.0896 -0.4311 -0.3994
 8974SOL     OW38383   0.970   0.289   0.128  0.3633  0.4930  0.3389
 8974SOL    HW138384   0.973   0.383   0.108 -0.4122  0.4858  0.1703
 8974SOL    HW238385   1.056   0.271   0.092  0.0176 -1.9515  0.7917
 8975SOL     OW38386   3.682   3.900   6.956  0.5501 -0.2933 -0.4495
 8975SOL    HW138387   3.588   3.895   6.971  0.7315 -0.8860  0.5022
 8975SOL    HW238388   3.684   3.833   6.888 -1.1502 -0.2271 -0.5744
 8976SOL     OW38389   4.014   2.459  17.112  0.0433  0.0216 -0.2981
 8976SOL    HW138390   3.937   2.494  17.067 -1.1360 -0.1334  1.5468
 8976SOL    HW238391   3.978   2.428  17.196 -0.9332  0.2762 -0.6167
 8977SOL     OW38392   4.495   1.966   8.978 -0.1933  0.1503  0.7396
 8977SOL    HW138393   4.582   1.978   9.017  0.1027  0.9605 -0.1621
 8977SOL    HW238394   4.503   2.014   8.896 -1.3277  0.2899  0.7150
 8978SOL     OW38395   4.113   1.647   3.813  0.3597  0.4306 -0.2111
 8978SOL    HW138396   4.088   1.576   3.872  1.7308 -0.7953 -1.1374
 8978SOL    HW238397   4.165   1.588   3.759  0.6955  2.6615 -2.2959
 8979SOL     OW38398   3.799   4.664   3.112  0.0200 -0.1989 -0.3049
 8979SOL    HW138399   3.884   4.641   3.074  0.6839  2.2254 -0.3142
 8979SOL    HW238400   3.734   4.607   3.070 -0.6791  0.4145 -0.0594
 8980SOL     OW38401   3.646   3.632   5.695  0.0121 -0.2502  0.6523
 8980SOL    HW138402   3.659   3.557   5.752  1.8910 -0.0150  0.5237
 8980SOL    HW238403   3.597   3.689   5.754  1.8758  0.7364  1.2519
 8981SOL     OW38404   1.621   0.661  11.363  0.9598 -0.0355 -1.3754
 8981SOL    HW138405   1.600   0.658  11.457  0.4774  3.0126 -1.4146
 8981SOL    HW238406   1.545   0.608  11.336  1.6394 -0.9517 -1.5133
 8982SOL     OW38407   2.386   2.768  16.861  0.2084  0.3583 -0.1550
 8982SOL    HW138408   2.446   2.825  16.909 -1.3162  0.6871  1.3571
 8982SOL    HW238409   2.436   2.687  16.855 -2.0927 -0.8771 -2.6784
 8983SOL     OW38410   4.008   1.523  13.612 -0.5424 -0.7545 -0.1765
 8983SOL    HW138411   4.093   1.553  13.646 -0.1735 -1.5200 -0.4215
 8983SOL    HW238412   4.004   1.438  13.656  4.4548 -1.0072 -0.2346
 8984SOL     OW38413   0.074   2.650   1.697 -0.4280  0.0795  0.3264
 8984SOL    HW138414   0.046   2.740   1.680  1.6470  0.0551 -3.2291
 8984SOL    HW238415   0.107   2.676   1.783 -0.1970  0.1400  0.2202
 8985SOL     OW38416   3.465   1.278   2.530  0.0271 -0.5291  0.1888
 8985SOL    HW138417   3.543   1.323   2.559  0.4440 -0.6051 -0.8144
 8985SOL    HW238418   3.514   1.200   2.504  0.6756  0.3009 -1.0795
 8986SOL     OW38419   1.565   3.401   4.810  0.0177 -0.0325  0.1807
 8986SOL    HW138420   1.641   3.359   4.851 -0.0362 -1.6276 -1.3530
 8986SOL    HW238421   1.618   3.462   4.759  1.1598 -0.9591  0.2495
 8987SOL     OW38422   0.139   1.174   4.043  0.2799  0.3517 -0.3052
 8987SOL    HW138423   0.156   1.081   4.024 -0.5879  0.4670 -1.5966
 8987SOL    HW238424   0.069   1.178   4.107  0.7839  1.6523  0.1530
 8988SOL     OW38425   3.915   2.908  10.691  0.3451 -0.6132 -0.1781
 8988SOL    HW138426   3.888   2.979  10.748  0.0491  0.3338 -1.5028
 8988SOL    HW238427   4.010   2.920  10.698 -0.1140  3.1323 -0.6453
 8989SOL     OW38428   3.270   3.392   6.801 -0.0677 -0.3409  0.1831
 8989SOL    HW138429   3.319   3.313   6.823 -1.7286 -1.0942  1.1502
 8989SOL    HW238430   3.202   3.385   6.867 -0.3570  0.8105  0.0022
 8990SOL     OW38431   0.405   3.676   1.317  0.1225 -0.0715 -0.0891
 8990SOL    HW138432   0.387   3.584   1.297  1.8933 -0.8736  1.9490
 8990SOL    HW238433   0.456   3.706   1.242 -1.4945 -0.0891 -1.1940
 8991SOL     OW38434   1.197   4.283   4.108 -0.0295 -0.3813  0.0533
 8991SOL    HW138435   1.188   4.378   4.113 -1.1180 -0.4292 -1.0691
 8991SOL    HW238436   1.190   4.274   4.013 -1.9546  0.4341  0.1071
 8992SOL     OW38437   1.195   3.957  17.473 -0.5107  0.1166 -0.3311
 8992SOL    HW138438   1.177   3.962  17.380  1.6223 -0.3474 -0.7659
 8992SOL    HW238439   1.157   4.041  17.499 -0.0806 -0.2905  1.6575
 8993SOL     OW38440   0.416   3.816  14.513  0.8365  0.7733 -0.0842
 8993SOL    HW138441   0.465   3.898  14.523  0.5748  0.7139  1.6243
 8993SOL    HW238442   0.401   3.786  14.602 -0.4422  0.1084 -0.5261
 8994SOL     OW38443   3.264   4.358  12.421  0.6412  0.3102  0.3778
 8994SOL    HW138444   3.354   4.329  12.405  0.7300  0.7203  0.1108
 8994SOL    HW238445   3.264   4.440  12.372  0.1015  1.5255  2.4209
 8995SOL     OW38446   4.580   4.276   7.219 -0.0751  0.3315  0.2299
 8995SOL    HW138447   4.656   4.330   7.197  0.3315 -0.0228  0.7641
 8995SOL    HW238448   4.516   4.339   7.250 -1.8738 -0.9477 -0.9116
 8996SOL     OW38449   3.601   0.178  10.144 -0.0200 -0.4801 -0.1660
 8996SOL    HW138450   3.550   0.130  10.209 -2.4102  1.0545 -0.9017
 8996SOL    HW238451   3.660   0.110  10.111  1.0528  1.2195 -1.7602
 8997SOL     OW38452   3.997   3.783   1.195  0.7249  0.7050 -0.0976
 8997SOL    HW138453   3.929   3.816   1.136 -0.6337  0.1557  1.1597
 8997SOL    HW238454   4.033   3.863   1.233  2.2477  0.5924 -1.3550
 8998SOL     OW38455   1.604   0.191   2.297 -0.3636  0.1728  0.1571
 8998SOL    HW138456   1.664   0.125   2.332  1.1618  1.7190  0.4994
 8998SOL    HW238457   1.653   0.272   2.311  0.6381 -0.8084  2.2918
 8999SOL     OW38458   3.016   3.586   7.634  0.3668  0.3203  0.3801
 8999SOL    HW138459   2.998   3.494   7.655  3.7964 -0.6578 -0.8850
 8999SOL    HW238460   3.072   3.607   7.709 -0.4798 -2.6092  1.8241
 9000SOL     OW38461   1.348   2.367   9.007 -0.4982 -0.1821  0.5976
 9000SOL    HW138462   1.402   2.430   9.055 -0.4384  0.2666 -0.0574
 9000SOL    HW238463   1.347   2.410   8.921  2.0282  1.6724  1.5082
 9001SOL     OW38464   3.976   3.702  11.286 -0.1703  0.1638  0.4419
 9001SOL    HW138465   4.051   3.711  11.345  0.5686  1.6637 -0.7409
 9001SOL    HW238466   4.019   3.684  11.203  0.4241  0.9271  0.5810
 9002SOL     OW38467   3.345   1.931   3.747 -0.1358 -0.2561 -0.3067
 9002SOL    HW138468   3.334   2.016   3.706  4.1968 -0.7325 -2.4475
 9002SOL    HW238469   3.281   1.880   3.696 -0.4266 -0.9512  0.7434
 9003SOL     OW38470   3.702   0.162   9.023  0.0209  0.1187  0.3839
 9003SOL    HW138471   3.610   0.139   9.038  0.2530 -1.5111 -0.6534
 9003SOL    HW238472   3.745   0.087   8.983 -0.3142 -0.7054  1.5754
 9004SOL     OW38473   2.531   0.033   5.134  0.6785 -0.1576 -0.4664
 9004SOL    HW138474   2.581   0.099   5.182 -0.4531 -0.3735  0.9842
 9004SOL    HW238475   2.583   0.026   5.054  0.5971 -1.1986 -0.4331
 9005SOL     OW38476   1.682   3.593   8.783  0.6129 -0.3920 -0.1143
 9005SOL    HW138477   1.723   3.664   8.831 -2.3168  1.6893 -0.6484
 9005SOL    HW238478   1.748   3.529   8.808 -0.5974 -0.4109  3.0201
 9006SOL     OW38479   2.520   3.282   7.024  0.1917 -0.6335 -0.5482
 9006SOL    HW138480   2.467   3.280   6.944 -0.7258 -0.2752  0.0542
 9006SOL    HW238481   2.468   3.331   7.087  1.5570  2.5552 -1.8937
 9007SOL     OW38482   4.047   2.698   5.185 -0.1405 -0.2602 -0.0691
 9007SOL    HW138483   3.978   2.716   5.120 -2.0248 -2.7123  1.2741
 9007SOL    HW238484   3.982   2.684   5.254  0.4173 -0.2221  0.4563
 9008SOL     OW38485   0.060   3.749   6.014 -0.4426 -0.2766  0.5190
 9008SOL    HW138486   0.039   3.666   6.058  1.6166 -0.1854  1.6936
 9008SOL    HW238487   0.105   3.800   6.082  0.3539 -2.2280  1.4403
 9009SOL     OW38488   3.389   2.541   5.107 -0.5068 -0.6928  0.4134
 9009SOL    HW138489   3.382   2.447   5.087 -0.7660  0.1348 -3.2377
 9009SOL    HW238490   3.452   2.532   5.179 -1.8450 -0.7375  1.5781
 9010SOL     OW38491   4.485   0.491   2.779  0.4996 -0.1682 -0.1996
 9010SOL    HW138492   4.435   0.455   2.705 -1.3684 -1.6723  1.7980
 9010SOL    HW238493   4.430   0.567   2.795  1.5393  0.5296  0.0832
 9011SOL     OW38494   3.702   1.117   8.595  0.1958  0.6488  0.2503
 9011SOL    HW138495   3.715   1.162   8.679 -1.7324  2.6893 -0.5484
 9011SOL    HW238496   3.677   1.199   8.553 -0.9666  0.3572  0.3700
 9012SOL     OW38497   1.191   3.831  12.640 -0.0386 -0.1886  0.4171
 9012SOL    HW138498   1.212   3.744  12.606 -0.6320  0.1833 -0.8826
 9012SOL    HW238499   1.130   3.862  12.573  0.4942  0.3083  0.1671
 9013SOL     OW38500   1.266   0.763  10.445 -0.1782 -1.0174 -0.5604
 9013SOL    HW138501   1.351   0.718  10.448  0.6822  0.6587  0.5040
 9013SOL    HW238502   1.252   0.775  10.539 -1.4451 -0.5409 -0.8197
 9014SOL     OW38503   0.934   1.646   7.331 -0.5763 -0.2443  0.1040
 9014SOL    HW138504   0.994   1.661   7.404  0.4617  3.2518 -1.4824
 9014SOL    HW238505   0.983   1.568   7.302 -0.3609  0.2490 -0.8490
 9015SOL     OW38506   1.537   2.466   2.953 -0.2310 -0.3335  0.2892
 9015SOL    HW138507   1.485   2.389   2.974 -1.5121  0.9401  1.8173
 9015SOL    HW238508   1.472   2.536   2.951  1.1660  0.9776  0.0629
 9016SOL     OW38509   1.723   1.807   8.626  0.1696  0.3440  0.2993
 9016SOL    HW138510   1.755   1.892   8.655  0.0179  0.8253 -0.9470
 9016SOL    HW238511   1.708   1.751   8.702  1.5131  0.7253  0.8366
 9017SOL     OW38512   1.057   3.036   1.938 -0.3959 -0.6251  0.2178
 9017SOL    HW138513   1.137   3.069   1.897 -0.8760 -1.1551 -1.1289
 9017SOL    HW238514   1.088   3.027   2.028 -0.3143  0.1980  0.2786
 9018SOL     OW38515   0.197   3.232   1.712  0.0762  0.4329  0.2270
 9018SOL    HW138516   0.272   3.198   1.762  1.3276  1.7233 -0.7703
 9018SOL    HW238517   0.185   3.316   1.757  0.4768 -0.6271  2.3156
 9019SOL     OW38518   3.638   0.947   1.529 -0.2962  0.0692 -0.3772
 9019SOL    HW138519   3.653   0.867   1.579 -2.5707 -1.8107 -2.6515
 9019SOL    HW238520   3.568   0.924   1.467 -0.3856  0.2262 -0.3327
 9020SOL     OW38521   2.011   1.138   5.573 -0.4022 -0.2737  0.2511
 9020SOL    HW138522   1.965   1.209   5.618  0.0693  0.2494 -0.0884
 9020SOL    HW238523   2.072   1.187   5.518  1.1451 -1.8394  0.5383
 9021SOL     OW38524   3.143   3.445   8.708 -0.1441  0.4080 -0.2308
 9021SOL    HW138525   3.166   3.535   8.682  0.1941  0.0898 -1.0534
 9021SOL    HW238526   3.058   3.435   8.665  1.1169  1.8377 -3.1088
 9022SOL     OW38527   0.212   1.991   1.812  0.3251  0.4884  0.1440
 9022SOL    HW138528   0.180   1.942   1.736 -2.2248 -1.5385  2.5632
 9022SOL    HW238529   0.303   1.963   1.825  0.1681 -0.7042 -1.2969
 9023SOL     OW38530   3.944   1.423  10.108 -0.4051 -0.5228  0.5496
 9023SOL    HW138531   3.857   1.444  10.143 -0.4992 -0.5605  0.3407
 9023SOL    HW238532   3.982   1.407  10.194 -0.5342 -0.2883  0.6531
 9024SOL     OW38533   0.165   1.973   4.720 -0.1702 -0.2025  0.0953
 9024SOL    HW138534   0.171   1.881   4.745 -2.9873 -1.0376 -2.2899
 9024SOL    HW238535   0.183   1.967   4.626 -3.7148  0.9858 -0.6733
 9025SOL     OW38536   3.466   2.145   7.853 -0.0477  0.0117  0.3194
 9025SOL    HW138537   3.377   2.111   7.839 -0.1683  1.2378 -1.8727
 9025SOL    HW238538   3.465   2.201   7.931 -0.8636 -1.4972  1.3956
 9026SOL     OW38539   0.630   4.013  10.199  1.0036  0.3725  0.1447
 9026SOL    HW138540   0.657   3.932  10.242  0.5877 -0.6811 -1.5738
 9026SOL    HW238541   0.626   4.077  10.271  0.0622  0.3745  0.0979
 9027SOL     OW38542   1.602   3.913   2.789  0.0234 -0.4249  0.2301
 9027SOL    HW138543   1.644   3.851   2.729 -0.4571  1.6288 -2.2487
 9027SOL    HW238544   1.639   3.996   2.761  0.7506 -1.5534 -2.1353
 9028SOL     OW38545   0.867   2.485  14.756 -0.6170 -0.5450 -0.2331
 9028SOL    HW138546   0.781   2.526  14.759 -0.4853 -0.3493  0.8601
 9028SOL    HW238547   0.871   2.442  14.671 -1.3899  0.4501 -0.7618
 9029SOL     OW38548   2.616   2.431   0.762 -0.3755  0.6195  0.5712
 9029SOL    HW138549   2.661   2.393   0.686 -1.3190  2.1076 -0.7371
 9029SOL    HW238550   2.524   2.410   0.742 -0.6449  1.4345  0.9409
 9030SOL     OW38551   1.070   1.617   6.711 -0.0507 -0.2827  0.2360
 9030SOL    HW138552   1.127   1.636   6.636  2.0655 -1.2770  1.5991
 9030SOL    HW238553   1.122   1.555   6.762  1.8241  1.2520  0.1671
 9031SOL     OW38554   1.972   3.087   6.126 -0.2496 -0.8522  0.4329
 9031SOL    HW138555   1.915   3.010   6.121 -2.0709  0.5488 -0.4563
 9031SOL    HW238556   1.960   3.119   6.216 -1.3966  2.5589 -0.9335
 9032SOL     OW38557   4.587   1.376   7.223  0.1470  0.1052 -0.1595
 9032SOL    HW138558   4.605   1.449   7.164 -0.4970  0.3340 -0.0698
 9032SOL    HW238559   4.649   1.311   7.191 -0.0205  0.2684 -0.8196
 9033SOL     OW38560   1.128   0.259  12.448  0.6392 -0.1336 -0.5813
 9033SOL    HW138561   1.058   0.305  12.495  0.3395 -0.9756 -0.2030
 9033SOL    HW238562   1.104   0.293  12.361  0.1556 -0.2035 -0.4783
 9034SOL     OW38563   3.440   0.842   2.531 -0.3991 -0.6404 -0.1978
 9034SOL    HW138564   3.431   0.853   2.626  0.3649  0.6746 -0.2893
 9034SOL    HW238565   3.445   0.746   2.531  0.7443 -0.5993  2.1224
 9035SOL     OW38566   4.256   2.825  14.338  0.5663 -0.0535  0.2373
 9035SOL    HW138567   4.193   2.893  14.362  1.8626  1.2607 -0.1388
 9035SOL    HW238568   4.211   2.744  14.363 -0.4241  0.6621  0.8095
 9036SOL     OW38569   2.098   3.954   2.415 -0.3315 -0.3982 -0.1593
 9036SOL    HW138570   2.104   3.957   2.320  0.3104 -0.5783 -0.1226
 9036SOL    HW238571   2.159   3.886   2.445 -1.2960 -2.3278 -2.5506
 9037SOL     OW38572   4.219   1.246   9.670 -0.2843  0.1661 -0.2247
 9037SOL    HW138573   4.147   1.304   9.647 -1.3544 -0.9277  0.3672
 9037SOL    HW238574   4.177   1.161   9.684 -0.3773  0.2303 -0.1192
 9038SOL     OW38575   3.744   2.942   6.280 -0.0270  0.0439 -0.0908
 9038SOL    HW138576   3.687   2.972   6.351  0.3271  1.0529 -0.2221
 9038SOL    HW238577   3.782   2.860   6.310 -1.5799 -0.5128  0.3416
 9039SOL     OW38578   0.381   3.946  10.623 -0.3718  0.5120  0.2897
 9039SOL    HW138579   0.415   3.885  10.557  0.1001 -0.1423  1.1399
 9039SOL    HW238580   0.317   3.990  10.566  2.2127  1.8152 -1.6011
 9040SOL     OW38581   0.473   1.711  13.438  1.0355  0.0524  0.2853
 9040SOL    HW138582   0.541   1.762  13.393  0.3190  2.1635  1.5995
 9040SOL    HW238583   0.523   1.662  13.503 -0.5272  0.4303  1.7682
 9041SOL     OW38584   3.848   3.800   5.648 -0.0520 -0.2185 -0.1386
 9041SOL    HW138585   3.785   3.730   5.664 -0.2475 -0.2547 -1.0398
 9041SOL    HW238586   3.923   3.745   5.628 -1.5046 -2.0757 -0.4833
 9042SOL     OW38587   3.125   2.577  13.957  0.2432  0.0924  0.3500
 9042SOL    HW138588   3.057   2.539  14.012 -2.8823  3.9126 -0.8638
 9042SOL    HW238589   3.136   2.662  14.000  1.2813  1.0393 -1.7668
 9043SOL     OW38590   0.009   3.350   5.010 -0.3676 -0.0265 -0.3575
 9043SOL    HW138591   4.660   3.292   5.047 -1.5140  1.2345 -0.4523
 9043SOL    HW238592   0.025   3.418   5.075  0.4595 -0.1090 -0.4658
 9044SOL     OW38593   3.003   1.705   3.819 -0.3423  0.0567  0.3195
 9044SOL    HW138594   3.022   1.785   3.868  0.5398  0.8242 -1.2861
 9044SOL    HW238595   3.004   1.740   3.730 -0.1691  0.8666  0.6411
 9045SOL     OW38596   0.826   3.842   4.772  0.0305 -0.6855 -0.3037
 9045SOL    HW138597   0.734   3.819   4.763 -0.2432  0.1310  0.4014
 9045SOL    HW238598   0.866   3.756   4.790 -0.8164 -1.0835 -0.3480
 9046SOL     OW38599   3.007   1.351   2.828 -0.0440 -0.7118  0.0753
 9046SOL    HW138600   3.024   1.344   2.734  0.4873 -2.9592  0.3516
 9046SOL    HW238601   2.922   1.394   2.828 -0.4791 -1.5839 -0.1038
 9047SOL     OW38602   0.975   3.481   8.383  0.0193 -0.0062 -0.1907
 9047SOL    HW138603   0.949   3.438   8.302 -0.5118  0.5755 -0.3380
 9047SOL    HW238604   1.066   3.498   8.361  0.0817  2.5527  1.9570
 9048SOL     OW38605   1.033   0.653   4.064  0.2380 -0.2237  0.3956
 9048SOL    HW138606   1.089   0.722   4.099 -0.9454  2.0091 -2.1127
 9048SOL    HW238607   1.106   0.618   4.013  1.1626  0.0143  1.5543
 9049SOL     OW38608   4.008   0.990   1.061 -0.7156 -0.0573  0.0459
 9049SOL    HW138609   4.056   0.980   0.979 -0.2305  1.8217  0.1081
 9049SOL    HW238610   4.070   0.958   1.127  0.5298  1.2242 -0.5148
 9050SOL     OW38611   4.510   1.865   2.273  0.2991 -0.4272 -0.0281
 9050SOL    HW138612   4.541   1.811   2.200 -1.6339 -1.4384 -0.0848
 9050SOL    HW238613   4.509   1.809   2.350 -0.3443 -0.1307  0.1788
 9051SOL     OW38614   4.265   2.761   7.584 -0.1015  0.2146 -0.1849
 9051SOL    HW138615   4.329   2.717   7.641  0.3428 -1.2899 -1.8772
 9051SOL    HW238616   4.256   2.690   7.521  0.8028  1.7138 -1.9808
 9052SOL     OW38617   2.466   2.553   4.055 -0.4818  0.1403 -0.0934
 9052SOL    HW138618   2.388   2.558   4.109 -1.3786  1.9715 -1.5886
 9052SOL    HW238619   2.475   2.647   4.043  1.9622 -0.3456 -2.3353
 9053SOL     OW38620   4.249   0.633  16.683  0.4001  0.1301 -0.4922
 9053SOL    HW138621   4.232   0.539  16.680 -0.1866  0.2935 -2.3738
 9053SOL    HW238622   4.289   0.656  16.600  0.5519  2.1302  0.1286
 9054SOL     OW38623   2.893   3.976   2.351 -0.3294 -0.4965 -0.4839
 9054SOL    HW138624   2.981   3.990   2.386 -0.7518  3.2996 -0.8987
 9054SOL    HW238625   2.904   3.890   2.311 -1.2600  0.4258 -2.7338
 9055SOL     OW38626   1.543   3.913  15.538  0.2335  0.1833 -0.0740
 9055SOL    HW138627   1.496   3.983  15.583  2.2924  1.1710  0.4903
 9055SOL    HW238628   1.631   3.942  15.560  1.0181 -0.2410 -2.5808
 9056SOL     OW38629   2.698   2.383   2.930 -0.4829  0.0713  0.4851
 9056SOL    HW138630   2.690   2.313   2.865  0.4495  0.2738  0.1625
 9056SOL    HW238631   2.777   2.419   2.890 -0.2827 -3.8528 -2.5598
 9057SOL     OW38632   3.885   1.253   2.888 -0.6581  0.3850  0.5263
 9057SOL    HW138633   3.928   1.221   2.808  0.0333 -0.3465  1.1802
 9057SOL    HW238634   3.836   1.327   2.854 -0.9622  0.2587  0.6927
 9058SOL     OW38635   0.203   0.199   9.604 -0.7834  0.4786 -0.1862
 9058SOL    HW138636   0.282   0.198   9.660  0.1291 -3.4162 -1.5544
 9058SOL    HW238637   0.178   0.107   9.599  1.4954 -0.1615 -0.0077
 9059SOL     OW38638   3.781   1.381   4.068  0.2024 -0.2843  0.0994
 9059SOL    HW138639   3.750   1.451   4.010 -1.3007 -0.7857  0.2874
 9059SOL    HW238640   3.711   1.316   4.076  0.4294  0.0010  4.3968
 9060SOL     OW38641   1.250   2.812   7.316  0.3515 -0.1896  0.2081
 9060SOL    HW138642   1.179   2.750   7.297  2.1751 -1.7583 -1.4267
 9060SOL    HW238643   1.195   2.887   7.340  1.3225  1.1532 -1.8507
 9061SOL     OW38644   0.740   3.146  16.339 -0.4001 -0.5521 -0.1452
 9061SOL    HW138645   0.825   3.185  16.319 -0.3419 -1.5997 -1.9235
 9061SOL    HW238646   0.707   3.126  16.251 -0.4265 -0.8715 -0.0643
 9062SOL     OW38647   4.161   2.061   6.668 -0.2660  0.3311  0.4647
 9062SOL    HW138648   4.120   2.115   6.600  0.7202 -1.5684 -1.6173
 9062SOL    HW238649   4.155   1.969   6.643 -0.8478  0.8936 -1.4325
 9063SOL     OW38650   3.240   4.550  12.186 -0.7378  0.7467  0.4729
 9063SOL    HW138651   3.176   4.498  12.137  1.0841 -1.5250  0.5117
 9063SOL    HW238652   3.213   4.638  12.159 -1.7468  0.1149 -0.5600
 9064SOL     OW38653   0.421   3.533   2.234  0.0530  0.2293  0.3837
 9064SOL    HW138654   0.476   3.502   2.162 -0.1275  1.3387 -0.2429
 9064SOL    HW238655   0.468   3.612   2.261 -1.6036  2.1793 -2.3515
 9065SOL     OW38656   3.709   1.315   5.789 -0.0911  0.6273  0.1580
 9065SOL    HW138657   3.789   1.268   5.767 -1.1375 -0.8247 -0.5151
 9065SOL    HW238658   3.662   1.330   5.707  1.0371  1.0129 -0.4215
 9066SOL     OW38659   2.990   0.887   3.732 -0.2575  0.7531  0.4800
 9066SOL    HW138660   2.923   0.886   3.664  0.3185 -0.7727 -0.0715
 9066SOL    HW238661   3.033   0.971   3.716 -0.2930  0.5858 -0.4898
 9067SOL     OW38662   3.143   0.871   3.173 -0.0356  0.4796 -0.6831
 9067SOL    HW138663   3.120   0.912   3.089 -2.0383  3.3156  1.2321
 9067SOL    HW238664   3.176   0.946   3.223 -0.5687  0.0605  0.2932
 9068SOL     OW38665   2.260   0.276   7.728 -0.1882  0.3925 -0.0396
 9068SOL    HW138666   2.315   0.353   7.746  0.5440 -0.3420  0.8832
 9068SOL    HW238667   2.323   0.231   7.671 -1.5890 -1.0350 -0.4563
 9069SOL     OW38668   2.723   0.402   8.049 -0.2170 -0.3815 -0.2416
 9069SOL    HW138669   2.788   0.339   8.081  0.2377 -0.2338 -0.8930
 9069SOL    HW238670   2.676   0.410   8.133  1.7437  0.1644  0.8064
 9070SOL     OW38671   2.432   0.388   3.833 -0.3083  0.0084 -0.4015
 9070SOL    HW138672   2.501   0.346   3.781  1.0279 -0.2932  1.6193
 9070SOL    HW238673   2.404   0.323   3.897 -0.1288  0.6228  0.3039
 9071SOL     OW38674   0.709   0.338   7.077  0.2539  0.2097 -0.1329
 9071SOL    HW138675   0.786   0.394   7.069 -2.2722  3.5528 -1.2076
 9071SOL    HW238676   0.722   0.313   7.169 -1.3047  1.7601  0.5134
 9072SOL     OW38677   3.459   4.424   4.481 -0.6871 -0.3893 -0.3701
 9072SOL    HW138678   3.552   4.423   4.504 -0.2636 -1.0513 -2.0957
 9072SOL    HW238679   3.448   4.513   4.515 -0.0868 -0.9385  1.2836
 9073SOL     OW38680   3.858   0.041  15.388 -0.4434  0.3446  0.0164
 9073SOL    HW138681   3.900   0.123  15.412 -4.2523  1.5085  2.5656
 9073SOL    HW238682   3.837   0.012  15.477  0.4584 -1.0816 -0.2239
 9074SOL     OW38683   4.625   3.188  17.159 -0.4195  0.4066 -0.7436
 9074SOL    HW138684   4.592   3.131  17.229 -1.9312 -0.9215 -2.5541
 9074SOL    HW238685   4.648   3.271  17.202 -0.3678 -0.2041  0.4095
 9075SOL     OW38686   0.333   0.402   8.967 -0.7877 -0.4479  0.0921
 9075SOL    HW138687   0.319   0.426   8.876  2.1391  0.6233 -0.0752
 9075SOL    HW238688   0.414   0.356   8.945 -0.8280  0.3122 -1.6502
 9076SOL     OW38689   4.133   1.264  16.427  0.8045  0.3033  0.3404
 9076SOL    HW138690   4.151   1.214  16.507 -1.7016 -1.4439 -0.2022
 9076SOL    HW238691   4.125   1.347  16.473 -1.1671 -0.1268  0.7748
 9077SOL     OW38692   1.346   4.515   6.868 -0.3611  0.0434  0.0906
 9077SOL    HW138693   1.279   4.541   6.931  0.3496 -0.7957  1.1816
 9077SOL    HW238694   1.296   4.496   6.789 -1.8542  2.3969  0.4531
 9078SOL     OW38695   1.723   4.576  16.530 -0.4596  0.3339  0.2313
 9078SOL    HW138696   1.782   4.530  16.470  0.6203  1.9672  0.0546
 9078SOL    HW238697   1.712   4.660  16.486 -0.0088  0.1782 -0.1691
 9079SOL     OW38698   2.615   3.791  11.899 -0.6210  0.0466 -0.0252
 9079SOL    HW138699   2.640   3.877  11.931 -0.0864 -0.3913  0.7305
 9079SOL    HW238700   2.531   3.804  11.856 -1.1295  1.1857  1.3177
 9080SOL     OW38701   2.271   3.233   8.200  0.3684  0.3906 -0.1584
 9080SOL    HW138702   2.216   3.155   8.200  2.2114 -0.9186 -2.1869
 9080SOL    HW238703   2.231   3.293   8.137 -1.7978 -0.0577  0.7900
 9081SOL     OW38704   1.068   4.123   2.420 -0.4399 -0.5336  0.5163
 9081SOL    HW138705   1.094   4.186   2.353 -0.9185  1.3055  2.0748
 9081SOL    HW238706   1.150   4.093   2.457  0.7003 -0.9923 -2.3544
 9082SOL     OW38707   0.177   2.614   5.407 -0.1260  0.6703 -0.9053
 9082SOL    HW138708   0.115   2.542   5.413 -0.2100  0.7097 -1.3174
 9082SOL    HW238709   0.249   2.571   5.361  0.4941 -0.2709  0.9435
 9083SOL     OW38710   0.054   0.433   7.268 -0.3539 -0.0111  0.3465
 9083SOL    HW138711   0.082   0.482   7.190 -2.0464 -1.2223 -1.0360
 9083SOL    HW238712   0.049   0.489   7.345 -0.5696  1.5606 -0.7964
 9084SOL     OW38713   2.290   2.417   4.731 -0.8785  0.2201  0.6759
 9084SOL    HW138714   2.364   2.367   4.767 -1.7531 -0.6907  1.2207
 9084SOL    HW238715   2.246   2.366   4.663  0.7823 -0.7151  0.3114
 9085SOL     OW38716   0.229   0.172   5.625 -0.4306  0.3456  0.2370
 9085SOL    HW138717   0.241   0.267   5.634  3.6056 -0.0278 -0.9882
 9085SOL    HW238718   0.245   0.150   5.717  0.7502  1.5219  0.3159
 9086SOL     OW38719   2.650   3.996  16.273 -0.2628  0.6236 -0.0726
 9086SOL    HW138720   2.694   4.031  16.195  0.4679  3.5496  1.6560
 9086SOL    HW238721   2.705   4.025  16.346  1.8210  0.0786 -1.4225
 9087SOL     OW38722   1.725   1.182   4.290 -0.1915 -0.0222 -0.6834
 9087SOL    HW138723   1.746   1.207   4.200 -0.3289 -1.2466 -1.0551
 9087SOL    HW238724   1.660   1.248   4.317 -2.0890 -1.9399 -0.5720
 9088SOL     OW38725   0.802   1.405  15.866 -0.2589  0.0184 -0.1786
 9088SOL    HW138726   0.863   1.406  15.940 -0.3355  2.1429 -0.1501
 9088SOL    HW238727   0.812   1.490  15.824  1.0010  1.2610  2.6150
 9089SOL     OW38728   3.683   2.986  11.789 -0.5175 -0.9581 -0.3495
 9089SOL    HW138729   3.594   3.010  11.816 -0.6960 -2.0254  0.0226
 9089SOL    HW238730   3.671   2.983  11.694 -1.0231 -0.9911 -0.2878
 9090SOL     OW38731   3.262   0.633   1.016 -0.5405  0.0986  0.6466
 9090SOL    HW138732   3.240   0.725   1.028 -0.9999  0.1365 -0.4355
 9090SOL    HW238733   3.298   0.640   0.927 -0.0470  0.2354  0.8542
 9091SOL     OW38734   0.000   3.720   3.427  0.9726  0.5343 -0.5476
 9091SOL    HW138735   4.665   3.771   3.489 -0.3578 -0.1506 -1.1394
 9091SOL    HW238736   0.058   3.683   3.495  2.7850  0.4919 -2.1030
 9092SOL     OW38737   1.352   4.551   1.342 -0.3134  0.8836  0.3908
 9092SOL    HW138738   1.375   4.548   1.249 -0.4079  2.7207  0.3076
 9092SOL    HW238739   1.300   4.473   1.362 -0.0172  0.6290  0.1668
 9093SOL     OW38740   4.386   0.005  13.094 -0.1636  0.5019 -0.2001
 9093SOL    HW138741   4.407   4.632  13.071  0.6854  0.6526  0.0071
 9093SOL    HW238742   4.461   0.008  13.154 -0.2162 -1.1022 -0.0543
 9094SOL     OW38743   1.035   4.629  10.554  0.3718  0.0657 -0.0874
 9094SOL    HW138744   1.106   4.658  10.497  0.5863 -4.0387 -1.8855
 9094SOL    HW238745   0.965   4.613  10.490  2.1242  1.6142 -2.4050
 9095SOL     OW38746   4.595   0.110   6.777 -0.4229 -0.1173 -0.1735
 9095SOL    HW138747   4.515   0.114   6.725 -0.6906 -0.4314  0.2122
 9095SOL    HW238748   4.615   0.016   6.774  1.4465  0.2472  0.4517
 9096SOL     OW38749   3.432   0.761  13.970  0.4271 -0.5507 -0.3068
 9096SOL    HW138750   3.478   0.844  13.985  0.0523 -0.3198 -0.4435
 9096SOL    HW238751   3.441   0.721  14.057  0.0847 -0.6573 -0.3227
 9097SOL     OW38752   2.958   4.693   5.843  0.5743 -0.9168  0.1183
 9097SOL    HW138753   2.879   4.656   5.805 -0.1380  1.0926 -0.3418
 9097SOL    HW238754   3.028   4.663   5.785 -1.2033  0.5867 -2.7855
 9098SOL     OW38755   1.339   0.079   6.271 -0.0604 -0.1899  0.1402
 9098SOL    HW138756   1.254   0.046   6.298 -1.5839  1.5856 -2.4305
 9098SOL    HW238757   1.387   0.084   6.354  0.9943  1.9738 -0.5918
 9099SOL     OW38758   1.341   3.065   8.048  0.2842  0.0269 -0.1572
 9099SOL    HW138759   1.284   3.133   8.086  0.4453  0.3164 -0.4359
 9099SOL    HW238760   1.291   2.988   8.074  0.4215  0.2701  0.8533
 9100SOL     OW38761   2.884   0.519   7.072  0.2926  0.1821  0.0923
 9100SOL    HW138762   2.944   0.585   7.036  0.8281 -0.1525  0.3815
 9100SOL    HW238763   2.957   0.461   7.091  0.0485 -0.5455 -1.1747
 9101SOL     OW38764   0.317   3.125  16.723 -0.3416 -0.3367 -0.1879
 9101SOL    HW138765   0.373   3.066  16.774  1.2811  0.2647 -1.2608
 9101SOL    HW238766   0.329   3.208  16.769  1.3269 -0.3039 -0.6716
 9102SOL     OW38767   4.201   1.391   9.257  0.0116  0.1173  0.4257
 9102SOL    HW138768   4.169   1.437   9.180 -0.7283 -1.5661 -0.2567
 9102SOL    HW238769   4.211   1.467   9.315 -2.2689  0.0495  0.9128
 9103SOL     OW38770   3.884   0.038   0.454  0.2167  0.1156  0.4752
 9103SOL    HW138771   3.952   0.099   0.428  1.8182 -2.1879 -0.7244
 9103SOL    HW238772   3.921   0.014   0.539  1.5838 -1.0147 -0.4437
 9104SOL     OW38773   2.290   1.909  13.217 -0.0918  0.0675 -0.0904
 9104SOL    HW138774   2.287   1.972  13.289 -1.2080  0.2571 -0.3045
 9104SOL    HW238775   2.379   1.917  13.183 -0.3907  0.8305 -0.6817
 9105SOL     OW38776   2.699   3.251   1.027  0.2893 -0.5904 -0.1484
 9105SOL    HW138777   2.742   3.336   1.019  0.2852 -0.4438  1.4109
 9105SOL    HW238778   2.743   3.221   1.107 -2.0832  0.2604  1.4875
 9106SOL     OW38779   0.776   0.738   9.666 -0.6538 -0.1477 -0.2733
 9106SOL    HW138780   0.839   0.724   9.595  0.1442 -0.2666  0.4567
 9106SOL    HW238781   0.717   0.801   9.625 -2.6481 -2.9981 -1.8350
 9107SOL     OW38782   1.342   2.211   6.931 -0.6928 -0.4202 -0.2004
 9107SOL    HW138783   1.423   2.211   6.983 -0.1296  1.9579 -1.0644
 9107SOL    HW238784   1.314   2.120   6.929 -2.5033  0.1199  0.3677
 9108SOL     OW38785   2.510   3.735   2.224 -0.3615 -0.0205  0.3813
 9108SOL    HW138786   2.462   3.705   2.146  0.1763  1.6418 -0.5861
 9108SOL    HW238787   2.594   3.757   2.185  0.3273 -3.0639  0.0918
 9109SOL     OW38788   4.144   2.031   4.405 -0.1932 -0.2402  0.3614
 9109SOL    HW138789   4.069   1.988   4.366  1.9727 -2.6373 -1.1425
 9109SOL    HW238790   4.200   2.044   4.328 -1.4593 -2.2722 -0.8739
 9110SOL     OW38791   1.395   2.949   1.152 -0.2468 -0.4062  0.1775
 9110SOL    HW138792   1.458   2.950   1.224  0.7437  1.1203 -0.7413
 9110SOL    HW238793   1.423   2.881   1.091 -0.7667 -1.6434  1.3122
 9111SOL     OW38794   0.497   3.959   1.484  0.3787 -0.2693 -0.0172
 9111SOL    HW138795   0.501   3.892   1.415  3.7055  1.5899 -1.6626
 9111SOL    HW238796   0.508   3.905   1.562  0.1326 -1.8556 -1.0752
 9112SOL     OW38797   2.265   2.435   2.751 -0.3099 -0.0180 -0.0259
 9112SOL    HW138798   2.285   2.467   2.839 -1.8964 -0.1668  0.3835
 9112SOL    HW238799   2.287   2.512   2.700 -0.1750 -1.1250 -1.6385
 9113SOL     OW38800   0.294   1.034   2.979  0.2505 -0.4723 -0.1608
 9113SOL    HW138801   0.225   0.983   2.936 -0.3779  0.0508  0.2332
 9113SOL    HW238802   0.341   0.957   3.011  0.3469 -1.3216 -2.3434
 9114SOL     OW38803   3.813   3.552   6.738  0.0785  0.1240 -0.7693
 9114SOL    HW138804   3.859   3.531   6.820 -0.2257 -0.9484 -0.8697
 9114SOL    HW238805   3.754   3.478   6.728  0.0879  0.0065  0.0668
 9115SOL     OW38806   1.363   3.932   0.934  0.0728 -0.5009  0.0735
 9115SOL    HW138807   1.325   3.881   1.006  2.9383 -2.6094  0.0772
 9115SOL    HW238808   1.293   3.928   0.869  0.3444 -1.2492 -0.1777
 9116SOL     OW38809   1.826   3.027   8.708 -0.2675  0.2662 -0.5570
 9116SOL    HW138810   1.736   3.047   8.683  0.1480  0.4985 -1.8258
 9116SOL    HW238811   1.829   2.934   8.686 -3.6456 -0.1648  0.7412
 9117SOL     OW38812   3.292   3.674  12.740 -0.5069  0.3659  0.6379
 9117SOL    HW138813   3.269   3.607  12.675  0.8585 -0.4734  1.0176
 9117SOL    HW238814   3.236   3.649  12.813  0.5412  1.4482  1.8032
 9118SOL     OW38815   0.701   0.676   1.772  0.7903 -0.0786 -0.1805
 9118SOL    HW138816   0.621   0.633   1.740  1.5122 -0.4571 -1.4469
 9118SOL    HW238817   0.684   0.705   1.862 -0.7856  1.6873 -1.0452
 9119SOL     OW38818   4.327   2.298   1.463 -0.1984 -0.0971 -0.0317
 9119SOL    HW138819   4.254   2.313   1.403 -0.0693 -0.1707 -0.2069
 9119SOL    HW238820   4.308   2.375   1.518 -2.1241 -0.9749  0.5489
 9120SOL     OW38821   2.636   4.228   9.480  0.2434 -0.0618  0.7841
 9120SOL    HW138822   2.545   4.245   9.502 -0.4363 -1.3989 -1.0256
 9120SOL    HW238823   2.666   4.311   9.518 -0.2051  0.2900  0.3692
 9121SOL     OW38824   1.518   2.547   3.624 -0.1330  0.2369  0.0503
 9121SOL    HW138825   1.442   2.595   3.657 -1.2195 -1.7490  0.4120
 9121SOL    HW238826   1.476   2.491   3.560  1.1476 -1.4061  0.6330
 9122SOL     OW38827   4.635   0.440   6.558  0.2650  0.1599  0.1505
 9122SOL    HW138828   4.610   0.529   6.535  2.1040  0.4303 -0.7910
 9122SOL    HW238829   4.607   0.388   6.482  1.0261 -1.2380  0.8304
 9123SOL     OW38830   1.196   4.305  17.103  0.0617 -0.1161  0.3310
 9123SOL    HW138831   1.171   4.264  17.186  2.0380 -1.7329  0.1523
 9123SOL    HW238832   1.248   4.380  17.132  0.2059 -0.1316  0.1048
 9124SOL     OW38833   4.602   4.023   6.270  0.4590 -0.6133  0.3943
 9124SOL    HW138834   4.610   4.040   6.364 -3.5004 -0.8863  0.8041
 9124SOL    HW238835   4.520   4.070   6.252  0.6068 -0.8786 -0.9732
 9125SOL     OW38836   1.400   0.678   0.961 -0.1253 -0.0610  0.1100
 9125SOL    HW138837   1.487   0.689   0.999 -0.3054 -0.0380  0.5179
 9125SOL    HW238838   1.371   0.609   1.020  0.3815 -2.4466 -2.4402
 9126SOL     OW38839   0.401   4.157  11.840 -0.0147 -0.2260 -0.1240
 9126SOL    HW138840   0.483   4.151  11.888  0.1105  2.1912 -0.0295
 9126SOL    HW238841   0.350   4.226  11.882  0.2656  0.3108 -0.6612
 9127SOL     OW38842   3.867   1.541   8.376 -0.1460 -0.2264  0.3142
 9127SOL    HW138843   3.890   1.472   8.438  2.4975 -1.1416 -1.7000
 9127SOL    HW238844   3.953   1.581   8.364  0.5970 -2.0176 -0.3338
 9128SOL     OW38845   1.034   0.023   1.992 -0.7728  0.3456 -0.2328
 9128SOL    HW138846   0.967   0.091   1.997 -0.5525  0.3754  2.3248
 9128SOL    HW238847   1.064   0.041   2.081 -2.2989 -0.8985  0.5376
 9129SOL     OW38848   3.172   4.704   4.255 -0.1388 -0.0130  0.0431
 9129SOL    HW138849   3.146   4.619   4.289  1.2186 -0.2867  0.4270
 9129SOL    HW238850   3.267   4.708   4.270  0.0780  1.1853 -1.5947
 9130SOL     OW38851   1.127   3.250   4.458 -0.1595  0.2557 -0.1879
 9130SOL    HW138852   1.210   3.252   4.409  1.7212  1.4905  3.0415
 9130SOL    HW238853   1.087   3.167   4.431 -1.1443  0.4495  0.7066
 9131SOL     OW38854   0.288   2.766   7.357 -0.2409 -0.2392 -0.0955
 9131SOL    HW138855   0.222   2.698   7.339 -0.4353 -0.3332  0.9802
 9131SOL    HW238856   0.338   2.719   7.424 -1.8400  0.5935  1.6920
 9132SOL     OW38857   0.726   1.718   3.007  0.0581  0.5501  0.3571
 9132SOL    HW138858   0.727   1.644   2.946 -0.1333  1.9914 -1.3843
 9132SOL    HW238859   0.772   1.677   3.081  0.4124  1.4080  0.6194
 9133SOL     OW38860   3.169   3.072   7.447  0.0175  0.6475 -0.2886
 9133SOL    HW138861   3.091   3.018   7.463 -1.2427  2.1358 -1.4395
 9133SOL    HW238862   3.232   3.002   7.430  1.5592  2.0903 -0.4882
 9134SOL     OW38863   4.045   1.649   5.490 -0.1388 -0.5727  0.2023
 9134SOL    HW138864   4.039   1.559   5.456 -0.5837 -0.5476  0.2193
 9134SOL    HW238865   4.106   1.694   5.432 -1.4004  2.2303  1.0966
 9135SOL     OW38866   3.955   1.062   5.458 -0.4671  0.1044  0.2984
 9135SOL    HW138867   3.955   0.970   5.429 -4.3055 -0.3720  1.7625
 9135SOL    HW238868   3.992   1.108   5.383 -1.3276  1.8299  0.9466
 9136SOL     OW38869   1.444   0.532  15.879 -0.5152 -0.2267 -0.5829
 9136SOL    HW138870   1.466   0.529  15.972 -0.8128  2.0737 -0.4440
 9136SOL    HW238871   1.429   0.438  15.864 -0.6564 -0.7351  2.6665
 9137SOL     OW38872   4.702   1.279  16.160 -0.2081  0.3514  1.0229
 9137SOL    HW138873   4.621   1.327  16.178 -0.1149  1.1456 -0.7619
 9137SOL    HW238874   0.035   1.301  16.238  0.7989  2.6113 -0.2610
 9138SOL     OW38875   1.165   4.328  10.781 -0.0046 -0.6170  0.0990
 9138SOL    HW138876   1.115   4.407  10.763 -0.6439 -1.2033 -0.6545
 9138SOL    HW238877   1.131   4.267  10.715  0.3385 -0.4787 -0.2064
 9139SOL     OW38878   0.728   0.089  12.102 -0.0384 -0.5202  0.8229
 9139SOL    HW138879   0.684   0.101  12.186 -1.1341 -2.7048  0.5694
 9139SOL    HW238880   0.687   0.154  12.046  0.5338 -1.3595 -0.5890
 9140SOL     OW38881   1.730   0.580   6.942 -0.1376 -0.7804  0.1566
 9140SOL    HW138882   1.788   0.614   6.873  1.7528 -2.8564  0.7459
 9140SOL    HW238883   1.694   0.510   6.888  1.2391 -0.8264 -0.7145
 9141SOL     OW38884   4.295   2.834  13.578 -0.6446 -0.2090 -0.7644
 9141SOL    HW138885   4.271   2.926  13.569 -0.2581  0.0127  0.5461
 9141SOL    HW238886   4.247   2.803  13.654  0.0071 -0.7813 -0.5872
 9142SOL     OW38887   4.168   2.777   7.269  0.2614  0.2528 -0.5521
 9142SOL    HW138888   4.217   2.710   7.317 -0.7707  0.4417  0.7639
 9142SOL    HW238889   4.081   2.770   7.308  0.7829  0.3121  0.6479
 9143SOL     OW38890   1.119   2.877   5.921  0.2329 -0.2545 -0.0893
 9143SOL    HW138891   1.028   2.905   5.911  0.2525 -0.1213  0.1128
 9143SOL    HW238892   1.129   2.894   6.015  0.1213 -0.5517 -0.0216
 9144SOL     OW38893   4.474   4.155   1.432 -0.2972 -0.1297  0.4920
 9144SOL    HW138894   4.380   4.156   1.448 -0.0044  1.3894  2.1362
 9144SOL    HW238895   4.495   4.096   1.505 -2.6994  0.3538  1.5639
 9145SOL     OW38896   1.718   2.738   7.803 -0.6970  0.4140 -0.6822
 9145SOL    HW138897   1.680   2.774   7.883 -0.2950 -0.2417 -0.1983
 9145SOL    HW238898   1.727   2.645   7.823 -2.5972  0.2675 -0.4864
 9146SOL     OW38899   1.252   1.897   6.931  0.0357  0.4696 -0.2235
 9146SOL    HW138900   1.161   1.893   6.957 -0.2643  1.0902 -1.1682
 9146SOL    HW238901   1.285   1.815   6.966  0.2821  0.0806 -1.3825
 9147SOL     OW38902   0.135   1.383   3.236 -0.2257  0.1310  0.2668
 9147SOL    HW138903   0.111   1.306   3.184  0.2425 -0.2075  0.5513
 9147SOL    HW238904   0.162   1.444   3.168  1.0027  0.4196  1.0293
 9148SOL     OW38905   3.076   4.272  17.195 -0.3390 -0.0029 -0.1748
 9148SOL    HW138906   3.141   4.226  17.143 -0.2212  0.5022 -0.4724
 9148SOL    HW238907   3.124   4.350  17.223  1.2425 -0.6886 -1.0154
 9149SOL     OW38908   1.324   4.560   7.284 -0.6269  0.0017  0.7361
 9149SOL    HW138909   1.301   4.565   7.192 -0.4051 -1.6034  0.5964
 9149SOL    HW238910   1.247   4.513   7.315 -1.2737  0.9490  0.5537
 9150SOL     OW38911   2.899   1.227  15.140  0.3296 -0.0999 -0.2147
 9150SOL    HW138912   2.882   1.320  15.126  1.0850  0.2881  1.4626
 9150SOL    HW238913   2.830   1.183  15.090 -0.8446  0.4257  0.9437
 9151SOL     OW38914   3.762   2.234   6.319  0.0408  0.5785  0.2862
 9151SOL    HW138915   3.767   2.191   6.234  2.6859 -2.2736  1.9090
 9151SOL    HW238916   3.837   2.291   6.300  1.5524 -1.7228 -0.6420
 9152SOL     OW38917   1.483   3.652  10.317  0.0646 -0.2880  0.1738
 9152SOL    HW138918   1.522   3.615  10.396  1.5020 -0.2091 -0.4950
 9152SOL    HW238919   1.552   3.711  10.287  0.2640 -1.0363 -0.8362
 9153SOL     OW38920   4.007   3.055   4.440  0.4584 -0.2142 -0.2805
 9153SOL    HW138921   4.087   3.055   4.387  1.3314  0.7668  1.0382
 9153SOL    HW238922   4.041   3.007   4.515  1.0237  0.1528 -0.3038
 9154SOL     OW38923   0.997   2.861  10.181 -0.6277  0.0468 -0.0951
 9154SOL    HW138924   1.003   2.902  10.095 -1.8628 -0.6375 -0.5124
 9154SOL    HW238925   1.087   2.842  10.208 -0.5704  0.0392 -0.2900
 9155SOL     OW38926   4.211   3.197   0.896 -0.5729  0.0706  0.0489
 9155SOL    HW138927   4.204   3.167   0.986  1.6515 -1.7965 -0.4170
 9155SOL    HW238928   4.170   3.121   0.856 -2.1730  0.9537 -0.0033
 9156SOL     OW38929   2.431   4.186  11.264 -0.2404 -0.2898 -0.2909
 9156SOL    HW138930   2.461   4.265  11.219 -1.0254  1.6749  2.6507
 9156SOL    HW238931   2.380   4.141  11.197  0.6622 -0.6118 -0.7638
 9157SOL     OW38932   4.147   2.203   6.105 -0.1597  0.3985  0.2543
 9157SOL    HW138933   4.130   2.137   6.037 -0.2606 -0.1183  0.7782
 9157SOL    HW238934   4.242   2.197   6.118 -0.3653  0.2201  1.7279
 9158SOL     OW38935   2.277   3.772  16.939 -0.2442 -0.0903  0.8529
 9158SOL    HW138936   2.365   3.804  16.919 -0.3238 -1.0759 -1.0507
 9158SOL    HW238937   2.264   3.747  16.848 -0.0025  0.6110  0.6260
 9159SOL     OW38938   2.516   0.001  16.551  0.0902 -0.2366  0.2262
 9159SOL    HW138939   2.564   0.022  16.471 -0.5034 -2.1665 -0.6201
 9159SOL    HW238940   2.518   0.087  16.593 -0.6959  0.6701 -1.6094
 9160SOL     OW38941   1.460   0.135  15.000 -0.6481 -0.0029 -0.1797
 9160SOL    HW138942   1.447   0.122  14.907  0.9479  0.0239 -0.4124
 9160SOL    HW238943   1.556   0.130  15.009 -0.9973 -0.1367  3.6796
 9161SOL     OW38944   0.461   0.460   5.138 -0.3839 -0.1024 -0.7689
 9161SOL    HW138945   0.490   0.409   5.062 -0.9784 -2.4786  0.6182
 9161SOL    HW238946   0.445   0.540   5.088  0.7793  0.6189  0.0196
 9162SOL     OW38947   3.694   1.322   6.531 -0.0746  0.1612  0.3069
 9162SOL    HW138948   3.776   1.278   6.506 -1.1778 -0.4866 -2.1356
 9162SOL    HW238949   3.630   1.261   6.493 -1.0161  0.9117  0.6997
 9163SOL     OW38950   1.728   0.937   7.377 -0.7821  0.0531 -0.0210
 9163SOL    HW138951   1.820   0.917   7.364 -0.7368  0.3496 -0.1747
 9163SOL    HW238952   1.689   0.885   7.447 -1.3492 -1.1995 -1.2604
 9164SOL     OW38953   2.823   2.557  15.845 -0.2434 -0.4053  0.6422
 9164SOL    HW138954   2.836   2.580  15.937  0.2148  1.3925  0.1245
 9164SOL    HW238955   2.760   2.486  15.846  0.7023 -1.2416  1.2795
 9165SOL     OW38956   0.165   2.149   4.940  0.5741  0.3878  0.6420
 9165SOL    HW138957   0.176   2.079   4.876 -1.1611 -0.4287  1.2395
 9165SOL    HW238958   0.194   2.102   5.019  1.5136  1.6632  1.0490
 9166SOL     OW38959   1.831   0.027   5.110  0.3038 -0.5896  0.3328
 9166SOL    HW138960   1.761   4.682   5.090 -0.4353  0.6973 -1.0572
 9166SOL    HW238961   1.905   4.712   5.059 -1.1919 -1.3632 -1.3507
 9167SOL     OW38962   1.724   2.100   2.169  0.2940  0.5687  0.1516
 9167SOL    HW138963   1.643   2.143   2.142 -0.4540 -0.5512  0.5821
 9167SOL    HW238964   1.678   2.033   2.220  2.0298  1.2314  2.6035
 9168SOL     OW38965   0.467   0.650   5.438 -0.2468  0.3836 -0.2429
 9168SOL    HW138966   0.388   0.608   5.403 -0.4169  0.9069 -0.4851
 9168SOL    HW238967   0.436   0.670   5.526  0.5982  0.1308  0.1125
 9169SOL     OW38968   4.338   1.439  15.725  0.7094  0.3134  0.3886
 9169SOL    HW138969   4.262   1.407  15.773 -0.2915 -0.4536 -1.7014
 9169SOL    HW238970   4.409   1.393  15.771  1.5535 -1.1368 -2.3345
 9170SOL     OW38971   4.443   0.388  14.109 -0.0711 -0.5560  0.2588
 9170SOL    HW138972   4.516   0.450  14.096  0.3064 -1.1517 -0.4875
 9170SOL    HW238973   4.417   0.352  14.024 -1.8549  1.9248 -0.2449
 9171SOL     OW38974   0.304   4.158   0.450 -0.4419  0.0739 -0.1594
 9171SOL    HW138975   0.252   4.121   0.378  1.4145 -2.8881  0.0177
 9171SOL    HW238976   0.379   4.194   0.401  0.0602 -1.5304 -0.5656
 9172SOL     OW38977   1.080   0.688   1.220  0.0630  0.3660  0.4468
 9172SOL    HW138978   1.163   0.645   1.244 -0.9225  0.0551  3.3013
 9172SOL    HW238979   1.028   0.659   1.295  0.1419 -1.1443 -0.0744
 9173SOL     OW38980   1.582   0.372   6.286 -0.5627  0.1482 -0.0394
 9173SOL    HW138981   1.669   0.374   6.247 -0.2910  1.7196  0.6379
 9173SOL    HW238982   1.541   0.428   6.222 -0.2298 -0.1157 -0.4853
 9174SOL     OW38983   1.251   0.822   4.130  0.2998  0.0425 -0.6149
 9174SOL    HW138984   1.323   0.845   4.071  0.3629  1.5644  0.0390
 9174SOL    HW238985   1.299   0.804   4.211 -0.3623  0.1655 -0.1964
 9175SOL     OW38986   2.479   2.967   2.699 -0.0396 -0.0771 -0.1649
 9175SOL    HW138987   2.410   3.025   2.732 -0.3950 -0.4805 -0.2005
 9175SOL    HW238988   2.520   3.024   2.635 -0.0303 -1.1888 -1.1387
 9176SOL     OW38989   3.228   3.340   6.217 -0.1022 -0.2542 -0.1921
 9176SOL    HW138990   3.160   3.402   6.191  2.2791  0.6285 -4.4876
 9176SOL    HW238991   3.210   3.340   6.310 -0.7525  0.2658 -0.3166
 9177SOL     OW38992   0.947   4.437  16.932  0.5757 -0.0282  0.2105
 9177SOL    HW138993   1.025   4.425  16.987 -0.0239 -1.5303  0.7600
 9177SOL    HW238994   0.985   4.458  16.847 -0.3293 -2.5005 -0.7961
 9178SOL     OW38995   2.615   0.358   8.335 -0.0373  0.0040 -0.0775
 9178SOL    HW138996   2.538   0.300   8.331 -0.1395  0.1614 -0.4263
 9178SOL    HW238997   2.565   0.422   8.384  0.7118  0.1888  0.4348
 9179SOL     OW38998   3.370   4.711  10.869  0.6064 -0.1129  0.0780
 9179SOL    HW138999   3.367   4.627  10.916  1.2543  0.2433  0.7630
 9179SOL    HW239000   3.440   4.700  10.806  1.0306 -2.3475  0.9482
 9180SOL     OW39001   4.059   2.647  15.368 -0.1294 -0.0207  0.3824
 9180SOL    HW139002   4.022   2.647  15.280  1.0127 -0.6236 -0.0985
 9180SOL    HW239003   4.151   2.658  15.346 -0.1434 -0.9442 -0.1651
 9181SOL     OW39004   0.943   0.706   9.430  0.5735 -0.2241  0.0308
 9181SOL    HW139005   1.029   0.747   9.425  1.0948 -1.2258  0.6541
 9181SOL    HW239006   0.956   0.618   9.394 -0.9015 -1.0664  1.5778
 9182SOL     OW39007   3.934   2.505  13.924  0.3516  0.0762  0.0855
 9182SOL    HW139008   4.030   2.499  13.926  0.3347 -0.2124 -0.0071
 9182SOL    HW239009   3.915   2.424  13.877 -0.4199  1.2890 -1.6722
 9183SOL     OW39010   1.041   2.613   7.214 -0.2014  0.3093  0.2808
 9183SOL    HW139011   0.983   2.573   7.149  1.4473 -2.2563  0.3758
 9183SOL    HW239012   0.977   2.612   7.285 -1.1811  0.7678 -0.5836
 9184SOL     OW39013   1.791   1.138   3.308  0.1488 -0.4303 -0.1123
 9184SOL    HW139014   1.724   1.171   3.368  0.3430 -0.2882  0.0264
 9184SOL    HW239015   1.735   1.085   3.252  0.0147  0.6987 -1.0574
 9185SOL     OW39016   1.947   2.575   5.686  0.4916 -0.4796 -0.6076
 9185SOL    HW139017   1.983   2.497   5.728 -2.9760 -1.2707  0.9168
 9185SOL    HW239018   1.872   2.581   5.746 -0.2947  2.7419 -1.8962
 9186SOL     OW39019   0.330   3.947   6.453  0.0088 -0.3606 -0.4623
 9186SOL    HW139020   0.409   3.954   6.400  1.2183 -0.1737  1.3730
 9186SOL    HW239021   0.333   3.854   6.475 -1.8007 -0.7902 -2.0074
 9187SOL     OW39022   3.600   4.057  16.582 -0.1469  0.1637 -0.6382
 9187SOL    HW139023   3.618   4.002  16.658 -0.6071  0.1043 -0.5720
 9187SOL    HW239024   3.675   4.116  16.588 -1.2831  1.4629  0.9445
 9188SOL     OW39025   4.363   4.449   4.412 -0.1308 -0.6836  0.2748
 9188SOL    HW139026   4.320   4.519   4.362  1.7496 -0.1854 -0.6220
 9188SOL    HW239027   4.285   4.404   4.445  0.5750 -1.8166  0.3886
 9189SOL     OW39028   4.011   3.340  16.469  0.0996 -0.4337 -0.2594
 9189SOL    HW139029   4.006   3.245  16.457  1.1049 -0.2254 -2.4081
 9189SOL    HW239030   4.092   3.344  16.519  0.7532 -0.2873 -1.3297
 9190SOL     OW39031   3.336   4.183   9.012 -0.1884 -0.1802  0.0182
 9190SOL    HW139032   3.249   4.156   8.983 -0.2952  0.4112 -0.2044
 9190SOL    HW239033   3.331   4.167   9.106 -0.7556 -0.8127 -0.1190
 9191SOL     OW39034   2.853   2.689   8.871 -0.2438  0.8054  0.4601
 9191SOL    HW139035   2.803   2.715   8.948  1.1076 -2.5154  2.4503
 9191SOL    HW239036   2.814   2.603   8.855 -0.0059  1.1339 -1.9785
 9192SOL     OW39037   2.843   4.194   1.350 -0.2250 -0.0211 -0.3377
 9192SOL    HW139038   2.925   4.177   1.302  0.7112  0.7992  0.9648
 9192SOL    HW239039   2.788   4.172   1.275  0.2656  1.4343 -1.1398
 9193SOL     OW39040   1.822   1.628   5.145 -1.1542 -0.1126  0.0374
 9193SOL    HW139041   1.883   1.660   5.079 -0.1189  0.4149  1.2350
 9193SOL    HW239042   1.739   1.655   5.107 -1.1873  1.5598  1.2578
 9194SOL     OW39043   3.240   0.891   8.757  0.5498  0.8023  0.3850
 9194SOL    HW139044   3.275   0.980   8.754 -0.8374  1.2923 -1.0122
 9194SOL    HW239045   3.160   0.909   8.709 -1.5770 -1.0116  3.2514
 9195SOL     OW39046   0.357   3.509   3.721  0.0155 -0.0166  0.1923
 9195SOL    HW139047   0.297   3.436   3.737  2.0809 -1.2641  2.3012
 9195SOL    HW239048   0.315   3.589   3.752  1.6753  1.5526 -1.6669
 9196SOL     OW39049   0.781   2.236  11.188  0.1310  0.7224  0.2007
 9196SOL    HW139050   0.744   2.149  11.201  0.5308  0.6218  0.6403
 9196SOL    HW239051   0.705   2.295  11.196 -1.0266 -0.5389 -1.3852
 9197SOL     OW39052   3.435   1.703   3.882 -0.4546  0.2062 -0.5141
 9197SOL    HW139053   3.425   1.644   3.807 -0.8916 -0.6156  0.1973
 9197SOL    HW239054   3.405   1.786   3.844 -1.1257  1.3020  2.4596
 9198SOL     OW39055   2.536   3.229   0.169 -0.0565 -0.1687 -0.1032
 9198SOL    HW139056   2.631   3.240   0.166 -0.3549  2.8866  1.0752
 9198SOL    HW239057   2.500   3.299   0.115 -2.1607 -0.7210  0.5820
 9199SOL     OW39058   1.621   4.279   7.380 -0.4734  0.4307 -0.1952
 9199SOL    HW139059   1.633   4.335   7.456 -1.5728 -0.0990  0.3652
 9199SOL    HW239060   1.546   4.227   7.406 -1.7252  1.6555 -1.3104
 9200SOL     OW39061   1.933   1.778   8.953  0.7108 -0.0918  0.6003
 9200SOL    HW139062   1.908   1.692   8.987  0.9561 -0.3799  0.0334
 9200SOL    HW239063   1.898   1.844   9.014 -2.1832 -0.8295 -0.2474
 9201SOL     OW39064   3.599   2.116  12.084  0.0204 -0.3719  0.3698
 9201SOL    HW139065   3.636   2.199  12.057 -1.0696 -0.1235 -0.3299
 9201SOL    HW239066   3.639   2.060  12.017  1.3800 -0.2444  1.0564
 9202SOL     OW39067   2.462   2.851   4.037  0.0584  0.3394  0.5777
 9202SOL    HW139068   2.468   2.929   3.982  2.3668 -1.2058 -1.3175
 9202SOL    HW239069   2.523   2.874   4.108  1.3934  0.9672 -0.7632
 9203SOL     OW39070   1.904   2.256  17.667 -0.8479  0.2999 -0.1962
 9203SOL    HW139071   1.903   2.167   0.029  3.0268 -1.2705 -3.8372
 9203SOL    HW239072   1.811   2.275   0.005 -0.0613  1.7474  3.3698
 9204SOL     OW39073   1.961   0.485   7.615 -0.2933 -0.1053  0.2916
 9204SOL    HW139074   2.047   0.512   7.582  0.7087 -1.8607  1.5046
 9204SOL    HW239075   1.982   0.478   7.708  3.9321  1.3316 -0.5713
 9205SOL     OW39076   2.468   1.039   3.494  0.2483  0.0114 -0.7710
 9205SOL    HW139077   2.510   0.973   3.438  1.1980 -0.1608  0.1492
 9205SOL    HW239078   2.423   0.981   3.556 -1.1107  1.3616 -0.5102
 9206SOL     OW39079   1.758   1.100   6.169  0.3209 -0.1235  0.2905
 9206SOL    HW139080   1.710   1.068   6.246 -0.7009 -1.3860 -0.8819
 9206SOL    HW239081   1.690   1.153   6.129  0.5594  0.1547  0.2530
 9207SOL     OW39082   0.582   4.470  10.253  0.0996 -0.1571  0.1267
 9207SOL    HW139083   0.632   4.471  10.335  1.3362 -1.1883 -0.6144
 9207SOL    HW239084   0.517   4.403  10.274  1.2729 -1.4331 -0.3623
 9208SOL     OW39085   3.778   2.543   7.632  0.5771 -0.1360  0.4309
 9208SOL    HW139086   3.710   2.569   7.694 -0.0794 -3.1107  0.9530
 9208SOL    HW239087   3.841   2.615   7.638 -1.0830  1.3378  0.0502
 9209SOL     OW39088   3.428   0.866   0.210 -0.3482 -0.3256 -0.0120
 9209SOL    HW139089   3.437   0.958   0.235  0.6307 -0.4042 -0.0611
 9209SOL    HW239090   3.333   0.854   0.210 -0.0326 -2.9497  0.2601
 9210SOL     OW39091   1.609   0.659   4.774  0.2756  0.1533 -0.3202
 9210SOL    HW139092   1.526   0.654   4.822  0.2791  0.2552 -0.3040
 9210SOL    HW239093   1.658   0.683   4.852  0.0159 -1.4973  0.3539
 9211SOL     OW39094   3.717   2.949  12.087  0.4422  0.1415  0.1323
 9211SOL    HW139095   3.631   2.991  12.080 -0.1097 -0.6281  2.4485
 9211SOL    HW239096   3.737   2.933  11.995  1.2279 -0.1668  0.3561
 9212SOL     OW39097   3.966   0.988   4.830  0.1582 -0.3742 -0.1015
 9212SOL    HW139098   4.029   0.993   4.758 -0.1337 -0.2079 -0.3472
 9212SOL    HW239099   4.001   1.051   4.892  1.5325 -0.1119 -1.1294
 9213SOL     OW39100   4.193   3.351   4.413 -0.2262 -0.4294  0.3314
 9213SOL    HW139101   4.122   3.287   4.404 -1.5750  1.0231  0.5954
 9213SOL    HW239102   4.226   3.341   4.324  2.1712  0.8389  1.0708
 9214SOL     OW39103   1.929   4.201   4.764 -0.5500  0.8634 -0.5616
 9214SOL    HW139104   1.902   4.271   4.704 -4.4565 -0.3417 -0.2331
 9214SOL    HW239105   1.981   4.244   4.831  0.5214  2.3483 -2.3294
 9215SOL     OW39106   2.541   3.876   1.797 -0.7370 -0.1547  0.2544
 9215SOL    HW139107   2.514   3.786   1.817 -0.1209 -0.1587  1.0600
 9215SOL    HW239108   2.630   3.876   1.831 -0.5685  0.7170 -0.1756
 9216SOL     OW39109   2.897   1.398   3.696  0.0402  0.8390 -0.6916
 9216SOL    HW139110   2.898   1.455   3.619 -0.4895  3.0230  0.9169
 9216SOL    HW239111   2.827   1.432   3.751  1.1817  2.7200 -0.3796
 9217SOL     OW39112   1.556   1.535   4.636 -0.1143 -0.6004  0.6121
 9217SOL    HW139113   1.542   1.464   4.698  0.9801  0.7249  2.3692
 9217SOL    HW239114   1.630   1.585   4.671  2.6157 -2.4580 -2.5237
 9218SOL     OW39115   4.640   2.214   3.022 -0.3697 -0.2926 -0.5457
 9218SOL    HW139116   4.715   2.245   3.073 -1.8517 -0.6578  1.8800
 9218SOL    HW239117   4.576   2.190   3.090 -0.3101 -0.3336 -0.5046
 9219SOL     OW39118   3.682   0.070  16.053 -0.2624  0.3604  0.2906
 9219SOL    HW139119   3.654   4.716  15.997 -0.4893  0.7754 -0.1299
 9219SOL    HW239120   3.615   0.090  16.119  0.4716  1.5708  0.6715
 9220SOL     OW39121   2.301   3.552   2.929 -0.0820 -0.6471 -0.0550
 9220SOL    HW139122   2.390   3.520   2.920 -0.9341 -3.2657  0.8319
 9220SOL    HW239123   2.272   3.547   2.837  2.8271 -0.8469 -0.9427
 9221SOL     OW39124   0.511   1.723  14.173 -0.4753 -0.6462 -0.0400
 9221SOL    HW139125   0.600   1.688  14.173 -0.6176 -1.0163  0.9881
 9221SOL    HW239126   0.486   1.727  14.265  2.0816 -0.4046  0.6610
 9222SOL     OW39127   4.363   1.866   7.842  0.4496 -0.3385  0.2435
 9222SOL    HW139128   4.355   1.846   7.749 -1.4380 -1.8215  0.7204
 9222SOL    HW239129   4.429   1.801   7.866  0.1225 -1.2983 -1.4241
 9223SOL     OW39130   0.169   3.340   6.341  0.4242  0.3300 -0.0249
 9223SOL    HW139131   0.137   3.260   6.300 -0.6099 -0.0551  1.5437
 9223SOL    HW239132   0.262   3.321   6.327 -0.1892 -2.3564 -0.2871
 9224SOL     OW39133   0.992   0.711   7.722  0.0106  0.3967 -0.2098
 9224SOL    HW139134   1.049   0.661   7.781  0.1279  0.1843 -0.5021
 9224SOL    HW239135   0.906   0.672   7.734 -0.0986  0.4501 -0.8171
 9225SOL     OW39136   1.970   1.693  12.933 -0.2018 -0.3775  0.1066
 9225SOL    HW139137   2.058   1.690  12.971 -0.3263 -3.2552  0.1647
 9225SOL    HW239138   1.964   1.787  12.915  1.5610 -0.0690  1.0912
 9226SOL     OW39139   1.849   3.997   9.463 -0.4100  0.1091 -0.0082
 9226SOL    HW139140   1.897   3.917   9.441 -1.3806 -0.1175 -1.2731
 9226SOL    HW239141   1.758   3.968   9.471 -0.5670  0.5115 -0.3753
 9227SOL     OW39142   1.050   2.782   3.880  0.4090 -0.8438  0.1604
 9227SOL    HW139143   1.033   2.829   3.799 -1.4364 -2.5333 -0.4247
 9227SOL    HW239144   0.974   2.724   3.886 -0.7974  0.7149 -0.0915
 9228SOL     OW39145   3.281   1.343   1.469 -0.3192  0.9145  0.4178
 9228SOL    HW139146   3.251   1.253   1.463  2.5141 -0.0492  0.9143
 9228SOL    HW239147   3.286   1.372   1.377 -2.2631  1.0444  0.3470
 9229SOL     OW39148   3.620   4.526   5.522 -0.2807 -0.1215 -0.1968
 9229SOL    HW139149   3.702   4.539   5.569 -0.0427 -0.8322 -0.4153
 9229SOL    HW239150   3.642   4.457   5.460 -1.0047 -1.7782  1.3945
 9230SOL     OW39151   0.667   0.043  16.289 -0.0208  0.5580  0.5738
 9230SOL    HW139152   0.577   0.009  16.283  1.5635 -2.6842 -4.3178
 9230SOL    HW239153   0.690   4.708  16.365 -0.5729  0.1085  0.4302
 9231SOL     OW39154   1.721   4.119   0.787 -0.4966  0.7177  0.4811
 9231SOL    HW139155   1.655   4.133   0.855  1.0110 -0.1599  2.1132
 9231SOL    HW239156   1.681   4.175   0.720  0.6337  1.2809  0.2745
 9232SOL     OW39157   3.500   2.945   6.989  0.0212  0.4098 -0.2824
 9232SOL    HW139158   3.539   2.974   7.071 -0.2188 -0.2886  0.0776
 9232SOL    HW239159   3.498   2.850   7.000  1.5417  0.4174  0.0969
 9233SOL     OW39160   4.659   0.264  16.271 -0.0458 -0.2204  0.2806
 9233SOL    HW139161   0.024   0.252  16.318  0.7689 -1.7440 -1.5219
 9233SOL    HW239162   4.688   0.253  16.181 -2.9279  1.9152 -0.9174
 9234SOL     OW39163   3.625   2.907   4.852  0.1187  0.5362  0.5964
 9234SOL    HW139164   3.567   2.831   4.863 -0.5850  0.9132 -0.4511
 9234SOL    HW239165   3.622   2.949   4.938 -0.4120  0.1300  0.7770
 9235SOL     OW39166   4.092   3.466  12.537 -0.3404  0.7812  0.3722
 9235SOL    HW139167   3.997   3.477  12.541 -0.4366 -0.5402  1.7236
 9235SOL    HW239168   4.113   3.394  12.597 -0.0077  0.8858  0.3789
 9236SOL     OW39169   4.331   1.178   8.976  0.3390 -0.8451 -0.4882
 9236SOL    HW139170   4.376   1.210   9.054 -1.5820  1.6331 -0.3739
 9236SOL    HW239171   4.371   1.241   8.915 -1.1055  0.2010 -0.3507
 9237SOL     OW39172   2.364   4.018   8.120 -0.2737 -0.0091  0.2237
 9237SOL    HW139173   2.449   4.047   8.155 -0.9534 -1.0747  2.7392
 9237SOL    HW239174   2.376   3.930   8.155  1.1545 -0.2201 -0.8010
 9238SOL     OW39175   4.505   3.610  11.110 -0.8132 -0.3631 -0.0392
 9238SOL    HW139176   4.480   3.664  11.035 -0.3034 -1.3297 -0.9033
 9238SOL    HW239177   4.563   3.554  11.058 -0.3404 -0.4582  0.5859
 9239SOL     OW39178   0.823   2.894   2.430 -0.2187  0.2148  0.1572
 9239SOL    HW139179   0.771   2.882   2.351 -0.7638  0.5271  0.4694
 9239SOL    HW239180   0.762   2.940   2.487 -1.7639 -0.7375 -0.7524
 9240SOL     OW39181   4.572   3.093  12.355  0.5937  0.0465 -0.0536
 9240SOL    HW139182   4.521   3.166  12.390 -0.1800 -1.3628  1.7937
 9240SOL    HW239183   4.517   3.015  12.358  0.1893  0.3102 -0.5939
 9241SOL     OW39184   0.771   0.095   6.952 -0.4509 -0.0325 -0.2029
 9241SOL    HW139185   0.710   0.038   6.998 -1.8089 -0.0463 -2.0385
 9241SOL    HW239186   0.745   0.182   6.980 -1.1505 -1.2490  2.8790
 9242SOL     OW39187   1.828   2.515   2.189 -0.1631  0.6171  0.7831
 9242SOL    HW139188   1.917   2.486   2.209  0.7037  2.0557 -0.9964
 9242SOL    HW239189   1.825   2.509   2.093 -1.9060 -1.2924  0.9605
 9243SOL     OW39190   2.608   1.009   6.043  0.1880 -0.0020  0.2453
 9243SOL    HW139191   2.522   0.975   6.069  0.6666 -2.2827 -1.1785
 9243SOL    HW239192   2.593   1.103   6.051  1.5650  0.4152 -2.3589
 9244SOL     OW39193   4.336   3.340   1.332  0.0621  0.4614  0.0539
 9244SOL    HW139194   4.272   3.329   1.402  1.8780 -2.1200  1.3101
 9244SOL    HW239195   4.283   3.390   1.271  2.4661  2.5471 -0.3559
 9245SOL     OW39196   4.701   1.339  11.693  0.1410  0.0564 -0.0170
 9245SOL    HW139197   0.004   1.431  11.706 -0.5922  0.4479 -1.5487
 9245SOL    HW239198   4.663   1.321  11.779 -3.7388 -2.3007 -2.2394
 9246SOL     OW39199   0.499   4.131  13.476  0.6679  0.5823 -0.0765
 9246SOL    HW139200   0.454   4.073  13.537  1.3153  0.2866  0.1275
 9246SOL    HW239201   0.574   4.074  13.456  0.5200  0.0768  0.8053
 9247SOL     OW39202   3.453   2.666  10.753  0.1412  0.3588 -0.3232
 9247SOL    HW139203   3.468   2.606  10.680 -0.7258 -0.3950  0.0968
 9247SOL    HW239204   3.532   2.719  10.747  0.5895  0.0069  2.4873
 9248SOL     OW39205   1.016   2.674   4.894 -0.2854  0.6932  0.2906
 9248SOL    HW139206   1.087   2.735   4.877  0.9341 -1.5456 -2.5832
 9248SOL    HW239207   0.938   2.713   4.855 -2.1724 -1.5157  1.8050
 9249SOL     OW39208   1.463   4.711  16.680  0.0048 -0.8301 -0.5088
 9249SOL    HW139209   1.453   0.009  16.774  1.6581 -1.7458 -0.1878
 9249SOL    HW239210   1.541   4.657  16.671  0.4178 -0.3648  0.2924
 9250SOL     OW39211   1.776   2.450   7.906  0.1936  0.0726  0.2154
 9250SOL    HW139212   1.773   2.395   7.828 -0.3819  1.0953 -0.4843
 9250SOL    HW239213   1.697   2.428   7.955 -0.4036 -2.5788 -1.9747
 9251SOL     OW39214   2.162   0.720   8.586  0.4149 -0.6035 -0.1952
 9251SOL    HW139215   2.166   0.629   8.616  0.1093 -0.2748  0.8475
 9251SOL    HW239216   2.069   0.732   8.605  0.6866  1.0798  0.0362
 9252SOL     OW39217   0.328   0.385   3.683 -0.4768  0.6764 -0.0053
 9252SOL    HW139218   0.271   0.313   3.709 -1.1243  1.0669 -0.3399
 9252SOL    HW239219   0.274   0.455   3.647 -2.3808 -0.8389 -0.1293
 9253SOL     OW39220   1.113   3.451  11.276 -0.5375  0.0406 -0.5235
 9253SOL    HW139221   1.083   3.512  11.209  2.4395 -0.6591 -2.5020
 9253SOL    HW239222   1.104   3.367  11.231  0.1729 -0.2808 -0.0639
 9254SOL     OW39223   0.871   2.255  12.902  0.3732 -0.3960 -0.0181
 9254SOL    HW139224   0.779   2.277  12.889  0.7608  0.8372 -0.8097
 9254SOL    HW239225   0.911   2.336  12.870  0.5989 -0.2257  0.7075
 9255SOL     OW39226   0.601   3.541   8.752 -0.2965 -0.0381 -0.2423
 9255SOL    HW139227   0.567   3.621   8.793  1.7621  0.1407  1.0898
 9255SOL    HW239228   0.652   3.582   8.683 -0.0656  0.4402  0.2095
 9256SOL     OW39229   1.170   3.553   1.585 -0.2779 -0.1402  0.0297
 9256SOL    HW139230   1.097   3.506   1.545  1.2986  0.3496 -3.4507
 9256SOL    HW239231   1.134   3.641   1.589 -2.1203 -0.8218 -1.4802
 9257SOL     OW39232   3.444   0.136   2.731 -0.3008 -0.5014 -0.8056
 9257SOL    HW139233   3.416   0.113   2.819  3.1243 -0.4151  0.3056
 9257SOL    HW239234   3.425   0.052   2.689 -3.0198  0.3632 -1.2965
 9258SOL     OW39235   4.416   3.975   1.900  0.1224 -0.1106 -0.0787
 9258SOL    HW139236   4.486   4.040   1.911 -1.5361  1.5594  0.4600
 9258SOL    HW239237   4.425   3.976   1.804  0.5317 -2.8715 -0.0683
 9259SOL     OW39238   0.171   1.093   8.644 -0.5111 -0.3616 -0.3641
 9259SOL    HW139239   0.222   1.128   8.717 -0.1868 -1.3523 -0.1059
 9259SOL    HW239240   0.126   1.020   8.687 -2.0633  0.6133 -0.3371
 9260SOL     OW39241   1.125   4.327   2.224  0.6377  0.0525 -0.2288
 9260SOL    HW139242   1.087   4.406   2.261 -0.5641 -0.2718 -0.7784
 9260SOL    HW239243   1.124   4.337   2.129  1.7149 -0.1852 -0.2694
 9261SOL     OW39244   2.659   1.688  17.182 -0.1717  0.5823  0.1791
 9261SOL    HW139245   2.724   1.631  17.139 -0.4943  0.0047  0.4501
 9261SOL    HW239246   2.716   1.760  17.208  1.8021 -0.4968 -1.1408
 9262SOL     OW39247   0.353   0.610   6.787 -0.0060  0.0901  0.0271
 9262SOL    HW139248   0.323   0.663   6.861 -0.6547  1.0811 -0.9515
 9262SOL    HW239249   0.268   0.576   6.759  1.4262 -2.7381 -0.8905
 9263SOL     OW39250   2.947   2.414   5.758 -0.1466 -0.0128  0.4053
 9263SOL    HW139251   3.009   2.363   5.707 -0.8555  1.6687 -2.1420
 9263SOL    HW239252   2.978   2.501   5.731 -3.4837  0.9765 -0.2330
 9264SOL     OW39253   1.957   1.743  17.114 -0.0991  0.2508 -0.1981
 9264SOL    HW139254   1.959   1.826  17.067 -0.8179  0.5303  0.2636
 9264SOL    HW239255   2.048   1.713  17.111 -0.4663 -0.9742  1.0189
 9265SOL     OW39256   3.676   3.959  11.566 -0.6012 -0.3968  0.0536
 9265SOL    HW139257   3.698   4.051  11.547 -1.9877  0.2643  1.5920
 9265SOL    HW239258   3.682   3.917  11.481 -2.6819 -0.8710  0.1500
 9266SOL     OW39259   3.897   0.304   7.862  0.0337  0.2244  0.1314
 9266SOL    HW139260   3.823   0.254   7.827  1.2591 -0.9674 -0.7608
 9266SOL    HW239261   3.967   0.305   7.797  0.3493 -0.4787  0.4681
 9267SOL     OW39262   3.552   3.759  11.890 -0.3154 -0.1032  0.3564
 9267SOL    HW139263   3.495   3.722  11.821  2.3185 -0.2272 -1.7544
 9267SOL    HW239264   3.630   3.704  11.889  0.9681  1.7495 -0.4125
 9268SOL     OW39265   3.656   2.036   7.683  0.1056  0.6412 -0.3371
 9268SOL    HW139266   3.610   2.090   7.747 -0.3610  0.8439 -0.8506
 9268SOL    HW239267   3.706   1.990   7.751 -0.0348  0.1817 -0.5419
 9269SOL     OW39268   1.457   2.805   6.901  0.6271  0.2099 -0.1762
 9269SOL    HW139269   1.493   2.838   6.983 -0.6888  0.6739  0.2127
 9269SOL    HW239270   1.374   2.766   6.929  0.1981  1.2950  0.0542
 9270SOL     OW39271   2.973   0.522  13.795  0.9750 -0.1420  0.4569
 9270SOL    HW139272   2.908   0.452  13.788  0.9182 -0.1454  1.0357
 9270SOL    HW239273   2.913   0.586  13.832  0.7278  0.3681 -0.8215
 9271SOL     OW39274   3.801   0.019   2.172 -0.0187  0.1353 -0.3868
 9271SOL    HW139275   3.844   4.659   2.137  0.3648 -0.2020  0.8275
 9271SOL    HW239276   3.870   0.080   2.146  2.4148 -2.5645 -0.2961
 9272SOL     OW39277   4.525   1.195   7.935  0.3026 -0.5711 -0.1225
 9272SOL    HW139278   4.574   1.235   7.863 -0.5000 -0.8931 -0.8454
 9272SOL    HW239279   4.569   1.109   7.941 -1.4109 -1.5594 -1.7294
 9273SOL     OW39280   0.480   1.816   9.230  0.0798 -0.5236  0.5750
 9273SOL    HW139281   0.441   1.740   9.273  0.2035 -1.1955 -0.5026
 9273SOL    HW239282   0.455   1.891   9.285  0.4879 -0.4219  0.6173
 9274SOL     OW39283   4.033   0.552   9.907  0.1479  0.0511  0.3331
 9274SOL    HW139284   4.125   0.530   9.894  0.3558  0.7716  0.6047
 9274SOL    HW239285   3.993   0.473   9.869 -1.1468  0.0502  1.7138
 9275SOL     OW39286   3.945   1.519   5.746 -0.0045 -0.3448 -0.4412
 9275SOL    HW139287   4.010   1.472   5.797 -0.7027  0.0265  0.7868
 9275SOL    HW239288   3.993   1.563   5.676 -0.2289  0.4296 -0.0997
 9276SOL     OW39289   3.878   3.729   2.014 -0.1288  0.7215 -0.0175
 9276SOL    HW139290   3.955   3.687   2.052  0.1069  1.1829  0.0164
 9276SOL    HW239291   3.834   3.660   1.964  2.0615 -1.5581  1.1727
 9277SOL     OW39292   0.749   1.403   6.173  0.0598  0.3556  0.2811
 9277SOL    HW139293   0.767   1.476   6.233 -3.9605  1.6685 -0.1021
 9277SOL    HW239294   0.839   1.385   6.144  0.2656  0.6334  0.7402
 9278SOL     OW39295   0.899   0.109   9.963  0.1672 -0.7291 -0.0205
 9278SOL    HW139296   0.877   0.020   9.988 -1.2901 -0.6672 -1.0956
 9278SOL    HW239297   0.978   0.087   9.915  2.4278  2.2729  2.3189
 9279SOL     OW39298   4.524   3.614   6.927 -0.2626 -0.2869 -0.0959
 9279SOL    HW139299   4.515   3.638   6.834 -2.0904  1.1810  0.4541
 9279SOL    HW239300   4.618   3.631   6.935  0.4776 -3.5265 -1.7983
 9280SOL     OW39301   1.632   3.058   6.257  0.2248 -0.3277  0.1195
 9280SOL    HW139302   1.610   3.005   6.333 -2.5020  1.4324  0.5563
 9280SOL    HW239303   1.684   2.995   6.208 -0.4266 -1.2634  0.6465
 9281SOL     OW39304   3.125   2.454   8.877 -0.2852 -0.2464  0.4123
 9281SOL    HW139305   3.174   2.394   8.933  0.0144 -0.9112 -0.5613
 9281SOL    HW239306   3.108   2.402   8.799  4.0498  0.3295 -0.9051
 9282SOL     OW39307   2.314   2.095   8.497 -0.3674  0.3608 -0.6252
 9282SOL    HW139308   2.245   2.117   8.435 -0.8932  1.1165  0.2365
 9282SOL    HW239309   2.395   2.112   8.449  0.6046  0.8057  1.1715
 9283SOL     OW39310   1.381   0.590  11.273 -0.0641 -0.2352  0.8359
 9283SOL    HW139311   1.361   0.497  11.284 -0.1382 -0.6733 -2.9918
 9283SOL    HW239312   1.323   0.611  11.200  0.8783  1.3746  0.5713
 9284SOL     OW39313   2.062   1.094   8.802  0.2542 -0.5313 -0.0642
 9284SOL    HW139314   2.013   1.019   8.769 -1.2149  0.0895  0.7098
 9284SOL    HW239315   2.000   1.163   8.778 -1.5913 -1.9611  0.5390
 9285SOL     OW39316   1.633   0.928  13.991 -0.2123  0.0218  0.3149
 9285SOL    HW139317   1.682   0.976  13.923  2.7878  0.0520  2.5400
 9285SOL    HW239318   1.683   0.847  13.978  0.5046  0.8179 -2.0084
 9286SOL     OW39319   0.959   3.411  16.441  0.0354 -0.1731  0.3199
 9286SOL    HW139320   0.942   3.320  16.462  0.5323 -0.1684  0.7713
 9286SOL    HW239321   1.040   3.393  16.393  1.5316  0.9238  2.4271
 9287SOL     OW39322   3.626   0.866   5.419 -0.3357  0.3374 -0.4767
 9287SOL    HW139323   3.532   0.876   5.405 -0.1015  2.0819 -0.7497
 9287SOL    HW239324   3.633   0.916   5.501  3.3541  0.9499 -1.1923
 9288SOL     OW39325   0.026   1.919   9.067  0.3380 -0.3245 -0.3319
 9288SOL    HW139326   0.092   1.956   9.126  0.4649  0.2527 -0.8364
 9288SOL    HW239327   0.049   1.827   9.064 -1.2131 -0.7009 -0.5976
 9289SOL     OW39328   3.857   3.672  13.736 -0.0340 -0.0057 -0.2440
 9289SOL    HW139329   3.826   3.760  13.758 -2.7305 -0.5978 -1.6310
 9289SOL    HW239330   3.922   3.697  13.670 -1.1253 -0.4930 -1.5060
 9290SOL     OW39331   0.046   3.080   1.523 -0.1627  0.2364  0.1631
 9290SOL    HW139332   0.085   3.139   1.588  0.7152 -0.6647  0.4442
 9290SOL    HW239333   4.700   3.141   1.486 -1.0061 -1.4140 -1.0937
 9291SOL     OW39334   2.282   4.711   5.164  0.3285  0.0823 -0.3351
 9291SOL    HW139335   2.273   4.679   5.254  0.2795  1.1850  0.0539
 9291SOL    HW239336   2.374   0.019   5.161 -0.4527  2.9841 -0.2447
 9292SOL     OW39337   3.699   0.302   7.440  0.0374  0.0129  0.3097
 9292SOL    HW139338   3.616   0.340   7.412 -0.6085 -0.3352  1.7608
 9292SOL    HW239339   3.687   0.285   7.533  1.3535 -0.8671  0.3182
 9293SOL     OW39340   4.062   1.941   5.964  0.3010 -0.0887 -0.4795
 9293SOL    HW139341   3.994   1.889   5.921 -0.3364  1.8439 -1.8492
 9293SOL    HW239342   4.111   1.864   5.991  1.2843  0.8339  0.3518
 9294SOL     OW39343   3.574   3.238  13.868  0.5435  0.6557  0.0500
 9294SOL    HW139344   3.601   3.249  13.959 -0.2025 -0.6140  0.4262
 9294SOL    HW239345   3.647   3.284  13.828 -0.2214 -0.4241 -2.5987
 9295SOL     OW39346   3.074   1.104   5.024 -0.5171  0.8936 -0.4355
 9295SOL    HW139347   2.992   1.135   5.062  0.2751  0.7263  1.3910
 9295SOL    HW239348   3.086   1.153   4.942 -0.0666 -0.0937 -0.9534
 9296SOL     OW39349   1.961   2.722   7.534  0.4780  0.4580  0.1521
 9296SOL    HW139350   1.905   2.776   7.478 -0.6879 -0.2883  0.5988
 9296SOL    HW239351   2.025   2.786   7.564 -0.5635  1.4897  0.1682
 9297SOL     OW39352   4.202   1.138   1.490 -0.5187 -0.1694 -0.4566
 9297SOL    HW139353   4.132   1.197   1.463 -1.1676 -2.0405 -2.8379
 9297SOL    HW239354   4.172   1.123   1.580  1.2441 -1.5556 -0.1105
 9298SOL     OW39355   2.551   3.317   5.000 -1.3359 -0.9884  0.1441
 9298SOL    HW139356   2.529   3.375   4.927 -2.5071 -0.8810  0.5767
 9298SOL    HW239357   2.645   3.308   4.988 -1.3848  2.7451 -3.0882
 9299SOL     OW39358   2.178   0.322   2.860 -0.1980  0.3216  0.3042
 9299SOL    HW139359   2.150   0.383   2.792  0.5195 -0.9873 -1.1798
 9299SOL    HW239360   2.092   0.291   2.889  0.0350 -0.3363  0.2896
 9300SOL     OW39361   4.635   4.417   5.812  0.5336 -0.0005 -0.2039
 9300SOL    HW139362   4.591   4.491   5.855 -3.5004 -1.6185 -1.5661
 9300SOL    HW239363   4.613   4.430   5.720 -0.3001  1.7003  0.2346
 9301SOL     OW39364   3.095   1.259  17.191  0.1018  0.5434  0.0861
 9301SOL    HW139365   3.169   1.229  17.244 -0.0858  1.1069  0.6774
 9301SOL    HW239366   3.033   1.291  17.257 -2.0318 -0.3385 -1.5002
 9302SOL     OW39367   4.153   3.997  11.554 -0.5097  0.2344 -0.1829
 9302SOL    HW139368   4.239   3.964  11.580 -0.6435  1.6260  1.9792
 9302SOL    HW239369   4.183   4.088  11.545 -1.6996  0.7466  1.1811
 9303SOL     OW39370   3.719   0.189   3.150 -0.4307 -0.0224 -0.5795
 9303SOL    HW139371   3.796   0.245   3.156 -0.0725 -0.5646 -0.0903
 9303SOL    HW239372   3.745   0.097   3.141 -2.5656 -0.7128  0.1879
 9304SOL     OW39373   2.003   3.535   9.132 -0.3393 -1.0427  0.3911
 9304SOL    HW139374   1.965   3.452   9.162 -0.3049 -1.8252 -1.7374
 9304SOL    HW239375   2.009   3.580   9.216  0.1421 -0.0654 -0.1756
 9305SOL     OW39376   4.427   4.124   8.819  0.3559  0.3754 -0.2763
 9305SOL    HW139377   4.444   4.160   8.907  1.2960  1.7935 -1.0374
 9305SOL    HW239378   4.361   4.059   8.841 -1.2190  1.7833 -0.8277
 9306SOL     OW39379   3.945   0.558  12.033  0.2149 -0.0827 -0.5014
 9306SOL    HW139380   3.939   0.623  11.963  1.3755 -1.1870 -1.6389
 9306SOL    HW239381   3.853   0.555  12.062  0.5042 -0.6449  0.3439
 9307SOL     OW39382   1.104   2.488   7.478  0.5546  0.4050  0.3207
 9307SOL    HW139383   1.190   2.527   7.488  0.4290  0.8661 -0.4186
 9307SOL    HW239384   1.056   2.535   7.546  0.1691 -0.9963  1.0163
 9308SOL     OW39385   0.519   1.654   3.280 -0.2416  0.3275  0.1164
 9308SOL    HW139386   0.525   1.701   3.197  0.1157  2.0323  1.1069
 9308SOL    HW239387   0.565   1.573   3.261  1.3352  1.2646 -0.0749
 9309SOL     OW39388   3.998   1.735  13.188  0.1354 -0.4722  0.1451
 9309SOL    HW139389   4.007   1.640  13.197  1.8910 -0.2044  1.2360
 9309SOL    HW239390   3.979   1.765  13.277 -2.6525  0.5105 -0.7670
 9310SOL     OW39391   2.610   2.520   8.545  0.1380 -0.1792 -0.1226
 9310SOL    HW139392   2.518   2.498   8.561  0.5873  0.2050  3.1024
 9310SOL    HW239393   2.618   2.606   8.588  2.4754 -0.7651  0.6045
 9311SOL     OW39394   0.893   0.529  15.283 -0.1662  0.4283 -0.0251
 9311SOL    HW139395   0.961   0.560  15.224  0.5271 -1.2242 -0.1070
 9311SOL    HW239396   0.906   0.582  15.361 -0.5647 -0.9452  0.9730
 9312SOL     OW39397   0.620   0.682   3.288  0.0167  0.8946 -0.5208
 9312SOL    HW139398   0.553   0.627   3.248 -0.3285 -0.2952  1.6587
 9312SOL    HW239399   0.632   0.630   3.368 -1.2152  0.4063 -0.6505
 9313SOL     OW39400   3.759   3.086  15.442  0.6686  0.6727 -0.5385
 9313SOL    HW139401   3.852   3.107  15.454  1.0556 -0.2958 -1.8369
 9313SOL    HW239402   3.742   3.148  15.372 -0.2443  1.7739  0.6588
 9314SOL     OW39403   2.605   0.004  12.469 -0.2294  0.1648 -0.5706
 9314SOL    HW139404   2.693   4.717  12.506  0.2187 -1.1971 -1.8260
 9314SOL    HW239405   2.589   4.632  12.441  2.7712 -1.2257  2.1684
 9315SOL     OW39406   2.096   3.945   3.777  0.0437 -0.3136  0.5375
 9315SOL    HW139407   2.162   3.909   3.719  0.7250 -0.4407  1.3867
 9315SOL    HW239408   2.139   3.946   3.863 -0.5508 -0.0544  0.8347
 9316SOL     OW39409   3.170   0.071   9.255  0.0551 -0.6366  0.3644
 9316SOL    HW139410   3.244   0.053   9.312 -0.2214  2.2882  1.6368
 9316SOL    HW239411   3.207   0.126   9.186 -0.8659  0.5197  0.7890
 9317SOL     OW39412   1.244   4.162   6.208  0.2655 -0.5594  0.0612
 9317SOL    HW139413   1.247   4.082   6.261  2.2578  0.6721  1.8123
 9317SOL    HW239414   1.304   4.145   6.136  0.1369  1.1705 -0.4401
 9318SOL     OW39415   1.648   4.118   6.600  0.0697 -0.5639 -0.0829
 9318SOL    HW139416   1.557   4.090   6.586 -0.4405 -0.9923  4.1512
 9318SOL    HW239417   1.636   4.197   6.653  0.0191 -0.7000  0.1045
 9319SOL     OW39418   4.513   1.476   9.037  0.1268  1.1634 -0.2693
 9319SOL    HW139419   4.436   1.528   9.058 -0.3776 -0.3489  1.6337
 9319SOL    HW239420   4.510   1.463   8.942  0.7597 -1.2462  0.0351
 9320SOL     OW39421   3.439   1.403   6.561  0.2573 -0.0863  0.3506
 9320SOL    HW139422   3.529   1.407   6.595 -0.0449  0.5594  1.0647
 9320SOL    HW239423   3.396   1.360   6.635  0.0445 -0.4936 -0.0061
 9321SOL     OW39424   4.058   1.076   6.979  0.0977 -0.5336 -0.7139
 9321SOL    HW139425   4.093   1.058   7.066  0.9839  1.2861 -0.6873
 9321SOL    HW239426   4.130   1.135   6.956  0.0876  0.1277  0.9541
 9322SOL     OW39427   2.607   1.074   2.507  0.7630 -0.1823 -0.1344
 9322SOL    HW139428   2.689   1.100   2.466  0.9751  0.1935  0.5328
 9322SOL    HW239429   2.621   0.980   2.511  0.2455 -0.2036  1.2205
 9323SOL     OW39430   3.898   3.251  11.647  0.3354 -0.1980 -0.1248
 9323SOL    HW139431   3.860   3.240  11.735  1.6214  4.4860  1.0264
 9323SOL    HW239432   3.836   3.206  11.590  0.2152 -0.5048  0.2490
 9324SOL     OW39433   3.603   3.117   6.815 -0.2813 -0.0713 -0.9874
 9324SOL    HW139434   3.546   3.059   6.866 -1.5753  1.3338 -0.8391
 9324SOL    HW239435   3.564   3.115   6.728  1.3389 -1.3997 -1.6941
 9325SOL     OW39436   4.542   0.698   7.214 -0.1673 -0.3598  0.0439
 9325SOL    HW139437   4.531   0.621   7.158 -0.9838  0.3550 -0.7910
 9325SOL    HW239438   4.611   0.745   7.166  0.0871 -0.9306 -0.1513
 9326SOL     OW39439   4.697   2.321   2.089 -0.4919 -0.6560  0.5459
 9326SOL    HW139440   4.614   2.306   2.133 -0.8104  0.7065  0.4236
 9326SOL    HW239441   0.005   2.233   2.063 -3.7837 -1.9795  1.7233
 9327SOL     OW39442   2.333   0.653  12.770 -0.0447  0.1062 -0.4098
 9327SOL    HW139443   2.336   0.626  12.861  2.1860  0.7596 -0.2878
 9327SOL    HW239444   2.266   0.595  12.736 -1.2235  0.4002  1.4322
 9328SOL     OW39445   1.552   0.710   7.334  0.3063 -0.0405  0.5598
 9328SOL    HW139446   1.597   0.728   7.251  0.7710 -1.5306  0.4839
 9328SOL    HW239447   1.608   0.644   7.375 -1.5476 -1.7151  0.4257
 9329SOL     OW39448   0.972   0.549   8.686 -0.3509 -0.2085 -0.5587
 9329SOL    HW139449   1.035   0.482   8.713  2.4159  2.1004 -1.3576
 9329SOL    HW239450   1.027   0.626   8.706  1.1761 -1.6087  0.6438
 9330SOL     OW39451   4.212   0.449   8.549 -0.1274  0.3475  0.2942
 9330SOL    HW139452   4.177   0.412   8.468 -0.3848  1.2577 -0.0093
 9330SOL    HW239453   4.164   0.531   8.558 -1.4459 -0.4219  0.2027
 9331SOL     OW39454   2.372   3.636   5.227 -0.6287  0.0192 -0.1399
 9331SOL    HW139455   2.395   3.573   5.295 -0.6952 -2.3313 -2.2770
 9331SOL    HW239456   2.296   3.661   5.279 -0.0744 -0.2117  0.7696
 9332SOL     OW39457   2.431   1.309   8.403 -0.0527  0.1781  0.3030
 9332SOL    HW139458   2.376   1.346   8.473 -1.1078 -0.3432 -0.2427
 9332SOL    HW239459   2.511   1.282   8.448  0.0761 -0.1153 -0.1047
 9333SOL     OW39460   1.272   4.501   3.605 -0.7193 -0.0985 -0.2734
 9333SOL    HW139461   1.279   4.550   3.687  1.9930 -1.9655  0.5746
 9333SOL    HW239462   1.275   4.409   3.630 -2.0453  0.0784  0.5436
 9334SOL     OW39463   1.724   3.419   7.259  0.5713 -0.0770  0.1858
 9334SOL    HW139464   1.807   3.426   7.308  0.0253 -0.4807  1.1730
 9334SOL    HW239465   1.665   3.463   7.319  0.4006  1.3129 -1.0127
 9335SOL     OW39466   0.359   1.031   4.309 -0.3146  0.0255  0.2609
 9335SOL    HW139467   0.311   1.039   4.391  1.9064 -0.6453  1.6118
 9335SOL    HW239468   0.316   0.968   4.251  0.4309 -1.3735  1.2230
 9336SOL     OW39469   1.093   1.171   1.191 -0.6383  0.2088 -0.4509
 9336SOL    HW139470   1.019   1.117   1.218  1.1929 -0.9812  2.1679
 9336SOL    HW239471   1.061   1.246   1.240 -0.2183  0.9867 -1.3720
 9337SOL     OW39472   1.082   2.128   6.408 -0.3717  0.0511 -0.4706
 9337SOL    HW139473   1.099   2.039   6.377  2.7085  0.7016 -0.6757
 9337SOL    HW239474   1.074   2.122   6.503 -0.1751  0.9158 -0.3982
 9338SOL     OW39475   0.925   2.987  11.214 -0.4476 -0.4984 -0.1779
 9338SOL    HW139476   0.861   3.037  11.164  0.7994  2.7177  1.4277
 9338SOL    HW239477   0.877   2.906  11.233 -0.1335 -0.6139  0.1150
 9339SOL     OW39478   3.007   2.245   6.435 -0.0463  0.0146 -0.4824
 9339SOL    HW139479   2.959   2.326   6.452  0.9112  0.7188 -1.1596
 9339SOL    HW239480   2.959   2.178   6.485 -0.8149 -0.4279 -1.8217
 9340SOL     OW39481   0.686   0.523   5.280 -1.0186  0.5380 -0.1004
 9340SOL    HW139482   0.640   0.535   5.363 -2.3640 -0.4432 -0.7025
 9340SOL    HW239483   0.611   0.493   5.229  1.0017  0.1787 -2.8980
 9341SOL     OW39484   4.474   2.392  14.579 -0.3926 -0.5635 -0.3927
 9341SOL    HW139485   4.554   2.419  14.624 -0.6065  1.0226 -0.9593
 9341SOL    HW239486   4.454   2.481  14.552 -0.9706 -0.6301 -0.1877
 9342SOL     OW39487   1.475   0.315   7.998  0.4446 -0.2169  0.1717
 9342SOL    HW139488   1.498   0.407   7.987 -2.0249  0.5461  1.5210
 9342SOL    HW239489   1.462   0.303   8.092 -2.9185  0.5390 -0.1921
 9343SOL     OW39490   3.294   2.685   6.337 -0.3446  0.2602  0.6622
 9343SOL    HW139491   3.266   2.770   6.370 -0.7498  0.4242 -0.1060
 9343SOL    HW239492   3.321   2.639   6.417  0.3708 -2.9165 -1.4059
 9344SOL     OW39493   1.470   1.134   9.057 -0.6220  0.3375  0.7355
 9344SOL    HW139494   1.521   1.057   9.083 -0.1964  0.1800 -0.5578
 9344SOL    HW239495   1.504   1.209   9.106  0.7460  0.5293 -0.5271
 9345SOL     OW39496   0.571   3.065   6.797 -0.4730  0.4625 -0.7661
 9345SOL    HW139497   0.530   3.068   6.711 -0.8472  0.2316 -0.5917
 9345SOL    HW239498   0.536   3.137   6.849 -0.4710 -0.4082  0.4363
 9346SOL     OW39499   2.701   1.783   9.074 -0.3089  0.0711 -0.5504
 9346SOL    HW139500   2.685   1.850   9.008 -0.3721  0.6357  0.0474
 9346SOL    HW239501   2.625   1.788   9.131 -0.2208  1.7174 -0.5793
 9347SOL     OW39502   1.439   0.635   1.561 -0.3945 -0.1758  0.3705
 9347SOL    HW139503   1.404   0.587   1.637  2.3454 -3.2382 -0.2975
 9347SOL    HW239504   1.533   0.628   1.578 -0.3743 -1.4561 -0.2219
 9348SOL     OW39505   0.118   3.361   0.799  0.2375  0.1459 -1.0201
 9348SOL    HW139506   0.063   3.284   0.782  0.9986 -0.7098  0.3750
 9348SOL    HW239507   0.092   3.420   0.728 -0.1123 -1.7180 -2.4494
 9349SOL     OW39508   1.627   0.048   7.356  0.4443 -0.7398  0.4093
 9349SOL    HW139509   1.544   0.066   7.400 -0.1307 -3.2085  0.3410
 9349SOL    HW239510   1.675   0.125   7.386 -1.1464  0.9450 -1.3497
 9350SOL     OW39511   0.936   2.610   5.144 -0.0455  0.0801  0.2563
 9350SOL    HW139512   0.948   2.655   5.061  2.3354  0.1275  0.6054
 9350SOL    HW239513   0.983   2.662   5.210  2.0654  1.3986 -2.2973
 9351SOL     OW39514   3.528   3.249  11.486 -0.0128  0.3734 -0.3856
 9351SOL    HW139515   3.460   3.308  11.454  1.7534  2.7343  0.1460
 9351SOL    HW239516   3.486   3.221  11.567  1.4057 -0.0187  0.2204
 9352SOL     OW39517   2.745   1.151  16.228 -0.1687 -1.0196 -0.3523
 9352SOL    HW139518   2.793   1.209  16.169 -0.0517 -0.9082 -0.1506
 9352SOL    HW239519   2.700   1.101  16.160 -0.0743  0.5028 -1.5316
 9353SOL     OW39520   0.683   3.216   2.258  0.0984 -0.0929  0.2628
 9353SOL    HW139521   0.614   3.217   2.192  2.6639 -0.5436 -2.4525
 9353SOL    HW239522   0.678   3.124   2.285 -1.0800 -0.0499  0.1813
 9354SOL     OW39523   4.580   3.193  13.036 -0.2602  0.2191 -0.1133
 9354SOL    HW139524   4.526   3.236  12.970 -3.0776 -1.7785  0.8954
 9354SOL    HW239525   4.551   3.231  13.119  0.4152 -0.9633  0.6560
 9355SOL     OW39526   4.031   2.959   2.272 -0.7594  0.0887 -0.2921
 9355SOL    HW139527   3.952   2.925   2.230 -1.8770 -1.3109  2.9223
 9355SOL    HW239528   4.022   3.045   2.231 -0.7134  0.0100 -0.4686
 9356SOL     OW39529   2.593   3.338   0.789  0.4394  0.4786  0.3995
 9356SOL    HW139530   2.545   3.273   0.736 -0.3775 -0.0312  1.7517
 9356SOL    HW239531   2.653   3.278   0.834  0.4584  0.6424  0.5929
 9357SOL     OW39532   0.467   0.970   1.126 -0.6305  0.0031  1.2064
 9357SOL    HW139533   0.436   1.044   1.073 -1.2421 -0.9894  0.1610
 9357SOL    HW239534   0.536   1.015   1.174  0.0519  0.4176 -0.1740
 9358SOL     OW39535   3.172   4.362  15.309  0.3776 -0.4580 -0.2982
 9358SOL    HW139536   3.183   4.292  15.244 -0.3235 -2.0316  1.2594
 9358SOL    HW239537   3.102   4.415  15.270  1.5688  0.6046 -0.9918
 9359SOL     OW39538   1.890   3.033   6.802  0.1845  0.0911  0.1520
 9359SOL    HW139539   1.835   3.044   6.879  3.8530  0.4627  2.7296
 9359SOL    HW239540   1.942   2.956   6.825  0.7018  0.2992 -0.3105
 9360SOL     OW39541   0.355   3.210   8.067  0.0268 -0.3753  0.4054
 9360SOL    HW139542   0.395   3.293   8.042  1.2698 -0.9071  0.6313
 9360SOL    HW239543   0.275   3.243   8.107  0.1728  0.3717  0.0870
 9361SOL     OW39544   3.543   0.834   0.701 -0.0639 -0.2539  0.1864
 9361SOL    HW139545   3.633   0.813   0.727 -0.6833 -0.6711  1.9744
 9361SOL    HW239546   3.545   0.802   0.611 -0.5803 -1.2738  0.5372
 9362SOL     OW39547   2.510   1.292   6.387 -0.6565  0.3731  0.4582
 9362SOL    HW139548   2.542   1.221   6.331  4.9152  1.6469  2.0034
 9362SOL    HW239549   2.563   1.271   6.464 -0.3427 -1.0080 -0.1276
 9363SOL     OW39550   1.181   4.592   7.055  0.7325 -0.3888 -0.0668
 9363SOL    HW139551   1.109   4.535   7.083  0.7262  0.5463  1.8522
 9363SOL    HW239552   1.137   4.673   7.031 -0.9978 -1.7765 -1.5448
 9364SOL     OW39553   4.090   0.160   4.442 -0.1628 -0.2965  0.2709
 9364SOL    HW139554   4.151   0.104   4.490 -1.7121 -0.5164  1.9871
 9364SOL    HW239555   4.028   0.182   4.512 -0.9146  3.1541 -1.4935
 9365SOL     OW39556   2.040   4.001  15.805 -0.3055 -0.3038 -0.3882
 9365SOL    HW139557   1.952   3.994  15.840  1.0946  1.2217  3.4732
 9365SOL    HW239558   2.017   4.035  15.719 -0.4636 -0.5219 -0.4312
 9366SOL     OW39559   1.923   0.756   4.524 -0.2238  0.7040  0.0835
 9366SOL    HW139560   1.963   0.796   4.447 -1.0385 -2.7173 -2.0765
 9366SOL    HW239561   1.920   0.665   4.497 -1.4489  0.5292  0.8342
 9367SOL     OW39562   2.266   1.529   3.007 -0.3509  0.1159  0.2710
 9367SOL    HW139563   2.183   1.512   2.962 -0.3513 -2.0692  1.1560
 9367SOL    HW239564   2.333   1.474   2.967  0.2960  1.5509 -0.6377
 9368SOL     OW39565   0.204   1.479   4.713 -0.4372 -0.2610  0.0975
 9368SOL    HW139566   0.201   1.525   4.629  2.4117 -0.8033 -0.3322
 9368SOL    HW239567   0.143   1.408   4.695 -0.8447 -0.0945  0.8443
 9369SOL     OW39568   1.909   3.802   7.190  0.1170 -0.3350  0.0260
 9369SOL    HW139569   1.978   3.805   7.124  0.7720  0.0854  0.7290
 9369SOL    HW239570   1.828   3.792   7.140  1.1868  0.8317 -1.9331
 9370SOL     OW39571   0.360   3.502   7.756 -0.1492  0.2667  0.5173
 9370SOL    HW139572   0.328   3.579   7.802  1.8056  2.0831 -1.1741
 9370SOL    HW239573   0.283   3.446   7.770 -1.0444  1.5799  0.7949
 9371SOL     OW39574   4.705   3.496   7.416  0.9034  0.0237 -0.0387
 9371SOL    HW139575   4.639   3.431   7.394  0.3217  1.0872 -1.3926
 9371SOL    HW239576   4.674   3.534   7.498  2.2018  0.7272  0.1381
 9372SOL     OW39577   4.122   1.225   7.263 -0.0905  0.2075 -0.2304
 9372SOL    HW139578   4.051   1.202   7.323  0.0101  1.8016  0.5097
 9372SOL    HW239579   4.084   1.298   7.214  1.1183  0.7433 -0.3851
 9373SOL     OW39580   2.538   2.839  13.496  0.3973  0.3366  0.0396
 9373SOL    HW139581   2.529   2.753  13.536  2.1315 -0.2724 -0.8659
 9373SOL    HW239582   2.534   2.908  13.563  0.3047 -0.3444  0.7314
 9374SOL     OW39583   1.538   1.630  16.625 -0.4489  0.5523 -0.6929
 9374SOL    HW139584   1.535   1.535  16.628 -1.0927  0.6139  0.9292
 9374SOL    HW239585   1.617   1.648  16.574 -0.0731 -1.4079 -0.7929
 9375SOL     OW39586   2.164   1.047   0.519  0.0911  0.2454  0.7575
 9375SOL    HW139587   2.197   1.012   0.436 -1.5975  3.1159 -1.1310
 9375SOL    HW239588   2.170   0.978   0.585 -0.1637 -1.7023 -1.2463
 9376SOL     OW39589   3.606   3.567   7.985  0.5561 -0.1817  0.3236
 9376SOL    HW139590   3.671   3.587   7.918 -0.6941  0.0568 -0.8276
 9376SOL    HW239591   3.662   3.575   8.062  1.4696 -0.6858 -0.2850
 9377SOL     OW39592   1.994   4.006   7.433  0.3646 -0.2092 -0.0789
 9377SOL    HW139593   1.958   3.925   7.470 -2.1398 -0.1317 -2.2847
 9377SOL    HW239594   1.938   4.018   7.356 -0.5672 -0.4114  0.5639
 9378SOL     OW39595   0.950   0.894   5.175  0.3250  0.0743  0.3839
 9378SOL    HW139596   1.004   0.969   5.200 -1.0908  0.5350  1.9926
 9378SOL    HW239597   0.916   0.932   5.094  0.0073 -0.2199  0.3807
 9379SOL     OW39598   1.234   1.584   3.035  0.7610 -0.7221  0.7689
 9379SOL    HW139599   1.266   1.527   3.104 -0.0429 -1.0887  0.8448
 9379SOL    HW239600   1.296   1.657   3.040  0.9055 -0.9012  1.5067
 9380SOL     OW39601   1.166   0.503  15.720  0.5188 -0.4093 -0.4705
 9380SOL    HW139602   1.250   0.459  15.737  0.6318  1.7051  4.5377
 9380SOL    HW239603   1.115   0.445  15.776  1.6198 -2.0216 -1.1379
 9381SOL     OW39604   1.776   2.440   5.518 -0.1520  0.2015  0.0808
 9381SOL    HW139605   1.842   2.468   5.581 -0.7039 -1.0561  1.2119
 9381SOL    HW239606   1.792   2.502   5.447 -1.7904 -0.2086 -0.6551
 9382SOL     OW39607   4.476   1.613   4.112 -0.5570  0.3086 -0.2960
 9382SOL    HW139608   4.509   1.560   4.039  3.4586  2.0172  0.2555
 9382SOL    HW239609   4.398   1.658   4.082  0.9229  3.2095  0.2224
 9383SOL     OW39610   2.467   2.724  15.857 -0.2501  0.1884  0.3480
 9383SOL    HW139611   2.535   2.737  15.791  1.0777  1.2435  1.9311
 9383SOL    HW239612   2.405   2.786  15.819  1.2282  1.2302 -0.3120
 9384SOL     OW39613   3.284   4.475   7.933 -0.0430 -0.2657  0.0687
 9384SOL    HW139614   3.342   4.551   7.938 -0.2206 -0.3733  3.3429
 9384SOL    HW239615   3.237   4.493   7.851  0.8041  1.5599 -0.0137
 9385SOL     OW39616   2.929   3.362  12.859  0.6155  0.2103  0.1024
 9385SOL    HW139617   2.845   3.379  12.816  0.3232 -0.5522  0.3674
 9385SOL    HW239618   2.956   3.304  12.788  1.7278 -0.9585  1.4589
 9386SOL     OW39619   0.259   2.027   3.082 -0.3674 -0.7313  0.0408
 9386SOL    HW139620   0.216   2.038   3.166 -1.1461  2.7754 -0.8278
 9386SOL    HW239621   0.259   1.931   3.087 -0.1739 -0.9246 -3.5538
 9387SOL     OW39622   3.765   2.324   7.096 -0.4354 -0.3728  0.1572
 9387SOL    HW139623   3.695   2.321   7.160 -0.3479  0.1938  0.2806
 9387SOL    HW239624   3.814   2.247   7.126  0.8618 -0.0189 -1.0343
 9388SOL     OW39625   0.012   3.192   8.493 -0.6155 -0.2138 -0.0258
 9388SOL    HW139626   4.706   3.273   8.448 -1.5688 -1.0901 -1.0769
 9388SOL    HW239627   0.088   3.220   8.544 -1.7218 -0.0974  1.5754
 9389SOL     OW39628   0.987   3.144   2.730 -0.8177 -0.3457 -0.2032
 9389SOL    HW139629   0.986   3.215   2.666 -0.7448 -0.6710 -0.5617
 9389SOL    HW239630   1.055   3.083   2.703  1.5046  2.1114  0.0811
 9390SOL     OW39631   0.802   2.740   8.460 -0.3021 -0.0418 -0.1338
 9390SOL    HW139632   0.721   2.791   8.466 -0.0647  0.3454 -0.2286
 9390SOL    HW239633   0.786   2.683   8.535  2.1283  1.1040  1.2564
 9391SOL     OW39634   1.637   4.700   0.965  0.1609 -0.2792  0.0529
 9391SOL    HW139635   1.623   4.616   1.008  0.8427 -0.3269  0.1769
 9391SOL    HW239636   1.729   4.714   0.989  0.8177 -2.8869 -1.0137
 9392SOL     OW39637   3.694   1.931   4.485  0.8723  0.4101  0.3983
 9392SOL    HW139638   3.716   2.012   4.439  2.4974  0.3964  1.1604
 9392SOL    HW239639   3.599   1.937   4.483  0.8609  0.3994  0.9316
 9393SOL     OW39640   1.481   2.515   7.199  0.1524  0.3890 -0.2231
 9393SOL    HW139641   1.425   2.579   7.155 -0.5602  0.6515  1.0686
 9393SOL    HW239642   1.556   2.496   7.142  0.7331  4.2603 -0.7377
 9394SOL     OW39643   4.143   3.550   4.903  0.1244 -0.1637 -0.3408
 9394SOL    HW139644   4.085   3.491   4.952 -2.5494  0.8717 -2.2768
 9394SOL    HW239645   4.229   3.507   4.910 -0.1214 -0.1873  2.3954
 9395SOL     OW39646   2.550   2.734  12.256  0.0788  0.0644 -0.7333
 9395SOL    HW139647   2.607   2.783  12.198 -2.2483  1.2218 -2.0448
 9395SOL    HW239648   2.463   2.774  12.247 -0.2342 -0.2435  0.8121
 9396SOL     OW39649   2.109   4.031   8.225  0.0177  0.2933  0.3456
 9396SOL    HW139650   2.164   3.962   8.264  0.1032  0.0459 -0.2186
 9396SOL    HW239651   2.155   4.045   8.143  0.3664  0.0790  0.5048
 9397SOL     OW39652   2.899   4.568   7.353 -0.1175 -0.0766  0.2057
 9397SOL    HW139653   2.933   4.486   7.319 -1.5297 -0.0471 -1.2808
 9397SOL    HW239654   2.826   4.535   7.406  0.3991 -1.2959  0.1406
 9398SOL     OW39655   2.426   3.089  16.740  0.1832  0.3556  0.1428
 9398SOL    HW139656   2.403   3.020  16.803 -1.4889  0.0855 -0.7711
 9398SOL    HW239657   2.371   3.164  16.762  1.7046  1.3893  0.4175
 9399SOL     OW39658   0.898   2.828   6.633  0.5364  0.2033  0.1087
 9399SOL    HW139659   0.886   2.838   6.727 -0.8695 -0.7896  0.0321
 9399SOL    HW239660   0.941   2.908   6.603  1.4963  0.4370  2.0664
 9400SOL     OW39661   0.641   0.073   0.485 -0.3241  0.4982  0.3227
 9400SOL    HW139662   0.674   4.705   0.511  0.5573  0.6058 -0.4361
 9400SOL    HW239663   0.704   0.084   0.414 -1.8237  0.8177 -0.9433
 9401SOL     OW39664   2.898   1.493  15.219  0.2091 -0.0101 -0.2080
 9401SOL    HW139665   2.936   1.507  15.305  0.2656 -0.6928 -0.1207
 9401SOL    HW239666   2.826   1.556  15.212 -1.4995 -1.8121  1.3135
 9402SOL     OW39667   4.043   0.461   1.254 -0.9583  0.1456  0.6594
 9402SOL    HW139668   4.105   0.397   1.222 -0.9923 -0.7170  2.3247
 9402SOL    HW239669   4.061   0.454   1.348  0.6016 -1.3711  0.2323
 9403SOL     OW39670   3.898   0.994   7.825  0.0942 -0.4242  0.0961
 9403SOL    HW139671   3.886   1.085   7.852  2.1996 -0.0614 -0.1909
 9403SOL    HW239672   3.992   0.982   7.838  0.4656  2.2725 -0.1931
 9404SOL     OW39673   1.661   4.619  12.143 -0.0979 -0.1434  0.3568
 9404SOL    HW139674   1.588   4.570  12.104  0.1583 -0.3462  0.1270
 9404SOL    HW239675   1.664   4.596  12.236 -2.3677 -0.2950  0.3801
 9405SOL     OW39676   2.612   1.194   7.458 -0.2219 -0.6638 -0.1265
 9405SOL    HW139677   2.558   1.150   7.524 -0.1004 -0.5745  0.0347
 9405SOL    HW239678   2.562   1.272   7.437 -1.0710 -1.0196  0.5520
 9406SOL     OW39679   1.054   3.933  13.861 -0.5166 -0.2157 -0.3177
 9406SOL    HW139680   1.004   3.982  13.927  1.2319  3.5982 -1.7926
 9406SOL    HW239681   1.094   4.005  13.812 -0.0999  1.3368  2.3409
 9407SOL     OW39682   4.474   3.203  16.879 -0.0204 -0.0586 -0.2912
 9407SOL    HW139683   4.393   3.153  16.865  0.2140 -0.5155 -0.0011
 9407SOL    HW239684   4.461   3.283  16.828 -1.1394 -0.1823 -0.2152
 9408SOL     OW39685   0.852   2.559   2.700  0.7858  0.0361 -0.0606
 9408SOL    HW139686   0.934   2.552   2.653 -0.3474 -0.5145 -1.9599
 9408SOL    HW239687   0.787   2.593   2.638 -0.9797  0.2116  1.8562
 9409SOL     OW39688   1.516   0.730   9.146 -0.1718 -0.0159  0.4569
 9409SOL    HW139689   1.547   0.819   9.162  2.1093 -0.7964  0.4089
 9409SOL    HW239690   1.556   0.677   9.214  0.7838 -1.6536 -1.3849
 9410SOL     OW39691   2.644   2.210   0.545  0.1196  0.0502 -0.4000
 9410SOL    HW139692   2.559   2.226   0.585 -0.0982  2.3264 -1.8069
 9410SOL    HW239693   2.630   2.120   0.515 -1.4432 -0.1694  1.0035
 9411SOL     OW39694   2.470   3.706   0.823  0.8343 -0.1604 -0.0155
 9411SOL    HW139695   2.516   3.639   0.874  2.8315  1.0887 -0.1820
 9411SOL    HW239696   2.423   3.758   0.888  1.9587  2.4594 -1.3341
 9412SOL     OW39697   2.389   2.887  16.352 -0.0422 -0.0520  0.2349
 9412SOL    HW139698   2.392   2.862  16.444  0.1473  0.3642  0.3451
 9412SOL    HW239699   2.425   2.972  16.378  2.9643 -0.8542 -1.3184
 9413SOL     OW39700   4.173   2.313   7.521 -0.1455 -0.7294 -0.9667
 9413SOL    HW139701   4.098   2.319   7.580  1.4461 -0.8948  1.0753
 9413SOL    HW239702   4.201   2.221   7.520 -1.1946 -1.0417 -1.5970
 9414SOL     OW39703   4.129   2.117  13.565 -0.2612  0.0668 -0.2615
 9414SOL    HW139704   4.142   2.202  13.524  1.8758 -0.6408 -1.0918
 9414SOL    HW239705   4.204   2.065  13.534 -1.5434 -0.3656 -2.6642
 9415SOL     OW39706   1.666   2.670   4.029 -0.7919  0.3947  0.5411
 9415SOL    HW139707   1.683   2.579   4.052  1.0286  0.4121 -0.7499
 9415SOL    HW239708   1.715   2.679   3.947 -1.1494  1.1988  0.4187
 9416SOL     OW39709   0.282   1.216   5.501  0.0029  0.2034  0.4819
 9416SOL    HW139710   0.370   1.248   5.521  0.7885 -2.4112  1.2380
 9416SOL    HW239711   0.227   1.284   5.541 -0.0369 -0.0956  0.9362
 9417SOL     OW39712   0.693   4.234   3.084  0.1099 -0.3120 -0.3561
 9417SOL    HW139713   0.659   4.296   3.019  0.5696  2.7523  2.3168
 9417SOL    HW239714   0.673   4.149   3.044  0.3456 -0.3093 -0.4749
 9418SOL     OW39715   4.238   1.944   3.425  0.1051 -0.0603 -0.3056
 9418SOL    HW139716   4.196   1.860   3.447  2.8017 -1.6156 -1.1148
 9418SOL    HW239717   4.323   1.920   3.390  0.9942  2.4855  0.1473
 9419SOL     OW39718   2.732   3.110  16.211 -0.0379  0.0005 -0.0270
 9419SOL    HW139719   2.776   3.171  16.151 -0.9348  0.1054 -0.5679
 9419SOL    HW239720   2.703   3.163  16.285 -2.3983 -0.7321 -0.4250
 9420SOL     OW39721   3.505   2.277   7.198  0.2666 -0.6838  0.4815
 9420SOL    HW139722   3.426   2.227   7.177 -0.4585  0.4247  0.6059
 9420SOL    HW239723   3.530   2.234   7.280  1.9791 -0.4036  0.0995
 9421SOL     OW39724   4.262   1.433   8.412 -0.1219 -0.2094  0.2431
 9421SOL    HW139725   4.347   1.413   8.373 -0.9293 -2.8363 -0.1531
 9421SOL    HW239726   4.246   1.368   8.479 -0.0189 -0.0727  0.4000
 9422SOL     OW39727   4.595   1.855   1.850  0.2450  0.4992 -0.4627
 9422SOL    HW139728   4.685   1.833   1.872 -0.0080 -0.3514 -0.2891
 9422SOL    HW239729   4.614   1.924   1.786 -0.3000 -1.8575 -3.1613
 9423SOL     OW39730   1.139   2.823   4.554 -0.0696 -0.3054  0.3882
 9423SOL    HW139731   1.121   2.873   4.633 -2.3378 -1.4293  0.5923
 9423SOL    HW239732   1.208   2.875   4.513 -0.8809  1.5701  1.3934
 9424SOL     OW39733   0.438   0.594  17.301 -0.0164 -0.9101 -0.0402
 9424SOL    HW139734   0.363   0.567  17.354  0.8015 -2.7335  0.1708
 9424SOL    HW239735   0.392   0.606  17.217 -1.7242  0.1116  1.0440
 9425SOL     OW39736   3.410   4.002  17.189  0.1242 -0.7282  0.3456
 9425SOL    HW139737   3.352   3.972  17.120 -0.8292 -0.4999  1.0466
 9425SOL    HW239738   3.377   3.948  17.261  0.4563 -1.3129  0.0581
 9426SOL     OW39739   0.300   0.733  11.174 -0.8748  0.3234  0.0848
 9426SOL    HW139740   0.356   0.799  11.215 -0.5947  0.7232 -0.9305
 9426SOL    HW239741   0.337   0.724  11.086 -1.7445  1.1065 -0.3515
 9427SOL     OW39742   2.154   2.643   6.577  0.6908 -0.3508  0.2561
 9427SOL    HW139743   2.129   2.620   6.666 -1.9016  0.0617 -0.3549
 9427SOL    HW239744   2.248   2.631   6.582  0.6284 -2.0808 -2.4670
 9428SOL     OW39745   3.041   2.347  12.035  0.3937 -0.3016  0.2145
 9428SOL    HW139746   3.114   2.357  12.096 -1.0079 -2.1614  2.2294
 9428SOL    HW239747   3.085   2.386  11.960  0.3487 -1.3989 -0.3935
 9429SOL     OW39748   0.119   0.005  16.042 -0.0952 -0.3738 -0.1346
 9429SOL    HW139749   0.092   0.096  16.056 -0.3371 -0.3280 -0.9448
 9429SOL    HW239750   0.198   0.012  15.989 -0.4527 -0.4678 -0.6829
 9430SOL     OW39751   2.854   1.102   0.956  0.4477  0.4397  0.1417
 9430SOL    HW139752   2.806   1.020   0.960  1.1654  0.0139  0.0501
 9430SOL    HW239753   2.787   1.166   0.981  1.1544  1.2079  0.0627
 9431SOL     OW39754   1.612   2.119   2.902 -0.2967 -0.3504  1.0942
 9431SOL    HW139755   1.531   2.119   2.953  0.7255  0.0781  2.7152
 9431SOL    HW239756   1.575   2.117   2.813  0.7369 -1.0556  0.6732
 9432SOL     OW39757   0.725   0.424  11.433 -0.0325  0.2017 -0.6074
 9432SOL    HW139758   0.645   0.376  11.454 -0.5961  0.6948 -1.6068
 9432SOL    HW239759   0.686   0.485  11.370  1.8297  2.4170  0.3603
 9433SOL     OW39760   3.262   3.449   1.376 -0.1073 -0.8642 -0.5598
 9433SOL    HW139761   3.344   3.401   1.388 -0.7692 -2.0533 -0.7969
 9433SOL    HW239762   3.217   3.449   1.460 -3.0403 -0.4238 -2.1340
 9434SOL     OW39763   3.630   1.692  12.718  0.0735 -0.2542  0.4812
 9434SOL    HW139764   3.679   1.612  12.696 -0.9960 -0.4326 -1.2262
 9434SOL    HW239765   3.662   1.745  12.646 -1.3163  1.7632  1.3597
 9435SOL     OW39766   4.524   4.275   7.734  0.0701 -0.4973 -0.4320
 9435SOL    HW139767   4.601   4.294   7.787 -0.0195 -0.6209 -0.2582
 9435SOL    HW239768   4.550   4.309   7.648 -0.0642 -3.5437 -1.7010
 9436SOL     OW39769   3.346   2.424   3.150  0.6207  0.0318 -0.3084
 9436SOL    HW139770   3.416   2.487   3.168 -1.3931  2.4130 -0.8310
 9436SOL    HW239771   3.348   2.408   3.056 -2.5951 -1.5109 -0.0763
 9437SOL     OW39772   0.379   0.543  14.068  0.2825  0.3444  0.4703
 9437SOL    HW139773   0.456   0.508  14.113 -0.0723 -0.5828  0.3565
 9437SOL    HW239774   0.326   0.561  14.146  0.7760  0.4298  0.7857
 9438SOL     OW39775   2.402   1.330  14.005  0.0273 -0.2353  0.3044
 9438SOL    HW139776   2.391   1.285  13.922  0.7681 -1.1800  0.7180
 9438SOL    HW239777   2.308   1.338  14.021 -0.2370 -2.7958  0.1109
 9439SOL     OW39778   2.681   3.270  15.975 -0.3911  0.3687  0.7961
 9439SOL    HW139779   2.627   3.347  15.963 -1.0733 -0.2253  0.0818
 9439SOL    HW239780   2.699   3.240  15.886 -1.9117 -0.1795  0.6849
 9440SOL     OW39781   3.466   4.537  16.137  0.1353 -0.1574 -0.1902
 9440SOL    HW139782   3.447   4.630  16.151 -1.1469 -0.4812  0.2676
 9440SOL    HW239783   3.419   4.497  16.211  1.8314 -1.5206  0.1451
 9441SOL     OW39784   1.961   0.033   6.554  0.2196  0.0615 -0.4230
 9441SOL    HW139785   2.049   4.716   6.544 -0.4436 -1.9221  0.5840
 9441SOL    HW239786   1.957   0.029   6.650 -0.8984 -0.4854 -0.4896
 9442SOL     OW39787   3.151   4.089   7.451 -0.0708  0.0985 -0.1543
 9442SOL    HW139788   3.243   4.068   7.471 -0.0983  0.0707 -0.0570
 9442SOL    HW239789   3.131   4.004   7.412 -3.5571  1.3340 -0.9690
 9443SOL     OW39790   2.829   0.142  15.064 -0.2156  0.5015  1.0646
 9443SOL    HW139791   2.857   0.229  15.092  2.1365 -0.2456  1.0458
 9443SOL    HW239792   2.852   0.095  15.144 -1.1006  0.5697  1.3528
 9444SOL     OW39793   0.428   4.472   4.270  0.4809  0.2182  0.2786
 9444SOL    HW139794   0.436   4.487   4.176  0.4794 -0.2687  0.2024
 9444SOL    HW239795   0.506   4.519   4.302 -0.2430  0.3981  1.7901
 9445SOL     OW39796   1.761   0.677   5.274 -0.3051 -0.0334  0.0598
 9445SOL    HW139797   1.819   0.626   5.330  0.4757 -1.3841 -1.9773
 9445SOL    HW239798   1.684   0.620   5.267 -1.2780  1.2372  0.3240
 9446SOL     OW39799   4.606   1.235   5.621 -0.2031  0.2578  0.1559
 9446SOL    HW139800   4.647   1.161   5.578 -0.3839  0.1246  0.2133
 9446SOL    HW239801   4.676   1.300   5.628  1.1524 -1.4130  1.9169
 9447SOL     OW39802   1.394   4.228   4.435 -0.1172 -0.5252  0.1410
 9447SOL    HW139803   1.412   4.314   4.398 -2.1932  0.2232  0.8706
 9447SOL    HW239804   1.399   4.166   4.363  2.4658 -0.4387  0.2346
 9448SOL     OW39805   3.206   2.522   4.777  0.1135 -0.4534 -0.1275
 9448SOL    HW139806   3.184   2.521   4.684  0.4608  2.3750 -0.2627
 9448SOL    HW239807   3.265   2.447   4.781  0.1904 -0.4487 -1.2406
 9449SOL     OW39808   0.202   4.156   3.619 -0.1638 -0.4014  0.8193
 9449SOL    HW139809   0.294   4.153   3.590 -0.0172  1.1989  1.1074
 9449SOL    HW239810   0.189   4.250   3.628 -0.8906 -0.4277 -0.0358
 9450SOL     OW39811   3.685   2.407  16.404  0.2134  0.0831  0.0927
 9450SOL    HW139812   3.633   2.422  16.483 -0.5983 -2.2227 -0.0107
 9450SOL    HW239813   3.687   2.499  16.378 -2.2308 -0.0584 -0.6431
 9451SOL     OW39814   4.656   2.767   7.556  0.0733 -0.1703 -0.1084
 9451SOL    HW139815   4.599   2.840   7.579 -2.2752 -1.9270 -0.3563
 9451SOL    HW239816   0.021   2.807   7.582  0.5093 -0.6385 -0.7701
 9452SOL     OW39817   0.666   1.478  16.531  0.4481 -0.2034 -0.3027
 9452SOL    HW139818   0.646   1.406  16.590  1.4197  0.4351  0.8034
 9452SOL    HW239819   0.647   1.444  16.444 -2.3005 -1.5505  0.8358
 9453SOL     OW39820   3.104   2.913   0.614  0.2691  0.1232 -0.2928
 9453SOL    HW139821   3.084   2.819   0.613 -1.2501  0.4602 -1.5083
 9453SOL    HW239822   3.019   2.946   0.642 -1.2954 -2.0190 -2.4971
 9454SOL     OW39823   1.213   2.066   2.254 -0.0065  0.2856 -0.1538
 9454SOL    HW139824   1.197   2.060   2.160  1.1905  1.2483 -0.4251
 9454SOL    HW239825   1.151   2.132   2.284  0.5332  0.1143  1.3575
 9455SOL     OW39826   4.277   0.983   5.515 -0.4962  0.1281 -0.2821
 9455SOL    HW139827   4.239   1.070   5.526  3.9490  2.5887 -4.3090
 9455SOL    HW239828   4.238   0.945   5.437 -1.4405  1.8246 -0.6401
 9456SOL     OW39829   0.828   0.465  11.673 -0.3256 -0.1587 -0.0606
 9456SOL    HW139830   0.799   0.447  11.584  3.2124 -2.0134 -0.8476
 9456SOL    HW239831   0.835   0.373  11.698  0.5976  0.4324  1.8750
 9457SOL     OW39832   1.592   3.680  13.270 -0.6015 -0.0648  0.1338
 9457SOL    HW139833   1.613   3.587  13.259  1.4629  0.5072 -0.7972
 9457SOL    HW239834   1.660   3.723  13.218  1.0345 -0.6827  1.7597
 9458SOL     OW39835   4.687   1.720   5.569  0.1414 -0.6748 -0.3046
 9458SOL    HW139836   0.020   1.696   5.491 -0.3512 -1.2533 -0.4501
 9458SOL    HW239837   0.031   1.701   5.639  0.3289 -0.2789 -0.3605
 9459SOL     OW39838   3.404   0.572   5.637 -0.2245 -0.1426  0.2397
 9459SOL    HW139839   3.329   0.552   5.693 -0.5633  1.0482  0.2106
 9459SOL    HW239840   3.470   0.569   5.706  0.8994 -0.1494 -0.8338
 9460SOL     OW39841   1.645   2.551  11.055  0.6493 -0.1777 -0.5263
 9460SOL    HW139842   1.576   2.504  11.102 -2.3044  3.6968 -0.9456
 9460SOL    HW239843   1.722   2.514  11.099  0.2315 -0.8208 -0.3394
 9461SOL     OW39844   3.453   4.356  16.800 -0.4236 -0.0018 -0.2437
 9461SOL    HW139845   3.548   4.354  16.808 -0.4448  0.4280  0.1053
 9461SOL    HW239846   3.418   4.368  16.889  1.7641  1.4370  0.4325
 9462SOL     OW39847   2.367   3.415   7.204  0.2203 -0.6547  0.2844
 9462SOL    HW139848   2.421   3.475   7.255 -1.8626  1.4821 -0.0209
 9462SOL    HW239849   2.284   3.463   7.196  0.2624 -0.7663 -0.8276
 9463SOL     OW39850   4.521   3.205   0.579  0.0339  0.0731  0.3728
 9463SOL    HW139851   4.567   3.154   0.645  1.4788  0.6650 -0.1879
 9463SOL    HW239852   4.596   3.231   0.525 -1.6779  0.8875 -1.6353
 9464SOL     OW39853   1.127   2.747  11.568  0.1936 -0.0409  0.3833
 9464SOL    HW139854   1.190   2.691  11.614  1.3338  0.4381 -0.5959
 9464SOL    HW239855   1.178   2.828  11.564  2.2144 -1.4435 -2.6130
 9465SOL     OW39856   1.323   2.326   9.780  0.5508  0.1008 -0.4777
 9465SOL    HW139857   1.341   2.399   9.721 -1.0016  1.1588  0.3727
 9465SOL    HW239858   1.274   2.276   9.716 -2.5598  2.8391 -0.2456
 9466SOL     OW39859   2.402   1.517   0.084  0.5859  0.4555 -0.3289
 9466SOL    HW139860   2.360   1.572   0.018 -1.4917 -1.1060 -0.2896
 9466SOL    HW239861   2.424   1.582   0.151 -0.0300  0.3406 -0.0052
 9467SOL     OW39862   1.999   1.648   6.242  0.5849  0.0661  0.2591
 9467SOL    HW139863   1.926   1.659   6.181  1.5306 -0.9364 -1.0646
 9467SOL    HW239864   2.010   1.554   6.224  1.1061  0.1326  0.2322
 9468SOL     OW39865   1.479   4.330  16.528 -0.2579  0.1188 -0.4766
 9468SOL    HW139866   1.534   4.396  16.571 -2.0245  2.0236 -1.1492
 9468SOL    HW239867   1.509   4.349  16.439 -0.3724 -2.1628 -1.0083
 9469SOL     OW39868   2.634   1.977  16.646 -0.3824 -0.3789  0.3928
 9469SOL    HW139869   2.625   2.058  16.697 -1.2565 -0.4155  0.2939
 9469SOL    HW239870   2.705   1.941  16.700 -0.4122 -1.2316 -0.1470
 9470SOL     OW39871   4.124   2.994   0.171  0.2649  0.2409  0.2792
 9470SOL    HW139872   4.048   2.941   0.197 -1.5881  2.9706  0.4517
 9470SOL    HW239873   4.167   3.022   0.252  1.7842 -0.1458 -0.3860
 9471SOL     OW39874   2.429   3.327  11.135 -0.3502 -0.0373  0.4949
 9471SOL    HW139875   2.436   3.312  11.230  0.5167 -0.4442  0.3675
 9471SOL    HW239876   2.365   3.258  11.118 -1.3087  0.3254  2.5450
 9472SOL     OW39877   0.742   3.654   9.805 -0.1461  0.3367  0.1341
 9472SOL    HW139878   0.652   3.624   9.812 -0.7146  2.0713  0.4106
 9472SOL    HW239879   0.738   3.746   9.831  0.9209 -0.0456  1.6632
 9473SOL     OW39880   0.371   3.104   9.084  0.2538 -0.0387 -0.0075
 9473SOL    HW139881   0.457   3.144   9.088  0.0687  0.0924  2.2565
 9473SOL    HW239882   0.380   3.068   8.995 -0.1805 -1.1312  0.3892
 9474SOL     OW39883   4.577   0.756  16.401  0.3976 -0.0645  0.4311
 9474SOL    HW139884   4.500   0.768  16.456 -0.7313 -1.0345 -0.9250
 9474SOL    HW239885   4.569   0.831  16.342  2.2066  2.0010  2.8133
 9475SOL     OW39886   4.069   0.344   3.655  0.1032  0.1550 -0.2757
 9475SOL    HW139887   3.994   0.377   3.705  2.0742  1.0792  2.1040
 9475SOL    HW239888   4.084   0.415   3.593 -1.8339  0.6983 -0.1226
 9476SOL     OW39889   4.364   0.342  17.223 -0.7913 -0.1379  0.4286
 9476SOL    HW139890   4.275   0.326  17.194 -0.5520 -2.3702  0.9574
 9476SOL    HW239891   4.366   0.436  17.203 -0.4610 -0.3141 -0.4066
 9477SOL     OW39892   3.487   4.155  12.089  0.1986 -0.7022 -0.3419
 9477SOL    HW139893   3.484   4.192  12.177 -1.2574  0.2209 -0.7774
 9477SOL    HW239894   3.437   4.223  12.043  0.5997  0.8277  1.4751
 9478SOL     OW39895   1.871   1.177   4.531  0.4714  0.3143 -0.1401
 9478SOL    HW139896   1.827   1.101   4.568 -0.1944  1.6172  1.7145
 9478SOL    HW239897   1.820   1.189   4.451  0.9582  2.4330 -0.1358
 9479SOL     OW39898   1.846   3.295   2.574 -0.1066  0.1505 -0.5035
 9479SOL    HW139899   1.859   3.385   2.605  0.5649 -0.1945  0.2138
 9479SOL    HW239900   1.876   3.308   2.484 -1.3194  0.0858 -0.9268
 9480SOL     OW39901   3.450   1.743   5.315 -0.1805  0.4546 -0.0026
 9480SOL    HW139902   3.538   1.711   5.333  0.1030  0.8932 -0.5936
 9480SOL    HW239903   3.409   1.657   5.327  0.0819  0.4363  0.7176
 9481SOL     OW39904   3.945   3.837   8.275  0.6709 -0.1195  0.6459
 9481SOL    HW139905   3.880   3.901   8.246 -1.6054 -3.1273 -0.9919
 9481SOL    HW239906   3.888   3.809   8.346  0.1288 -0.8039 -0.0535
 9482SOL     OW39907   4.167   2.777  11.030 -0.2576  0.2343 -0.0887
 9482SOL    HW139908   4.109   2.799  11.103 -1.7166 -0.9474 -0.9074
 9482SOL    HW239909   4.146   2.849  10.971 -0.5712 -0.0983 -0.3778
 9483SOL     OW39910   1.682   2.761  15.008 -0.3101  0.2455 -0.0203
 9483SOL    HW139911   1.643   2.674  15.012 -1.4927  0.6942 -2.1464
 9483SOL    HW239912   1.614   2.818  15.045 -0.6171 -0.6947  0.8607
 9484SOL     OW39913   0.900   3.312  17.067 -0.7798  0.0086  0.7653
 9484SOL    HW139914   0.895   3.232  17.119  1.5380 -0.0708  0.8628
 9484SOL    HW239915   0.887   3.278  16.979 -2.7227  2.2129  0.1930
 9485SOL     OW39916   4.413   1.158   3.689 -0.0522 -0.8414 -0.3039
 9485SOL    HW139917   4.469   1.199   3.754  0.2079 -2.8383  0.7425
 9485SOL    HW239918   4.424   1.069   3.722 -0.6978 -0.5083  0.7923
 9486SOL     OW39919   2.652   2.302   6.375  0.3779 -0.4246  0.3810
 9486SOL    HW139920   2.722   2.306   6.440 -0.0975  0.0139  0.8713
 9486SOL    HW239921   2.699   2.298   6.291 -0.3993 -2.7371  0.0536
 9487SOL     OW39922   3.158   4.133   7.072  0.6772 -0.2607 -0.1790
 9487SOL    HW139923   3.221   4.191   7.115 -2.2582  2.5030  0.3939
 9487SOL    HW239924   3.159   4.175   6.986 -1.8748  3.4165  1.6042
 9488SOL     OW39925   4.182   1.818  17.576 -0.2014  0.1222  0.3736
 9488SOL    HW139926   4.237   1.813  17.654  1.6704  0.0745 -0.9525
 9488SOL    HW239927   4.232   1.884  17.528  1.7554 -0.5903  1.4186
 9489SOL     OW39928   4.668   3.582  12.091  0.5136  0.1056  0.3277
 9489SOL    HW139929   4.644   3.533  12.170  1.7930 -1.4688 -0.2826
 9489SOL    HW239930   4.637   3.529  12.018 -0.2885  2.0897 -0.7821
 9490SOL     OW39931   4.297   3.821   4.204 -0.0923 -0.1109  0.1829
 9490SOL    HW139932   4.302   3.905   4.158  0.5857  0.4019  1.1953
 9490SOL    HW239933   4.210   3.787   4.183  0.4832 -1.4027 -0.1283
 9491SOL     OW39934   2.875   3.029   0.669 -0.2353 -0.3098  0.5668
 9491SOL    HW139935   2.902   3.115   0.700  1.0250 -1.1156  1.7333
 9491SOL    HW239936   2.814   3.006   0.739 -1.1751 -0.4035 -0.2868
 9492SOL     OW39937   1.870   1.537   9.040 -0.1905 -0.6595  0.1074
 9492SOL    HW139938   1.909   1.505   9.121  2.2294  1.2956 -0.2736
 9492SOL    HW239939   1.786   1.569   9.073  0.6491  0.0993  1.4891
 9493SOL     OW39940   1.345   4.113   5.933 -0.5643 -0.1889 -1.2502
 9493SOL    HW139941   1.357   4.193   5.882 -0.0099 -0.4125 -1.4655
 9493SOL    HW239942   1.428   4.070   5.911 -0.7331 -2.1739  2.0178
 9494SOL     OW39943   4.467   1.340   2.520 -0.2670  0.0607 -0.0364
 9494SOL    HW139944   4.476   1.316   2.428 -0.8125 -0.4235  0.0378
 9494SOL    HW239945   4.492   1.433   2.516  0.7170 -0.2787 -1.5250
 9495SOL     OW39946   3.732   3.562   2.932  0.1913  0.4207  0.3489
 9495SOL    HW139947   3.689   3.516   2.859  1.2624 -0.4088  0.2308
 9495SOL    HW239948   3.664   3.541   2.996  1.5629 -2.1609  0.9624
 9496SOL     OW39949   1.455   2.448   5.910 -0.6584  0.7918 -0.5115
 9496SOL    HW139950   1.465   2.353   5.898 -2.2467  0.3747  1.4181
 9496SOL    HW239951   1.513   2.476   5.839  0.0741 -2.0449 -1.0462
 9497SOL     OW39952   0.376   0.540   8.007 -0.3086 -0.1282 -0.1914
 9497SOL    HW139953   0.299   0.493   8.039 -0.3405  0.5466  0.7106
 9497SOL    HW239954   0.339   0.580   7.929  1.7489 -0.8731 -1.5524
 9498SOL     OW39955   3.357   0.573   2.507  0.2507 -0.6316  0.2219
 9498SOL    HW139956   3.370   0.544   2.417  0.8367 -4.1316  1.4580
 9498SOL    HW239957   3.435   0.534   2.545  1.2177  1.1742  0.0844
 9499SOL     OW39958   3.526   1.843   9.319  0.2052 -0.0139  0.0675
 9499SOL    HW139959   3.449   1.850   9.263  0.6276  0.4348 -0.4524
 9499SOL    HW239960   3.602   1.830   9.263  0.1053  1.4362 -0.3828
 9500SOL     OW39961   2.555   4.082   3.963 -0.2451 -0.0930  0.1443
 9500SOL    HW139962   2.508   3.999   3.954  2.2215 -1.4543  0.0667
 9500SOL    HW239963   2.629   4.068   3.905 -0.2081 -1.1165  0.4452
 9501SOL     OW39964   3.196   0.232   1.764 -0.2126 -0.2639 -0.5566
 9501SOL    HW139965   3.230   0.191   1.684 -3.8873 -0.4631 -2.0590
 9501SOL    HW239966   3.229   0.168   1.827  0.6307  2.0163  1.3068
 9502SOL     OW39967   3.071   3.503  16.503  0.7687 -0.2326 -0.5523
 9502SOL    HW139968   3.107   3.517  16.590 -0.0880  0.1189 -0.2624
 9502SOL    HW239969   2.978   3.492  16.522  0.4565  0.4385 -1.6543
 9503SOL     OW39970   4.712   0.164   7.303  0.1287 -0.1226  0.8925
 9503SOL    HW139971   0.003   0.257   7.282 -0.4220 -0.2378  0.1610
 9503SOL    HW239972   0.004   0.155   7.398 -2.0516  1.2125  1.2347
 9504SOL     OW39973   0.631   4.003   4.309 -0.4089  0.5241  0.2551
 9504SOL    HW139974   0.635   4.096   4.332 -2.4712  0.1310  2.2003
 9504SOL    HW239975   0.542   3.984   4.280  0.1833  0.6488 -1.6304
 9505SOL     OW39976   4.364   4.247   7.067 -0.2376  0.3573  0.1960
 9505SOL    HW139977   4.456   4.250   7.093 -0.5006 -0.5315  1.2001
 9505SOL    HW239978   4.359   4.178   7.001 -1.7247  0.2873  0.3821
 9506SOL     OW39979   1.432   1.294   3.995  0.1543 -0.2866 -0.2304
 9506SOL    HW139980   1.527   1.300   4.006  0.3717 -1.1133 -1.6900
 9506SOL    HW239981   1.411   1.244   3.916 -0.5331  1.6513 -1.2837
 9507SOL     OW39982   2.268   4.443   5.823  0.1696 -0.1273  0.3193
 9507SOL    HW139983   2.286   4.349   5.829  0.4795 -0.0649  0.3848
 9507SOL    HW239984   2.198   4.456   5.887  0.1816 -0.9183  0.5027
 9508SOL     OW39985   3.920   4.652  11.736 -0.0344  0.0758 -0.6225
 9508SOL    HW139986   3.931   0.019  11.780 -0.5649  0.5927 -1.4747
 9508SOL    HW239987   3.960   4.587  11.793  0.4843  1.1611  0.2404
 9509SOL     OW39988   2.874   4.091   5.494  0.5305  0.4801 -0.7876
 9509SOL    HW139989   2.854   4.080   5.401  0.5243 -1.1293 -0.5988
 9509SOL    HW239990   2.966   4.119   5.492  0.7804 -0.2237  1.1860
 9510SOL     OW39991   2.573   3.834   0.103  0.0277 -0.2282  0.5221
 9510SOL    HW139992   2.520   3.869   0.031 -0.5868  0.8625  1.5157
 9510SOL    HW239993   2.552   3.900   0.169 -1.9615 -1.5897  1.2328
 9511SOL     OW39994   2.851   1.457   4.636  0.3504  0.7036  0.2334
 9511SOL    HW139995   2.850   1.536   4.582  2.5334  0.1423 -0.6293
 9511SOL    HW239996   2.851   1.496   4.723  1.5215  4.2051 -1.3574
 9512SOL     OW39997   3.828   4.057   7.222 -0.1522  0.3476  0.2092
 9512SOL    HW139998   3.829   4.070   7.317  1.4732  0.2895  0.1902
 9512SOL    HW239999   3.818   3.962   7.219  3.1190  0.0815 -2.3265
 9513SOL     OW40000   3.304   3.129   2.858  0.0744 -0.9856  0.4951
 9513SOL    HW140001   3.263   3.043   2.853  0.6352 -1.1513 -1.3699
 9513SOL    HW240002   3.271   3.162   2.774  1.4194  0.2139  0.4226
 9514SOL     OW40003   1.387   0.333  11.337  0.3704 -0.0479 -0.3100
 9514SOL    HW140004   1.340   0.289  11.408  0.9840 -1.1443 -0.5737
 9514SOL    HW240005   1.466   0.280  11.321  0.5560  0.1444 -0.0460
 9515SOL     OW40006   3.200   4.298   6.829  0.7205  0.3543  0.0073
 9515SOL    HW140007   3.141   4.259   6.765  0.3404 -0.8528  1.0972
 9515SOL    HW240008   3.235   4.377   6.787 -2.2902  1.8521  0.3633
 9516SOL     OW40009   1.955   1.765   4.953 -0.1192 -0.0439 -0.3047
 9516SOL    HW140010   1.947   1.855   4.922 -0.0913  0.7822  2.0960
 9516SOL    HW240011   1.976   1.725   4.869  0.5859  1.4695 -0.8386
 9517SOL     OW40012   4.415   0.064  13.999 -0.1809 -0.2945  0.1820
 9517SOL    HW140013   4.383   0.142  13.955 -0.0731 -0.0048  0.6193
 9517SOL    HW240014   4.429   0.013  13.919 -0.6080 -0.0321 -0.0610
 9518SOL     OW40015   4.299   1.322   0.709 -0.2542  0.3595 -0.0728
 9518SOL    HW140016   4.321   1.266   0.783  1.4053 -1.5862 -2.0400
 9518SOL    HW240017   4.309   1.408   0.750 -1.0964  0.4494 -0.0414
 9519SOL     OW40018   3.056   0.384   4.757  0.0351 -0.1017  0.0716
 9519SOL    HW140019   3.111   0.416   4.686 -0.6183  1.1944  0.1419
 9519SOL    HW240020   2.972   0.371   4.713 -1.1116  1.4728  1.7498
 9520SOL     OW40021   1.153   2.369  11.198  0.8896 -0.4987 -0.5788
 9520SOL    HW140022   1.118   2.295  11.248 -1.8129  0.6455 -0.7491
 9520SOL    HW240023   1.072   2.400  11.157 -0.4069 -2.2220  0.6654
 9521SOL     OW40024   1.537   0.721  13.670 -0.4266  0.1383  0.3579
 9521SOL    HW140025   1.475   0.766  13.728 -0.9971  0.9365 -0.8668
 9521SOL    HW240026   1.601   0.700  13.738  1.0347  3.3256 -0.0286
 9522SOL     OW40027   1.186   2.929   5.175 -0.6019 -0.3787  0.1590
 9522SOL    HW140028   1.135   3.001   5.211 -0.8944  0.1628 -1.3412
 9522SOL    HW240029   1.212   2.973   5.094 -0.9857 -0.8539 -0.2216
 9523SOL     OW40030   0.500   3.269  12.002 -0.4125  0.1207 -0.1416
 9523SOL    HW140031   0.497   3.339  12.067 -0.8113  1.1618 -1.2648
 9523SOL    HW240032   0.511   3.316  11.919  0.9920 -0.4963 -0.3014
 9524SOL     OW40033   3.133   2.001  13.027  0.2472  0.4932  0.6342
 9524SOL    HW140034   3.073   2.012  13.101 -0.0973 -2.2066  0.7626
 9524SOL    HW240035   3.069   1.977  12.961 -1.0748 -0.1035  2.1266
 9525SOL     OW40036   0.116   1.707   1.948 -0.5895  0.2189  0.4259
 9525SOL    HW140037   0.205   1.721   1.981 -1.2840  2.7419  1.2524
 9525SOL    HW240038   0.130   1.624   1.903 -1.7295  1.6214 -2.4937
 9526SOL     OW40039   0.968   4.340   3.451  0.4258 -0.1083 -0.6217
 9526SOL    HW140040   0.978   4.326   3.545 -1.8391  1.7877 -0.1117
 9526SOL    HW240041   0.875   4.316   3.446  0.3043  0.1905  0.2439
 9527SOL     OW40042   4.241   2.624   8.468 -0.2751  0.2407 -0.0540
 9527SOL    HW140043   4.315   2.647   8.523 -1.5066 -2.6795  2.8613
 9527SOL    HW240044   4.267   2.542   8.427 -2.8521  0.8276 -2.8760
 9528SOL     OW40045   3.748   3.398   3.323  0.0177  0.0967  0.0834
 9528SOL    HW140046   3.670   3.347   3.341 -0.9773  1.0755 -1.4754
 9528SOL    HW240047   3.730   3.417   3.231  1.2513  0.5582 -0.0646
 9529SOL     OW40048   4.221   4.548  10.891  0.7081 -0.5326  0.1960
 9529SOL    HW140049   4.228   4.471  10.947 -0.6360 -1.9328 -1.5797
 9529SOL    HW240050   4.313   4.576  10.885  0.9011 -1.5018 -1.2548
 9530SOL     OW40051   1.106   1.326  12.667  0.4547  0.0008  0.1733
 9530SOL    HW140052   1.114   1.244  12.617 -2.1121 -0.6057  0.7823
 9530SOL    HW240053   1.188   1.371  12.648  1.6207 -0.5083  3.8335
 9531SOL     OW40054   3.093   2.849  10.059  0.0442  0.4685 -0.3277
 9531SOL    HW140055   3.018   2.806  10.101  0.2940  0.0988 -0.2641
 9531SOL    HW240056   3.046   2.862   9.977  1.6557  0.5907 -1.2142
 9532SOL     OW40057   3.162   4.149   3.761 -0.0806  0.0556  0.1768
 9532SOL    HW140058   3.222   4.107   3.822 -0.2858 -0.0479  0.3097
 9532SOL    HW240059   3.112   4.215   3.810 -1.0399 -0.9625  0.5857
 9533SOL     OW40060   1.072   1.045   4.531 -0.3707 -0.6009 -0.4154
 9533SOL    HW140061   1.029   1.102   4.467 -1.4734 -0.7572  0.1815
 9533SOL    HW240062   1.022   0.965   4.519 -1.8782 -0.1201  2.5544
 9534SOL     OW40063   2.748   2.646   4.668  0.3626  0.4743 -0.2981
 9534SOL    HW140064   2.818   2.703   4.638  0.8260  1.2150  2.1712
 9534SOL    HW240065   2.704   2.698   4.736  0.4974  0.9050 -0.5376
 9535SOL     OW40066   1.121   2.043  13.215 -0.2885 -0.2029 -0.4672
 9535SOL    HW140067   1.140   2.134  13.194 -0.5422  0.2360  1.2054
 9535SOL    HW240068   1.027   2.036  13.197 -0.2903 -0.6984 -0.2784
 9536SOL     OW40069   2.493   4.153   1.543  0.2432  0.4650  0.5764
 9536SOL    HW140070   2.430   4.084   1.566  0.9291  0.1516  1.5341
 9536SOL    HW240071   2.445   4.210   1.484  0.0109  0.1553  0.4627
 9537SOL     OW40072   2.328   1.965   5.421  0.3192  0.2894 -0.5809
 9537SOL    HW140073   2.291   2.053   5.429  1.1440  0.4524  1.4015
 9537SOL    HW240074   2.249   1.912   5.410 -0.6088  1.0570  2.5394
 9538SOL     OW40075   0.794   3.239  16.818  0.2412  0.2481 -0.1528
 9538SOL    HW140076   0.715   3.275  16.778 -0.7602 -0.3702  1.3137
 9538SOL    HW240077   0.861   3.247  16.749 -0.4261 -0.2174 -0.8585
 9539SOL     OW40078   0.314   0.427   4.821  0.2961  0.1202 -0.3698
 9539SOL    HW140079   0.230   0.449   4.781  0.0566 -0.6095 -0.2608
 9539SOL    HW240080   0.349   0.354   4.771 -0.4856 -0.9769  0.6858
 9540SOL     OW40081   0.160   3.574   2.320 -0.3003 -0.0909 -0.2907
 9540SOL    HW140082   0.118   3.528   2.247  1.4610 -1.3244 -0.5411
 9540SOL    HW240083   0.250   3.580   2.286  0.0192 -0.2753  0.5175
 9541SOL     OW40084   3.219   3.502  12.540 -0.3465  0.5060 -0.3720
 9541SOL    HW140085   3.147   3.558  12.509 -2.6289 -3.4504 -2.1898
 9541SOL    HW240086   3.255   3.480  12.454  0.8795  1.1836 -0.0276
 9542SOL     OW40087   0.158   4.572   7.374 -0.7684 -0.0707  0.1672
 9542SOL    HW140088   0.178   4.643   7.312 -1.3964  1.8462  2.1639
 9542SOL    HW240089   0.241   4.557   7.418 -1.5994 -0.9491  1.4398
 9543SOL     OW40090   4.300   4.323   5.145 -0.2773 -0.0389 -0.5349
 9543SOL    HW140091   4.364   4.257   5.172 -2.8491 -2.3119 -0.0277
 9543SOL    HW240092   4.226   4.302   5.201  0.1005  2.0552  0.7462
 9544SOL     OW40093   0.406   0.696   5.006 -0.1092 -0.6782 -0.2033
 9544SOL    HW140094   0.378   0.757   5.074 -2.5082 -0.2325 -1.5593
 9544SOL    HW240095   0.334   0.709   4.943 -1.1739  0.7612  1.3157
 9545SOL     OW40096   4.056   2.556  13.279  0.0500 -0.3466 -0.2378
 9545SOL    HW140097   4.041   2.602  13.196 -0.2393 -1.1285 -0.6188
 9545SOL    HW240098   4.133   2.606  13.308  0.6380 -0.7728 -1.0621
 9546SOL     OW40099   2.987   1.858  16.038  0.1944  0.4246 -0.6321
 9546SOL    HW140100   2.931   1.815  16.103  0.2153 -0.8386 -1.4524
 9546SOL    HW240101   2.945   1.831  15.956 -2.7999 -2.6872  1.9513
 9547SOL     OW40102   4.377   1.347   5.488 -0.0295  0.1864  0.0641
 9547SOL    HW140103   4.457   1.323   5.535  1.7151  1.6436 -2.1929
 9547SOL    HW240104   4.407   1.423   5.440  0.5319 -0.8237 -1.1800
 9548SOL     OW40105   4.251   2.784   9.203 -0.3133 -0.2401  0.1972
 9548SOL    HW140106   4.336   2.820   9.228  1.0997 -2.9768 -0.6140
 9548SOL    HW240107   4.210   2.757   9.286  1.1999  0.4264  1.1499
 9549SOL     OW40108   3.368   1.920  14.409 -0.0517 -0.2271  0.4928
 9549SOL    HW140109   3.383   1.895  14.500 -3.8966  1.9835  1.7331
 9549SOL    HW240110   3.450   1.963  14.383 -1.1898 -0.0729 -2.8841
 9550SOL     OW40111   0.297   0.572   8.663 -0.4177 -0.8760  0.3307
 9550SOL    HW140112   0.338   0.573   8.577 -1.6906  0.3827 -0.2647
 9550SOL    HW240113   0.204   0.564   8.642 -0.2035 -0.4442 -0.7439
 9551SOL     OW40114   3.186   4.385   1.219 -0.3908 -0.3492 -0.8284
 9551SOL    HW140115   3.146   4.307   1.255 -1.5974  0.1457 -1.1087
 9551SOL    HW240116   3.128   4.416   1.149 -3.1349 -0.0391  1.5886
 9552SOL     OW40117   3.075   3.875   1.070  0.3734 -0.1796 -0.0733
 9552SOL    HW140118   3.120   3.810   1.124  0.4617 -0.7989 -0.8823
 9552SOL    HW240119   3.063   3.817   0.994  1.3419 -1.5943  0.8482
 9553SOL     OW40120   3.857   4.058   7.527  1.2574 -0.6817  0.2260
 9553SOL    HW140121   3.895   3.972   7.547 -1.2677 -2.0303 -0.7322
 9553SOL    HW240122   3.807   4.074   7.607 -0.9803 -1.5104 -1.0107
 9554SOL     OW40123   2.448   0.007   3.200 -0.6315 -0.2909 -0.0085
 9554SOL    HW140124   2.542   0.018   3.186 -0.6743  1.8943  1.4032
 9554SOL    HW240125   2.411   0.064   3.132 -0.2322 -0.1418 -0.1026
 9555SOL     OW40126   0.865   1.448   7.054 -0.0810  0.3249 -0.1251
 9555SOL    HW140127   0.924   1.383   7.092 -0.7445 -0.8704 -1.1654
 9555SOL    HW240128   0.923   1.491   6.992  1.7388 -0.1570  1.2236
 9556SOL     OW40129   3.757   3.417  13.758 -0.2635 -0.0897 -0.3876
 9556SOL    HW140130   3.803   3.495  13.789  0.0214 -0.3588 -0.1366
 9556SOL    HW240131   3.701   3.456  13.690  0.8861 -0.2784 -1.4485
 9557SOL     OW40132   0.414   3.349   3.505  0.3552  0.0490 -0.3938
 9557SOL    HW140133   0.380   3.413   3.568  0.8385  1.6508 -1.7583
 9557SOL    HW240134   0.396   3.394   3.422  1.5714  0.9343 -0.1812
 9558SOL     OW40135   0.341   2.713   0.419 -0.5924 -0.2182  0.5251
 9558SOL    HW140136   0.400   2.761   0.359 -0.2051 -2.6327 -1.0302
 9558SOL    HW240137   0.390   2.723   0.501  1.2016  1.4701 -0.7386
 9559SOL     OW40138   3.858   3.763   4.749 -0.1595 -0.2365 -0.0813
 9559SOL    HW140139   3.920   3.712   4.698 -0.7464 -1.4264  0.3743
 9559SOL    HW240140   3.904   3.783   4.831 -2.1146 -0.4277  1.0932
 9560SOL     OW40141   3.643   1.152  16.649  0.1412  0.3163  0.0817
 9560SOL    HW140142   3.705   1.159  16.576  1.8952 -2.0477  1.3088
 9560SOL    HW240143   3.571   1.100  16.614 -0.6587  1.8731 -0.5843
 9561SOL     OW40144   4.186   1.270   3.202  0.0709  0.0238  0.0867
 9561SOL    HW140145   4.184   1.341   3.266  0.4878  0.0468  0.0682
 9561SOL    HW240146   4.224   1.206   3.262  2.4837 -1.6194 -3.1728
 9562SOL     OW40147   4.119   1.622   8.288 -0.3593 -0.5369  0.4000
 9562SOL    HW140148   4.149   1.585   8.205  2.9059  2.2560  0.3197
 9562SOL    HW240149   4.185   1.581   8.345 -1.5138 -2.3371  0.4503
 9563SOL     OW40150   2.180   1.513  10.924 -0.4788  0.3709 -0.5235
 9563SOL    HW140151   2.170   1.568  10.846 -0.9753 -2.0641 -2.1444
 9563SOL    HW240152   2.185   1.585  10.987  1.6297 -0.8813  0.7537
 9564SOL     OW40153   3.806   1.006   2.671  0.2936 -0.4529 -0.0294
 9564SOL    HW140154   3.753   1.020   2.593  2.3597  1.2051 -1.1272
 9564SOL    HW240155   3.887   1.056   2.661 -0.0333  0.4100  1.5633
 9565SOL     OW40156   4.052   0.970  10.964 -0.2502  0.5763  0.1558
 9565SOL    HW140157   3.978   1.022  10.995 -1.1818 -0.0068 -1.0967
 9565SOL    HW240158   4.124   1.004  11.017  1.0728 -1.5197 -0.3029
 9566SOL     OW40159   1.097   2.480   8.643  0.1777  0.0658 -0.5522
 9566SOL    HW140160   1.070   2.493   8.552  0.9130  0.1090 -0.7681
 9566SOL    HW240161   1.011   2.500   8.679  0.6624 -0.6506  1.0205
 9567SOL     OW40162   2.351   1.112   7.559  0.5305  0.2106  0.4233
 9567SOL    HW140163   2.327   1.072   7.476 -2.7335 -0.1741  1.5461
 9567SOL    HW240164   2.322   1.042   7.617  1.8869 -1.1699 -0.5338
 9568SOL     OW40165   2.782   1.450   7.998 -0.3683  0.3305 -0.0401
 9568SOL    HW140166   2.789   1.419   7.908 -1.7935  0.2608 -0.1311
 9568SOL    HW240167   2.872   1.479   8.013 -0.8721  2.5234 -1.2472
   4.71773   4.71773  17.67417
