Membrane in water
40167
    1TCq1    O1    1   2.824   4.200  10.893 -0.1459  0.3789 -0.0787
    1TCq1    C1    2   2.856   4.328  10.919  0.6047  0.7650  0.5175
    1TCq1    O2    3   2.868   4.413  10.831  0.2850  0.1434  0.0733
    1TCq1    C2    4   2.934   4.321  11.038 -0.0674  0.2455  0.2946
    1TCq1    C3    5   3.068   4.349  11.040 -0.6770  0.9763 -0.1075
    1TCq1    C4    6   3.136   4.296  11.140  0.5058 -0.4383 -0.4462
    1TCq1    C5    7   3.081   4.234  11.245 -0.3591 -0.2015  0.0684
    1TCq1    C6    8   2.950   4.217  11.247 -0.4232  0.0313  0.5380
    1TCq1    C7    9   2.874   4.249  11.141 -0.5197 -0.3256 -0.5008
    1TCq1    C8   10   2.900   4.096  11.312  0.0275  0.5182  0.5438
    1TCq1    O4   11   2.778   4.086  11.327 -1.0291  0.2569 -0.0288
    1TCq1    C9   12   3.281   4.294  11.136 -0.3430  0.3571  0.0199
    1TCq1    O5   13   3.339   4.219  11.218 -0.4564 -0.1916  0.5990
    1TCq1    O6   14   3.344   4.368  11.053  0.6035 -0.2807  0.4652
    1TCq1    H1   15   2.868   4.143  10.959 -2.1368 -2.4487 -1.1768
    1TCq1    H2   16   3.120   4.393  10.956 -0.5398 -0.4084 -0.7468
    1TCq1    H3   17   3.140   4.204  11.330  1.0499  1.0223 -0.4833
    1TCq1    H4   18   2.768   4.226  11.135 -0.5022 -0.4524 -0.3035
    2MPD2     C   19   2.952   3.620  11.508 -1.0249 -0.3375 -0.0800
    2MPD2    C1   20   2.870   3.719  11.544 -0.0931 -0.3834 -0.2341
    2MPD2    C2   21   2.874   3.845  11.483 -0.1443  0.9107  0.4782
    2MPD2    C3   22   2.979   3.872  11.395 -0.2888  1.1248  0.3570
    2MPD2    C4   23   3.076   3.775  11.373  0.0909 -0.1329  0.1759
    2MPD2    C5   24   3.065   3.654  11.439  0.6176  0.4131  0.1478
    2MPD2     H   25   2.800   3.913  11.524 -1.0746  0.7416 -0.9165
    2MPD2    H1   26   3.161   3.784  11.306 -0.2661  0.2930 -0.2216
    2MPD2    H2   27   2.944   3.518  11.544  2.0637 -0.8632 -0.8511
    2MPD2    H3   28   3.136   3.576  11.415 -0.5765 -0.6378  0.0046
    2MPD2     N   29   3.000   4.003  11.337 -0.6139  0.5399  0.3679
    2MPD2    H5   30   3.090   4.015  11.293  1.0187 -1.2641  3.1547
    2MPD2    N1   31   2.768   3.701  11.638  0.3139 -0.1845  0.5592
    2MPD2    H7   32   2.696   3.772  11.647  0.2416 -0.0877 -0.7843
    3TCq1    O1   33   1.569   1.186   9.883 -0.8229 -0.8122  0.6446
    3TCq1    C1   34   1.602   1.294   9.952  0.1055  0.3237  0.6454
    3TCq1    O2   35   1.641   1.394   9.894  0.0567  0.1632 -0.2578
    3TCq1    C2   36   1.594   1.270  10.093 -0.5173 -0.4436  0.1278
    3TCq1    C3   37   1.509   1.177  10.143  0.3600  0.2422 -0.0497
    3TCq1    C4   38   1.490   1.166  10.275  0.9390 -0.5921 -0.0008
    3TCq1    C5   39   1.544   1.259  10.359  0.4262 -0.3077  0.6354
    3TCq1    C6   40   1.631   1.354  10.308  0.3981 -0.8483 -0.2290
    3TCq1    C7   41   1.659   1.362  10.178  0.2380 -0.4859 -0.7440
    3TCq1    C8   42   1.711   1.434  10.401  0.4547  0.6920  0.3079
    3TCq1    O4   43   1.794   1.510  10.350  0.0801  0.0242 -0.4845
    3TCq1    C9   44   1.395   1.064  10.323  0.5609  0.5377 -0.1071
    3TCq1    O5   45   1.414   1.022  10.439  0.5779  0.3694 -0.1478
    3TCq1    O6   46   1.292   1.050  10.249  0.4983 -0.0452  0.0722
    3TCq1    H1   47   1.568   1.102   9.932 -3.8669  0.0265  2.0366
    3TCq1    H2   48   1.464   1.098  10.082 -0.3208  1.4070 -1.0482
    3TCq1    H3   49   1.537   1.243  10.465  1.0375  1.4769  0.9463
    3TCq1    H4   50   1.734   1.427  10.133 -1.7104  0.5377 -2.5035
    4MPD2     C   51   1.899   1.536  10.880  1.1114 -0.4804  0.1248
    4MPD2    C1   52   1.789   1.454  10.888 -0.2268 -0.5227  0.1230
    4MPD2    C2   53   1.714   1.422  10.780 -1.6897 -0.0709  0.0874
    4MPD2    C3   54   1.750   1.465  10.655 -0.3384  0.6170 -0.0751
    4MPD2    C4   55   1.862   1.539  10.642 -0.1433 -0.2386  0.2350
    4MPD2    C5   56   1.933   1.579  10.753 -0.3990  0.5562  0.1697
    4MPD2     H   57   1.629   1.356  10.791 -2.0108  0.3544  0.1616
    4MPD2    H1   58   1.894   1.575  10.545  1.4648  0.3042  0.9659
    4MPD2    H2   59   1.959   1.572  10.962  0.0020 -1.3609  1.3183
    4MPD2    H3   60   2.020   1.642  10.753  0.9043 -1.2187 -1.8242
    4MPD2     N   61   1.679   1.420  10.539  0.4530  0.6950 -0.0023
    4MPD2    H5   62   1.590   1.376  10.559  0.9979  0.3641  1.7727
    4MPD2    N1   63   1.746   1.401  11.011 -0.3228  0.1576  0.1115
    4MPD2    H7   64   1.649   1.370  11.018 -0.6545  0.4325 -3.0280
    5TCq1    O1   65   2.998   1.875  11.846 -0.7357 -0.1491  0.2901
    5TCq1    C1   66   2.940   1.779  11.770  0.0174 -0.5033  0.1076
    5TCq1    O2   67   2.996   1.690  11.711  0.0111 -0.6584 -0.1562
    5TCq1    C2   68   2.812   1.826  11.718  0.4286 -0.4066  0.1032
    5TCq1    C3   69   2.721   1.882  11.808 -0.1029 -0.5142  0.3956
    5TCq1    C4   70   2.588   1.889  11.766  0.2743  0.7661  0.0289
    5TCq1    C5   71   2.548   1.855  11.638 -0.7767 -0.7951 -0.9646
    5TCq1    C6   72   2.646   1.800  11.556 -0.3635 -0.4465 -0.3790
    5TCq1    C7   73   2.779   1.794  11.595  0.0269 -0.6752  0.9231
    5TCq1    C8   74   2.618   1.727  11.434 -0.0851  0.5425 -0.7821
    5TCq1    O4   75   2.707   1.681  11.367  0.4399  0.2933  0.5145
    5TCq1    C9   76   2.486   1.914  11.869  0.4905 -0.2282  0.7530
    5TCq1    O5   77   2.522   1.944  11.993  0.1171 -0.0539  0.0592
    5TCq1    O6   78   2.366   1.898  11.829 -0.6955 -0.1716 -0.0198
    5TCq1    H1   79   2.945   1.955  11.868 -1.3600 -0.5298  0.1768
    5TCq1    H2   80   2.746   1.896  11.913  0.7366 -0.3260  0.1705
    5TCq1    H3   81   2.444   1.864  11.608 -0.8460 -1.5550 -0.9504
    5TCq1    H4   82   2.861   1.757  11.535 -0.5733  1.5696 -1.2756
    6MPD2     C   83   2.287   1.713  11.284  0.2526 -0.3259  0.6558
    6MPD2    C1   84   2.417   1.672  11.292  0.4426  0.3958  0.1946
    6MPD2    C2   85   2.467   1.591  11.194  0.1004 -0.0842  0.5408
    6MPD2    C3   86   2.388   1.544  11.091  0.7787 -0.5995 -0.5886
    6MPD2    C4   87   2.257   1.587  11.081 -0.0893 -0.6926  0.5692
    6MPD2    C5   88   2.209   1.670  11.176  0.4637  0.4851  0.2791
    6MPD2     H   89   2.571   1.560  11.195  0.3138  0.6943  1.9431
    6MPD2    H1   90   2.185   1.555  11.006  0.3134 -0.1898 -0.0303
    6MPD2    H2   91   2.240   1.766  11.366  0.9483 -0.8625  1.4014
    6MPD2    H3   92   2.103   1.693  11.176  0.2295 -0.6022 -0.5154
    6MPD2     N   93   2.452   1.447  11.004 -0.2629  0.6502 -0.0841
    6MPD2    H5   94   2.542   1.413  11.036 -0.4074 -0.8016 -1.2037
    6MPD2    N1   95   2.484   1.729  11.404 -0.3840  0.1574 -0.0309
    6MPD2    H7   96   2.416   1.763  11.471  0.7069  0.4721  0.9022
    7TCq1    O1   97   0.621   1.459  13.094  0.1681  0.0208 -0.5494
    7TCq1    C1   98   0.539   1.563  13.101  0.4051  0.6020 -0.1259
    7TCq1    O2   99   0.568   1.678  13.080 -0.6437  0.2729  0.2610
    7TCq1    C2  100   0.401   1.517  13.105  0.0693  0.4483  0.3419
    7TCq1    C3  101   0.307   1.598  13.042 -0.3878  0.0118 -0.6322
    7TCq1    C4  102   0.176   1.567  13.040  0.0399  0.1279 -0.4071
    7TCq1    C5  103   0.134   1.461  13.117  0.3594  0.7854  0.1057
    7TCq1    C6  104   0.227   1.396  13.196 -0.4635  0.2964  0.9845
    7TCq1    C7  105   0.363   1.423  13.192 -0.4241 -0.4504  0.2992
    7TCq1    C8  106   0.182   1.267  13.246  0.0705 -0.4499 -0.1873
    7TCq1    O4  107   0.074   1.271  13.304 -0.6485  0.0274  0.8393
    7TCq1    C9  108   0.078   1.623  12.948  0.2787  0.2409 -0.1534
    7TCq1    O5  109   4.697   1.551  12.944  0.5397  0.4910 -0.2698
    7TCq1    O6  110   0.123   1.696  12.857  0.2239 -0.0172  0.4538
    7TCq1    H1  111   0.564   1.380  13.083  0.5541 -0.4864  1.0408
    7TCq1    H2  112   0.339   1.675  12.973  0.8302  0.9731  0.9946
    7TCq1    H3  113   0.029   1.436  13.125  0.3731  0.6525 -0.1183
    7TCq1    H4  114   0.437   1.365  13.246  1.1902  0.1665 -1.2211
    8MPD2     C  115   0.156   0.755  13.187 -0.1349 -0.0441  0.5511
    8MPD2    C1  116   0.084   0.839  13.271 -0.6916 -0.2214  0.0907
    8MPD2    C2  117   0.120   0.969  13.281 -0.2356  0.7208 -0.0287
    8MPD2    C3  118   0.218   1.018  13.204  0.1146  0.3659 -0.5261
    8MPD2    C4  119   0.294   0.935  13.125  0.1007 -0.1605 -0.2390
    8MPD2    C5  120   0.265   0.799  13.121  0.2762 -0.4190 -0.4101
    8MPD2     H  121   0.053   1.042  13.323 -1.0310  0.9535 -1.6834
    8MPD2    H1  122   0.380   0.970  13.070  0.3021 -0.3330 -0.0309
    8MPD2    H2  123   0.134   0.649  13.182  0.6650 -0.1129 -1.6132
    8MPD2    H3  124   0.330   0.735  13.062  1.0457 -0.2921  0.3174
    8MPD2     N  125   0.258   1.156  13.207  0.0730  0.2693  0.0741
    8MPD2    H5  126   0.343   1.175  13.154 -0.3710  0.7551 -0.4678
    8MPD2    N1  127   4.686   0.787  13.319 -0.3585 -0.0422  0.3850
    8MPD2    H7  128   4.657   0.693  13.297 -0.9856  0.0011  1.0215
    9TCq1    O1  129   2.767   4.324  10.563 -0.3278 -0.2004 -0.6431
    9TCq1    C1  130   2.824   4.352  10.444 -0.1228 -0.1161 -0.1062
    9TCq1    O2  131   2.795   4.281  10.348  0.3471 -0.4736 -0.3840
    9TCq1    C2  132   2.956   4.426  10.450 -0.2271 -0.0949  0.0033
    9TCq1    C3  133   3.049   4.418  10.343  0.8328  0.4891 -0.1454
    9TCq1    C4  134   3.163   4.496  10.344  0.6691  0.0615 -0.4092
    9TCq1    C5  135   3.180   4.593  10.444  0.8669  0.0328 -0.2168
    9TCq1    C6  136   3.084   4.599  10.544  0.6728 -0.5944 -0.7165
    9TCq1    C7  137   2.974   4.515  10.556 -0.3271 -0.7192  0.0629
    9TCq1    C8  138   3.101   4.701  10.648 -0.6655 -0.2539 -0.0665
    9TCq1    O4  139   3.144   0.084  10.607 -0.3240  0.1813 -0.2768
    9TCq1    C9  140   3.239   4.501  10.228 -0.2878 -0.3854 -0.0961
    9TCq1    O5  141   3.208   4.416  10.137  0.0345  0.0531 -0.4277
    9TCq1    O6  142   3.358   4.543  10.235 -0.4362  0.2905  0.2415
    9TCq1    H1  143   2.806   4.375  10.637 -2.3993 -0.7128  0.7931
    9TCq1    H2  144   3.032   4.352  10.259  3.3553 -0.4172  0.0860
    9TCq1    H3  145   3.267   4.657  10.451  1.0209 -0.2372  0.3426
    9TCq1    H4  146   2.891   4.527  10.623 -0.1402 -0.5536  0.2653
   10MPD2     C  147   3.102   0.155  10.877 -0.1870  0.0049 -0.7849
   10MPD2    C1  148   3.035   0.033  10.876  0.3447 -0.3223  0.3319
   10MPD2    C2  149   2.964   4.714  10.987  0.0218  0.5122 -1.0004
   10MPD2    C3  150   2.969   0.060  11.106 -0.4595  0.0504  0.5237
   10MPD2    C4  151   3.047   0.172  11.114  0.5249  0.2777 -0.6442
   10MPD2    C5  152   3.107   0.218  11.000  0.4281 -0.7960  1.0158
   10MPD2     H  153   2.904   4.625  10.973 -1.3211  1.6779 -2.6974
   10MPD2    H1  154   3.048   0.240  11.198  0.2675  1.0086 -1.2394
   10MPD2    H2  155   3.165   0.200  10.802 -1.0853  0.9863 -0.9467
   10MPD2    H3  156   3.173   0.303  11.015  1.9223 -1.4436 -1.8239
   10MPD2     N  157   2.911   0.022  11.232  0.1502 -0.1730 -0.3637
   10MPD2    H5  158   2.935   0.077  11.314 -0.1361 -0.3581 -0.1562
   10MPD2    N1  159   3.044   4.667  10.765 -0.2657  0.2596 -0.3850
   10MPD2    H7  160   3.007   4.573  10.770 -3.0701  1.4452  1.0647
   11TCq1    O1  161   3.538   0.287  14.085  0.0523 -0.7001 -1.4345
   11TCq1    C1  162   3.460   0.185  14.133  0.2619 -0.0908 -0.1935
   11TCq1    O2  163   3.414   0.101  14.054 -0.1350 -0.2367  0.1722
   11TCq1    C2  164   3.406   0.216  14.266  0.5911  0.3495  0.0002
   11TCq1    C3  165   3.490   0.268  14.356  0.0323 -0.3340  0.0989
   11TCq1    C4  166   3.461   0.262  14.492  0.7748  0.3796  0.0744
   11TCq1    C5  167   3.346   0.205  14.529  0.5581  0.3904 -0.4578
   11TCq1    C6  168   3.261   0.146  14.439  0.2264  0.3620 -0.2908
   11TCq1    C7  169   3.287   0.153  14.304 -0.4932  0.1452 -0.4406
   11TCq1    C8  170   3.128   0.099  14.485  0.3202 -0.4267 -0.7617
   11TCq1    O4  171   3.102   0.105  14.607  0.2896  0.0065  0.4014
   11TCq1    C9  172   3.547   0.330  14.585  0.1175 -0.1100 -0.7635
   11TCq1    O5  173   3.642   0.404  14.541  0.1870 -0.1160  0.8797
   11TCq1    O6  174   3.520   0.308  14.707  0.4233  0.4715 -0.5036
   11TCq1    H1  175   3.552   0.355  14.154 -2.2023 -1.9982  0.2753
   11TCq1    H2  176   3.587   0.306  14.328 -0.1576 -0.5383 -0.8159
   11TCq1    H3  177   3.323   0.208  14.635  2.9420  0.5583  0.0667
   11TCq1    H4  178   3.220   0.124  14.224  1.2849 -1.2074 -1.4555
   12MPD2     C  179   2.825   0.109  14.475  0.3403 -0.3168 -0.0136
   12MPD2    C1  180   2.909   0.033  14.394 -0.2108  0.4627 -0.1819
   12MPD2    C2  181   2.859   4.669  14.299 -1.0775 -0.2617  0.6558
   12MPD2    C3  182   2.719   4.662  14.288  0.6055  0.4380 -0.5762
   12MPD2    C4  183   2.634   0.011  14.365  0.3564 -0.2025 -0.2379
   12MPD2    C5  184   2.684   0.096  14.461 -0.6790  0.0244  0.3853
   12MPD2     H  185   2.927   4.612  14.236 -2.1691 -0.9404  0.0858
   12MPD2    H1  186   2.526   4.721  14.367  0.3943 -0.6387 -1.2095
   12MPD2    H2  187   2.854   0.183  14.549  0.6603  0.1661 -0.6213
   12MPD2    H3  188   2.617   0.162  14.513 -2.0845 -0.4057 -0.8843
   12MPD2     N  189   2.677   4.571  14.188 -0.6844 -0.5230 -0.3699
   12MPD2    H5  190   2.752   4.533  14.131 -2.0249  0.9203 -3.0548
   12MPD2    N1  191   3.048   0.046  14.389  0.0059  0.4888 -0.7127
   12MPD2    H7  192   3.090   0.008  14.305  0.3810 -1.4932  0.3832
   13TCq1    O1  193   3.443   4.568  10.924  0.6587  0.0637  0.4877
   13TCq1    C1  194   3.439   4.593  10.799 -0.0680  0.0677  0.0994
   13TCq1    O2  195   3.474   4.698  10.750  0.1479  0.2709  0.2721
   13TCq1    C2  196   3.444   4.474  10.722  0.8207 -0.3018 -0.9427
   13TCq1    C3  197   3.518   4.475  10.602  0.9009  0.2007 -0.1122
   13TCq1    C4  198   3.490   4.383  10.508  0.0975 -0.1036  1.1023
   13TCq1    C5  199   3.391   4.287  10.529  0.2139  0.1014 -0.3300
   13TCq1    C6  200   3.326   4.293  10.644 -0.2398 -0.3367  0.3816
   13TCq1    C7  201   3.348   4.384  10.743  0.1294  0.2652  0.2833
   13TCq1    C8  202   3.188   4.233  10.649 -0.2785  0.9610  0.2198
   13TCq1    O4  203   3.104   4.289  10.717  0.0379  0.4493 -0.2977
   13TCq1    C9  204   3.553   4.391  10.376  0.3402 -0.3086 -0.5943
   13TCq1    O5  205   3.634   4.485  10.348  0.4948  0.2168 -0.1691
   13TCq1    O6  206   3.533   4.294  10.292 -0.5381  0.9802 -0.7030
   13TCq1    H1  207   3.405   4.484  10.956 -1.3933 -0.1244 -2.4021
   13TCq1    H2  208   3.606   4.538  10.595  0.4652  1.1046  2.5739
   13TCq1    H3  209   3.363   4.229  10.442  2.0838 -1.3995  0.0650
   13TCq1    H4  210   3.290   4.383  10.834 -1.3506 -3.2294 -0.7068
   14MPD2     C  211   3.078   3.911  10.488 -0.2665 -0.1874  0.0848
   14MPD2    C1  212   3.063   4.026  10.560 -0.1754  0.5198  0.4198
   14MPD2    C2  213   2.940   4.053  10.618 -0.1716  0.6836  0.2193
   14MPD2    C3  214   2.845   3.957  10.623 -0.4369  0.2928 -0.0727
   14MPD2    C4  215   2.862   3.838  10.547  0.3928  0.2757 -0.3531
   14MPD2    C5  216   2.978   3.812  10.491 -0.1956  0.3635 -0.4457
   14MPD2     H  217   2.929   4.147  10.670  2.1100  1.8535 -1.3987
   14MPD2    H1  218   2.786   3.761  10.547 -1.0706  1.7183 -0.3795
   14MPD2    H2  219   3.169   3.883  10.436 -0.6145 -0.6248 -0.2918
   14MPD2    H3  220   3.010   3.713  10.460 -1.6726  0.0801 -1.0527
   14MPD2     N  221   2.732   3.983  10.700  0.7147  0.6812  0.0881
   14MPD2    H5  222   2.736   4.070  10.751  1.2001  0.3830  0.5622
   14MPD2    N1  223   3.181   4.108  10.577 -0.1387  0.0871  0.2459
   14MPD2    H7  224   3.262   4.076  10.525  0.3776  0.5379  0.7697
   15TCq1    O1  225   4.102   3.051   1.446 -0.2001 -0.3783  0.1469
   15TCq1    C1  226   4.168   3.156   1.383  0.1470  0.4615 -0.0264
   15TCq1    O2  227   4.167   3.269   1.426  0.5509  1.0475 -0.0812
   15TCq1    C2  228   4.268   3.098   1.299 -0.0033  0.3628 -0.2362
   15TCq1    C3  229   4.397   3.148   1.291  0.1230 -0.4210 -0.1535
   15TCq1    C4  230   4.490   3.083   1.212 -0.9460 -0.1194  0.9964
   15TCq1    C5  231   4.459   2.976   1.126  0.8461 -0.7873 -0.4298
   15TCq1    C6  232   4.329   2.928   1.144 -0.2286  0.5428  0.7278
   15TCq1    C7  233   4.233   2.997   1.217  0.0967  0.8560  0.3592
   15TCq1    C8  234   4.286   2.813   1.068 -0.3324  0.1964 -0.2569
   15TCq1    O4  235   4.361   2.720   1.050 -0.1756  0.6577 -0.2098
   15TCq1    C9  236   4.622   3.140   1.215  0.0507 -0.7421  0.7030
   15TCq1    O5  237   4.690   3.107   1.116  0.1051  0.1623 -0.4325
   15TCq1    O6  238   4.653   3.208   1.319  0.2189 -0.5473  0.9514
   15TCq1    H1  239   4.128   2.959   1.425 -1.4856 -0.6631 -0.1431
   15TCq1    H2  240   4.418   3.243   1.339  1.6059 -0.6180 -0.4158
   15TCq1    H3  241   4.530   2.939   1.052  2.6231  2.8985 -0.5951
   15TCq1    H4  242   4.130   2.963   1.209 -0.3248  2.5547 -1.3197
   16MPD2     C  243   3.947   2.728   0.955  0.1252  0.6347 -0.8139
   16MPD2    C1  244   4.082   2.715   0.954  0.1310  0.6020 -1.4065
   16MPD2    C2  245   4.139   2.601   0.894 -0.3985 -0.2341  0.3068
   16MPD2    C3  246   4.054   2.508   0.832  0.2874  0.4141  0.5293
   16MPD2    C4  247   3.919   2.525   0.835 -0.6652 -0.2391 -0.3693
   16MPD2    C5  248   3.868   2.634   0.904 -0.0839 -0.6800  0.0948
   16MPD2     H  249   4.243   2.575   0.907  0.1237  1.4880 -0.4734
   16MPD2    H1  250   3.849   2.449   0.803 -2.0673  0.8755  0.0537
   16MPD2    H2  251   3.900   2.811   1.006 -1.8887 -0.7636 -0.3587
   16MPD2    H3  252   3.760   2.635   0.907 -0.0859 -2.6168  0.1297
   16MPD2     N  253   4.115   2.395   0.773  0.3749 -0.3935  1.1817
   16MPD2    H5  254   4.216   2.392   0.774  0.4166  0.2751 -1.3309
   16MPD2    N1  255   4.153   2.817   1.027 -0.6390 -0.2748 -0.2101
   16MPD2    H7  256   4.094   2.895   1.053  1.0307  0.0758  2.6377
   17TCq1    O1  257   2.528   4.000  11.313 -0.2164 -0.0213 -0.4851
   17TCq1    C1  258   2.512   3.869  11.327  0.2398  0.3390  1.1561
   17TCq1    O2  259   2.440   3.814  11.405  0.1899 -0.2206  0.1564
   17TCq1    C2  260   2.612   3.805  11.243 -0.0340 -0.4396 -0.2488
   17TCq1    C3  261   2.623   3.669  11.263  0.3173 -0.6978  0.1933
   17TCq1    C4  262   2.703   3.596  11.182  0.2259 -0.5158  0.1294
   17TCq1    C5  263   2.774   3.647  11.083 -0.2131 -0.1581  0.5199
   17TCq1    C6  264   2.755   3.776  11.048 -0.7253  0.0790 -0.5507
   17TCq1    C7  265   2.678   3.859  11.133 -0.2891  0.2875 -0.2131
   17TCq1    C8  266   2.860   3.856  10.990 -0.7166 -0.4123  0.0222
   17TCq1    O4  267   2.871   3.971  11.029  0.6882 -0.0124  0.2346
   17TCq1    C9  268   2.712   3.455  11.209 -0.0058  0.1100  0.3838
   17TCq1    O5  269   2.790   3.381  11.143  0.0782 -0.7494 -0.4532
   17TCq1    O6  270   2.649   3.412  11.310 -0.0146  0.1949 -0.2964
   17TCq1    H1  271   2.619   4.016  11.282 -0.4569  0.3234 -1.0239
   17TCq1    H2  272   2.573   3.616  11.344  0.0775 -1.1128 -0.2301
   17TCq1    H3  273   2.834   3.580  11.022 -0.6690  0.5264 -0.6731
   17TCq1    H4  274   2.644   3.950  11.086  0.0672 -0.3446 -1.7108
   18MPD2     C  275   3.135   3.947  10.927 -0.2901 -0.1299 -0.2725
   18MPD2    C1  276   3.080   3.830  10.874  0.4019 -0.1781 -0.4239
   18MPD2    C2  277   3.167   3.748  10.799 -0.0769 -0.5414  0.0680
   18MPD2    C3  278   3.299   3.774  10.783 -1.3921 -0.4741 -0.7770
   18MPD2    C4  279   3.352   3.890  10.832 -0.3207  0.0698 -0.9649
   18MPD2    C5  280   3.269   3.970  10.900 -0.3948 -0.5517 -0.0444
   18MPD2     H  281   3.123   3.661  10.753 -0.6770  0.6048 -1.5194
   18MPD2    H1  282   3.457   3.918  10.829 -0.5802  1.3130  2.0065
   18MPD2    H2  283   3.082   4.007  11.000  1.6822  0.4120  0.7153
   18MPD2    H3  284   3.315   4.052  10.954 -1.2721  0.9345 -1.5261
   18MPD2     N  285   3.390   3.694  10.708  0.0687  0.1997 -0.4939
   18MPD2    H5  286   3.483   3.730  10.689  0.6191 -0.7265  0.4388
   18MPD2    N1  287   2.947   3.788  10.911 -0.8221  0.1739 -0.1468
   18MPD2    H7  288   2.906   3.704  10.872  2.5606 -0.1747 -2.9666
   19TMC2    C1  289   4.341   4.568  13.799 -0.4069 -0.3239 -0.1234
   19TMC2    C2  290   4.325   4.647  13.687  0.1454  0.1193  0.6069
   19TMC2    C3  291   4.224   4.621  13.604  0.4021  0.1036  0.2661
   19TMC2    C4  292   4.249   4.471  13.834 -0.1715  0.0487  0.0202
   19TMC2    C5  293   4.141   4.456  13.748  0.2563  0.1140 -0.7109
   19TMC2    C6  294   4.135   4.519  13.627  0.3034  0.0152  0.3439
   19TMC2     C  295   4.441   4.609  13.889  0.1197  0.0744  0.4033
   19TMC2     O  296   4.518   4.698  13.849 -0.6909 -1.0862  0.4290
   19TMC2     H  297   4.383   0.013  13.667 -1.0205  0.8375  0.4505
   19TMC2    H1  298   4.255   4.408  13.922 -3.1789  2.3056  1.8369
   19TMC2    H2  299   4.044   4.507  13.569  0.5543 -0.8898  0.1448
   19TMC2    C7  300   4.048   4.343  13.779 -0.2844 -0.0753 -0.0319
   19TMC2    C8  301   4.159   0.014  13.556  0.1478 -0.0214  0.1118
   19TMC2    O1  302   4.009   4.326  13.893 -0.4045  0.7829  0.3945
   19TMC2    O2  303   4.055   0.048  13.606  0.5979  0.1609  0.3898
   19TMC2    O5  304   4.259   0.100  13.509 -0.6155 -0.5541 -0.9462
   19TMC2    H5  305   4.316   0.038  13.460  1.2881  1.6517 -1.5336
   20MPD2     C  306   4.572   4.712  14.132  0.1901  0.6516  0.4219
   20MPD2    C1  307   4.490   4.595  14.123 -0.2901  0.2853  0.3743
   20MPD2    C2  308   4.470   4.524  14.240  0.6126  0.8303 -0.4942
   20MPD2    C3  309   4.524   4.556  14.360 -0.2219  0.3295  0.8460
   20MPD2    C4  310   4.610   4.665  14.365  0.2486 -0.5782  0.3905
   20MPD2    C5  311   4.631   0.022  14.254 -0.6786 -0.0185  0.9061
   20MPD2     H  312   4.404   4.438  14.234  0.1508  1.0959  0.7655
   20MPD2    H1  313   4.664   4.695  14.454 -1.7887  1.2873  1.0256
   20MPD2    H2  314   4.582   0.054  14.046  0.8258 -0.0418 -0.0336
   20MPD2    H3  315   4.695   0.109  14.264 -1.0392  0.2135  1.1462
   20MPD2     N  316   4.496   4.486  14.477  0.0609 -0.1955  0.4298
   20MPD2    H5  317   4.536   4.528  14.560  0.1202 -0.6172  0.6126
   20MPD2    N1  318   4.427   4.552  14.008 -0.2126 -1.1370 -0.8726
   20MPD2    H7  319   4.377   4.465  14.021 -0.7089 -0.5181  1.4160
   21MPD2     C  320   1.395   0.229  14.691 -0.6124 -1.1686 -0.3977
   21MPD2    C1  321   1.412   0.091  14.705 -0.2525 -0.3877  0.6747
   21MPD2    C2  322   1.312   0.010  14.753  0.2325  0.0883  0.4704
   21MPD2    C3  323   1.198   0.068  14.806  0.5307 -0.1464 -0.9989
   21MPD2    C4  324   1.192   0.206  14.809 -0.2473  0.3174 -0.8640
   21MPD2    C5  325   1.281   0.281  14.746  0.5966 -0.2185  0.1788
   21MPD2     H  326   1.326   4.626  14.760  1.2825  0.1770 -0.2352
   21MPD2    H1  327   1.106   0.255  14.853  0.7001  0.2741  1.0441
   21MPD2    H2  328   1.453   0.305  14.640  0.4696  0.3808  3.1479
   21MPD2    H3  329   1.264   0.388  14.742 -0.7924 -0.5004 -1.3565
   21MPD2     N  330   1.094   4.709  14.859 -0.1897  0.2713 -0.0435
   21MPD2    H5  331   1.004   0.031  14.874 -0.0857  0.2471  0.6453
   21MPD2    N1  332   1.533   0.037  14.658 -0.2182 -0.2074 -0.0219
   21MPD2    H7  333   1.543   4.659  14.655 -0.3653 -0.2130 -0.3076
   22TCq2    C1  334   1.097   4.573  14.868  0.1272 -0.5171 -0.2411
   22TCq2    O2  335   1.189   4.493  14.880 -0.4040 -0.0084 -0.2364
   22TCq2    C2  336   0.961   4.529  14.901  0.6628 -0.0329 -0.4131
   22TCq2    C3  337   0.945   4.412  14.969 -0.6237 -0.3236 -1.4632
   22TCq2    C4  338   0.821   4.365  14.997 -0.2557 -0.0077  0.7220
   22TCq2    C5  339   0.712   4.438  14.954  0.4634  0.3136  0.3601
   22TCq2    C6  340   0.728   4.542  14.871  0.0632  0.1771 -0.4643
   22TCq2    C7  341   0.854   4.594  14.846 -0.1524 -0.6604  0.0315
   22TCq2    C8  342   0.614   4.613  14.817  0.3628  0.1143  0.1074
   22TCq2    O4  343   0.509   4.545  14.800 -0.0471  0.9696  0.0702
   22TCq2    C9  344   0.809   4.252  15.081  1.0725  0.2922  0.2213
   22TCq2    O5  345   0.691   4.207  15.093  0.4452 -0.0244 -0.0808
   22TCq2    O6  346   0.893   4.242  15.172 -0.0456  0.5186 -0.0712
   22TCq2    H2  347   1.027   4.351  15.007 -0.1084  1.9149  0.9512
   22TCq2    H3  348   0.611   4.407  14.977  0.4619 -1.7159 -2.3131
   22TCq2    H4  349   0.867   4.669  14.768  1.6477 -1.6284 -0.5949
   23MPD2     C  350   3.412   0.804  14.417  0.0535 -0.7026 -0.5794
   23MPD2    C1  351   3.346   0.862  14.515  0.4694  0.5667  0.0046
   23MPD2    C2  352   3.293   0.987  14.487 -0.2232  0.0887 -0.5666
   23MPD2    C3  353   3.295   1.048  14.360 -0.1423  0.5494  0.6892
   23MPD2    C4  354   3.350   0.976  14.262  0.1282  0.4891 -0.1986
   23MPD2    C5  355   3.407   0.858  14.289  0.0271 -0.0139  0.2741
   23MPD2     H  356   3.243   1.029  14.573  0.6767  0.4431 -0.2092
   23MPD2    H1  357   3.347   1.017  14.162  0.1198  0.3742 -0.2450
   23MPD2    H2  358   3.459   0.708  14.434  0.9228 -0.1267  0.3233
   23MPD2    H3  359   3.455   0.811  14.204 -2.2860 -2.4988  0.3699
   23MPD2     N  360   3.239   1.170  14.327 -0.9523  0.1206  0.0193
   23MPD2    H5  361   3.259   1.196  14.231  1.4633 -1.4793  0.1038
   23MPD2    N1  362   3.329   0.800  14.647  0.2126 -0.0501  0.4790
   23MPD2    H7  363   3.279   0.857  14.715 -1.6647 -0.0898 -0.8700
   24TCq2    C1  364   3.164   1.256  14.406  0.0247 -0.3535  0.4266
   24TCq2    O2  365   3.126   1.239  14.525  0.2804  0.1392  0.0607
   24TCq2    C2  366   3.087   1.356  14.320 -0.2817  0.2987 -0.3148
   24TCq2    C3  367   3.126   1.383  14.196 -0.3650 -0.7023 -0.3814
   24TCq2    C4  368   3.028   1.435  14.112 -0.4389 -0.2587  0.5213
   24TCq2    C5  369   2.901   1.456  14.154 -0.3708  0.1986 -0.1536
   24TCq2    C6  370   2.875   1.441  14.290  0.4720  0.4771 -0.0077
   24TCq2    C7  371   2.971   1.394  14.376  0.2404  0.0518  0.4997
   24TCq2    C8  372   2.733   1.435  14.334 -0.7007  0.1506 -0.0344
   24TCq2    O4  373   2.718   1.436  14.457  0.0349 -0.5687  0.2565
   24TCq2    C9  374   3.070   1.445  13.973  0.0488  0.3195 -0.2120
   24TCq2    O5  375   2.978   1.485  13.892 -0.2678 -0.3363 -0.0000
   24TCq2    O6  376   3.184   1.398  13.936  0.2302  0.0820 -0.2414
   24TCq2    H2  377   3.218   1.345  14.151  0.3540  1.2826 -0.5833
   24TCq2    H3  378   2.818   1.481  14.089 -0.4159  1.5564  0.4292
   24TCq2    H4  379   2.950   1.352  14.474  0.9936  1.3256  1.2122
   25TMC2    C1  380   2.764   3.011  11.291  0.2094  0.2498  0.1966
   25TMC2    C2  381   2.866   3.103  11.288  0.4985  1.6923 -0.5343
   25TMC2    C3  382   2.862   3.209  11.379  0.3597  0.8854  0.0739
   25TMC2    C4  383   2.670   3.007  11.391  0.3552  0.2404  0.5142
   25TMC2    C5  384   2.671   3.118  11.476  0.1778 -0.5709  0.1804
   25TMC2    C6  385   2.773   3.214  11.482 -0.3994  0.6504 -0.2097
   25TMC2     C  386   2.778   2.899  11.203 -0.5531  0.2081  0.2492
   25TMC2     O  387   2.869   2.908  11.129 -0.0935  0.1665  0.1625
   25TMC2     H  388   2.941   3.104  11.210  1.9204  0.0447  0.8151
   25TMC2    H1  389   2.587   2.939  11.380  0.5376 -0.1945  1.8130
   25TMC2    H2  390   2.782   3.304  11.540  1.2572  0.1218  0.3565
   25TMC2    C7  391   2.537   3.157  11.525 -0.6742 -0.8890  0.5269
   25TMC2    C8  392   2.983   3.292  11.391  1.0907 -0.8353  0.4794
   25TMC2    O1  393   2.457   3.063  11.537  0.6268  0.5041  0.2580
   25TMC2    O2  394   3.056   3.284  11.488  0.4351  0.2806  0.3929
   25TMC2    O5  395   3.009   3.333  11.263 -0.3253 -0.8242  0.3863
   25TMC2    H5  396   2.921   3.337  11.218  0.3383 -0.1015 -0.8384
   26MPD2     C  397   2.761   2.416  11.065  0.9016  0.6926  0.1209
   26MPD2    C1  398   2.631   2.450  11.098  0.2258  0.2773  0.5444
   26MPD2    C2  399   2.606   2.580  11.151 -0.1582  0.0121  0.2529
   26MPD2    C3  400   2.710   2.671  11.154 -0.4803 -0.0207  0.7177
   26MPD2    C4  401   2.840   2.628  11.137 -0.0454 -0.0268  0.8200
   26MPD2    C5  402   2.867   2.502  11.099 -0.6808  0.4295 -0.2483
   26MPD2     H  403   2.502   2.606  11.169 -0.3406 -0.9686  0.6521
   26MPD2    H1  404   2.929   2.688  11.145  0.6512 -0.8124 -0.9732
   26MPD2    H2  405   2.780   2.316  11.028 -2.3608  0.0316  0.2127
   26MPD2    H3  406   2.971   2.482  11.076 -0.5963  0.2048  0.3176
   26MPD2     N  407   2.680   2.802  11.201 -0.7077 -0.1868  0.5728
   26MPD2    H5  408   2.593   2.807  11.254 -1.4257 -1.0847 -0.5238
   26MPD2    N1  409   2.535   2.344  11.088 -0.4396  0.2668 -0.4790
   26MPD2    H7  410   2.557   2.252  11.050  2.5915  0.3142  1.1122
   27TMC2    C1  411   0.795   0.890  12.368  0.2698 -0.8925 -0.4336
   27TMC2    C2  412   0.749   0.922  12.247 -0.1243  0.7078  0.3401
   27TMC2    C3  413   0.836   0.993  12.167 -0.9923  0.3188 -0.0100
   27TMC2    C4  414   0.925   0.893  12.396 -0.0382  0.2657  0.6481
   27TMC2    C5  415   1.014   0.933  12.302  0.4390 -0.3652  0.2698
   27TMC2    C6  416   0.978   1.000  12.197 -0.4829 -0.5752 -0.3644
   27TMC2     C  417   0.738   0.773  12.416 -0.8565 -0.2114 -0.1815
   27TMC2     O  418   0.811   0.673  12.411 -0.8207 -0.1651  0.1534
   27TMC2     H  419   0.644   0.906  12.225 -0.6015  1.4099  2.0548
   27TMC2    H1  420   0.964   0.860  12.492  0.3678  1.7277  0.9886
   27TMC2    H2  421   1.051   1.035  12.125  3.0639 -1.6824  2.6589
   27TMC2    C7  422   1.119   0.844  12.272  0.7771  0.1486 -0.7692
   27TMC2    C8  423   0.785   1.079  12.067 -0.7740  0.4753  0.2817
   27TMC2    O1  424   1.213   0.893  12.202  0.7098  0.3255 -0.4684
   27TMC2    O2  425   0.863   1.138  11.991 -0.4181 -0.2668  0.3698
   27TMC2    O5  426   0.672   1.142  12.108  0.1272 -0.1600  0.1775
   27TMC2    H5  427   0.622   1.094  12.178  0.6608  1.5180  1.6957
   28MPD2     C  428   0.436   0.513  12.736 -0.2085 -0.4669 -0.0514
   28MPD2    C1  429   0.385   0.644  12.721  0.0789 -0.2738 -0.0975
   28MPD2    C2  430   0.452   0.730  12.637  0.4211  0.0003 -0.0703
   28MPD2    C3  431   0.566   0.692  12.566 -1.2275 -0.2777  1.3417
   28MPD2    C4  432   0.606   0.563  12.578 -0.1656  0.9338 -0.3685
   28MPD2    C5  433   0.545   0.477  12.664 -0.2536  0.0022 -0.4051
   28MPD2     H  434   0.409   0.828  12.628  2.0431  0.9491  2.5700
   28MPD2    H1  435   0.694   0.530  12.523 -0.9860 -3.2677  0.8434
   28MPD2    H2  436   0.407   0.438  12.809  0.2708  0.8303  1.4535
   28MPD2    H3  437   0.573   0.373  12.679  0.8757  0.1183 -1.7145
   28MPD2     N  438   0.619   0.786  12.481 -0.6079 -0.4249  0.6815
   28MPD2    H5  439   0.573   0.877  12.474  1.3369  0.5226  0.1340
   28MPD2    N1  440   0.260   0.667  12.791  0.1392 -0.2905 -0.1522
   28MPD2    H7  441   0.211   0.592  12.838 -1.5442  0.2627 -1.0184
   29MPD2     C  442   0.202   2.491  14.123  1.4082  0.1681 -0.6845
   29MPD2    C1  443   0.294   2.542  14.212 -0.1726 -0.0683 -0.1272
   29MPD2    C2  444   0.326   2.678  14.219 -0.6713  0.4576 -0.3672
   29MPD2    C3  445   0.262   2.771  14.137  0.4126 -0.4790 -0.6032
   29MPD2    C4  446   0.155   2.718  14.060 -0.5000 -0.2064  0.0023
   29MPD2    C5  447   0.128   2.585  14.056  0.4651  0.6426 -0.4193
   29MPD2     H  448   0.412   2.706  14.278 -0.3669 -0.4771 -0.3583
   29MPD2    H1  449   0.089   2.789  14.013  0.1926 -0.2472 -1.0416
   29MPD2    H2  450   0.184   2.385  14.110 -1.8105  0.5648  0.7083
   29MPD2    H3  451   0.042   2.545  14.004 -0.3871 -0.5057  1.8400
   29MPD2     N  452   0.293   2.912  14.132 -0.1820 -0.0416  0.2240
   29MPD2    H5  453   0.254   2.973  14.061  0.0604  0.9513  0.9353
   29MPD2    N1  454   0.372   2.446  14.284  0.5264  0.0116  0.3980
   29MPD2    H7  455   0.462   2.477  14.320  0.4783  0.7851 -0.1570
   30TCq2    C1  456   0.394   2.967  14.212  0.6424  0.5229 -1.0903
   30TCq2    O2  457   0.453   2.924  14.309  0.2919 -0.5758 -0.0834
   30TCq2    C2  458   0.434   3.106  14.180  0.2899 -0.0737 -0.1409
   30TCq2    C3  459   0.366   3.195  14.105 -0.2278  0.5009  0.5000
   30TCq2    C4  460   0.400   3.325  14.098 -0.1291 -0.1337 -0.3138
   30TCq2    C5  461   0.520   3.362  14.155  0.2425 -0.1467 -0.5473
   30TCq2    C6  462   0.594   3.276  14.225  0.4805  0.6251 -0.3370
   30TCq2    C7  463   0.552   3.149  14.247 -0.6737  0.3077  0.6371
   30TCq2    C8  464   0.731   3.317  14.254  0.2207 -0.3587 -0.2582
   30TCq2    O4  465   0.805   3.224  14.275 -0.2201 -0.6315 -1.2164
   30TCq2    C9  466   0.308   3.426  14.040  0.2676  0.3588  0.7366
   30TCq2    O5  467   0.198   3.375  14.009 -0.4575 -0.5341 -0.4327
   30TCq2    O6  468   0.354   3.538  14.016 -0.1054  0.5444  0.2414
   30TCq2    H2  469   0.273   3.164  14.059 -1.5717  3.3886  1.2767
   30TCq2    H3  470   0.547   3.466  14.143 -2.1147  0.6762  1.3780
   30TCq2    H4  471   0.619   3.077  14.293 -0.0987  0.4726  0.0490
   31MPD2     C  472   3.138   2.063  14.781  0.0729 -0.4308 -0.2912
   31MPD2    C1  473   3.015   2.131  14.788  0.1280 -0.1030  0.3627
   31MPD2    C2  474   2.923   2.102  14.893  0.8242  0.1512 -0.1485
   31MPD2    C3  475   2.954   2.006  14.992 -0.3461  1.0813  0.7695
   31MPD2    C4  476   3.080   1.952  14.984  0.3458 -0.3987 -0.2179
   31MPD2    C5  477   3.168   1.977  14.878  0.5563 -0.3095  0.2977
   31MPD2     H  478   2.833   2.162  14.902 -0.4639 -1.8344  0.0833
   31MPD2    H1  479   3.104   1.878  15.060  0.5173 -2.0587 -1.8948
   31MPD2    H2  480   3.209   2.075  14.700  2.2685  0.0451  1.7086
   31MPD2    H3  481   3.252   1.910  14.867  0.0529 -1.0562  0.9227
   31MPD2     N  482   2.880   1.972  15.108 -0.8540 -0.0594 -0.4203
   31MPD2    H5  483   2.931   1.936  15.188 -0.8188 -1.6634 -1.1518
   31MPD2    N1  484   2.993   2.234  14.694 -0.2523 -0.1239  0.2172
   31MPD2    H7  485   3.053   2.233  14.612 -1.7563  0.6040 -0.8806
   32TCq2    C1  486   2.741   2.002  15.117  0.4533  0.2458 -0.8114
   32TCq2    O2  487   2.667   2.051  15.032  0.2528 -0.0009  0.4446
   32TCq2    C2  488   2.676   1.984  15.247 -0.0839 -0.6443  0.0829
   32TCq2    C3  489   2.567   2.057  15.267  0.0838 -0.2164  0.4349
   32TCq2    C4  490   2.505   2.057  15.387 -0.9682 -0.0060 -0.1416
   32TCq2    C5  491   2.548   1.979  15.486 -0.9498 -0.2147  0.0483
   32TCq2    C6  492   2.665   1.912  15.471 -0.0796 -0.2572 -0.5201
   32TCq2    C7  493   2.731   1.907  15.349 -0.1549  0.0156  0.2371
   32TCq2    C8  494   2.711   1.821  15.576  0.2408 -0.1306  0.1982
   32TCq2    O4  495   2.821   1.772  15.562  0.1703  0.2120  0.0345
   32TCq2    C9  496   2.386   2.135  15.407 -0.4068  0.1343 -0.2779
   32TCq2    O5  497   2.350   2.212  15.311 -0.8193  0.0435 -0.0353
   32TCq2    O6  498   2.329   2.121  15.519 -0.0570  0.1711 -0.4955
   32TCq2    H2  499   2.532   2.133  15.198 -0.1043  0.0453  0.8168
   32TCq2    H3  500   2.502   1.993  15.583 -1.6226  1.1909 -0.4698
   32TCq2    H4  501   2.812   1.837  15.334  0.0779 -0.1537  2.2976
   33MPD2     C  502   3.135   3.225  10.094 -0.0647  0.1733  0.2528
   33MPD2    C1  503   3.208   3.337  10.126 -1.0114 -0.1417  0.0868
   33MPD2    C2  504   3.190   3.450  10.054 -0.2700 -0.4052  0.4223
   33MPD2    C3  505   3.090   3.451   9.957  0.2029  1.0108  0.4354
   33MPD2    C4  506   3.011   3.342   9.934 -0.0606 -0.4730 -0.5787
   33MPD2    C5  507   3.043   3.221   9.995 -0.8316  0.1552  0.3943
   33MPD2     H  508   3.244   3.541  10.073  0.1436 -0.7772  1.0292
   33MPD2    H1  509   2.938   3.348   9.854 -1.5216  0.3108  0.7988
   33MPD2    H2  510   3.147   3.128  10.141 -3.7043 -0.5563 -0.3786
   33MPD2    H3  511   2.986   3.131   9.975 -2.0769  1.1435 -0.5183
   33MPD2     N  512   3.067   3.568   9.874 -0.3056 -0.0523  0.2875
   33MPD2    H5  513   2.983   3.570   9.817  0.1036  1.1977 -0.2875
   33MPD2    N1  514   3.316   3.324  10.217  0.0680 -0.3558  0.3470
   33MPD2    H7  515   3.316   3.241  10.276  0.5911 -0.9153 -0.4437
   34TCq2    C1  516   3.158   3.672   9.851  0.3958  0.1852 -0.3716
   34TCq2    O2  517   3.276   3.678   9.891 -0.5146  0.3566 -0.6115
   34TCq2    C2  518   3.106   3.792   9.784  0.4585  0.4900 -0.6568
   34TCq2    C3  519   2.973   3.796   9.754 -0.0073 -0.3779 -0.1699
   34TCq2    C4  520   2.934   3.897   9.671 -0.0846 -0.2483 -0.2114
   34TCq2    C5  521   3.027   3.996   9.633 -0.1814  0.9545 -0.4246
   34TCq2    C6  522   3.157   3.991   9.670  0.8770 -0.1697 -0.1824
   34TCq2    C7  523   3.196   3.888   9.752  0.3813 -0.3798  0.1801
   34TCq2    C8  524   3.255   4.089   9.632 -0.2683 -1.3783  0.4738
   34TCq2    O4  525   3.345   4.100   9.712 -0.0233 -0.1023  0.0448
   34TCq2    C9  526   2.804   3.897   9.626  0.3465  0.0222  0.4439
   34TCq2    O5  527   2.765   3.977   9.544  0.6950 -0.7840 -0.6866
   34TCq2    O6  528   2.742   3.789   9.656 -0.4110  0.2950 -0.5128
   34TCq2    H2  529   2.905   3.719   9.791 -1.6640  0.2972 -1.8154
   34TCq2    H3  530   2.990   4.077   9.571 -0.3331  1.2835  0.0947
   34TCq2    H4  531   3.302   3.879   9.776  0.4860  0.0060 -0.1587
   35MPD2     C  532   0.593   0.410  11.984  0.3733 -0.0214 -0.2407
   35MPD2    C1  533   0.512   0.520  11.970  0.2705  0.4871  0.8026
   35MPD2    C2  534   0.485   0.573  11.844  0.0097 -0.3590  0.3487
   35MPD2    C3  535   0.525   0.502  11.732  0.0586 -0.0864  0.2827
   35MPD2    C4  536   0.588   0.386  11.747  0.3854  0.1885 -0.5940
   35MPD2    C5  537   0.637   0.343  11.868  0.1271 -0.2643 -0.0519
   35MPD2     H  538   0.425   0.662  11.830  0.5722 -0.0526 -0.0963
   35MPD2    H1  539   0.617   0.323  11.664 -1.9216 -1.7340  0.0484
   35MPD2    H2  540   0.627   0.365  12.077  1.9937  1.9834  0.1240
   35MPD2    H3  541   0.690   0.248  11.867 -1.4211 -1.1237  0.3385
   35MPD2     N  542   0.493   0.554  11.606 -0.0102  0.1656  1.0944
   35MPD2    H5  543   0.453   0.647  11.609  1.9803  1.0659 -0.7464
   35MPD2    N1  544   0.462   0.574  12.090 -0.0069  0.3518  0.4404
   35MPD2    H7  545   0.496   0.527  12.173 -1.9995 -0.0647  1.0138
   36TCq2    C1  546   0.499   0.487  11.483  0.0219 -0.3261 -0.2851
   36TCq2    O2  547   0.543   0.375  11.463 -0.3354 -0.3539  0.2754
   36TCq2    C2  548   0.426   0.549  11.370  0.1910 -0.0073  0.0149
   36TCq2    C3  549   0.371   0.673  11.407 -0.2905 -0.0881 -0.0088
   36TCq2    C4  550   0.262   0.718  11.343 -0.0793  0.4978  0.1672
   36TCq2    C5  551   0.192   0.633  11.263 -0.4211  1.1985 -0.2405
   36TCq2    C6  552   0.234   0.505  11.236 -0.3143  0.6401  0.1659
   36TCq2    C7  553   0.356   0.462  11.285 -0.3391 -0.0840  0.1700
   36TCq2    C8  554   0.153   0.410  11.166  0.2885  0.1282  0.3586
   36TCq2    O4  555   0.041   0.451  11.148 -0.5473  0.4861  0.5543
   36TCq2    C9  556   0.211   0.847  11.361  0.9398 -0.6296 -0.5223
   36TCq2    O5  557   0.280   0.928  11.431  0.7724  0.3243  0.0776
   36TCq2    O6  558   0.093   0.864  11.330  0.5169 -0.1024 -0.1444
   36TCq2    H2  559   0.428   0.743  11.466 -1.4742  1.4401 -0.6826
   36TCq2    H3  560   0.110   0.670  11.202  1.6483  3.2611 -1.7397
   36TCq2    H4  561   0.400   0.364  11.272  0.6300  0.7246 -2.5930
   37TMC2    C1  562   1.792   1.053  10.914  0.3978  0.0175 -0.2340
   37TMC2    C2  563   1.825   1.094  10.785  0.1703  0.6087 -0.8564
   37TMC2    C3  564   1.954   1.141  10.753 -0.0484 -0.0746 -0.8609
   37TMC2    C4  565   1.893   1.049  11.008 -0.1399  0.8391 -0.6719
   37TMC2    C5  566   2.018   1.082  10.966  0.4323  0.1945  0.3024
   37TMC2    C6  567   2.056   1.124  10.843  0.2406 -0.2254 -0.1338
   37TMC2     C  568   1.651   1.026  10.948 -0.6302 -0.0811 -0.0218
   37TMC2     O  569   1.578   1.006  10.850  0.0450  0.0807  0.4613
   37TMC2     H  570   1.745   1.105  10.713 -0.0211  1.3995 -0.5259
   37TMC2    H1  571   1.877   1.021  11.111  0.8383 -2.0898 -1.3176
   37TMC2    H2  572   2.158   1.146  10.813 -0.6081  0.6952 -2.3465
   37TMC2    C7  573   2.125   1.046  11.064  0.0915 -0.3184  0.1568
   37TMC2    C8  574   1.975   1.208  10.628 -0.0170 -0.2863 -0.0505
   37TMC2    O1  575   2.082   1.043  11.182  0.2231 -0.3507 -0.3229
   37TMC2    O2  576   1.901   1.185  10.536  0.0654 -0.0387  0.7033
   37TMC2    O5  577   2.080   1.291  10.640  0.4990 -0.3341 -0.2387
   37TMC2    H5  578   2.120   1.317  10.725  0.3282  0.0275 -0.2680
   38MPD2     C  579   1.248   0.985  11.255  0.0644  0.2651 -0.7033
   38MPD2    C1  580   1.363   0.966  11.331  0.3464  0.3108  0.4726
   38MPD2    C2  581   1.479   1.004  11.274 -0.6144  0.4406 -0.1359
   38MPD2    C3  582   1.492   1.021  11.133  0.4029  0.7481  0.5753
   38MPD2    C4  583   1.379   1.033  11.059  0.6812 -0.3597  0.3091
   38MPD2    C5  584   1.252   1.015  11.121  0.4739  0.5704 -0.1780
   38MPD2     H  585   1.569   1.010  11.335  0.1545 -2.2728 -1.0014
   38MPD2    H1  586   1.382   1.057  10.953 -0.6007 -1.1311  0.0892
   38MPD2    H2  587   1.148   0.980  11.295 -0.9681  1.3729 -3.1789
   38MPD2    H3  588   1.166   1.017  11.055  0.3045 -0.9538 -0.0178
   38MPD2     N  589   1.618   1.035  11.082  0.1886  0.4449  0.3658
   38MPD2    H5  590   1.688   1.035  11.155  1.0954  0.3786 -0.5058
   38MPD2    N1  591   1.350   0.930  11.464 -0.1808  0.5212 -0.5024
   38MPD2    H7  592   1.436   0.935  11.519 -0.3300  0.3858 -0.2571
   39MPD2     C  593   4.320   2.052   1.115  0.8311  0.1064  0.1437
   39MPD2    C1  594   4.242   2.160   1.139  0.1959 -0.4610  0.4189
   39MPD2    C2  595   4.109   2.165   1.095 -0.3265 -0.0817 -0.2438
   39MPD2    C3  596   4.055   2.059   1.032  0.1073 -0.8001  0.3633
   39MPD2    C4  597   4.135   1.942   1.017 -0.2844 -0.1979 -0.2858
   39MPD2    C5  598   4.269   1.941   1.051  0.3991  0.1012  0.2087
   39MPD2     H  599   4.048   2.254   1.105 -0.0025  0.0619  0.4726
   39MPD2    H1  600   4.101   1.864   0.950  4.3862 -0.7708 -1.9448
   39MPD2    H2  601   4.426   2.063   1.135  1.2652 -1.4067 -1.3339
   39MPD2    H3  602   4.335   1.861   1.016  0.8487  2.2455 -3.7841
   39MPD2     N  603   3.924   2.052   0.978  0.2627  0.2886 -0.2134
   39MPD2    H5  604   3.899   1.965   0.931 -1.1204  1.2437 -1.2397
   39MPD2    N1  605   4.302   2.270   1.208  1.3981 -0.5671 -0.1541
   39MPD2    H7  606   4.403   2.270   1.214  1.3048  0.7060  1.5263
   40TCq2    C1  607   4.242   2.387   1.239  0.0492 -0.5982 -0.0674
   40TCq2    O2  608   4.121   2.408   1.232 -0.3155  0.0345  0.3269
   40TCq2    C2  609   4.332   2.485   1.298 -0.5104 -0.0103 -0.0501
   40TCq2    C3  610   4.276   2.576   1.385 -0.1727 -0.2658 -0.6440
   40TCq2    C4  611   4.355   2.671   1.437  0.3918 -0.3962  0.4255
   40TCq2    C5  612   4.491   2.653   1.439 -0.6083 -1.0411 -0.5727
   40TCq2    C6  613   4.539   2.551   1.366 -0.1813  0.3872  0.3254
   40TCq2    C7  614   4.466   2.469   1.288  0.4335 -0.2824  0.3881
   40TCq2    C8  615   4.682   2.533   1.360 -0.7444  0.1586  0.6677
   40TCq2    O4  616   0.020   2.544   1.465 -0.3783 -0.4555  0.2589
   40TCq2    C9  617   4.287   2.783   1.494  0.9006 -0.7047  0.6765
   40TCq2    O5  618   4.352   2.854   1.569  0.1339 -0.0029  0.7717
   40TCq2    O6  619   4.175   2.813   1.440 -0.2237  0.1024 -0.9777
   40TCq2    H2  620   4.168   2.584   1.375 -0.3278 -0.1755  1.0199
   40TCq2    H3  621   4.562   2.726   1.477  0.1453 -1.2040 -1.6707
   40TCq2    H4  622   4.525   2.409   1.219 -1.8152 -2.3514  0.3000
   41TMC2    C1  623   3.761   1.417  13.603 -0.0093  0.1376 -0.4621
   41TMC2    C2  624   3.710   1.508  13.692 -0.8511 -0.0646  0.0443
   41TMC2    C3  625   3.703   1.634  13.655 -0.2759 -0.1953  0.9691
   41TMC2    C4  626   3.823   1.457  13.484 -0.0586 -0.1438  0.4695
   41TMC2    C5  627   3.801   1.584  13.443  0.1468 -0.2221 -0.5395
   41TMC2    C6  628   3.735   1.672  13.525 -0.4698  0.1982 -0.1106
   41TMC2     C  629   3.754   1.275  13.649 -0.7004 -0.4339  1.0435
   41TMC2     O  630   3.804   1.195  13.570 -0.5667  0.2787 -0.3353
   41TMC2     H  631   3.695   1.488  13.797 -1.9273  1.4312  0.1719
   41TMC2    H1  632   3.886   1.392  13.425 -0.1447 -1.1467  1.4799
   41TMC2    H2  633   3.730   1.774  13.489 -1.6773 -0.5332 -2.0422
   41TMC2    C7  634   3.921   1.647  13.391 -0.0502 -0.1931  0.5202
   41TMC2    C8  635   3.716   1.740  13.761 -0.0052 -0.3122  0.0223
   41TMC2    O1  636   3.961   1.734  13.469 -0.7412 -0.2845  0.2825
   41TMC2    O2  637   3.648   1.738  13.864  0.1384 -0.2976 -0.2473
   41TMC2    O5  638   3.845   1.790  13.746  0.0099 -0.5952 -0.4426
   41TMC2    H5  639   3.862   1.796  13.649 -0.8294  0.0618 -0.5503
   42MPD2     C  640   3.773   1.035  13.797  0.5000 -0.3250  0.2364
   42MPD2    C1  641   3.713   1.148  13.847  0.2056 -0.2504 -0.2921
   42MPD2    C2  642   3.679   1.150  13.981 -0.2605  0.0121 -1.2322
   42MPD2    C3  643   3.718   1.047  14.067  0.3876 -0.0231 -0.3462
   42MPD2    C4  644   3.783   0.938  14.019 -1.0553 -0.7104 -0.1442
   42MPD2    C5  645   3.820   0.937  13.887 -0.3116 -0.1207 -0.3103
   42MPD2     H  646   3.626   1.233  14.026  0.9707  0.1748 -0.0626
   42MPD2    H1  647   3.827   0.859  14.077  1.1034 -0.5897 -1.6329
   42MPD2    H2  648   3.787   1.007  13.693  1.2336 -1.5609  0.6681
   42MPD2    H3  649   3.878   0.852  13.853  2.6811  1.4788  0.7885
   42MPD2     N  650   3.698   1.043  14.202  0.0033 -0.2091  0.5806
   42MPD2    H5  651   3.735   0.965  14.256  1.7623  0.4608  0.3579
   42MPD2    N1  652   3.694   1.260  13.771  0.3297 -0.1692 -0.0202
   42MPD2    H7  653   3.652   1.333  13.827  0.8499 -1.1877  1.7004
   43MPD2     C  654   4.317   3.028   0.302 -0.5509  0.1982 -0.3302
   43MPD2    C1  655   4.434   3.069   0.365 -0.1542  0.3280  0.0045
   43MPD2    C2  656   4.416   3.185   0.445 -0.6586 -0.0377 -0.2098
   43MPD2    C3  657   4.294   3.235   0.482  0.5958  0.5433  0.0798
   43MPD2    C4  658   4.188   3.188   0.411  0.3752 -0.4857 -0.0610
   43MPD2    C5  659   4.196   3.087   0.324  0.1721  0.3720 -0.6713
   43MPD2     H  660   4.508   3.233   0.478 -1.0126  1.5584 -1.5071
   43MPD2    H1  661   4.088   3.226   0.427 -0.3300 -3.1557  1.8814
   43MPD2    H2  662   4.329   2.943   0.235 -2.5275 -0.2818 -0.0708
   43MPD2    H3  663   4.101   3.054   0.284 -0.0882  0.0325  0.2124
   43MPD2     N  664   4.280   3.357   0.551  0.3257  0.0361 -0.6253
   43MPD2    H5  665   4.183   3.371   0.579 -0.0874 -0.7388 -1.6946
   43MPD2    N1  666   4.564   3.014   0.332 -0.3550 -0.1902  0.4992
   43MPD2    H7  667   4.645   3.051   0.380  0.3826 -0.6746 -0.3597
   44TCq2    C1  668   4.506   3.785   0.919  0.6535  0.2989  0.4002
   44TCq2    O2  669   4.608   3.719   0.932  0.0287  0.1118  0.3084
   44TCq2    C2  670   4.411   3.737   0.818  0.1331  0.2946 -0.3901
   44TCq2    C3  671   4.305   3.816   0.779  0.0115  0.2084  0.0333
   44TCq2    C4  672   4.219   3.756   0.686 -0.4068 -1.0262 -1.0103
   44TCq2    C5  673   4.230   3.622   0.647 -0.9496 -0.0708  0.1694
   44TCq2    C6  674   4.337   3.548   0.687  0.3476  0.8679  0.3067
   44TCq2    C7  675   4.430   3.612   0.766  0.5696  0.1393  0.2878
   44TCq2    C8  676   4.381   3.424   0.625  1.1141  0.5531 -0.3970
   44TCq2    O4  677   4.498   3.397   0.638 -0.0051 -0.3127 -0.0976
   44TCq2    C9  678   4.116   3.842   0.622  0.4002 -0.0742 -0.1225
   44TCq2    O5  679   4.086   3.948   0.682  0.2450  0.7523  0.1770
   44TCq2    O6  680   4.048   3.797   0.527 -0.3414 -0.5810  0.4411
   44TCq2    H2  681   4.303   3.922   0.798 -3.9902 -0.6794  4.5958
   44TCq2    H3  682   4.153   3.584   0.581 -0.0741  0.1435 -0.9723
   44TCq2    H4  683   4.512   3.551   0.802  2.0363  0.5078 -2.4372
   45TMC2    C1  684   2.217   0.484   9.534 -0.1653 -0.5517  0.2776
   45TMC2    C2  685   2.350   0.441   9.532  0.4337 -0.5421 -0.4679
   45TMC2    C3  686   2.442   0.531   9.575  0.5920 -0.4291  0.3802
   45TMC2    C4  687   2.173   0.601   9.606 -0.2784 -0.6190 -0.2044
   45TMC2    C5  688   2.274   0.677   9.653 -0.6276 -0.0032 -0.6737
   45TMC2    C6  689   2.406   0.647   9.635  0.3178  0.3197 -0.5642
   45TMC2     C  690   2.122   0.404   9.462 -0.9282  0.0815  0.5083
   45TMC2     O  691   2.160   0.288   9.435  0.8706 -0.1583 -0.1071
   45TMC2     H  692   2.371   0.362   9.461  0.4507 -0.8647 -0.1030
   45TMC2    H1  693   2.068   0.623   9.622  0.0546  0.2870  0.7557
   45TMC2    H2  694   2.482   0.711   9.677  0.8198  0.9779 -2.4370
   45TMC2    C7  695   2.245   0.802   9.713 -0.0129  0.8384 -0.2797
   45TMC2    C8  696   2.584   0.528   9.544  0.8309  0.8718 -0.1196
   45TMC2    O1  697   2.158   0.817   9.799  0.0305  0.3952 -0.6066
   45TMC2    O2  698   2.653   0.628   9.536  0.4018 -0.5060  0.2316
   45TMC2    O5  699   2.592   0.418   9.461  0.1651 -0.6061  0.1895
   45TMC2    H5  700   2.542   0.338   9.490 -0.4361 -0.0980  0.5645
   46MPD2     C  701   1.884   0.300   9.326  0.0356 -0.0051  0.1819
   46MPD2    C1  702   1.902   0.435   9.350  0.1922 -0.6824  0.3677
   46MPD2    C2  703   1.803   0.523   9.306  0.3822  1.2983  0.4019
   46MPD2    C3  704   1.689   0.477   9.245  0.5757 -0.0647  0.3626
   46MPD2    C4  705   1.686   0.343   9.207  0.5377 -0.5602  0.4377
   46MPD2    C5  706   1.784   0.259   9.248  0.1115  0.1328  0.9259
   46MPD2     H  707   1.823   0.628   9.327 -0.2695  1.4780  0.1355
   46MPD2    H1  708   1.601   0.296   9.159  1.1221 -2.0168  0.8494
   46MPD2    H2  709   1.952   0.223   9.360 -0.6463 -1.2288 -1.2468
   46MPD2    H3  710   1.773   0.151   9.238  1.3627 -0.0183  1.1811
   46MPD2     N  711   1.577   0.565   9.224 -0.0249  0.2999 -0.1498
   46MPD2    H5  712   1.589   0.655   9.269  1.2289  0.2674 -0.4282
   46MPD2    N1  713   2.020   0.485   9.413  0.0281 -0.3829  0.0093
   46MPD2    H7  714   2.027   0.584   9.435 -0.7924 -0.4657  0.6499
   47TMC2    C1  715   3.712   1.578   8.881  0.0073  0.7368  0.1846
   47TMC2    C2  716   3.662   1.682   8.803 -0.0434 -0.4306 -0.5732
   47TMC2    C3  717   3.536   1.668   8.748 -0.1039 -0.1193 -0.2408
   47TMC2    C4  718   3.635   1.467   8.910 -0.3202  0.0288 -0.1224
   47TMC2    C5  719   3.510   1.455   8.851  0.1227 -0.4344 -0.1136
   47TMC2    C6  720   3.462   1.554   8.768  0.3788 -0.3081 -0.1252
   47TMC2     C  721   3.816   1.618   8.975  0.5902  0.0669  0.2088
   47TMC2     O  722   3.836   1.738   8.994  0.3596  0.3252 -0.1398
   47TMC2     H  723   3.726   1.765   8.777  1.4590 -1.3059  0.3414
   47TMC2    H1  724   3.661   1.387   8.979 -0.9489 -1.5348 -1.7045
   47TMC2    H2  725   3.378   1.540   8.700 -0.6815  0.1224  1.0923
   47TMC2    C7  726   3.432   1.337   8.875 -0.3177 -0.3670 -1.1149
   47TMC2    C8  727   3.489   1.753   8.645  0.1036  0.0451  0.6086
   47TMC2    O1  728   3.503   1.245   8.911 -0.1089  0.5566  0.1968
   47TMC2    O2  729   3.371   1.775   8.624  0.2186  0.2624  0.6224
   47TMC2    O5  730   3.587   1.735   8.551 -0.1336  0.8357  0.3653
   47TMC2    H5  731   3.661   1.681   8.587 -0.3667 -0.1478 -0.6356
   48MPD2     C  732   3.963   1.600   9.227  0.0316  0.0402 -0.4493
   48MPD2    C1  733   3.957   1.491   9.138  1.2161  0.4692 -1.0363
   48MPD2    C2  734   4.018   1.372   9.173  0.2539  0.0680  0.6323
   48MPD2    C3  735   4.082   1.362   9.298 -0.6277  0.7115 -0.1120
   48MPD2    C4  736   4.094   1.467   9.383 -0.1773  0.2990  0.6691
   48MPD2    C5  737   4.034   1.584   9.344 -0.1319  0.3507 -0.1373
   48MPD2     H  738   4.018   1.289   9.104  1.9103 -0.6313  1.4802
   48MPD2    H1  739   4.135   1.467   9.484  0.6849  2.0232  0.3332
   48MPD2    H2  740   3.931   1.700   9.203  4.8809  2.2406  2.2072
   48MPD2    H3  741   4.048   1.677   9.398  0.8792  0.1282 -0.0253
   48MPD2     N  742   4.138   1.233   9.334  0.1591  1.2661  0.2385
   48MPD2    H5  743   4.112   1.159   9.271 -0.1739  2.8645 -1.5046
   48MPD2    N1  744   3.876   1.503   9.020 -1.0720  0.1396 -0.4018
   48MPD2    H7  745   3.853   1.418   8.969 -0.8910 -0.3835  0.3854
   49MPD2     C  746   2.311   3.359   9.998  0.7780 -0.1517 -0.1040
   49MPD2    C1  747   2.187   3.314  10.039 -0.1502 -0.3720  0.3916
   49MPD2    C2  748   2.174   3.264  10.164 -0.3854 -0.6325  0.0805
   49MPD2    C3  749   2.291   3.244  10.243  0.0787  0.2762 -0.0487
   49MPD2    C4  750   2.414   3.268  10.185  0.2549  0.4654 -0.0971
   49MPD2    C5  751   2.422   3.324  10.060  0.2003  0.2947  0.2701
   49MPD2     H  752   2.075   3.265  10.209 -0.2996 -1.0329  0.2758
   49MPD2    H1  753   2.503   3.245  10.243 -0.3081 -1.3217  0.0837
   49MPD2    H2  754   2.326   3.413   9.906 -0.0943 -1.6398 -1.1243
   49MPD2    H3  755   2.521   3.350  10.024  0.1284 -1.4903 -1.2693
   49MPD2     N  756   2.293   3.203  10.385 -0.1426 -0.3519 -0.2773
   49MPD2    H5  757   2.382   3.202  10.434 -0.8595 -1.4064  0.9928
   49MPD2    N1  758   2.066   3.346   9.966  0.5457 -0.4690 -0.4034
   49MPD2    H7  759   1.976   3.314  10.000  0.7424 -0.3004  0.2739
   50TCq2    C1  760   2.055   3.426   9.857  0.1827  0.2123  0.6031
   50TCq2    O2  761   2.123   3.516   9.812 -0.5321 -0.3076  0.1243
   50TCq2    C2  762   1.931   3.416   9.788 -0.7462 -0.2975 -0.2428
   50TCq2    C3  763   1.890   3.524   9.717  1.0637 -0.2122 -0.2938
   50TCq2    C4  764   1.770   3.512   9.651  0.1288 -0.1592  0.5000
   50TCq2    C5  765   1.685   3.400   9.668 -0.1851 -0.2738 -0.1934
   50TCq2    C6  766   1.730   3.294   9.744 -0.2446 -0.5198  0.6604
   50TCq2    C7  767   1.853   3.304   9.808  0.1441 -0.7882  0.0323
   50TCq2    C8  768   1.649   3.175   9.752 -0.0263  0.0895 -0.1214
   50TCq2    O4  769   1.537   3.171   9.699  0.2917  0.0205 -0.0072
   50TCq2    C9  770   1.718   3.622   9.579  0.3046  0.0573  0.0699
   50TCq2    O5  771   1.637   3.603   9.486  0.1031  0.0231 -0.0345
   50TCq2    O6  772   1.778   3.731   9.591 -0.5471  0.3423 -0.0320
   50TCq2    H2  773   1.939   3.620   9.712  0.7142  0.0071  0.5537
   50TCq2    H3  774   1.595   3.387   9.609 -1.7287 -2.4218  2.6623
   50TCq2    H4  775   1.908   3.219   9.845  0.1777 -0.1325  1.4923
   51MPD2     C  776   2.015   1.349   1.742  0.6539  0.3476 -0.4024
   51MPD2    C1  777   2.119   1.434   1.692 -0.0623  1.2263 -0.1397
   51MPD2    C2  778   2.210   1.490   1.775 -0.1704 -0.3951 -0.1780
   51MPD2    C3  779   2.202   1.458   1.913  0.3832 -0.9422  0.0329
   51MPD2    C4  780   2.114   1.363   1.957 -0.0485 -0.0300  0.5023
   51MPD2    C5  781   2.022   1.315   1.877 -0.4949 -0.4962  1.1808
   51MPD2     H  782   2.296   1.546   1.739 -1.6388  1.0235 -1.4585
   51MPD2    H1  783   2.100   1.336   2.061 -0.0777 -0.6920  0.3252
   51MPD2    H2  784   1.943   1.295   1.682 -2.3646 -0.4813  4.0319
   51MPD2    H3  785   1.956   1.243   1.923 -0.9791 -0.4245  0.6056
   51MPD2     N  786   2.286   1.502   2.016 -0.0661 -0.4269  0.6258
   51MPD2    H5  787   2.272   1.457   2.106  0.7407 -5.1819 -1.6291
   51MPD2    N1  788   2.119   1.474   1.552  0.1765 -1.1637  0.5914
   51MPD2    H7  789   2.045   1.439   1.491 -1.4602  0.8529  1.4380
   52TCq2    C1  790   2.384   1.598   2.002 -0.2341 -0.3043 -0.5312
   52TCq2    O2  791   2.429   1.656   1.902 -0.0733 -0.3552  0.1762
   52TCq2    C2  792   2.452   1.611   2.131 -0.0744 -0.4096  0.3191
   52TCq2    C3  793   2.424   1.531   2.235 -0.7146 -0.1767  0.0565
   52TCq2    C4  794   2.471   1.574   2.357  0.6987  0.5972  0.4460
   52TCq2    C5  795   2.555   1.676   2.372  0.3559  0.5275 -0.3167
   52TCq2    C6  796   2.594   1.748   2.260  0.4472  1.0911 -0.1900
   52TCq2    C7  797   2.540   1.719   2.140 -0.1275 -0.2590  0.0941
   52TCq2    C8  798   2.612   1.891   2.290 -0.1576 -0.0654 -0.1273
   52TCq2    O4  799   2.626   1.967   2.195 -0.1956 -0.0415  0.7291
   52TCq2    C9  800   2.416   1.507   2.473  0.3079  0.4221  0.1959
   52TCq2    O5  801   2.487   1.519   2.575 -0.0268  0.5100  0.3396
   52TCq2    O6  802   2.342   1.403   2.453 -0.4218 -0.4079 -0.5497
   52TCq2    H2  803   2.358   1.445   2.238 -0.6739 -0.2551 -1.2235
   52TCq2    H3  804   2.608   1.685   2.466 -0.2061  0.5553 -0.0045
   52TCq2    H4  805   2.570   1.778   2.055 -2.6399  0.4869 -0.2727
   53TMC2    C1  806   2.617   1.059  11.631  0.0574  0.6552  0.1627
   53TMC2    C2  807   2.731   1.027  11.699  0.7862  0.3242  0.0078
   53TMC2    C3  808   2.729   1.034  11.837  0.3327 -0.7648 -0.1016
   53TMC2    C4  809   2.504   1.100  11.687 -0.6850  0.3593  0.6337
   53TMC2    C5  810   2.509   1.117  11.824  0.1899  0.2029  0.3577
   53TMC2    C6  811   2.623   1.098  11.901 -1.0783 -0.2682 -0.0457
   53TMC2     C  812   2.630   1.049  11.488 -0.4411  0.3654 -0.7545
   53TMC2     O  813   2.742   1.045  11.443 -0.3241  0.1202  0.0304
   53TMC2     H  814   2.815   0.980  11.650  1.0857 -0.1403  0.9483
   53TMC2    H1  815   2.416   1.127  11.630 -0.8857 -0.9152  0.3610
   53TMC2    H2  816   2.648   1.132  12.001  0.5415  0.2547 -0.6299
   53TMC2    C7  817   2.395   1.176  11.895  0.3232  0.2396  0.6518
   53TMC2    C8  818   2.855   1.038  11.900  0.0253 -0.6873 -0.7511
   53TMC2    O1  819   2.296   1.183  11.823  0.2475 -0.2976 -0.6904
   53TMC2    O2  820   2.957   1.057  11.831 -0.1769 -0.1720  0.0396
   53TMC2    O5  821   2.850   0.969  12.016  0.0852 -0.2203  0.2799
   53TMC2    H5  822   2.757   0.949  12.041  0.4735 -0.7702  1.2773
   54MPD2     C  823   2.604   0.919  11.218  0.2777  0.1556 -0.2496
   54MPD2    C1  824   2.506   0.997  11.283 -0.0798 -0.1910 -0.1598
   54MPD2    C2  825   2.393   1.031  11.212 -0.4487 -0.2819  0.5601
   54MPD2    C3  826   2.368   0.990  11.085 -0.2993 -0.2700  0.1842
   54MPD2    C4  827   2.477   0.919  11.019  1.1004  0.6489 -0.1213
   54MPD2    C5  828   2.583   0.880  11.092 -0.0532  0.2306 -0.3841
   54MPD2     H  829   2.314   1.091  11.255  0.2697 -0.2408  1.8211
   54MPD2    H1  830   2.485   0.878  10.919  1.2498 -0.6538  0.4237
   54MPD2    H2  831   2.695   0.889  11.268  0.1351  0.8438  0.4313
   54MPD2    H3  832   2.664   0.830  11.040  2.9960  1.1449  3.5030
   54MPD2     N  833   2.251   1.015  11.012 -0.2120  0.0733 -0.6692
   54MPD2    H5  834   2.248   0.986  10.915  4.4720 -1.7000 -0.2468
   54MPD2    N1  835   2.510   1.039  11.419  0.3792 -1.0419 -0.3135
   54MPD2    H7  836   2.422   1.051  11.469  1.2728 -1.0725  1.2594
   55MPD2     C  837   3.372   3.537  17.132 -0.0908  0.1486 -0.4549
   55MPD2    C1  838   3.316   3.428  17.208  0.1223  0.5668  0.6824
   55MPD2    C2  839   3.205   3.463  17.282 -0.1199  0.5693  0.3804
   55MPD2    C3  840   3.158   3.594  17.294  0.6870  0.2879  0.4317
   55MPD2    C4  841   3.211   3.695  17.218  0.3288  0.1858 -0.2417
   55MPD2    C5  842   3.320   3.659  17.141 -0.5896  0.2057 -0.3128
   55MPD2     H  843   3.162   3.380  17.338  2.1463  0.0062  1.3155
   55MPD2    H1  844   3.167   3.794  17.216  2.3515  1.1194  1.4195
   55MPD2    H2  845   3.461   3.518  17.072 -1.1643 -0.0226 -1.9780
   55MPD2    H3  846   3.367   3.737  17.080 -1.9475 -0.1335 -1.7829
   55MPD2     N  847   3.060   3.618  17.387  0.6182  0.1430 -0.0382
   55MPD2    H5  848   3.021   3.536  17.433 -0.3284  0.6149 -0.0156
   55MPD2    N1  849   3.360   3.292  17.186  0.6139 -0.5607  0.1794
   55MPD2    H7  850   3.419   3.274  17.106 -1.4228 -0.6103 -1.3117
   56TCq2    C1  851   3.315   3.190  17.269  0.1890 -0.2097 -0.2271
   56TCq2    O2  852   3.260   3.189  17.381  0.2157 -0.2775 -0.0261
   56TCq2    C2  853   3.371   3.061  17.229  0.0466 -0.4121 -0.3584
   56TCq2    C3  854   3.486   3.042  17.160  0.4389  0.0252  0.3301
   56TCq2    C4  855   3.537   2.912  17.162 -0.5237  0.4121  0.4367
   56TCq2    C5  856   3.484   2.814  17.241  0.6817 -0.7011  0.1771
   56TCq2    C6  857   3.369   2.840  17.305  0.2928 -0.0499  0.7731
   56TCq2    C7  858   3.313   2.965  17.297  0.2082 -0.1166 -0.6712
   56TCq2    C8  859   3.318   2.742  17.402 -0.1062 -0.8099  0.5035
   56TCq2    O4  860   3.375   2.632  17.397  0.3329 -0.2261  0.5263
   56TCq2    C9  861   3.653   2.887  17.086  0.1507  0.3996  0.0500
   56TCq2    O5  862   3.707   2.990  17.033 -0.0408  0.2736 -0.3716
   56TCq2    O6  863   3.675   2.769  17.055 -0.2401 -0.7879 -0.3607
   56TCq2    H2  864   3.553   3.120  17.127 -0.1449 -0.1745 -1.3455
   56TCq2    H3  865   3.533   2.718  17.253  1.4206 -0.3445  0.0130
   56TCq2    H4  866   3.214   2.984  17.337 -0.1534 -3.8895  0.1627
   57TMC2    C1  867   2.363   0.029  13.754  0.2527  0.5458  0.8731
   57TMC2    C2  868   2.494   0.018  13.794 -0.7450  0.8242  0.1659
   57TMC2    C3  869   2.580   4.695  13.699 -0.2307 -0.4269  0.1682
   57TMC2    C4  870   2.320   4.710  13.631 -0.1709  0.9480 -0.8397
   57TMC2    C5  871   2.410   4.665  13.544 -0.4027 -0.2292 -0.6448
   57TMC2    C6  872   2.543   4.650  13.575 -0.0099 -0.6372  0.4070
   57TMC2     C  873   2.268   0.040  13.859 -0.8406  0.8720  0.4011
   57TMC2     O  874   2.287   0.118  13.954  0.1083  0.0677  0.3404
   57TMC2     H  875   2.526   0.032  13.897 -1.7969 -0.3660  0.6566
   57TMC2    H1  876   2.213   4.715  13.611 -0.2841  1.5044 -0.0891
   57TMC2    H2  877   2.620   4.636  13.500 -0.9559 -1.3739 -0.4368
   57TMC2    C7  878   2.352   4.647  13.414 -0.2332 -0.4182  0.1403
   57TMC2    C8  879   2.699   4.626  13.741  0.7361 -1.2822  0.5557
   57TMC2    O1  880   2.247   4.704  13.383 -0.1606 -0.0407 -0.0189
   57TMC2    O2  881   2.744   4.525  13.682  0.3162 -0.3319 -0.4909
   57TMC2    O5  882   2.735   4.680  13.864 -0.5825  0.5260  0.7636
   57TMC2    H5  883   2.716   0.052  13.876  0.2292  0.5209  2.1051
   58MPD2     C  884   1.851   4.557  14.101  0.2771  0.2496  0.4765
   58MPD2    C1  885   1.890   4.685  14.109 -1.0419  0.0228  0.0722
   58MPD2    C2  886   2.001   4.721  14.032  0.9929 -0.0389 -0.1233
   58MPD2    C3  887   2.067   4.633  13.940  0.0450 -0.3160 -0.0908
   58MPD2    C4  888   2.021   4.509  13.937  0.2994  0.3527 -0.4914
   58MPD2    C5  889   1.914   4.469  14.018 -0.4976 -0.3623  0.1235
   58MPD2     H  890   2.033   0.101  14.027 -0.0529  0.3335  0.7464
   58MPD2    H1  891   2.062   4.441  13.863 -1.1214 -1.8930  0.8056
   58MPD2    H2  892   1.770   4.524  14.165  1.4895 -0.9592  1.3824
   58MPD2    H3  893   1.877   4.369  14.004  0.5611 -0.7026 -0.2223
   58MPD2     N  894   2.175   4.663  13.853  0.4972  0.1248 -0.6869
   58MPD2    H5  895   2.200   4.592  13.784  0.2630 -0.9113  0.2994
   58MPD2    N1  896   1.816   0.064  14.170 -0.1177 -0.1920  0.4716
   58MPD2    H7  897   1.867   0.151  14.169  2.2250 -1.5718 -1.6357
   59MPD2     C  898   4.515   0.495  13.616  0.5098  0.5733 -0.2890
   59MPD2    C1  899   4.608   0.468  13.513  0.0293 -0.0626  0.5054
   59MPD2    C2  900   0.009   0.542  13.513  0.3097 -0.2874  0.7898
   59MPD2    C3  901   0.045   0.622  13.611 -0.1032  0.5749 -0.2817
   59MPD2    C4  902   4.683   0.637  13.718  0.2864  0.2581 -0.2169
   59MPD2    C5  903   4.556   0.572  13.720  0.1271 -0.2260  0.0914
   59MPD2     H  904   0.076   0.520  13.431  1.0286 -0.8617  1.5337
   59MPD2    H1  905   4.701   0.696  13.807  2.2692  0.3777 -0.6982
   59MPD2    H2  906   4.410   0.468  13.610  0.9718 -0.9318 -1.9304
   59MPD2    H3  907   4.493   0.574  13.808  0.9978 -0.0672  0.7177
   59MPD2     N  908   0.176   0.688  13.621  0.5058  0.1674  0.2957
   59MPD2    H5  909   0.194   0.764  13.686  0.7370  1.8486 -1.7137
   59MPD2    N1  910   4.572   0.372  13.417 -0.0457  0.4334  0.0660
   59MPD2    H7  911   4.493   0.309  13.429 -0.0509  0.3728 -0.2701
   60TCq2    C1  912   4.629   0.369  13.292  0.1258  0.0355 -0.9706
   60TCq2    O2  913   4.702   0.445  13.235  0.6269  0.4128  0.0674
   60TCq2    C2  914   4.589   0.255  13.210  0.4347  0.0423  0.7050
   60TCq2    C3  915   4.512   0.160  13.260 -0.0277 -0.9185  0.1537
   60TCq2    C4  916   4.507   0.042  13.193  0.6092  0.0168  0.2730
   60TCq2    C5  917   4.583   0.009  13.088 -0.0269  0.1509 -0.1069
   60TCq2    C6  918   4.659   0.112  13.042  0.3079 -0.3569 -0.2727
   60TCq2    C7  919   4.659   0.230  13.099  0.1328 -0.0860  0.1328
   60TCq2    C8  920   0.030   0.074  12.935 -0.3368  0.1046 -0.2319
   60TCq2    O4  921   0.046   4.678  12.909 -0.2281  0.0768 -0.3860
   60TCq2    C9  922   4.426   4.665  13.249  0.0980 -0.1234  0.2414
   60TCq2    O5  923   4.402   4.674  13.380 -0.5400 -0.8133 -0.1283
   60TCq2    O6  924   4.360   4.588  13.182  0.0673 -0.9334 -0.2119
   60TCq2    H2  925   4.441   0.186  13.337 -0.9038 -1.5200 -0.4575
   60TCq2    H3  926   4.575   4.644  13.026 -0.4217 -0.6010  1.0147
   60TCq2    H4  927   0.007   0.303  13.063  0.9304 -0.5939  0.6801
   61MPD2     C  928   3.858   1.585  14.241 -0.1639  0.2136 -0.0614
   61MPD2    C1  929   3.954   1.649  14.317 -0.3571 -0.1132  0.3375
   61MPD2    C2  930   3.988   1.780  14.299 -0.2880 -0.0561 -1.1242
   61MPD2    C3  931   3.926   1.853  14.203 -0.8383 -0.3225 -0.1676
   61MPD2    C4  932   3.845   1.790  14.109  0.2005  0.3089 -0.0459
   61MPD2    C5  933   3.815   1.658  14.131  0.0601 -0.1740  0.4369
   61MPD2     H  934   4.056   1.825  14.372 -1.8031  0.5232 -0.0700
   61MPD2    H1  935   3.800   1.842  14.026  0.1982 -2.1148 -1.5710
   61MPD2    H2  936   3.823   1.484  14.259 -0.3508  0.2013 -0.4927
   61MPD2    H3  937   3.736   1.607  14.078  1.0139 -0.5189 -0.6652
   61MPD2     N  938   3.930   1.993  14.188  0.3338 -0.0946 -0.3155
   61MPD2    H5  939   3.899   2.031  14.099  2.1944  1.9689 -0.0775
   61MPD2    N1  940   4.014   1.595  14.433 -0.2400  0.2060  0.1367
   61MPD2    H7  941   4.084   1.644  14.487  3.8487 -4.1390 -1.2495
   62TCq2    C1  942   3.966   1.483  14.501  0.3773 -0.2066  0.1969
   62TCq2    O2  943   3.864   1.421  14.482  0.6605 -0.0874 -0.7825
   62TCq2    C2  944   4.039   1.464  14.627 -0.8888 -0.4958  0.7354
   62TCq2    C3  945   4.017   1.339  14.692 -0.1808  0.7140  0.1568
   62TCq2    C4  946   4.054   1.324  14.819 -0.4851  0.1742  0.3379
   62TCq2    C5  947   4.096   1.428  14.895  0.2862 -0.7190  1.1223
   62TCq2    C6  948   4.112   1.553  14.829  0.3073  0.0554 -0.1062
   62TCq2    C7  949   4.077   1.570  14.702 -0.5154 -0.1403  0.4939
   62TCq2    C8  950   4.135   1.680  14.902 -0.2170  0.1065 -0.1674
   62TCq2    O4  951   4.128   1.788  14.845 -0.0636  0.4753  0.1447
   62TCq2    C9  952   4.049   1.200  14.888 -0.7440 -0.0364 -0.3205
   62TCq2    O5  953   4.112   1.192  14.998 -0.4224  0.0272  0.2217
   62TCq2    O6  954   3.977   1.111  14.837  0.1952  0.0936 -0.0223
   62TCq2    H2  955   3.979   1.254  14.637 -2.9366  1.3166  1.0948
   62TCq2    H3  956   4.110   1.407  15.000  0.2159  0.6486  1.4045
   62TCq2    H4  957   4.077   1.670  14.660  1.7375 -0.6183 -0.6606
   63TMC2    C1  958   3.740   1.370  11.101  0.0201 -0.0237  0.1067
   63TMC2    C2  959   3.753   1.431  11.220  0.1455 -0.2116  0.5537
   63TMC2    C3  960   3.835   1.539  11.235 -0.8688 -0.1561 -0.9951
   63TMC2    C4  961   3.804   1.417  10.993  0.2630  0.4371  0.0889
   63TMC2    C5  962   3.882   1.532  11.009  0.4178 -0.1767  0.1546
   63TMC2    C6  963   3.884   1.601  11.124  1.0917  0.3010  0.8007
   63TMC2     C  964   3.645   1.260  11.095  0.4806  0.4150  0.3657
   63TMC2     O  965   3.559   1.260  11.183  0.2774 -0.3284  0.3090
   63TMC2     H  966   3.687   1.392  11.297  0.0900 -0.8066  0.2021
   63TMC2    H1  967   3.781   1.376  10.895  2.0424  3.0743 -1.4597
   63TMC2    H2  968   3.927   1.700  11.135  0.6097  0.4115  1.7363
   63TMC2    C7  969   3.936   1.582  10.885  0.0872 -0.5799  0.2353
   63TMC2    C8  970   3.857   1.606  11.359  0.5096 -0.2670  0.6075
   63TMC2    O1  971   3.895   1.533  10.780 -0.1063 -0.6005 -0.5888
   63TMC2    O2  972   3.954   1.677  11.381 -0.4719  0.2258 -0.2831
   63TMC2    O5  973   3.732   1.637  11.404 -0.2750 -0.1911 -0.2339
   63TMC2    H5  974   3.651   1.598  11.366  1.2382 -2.4708 -1.0495
   64MPD2     C  975   3.519   0.803  10.893  0.0518 -0.3195  0.5205
   64MPD2    C1  976   3.604   0.872  10.802  0.3792 -0.3540 -0.6090
   64MPD2    C2  977   3.648   1.001  10.831 -0.0537 -0.8299  0.3700
   64MPD2    C3  978   3.606   1.059  10.951 -0.4776  0.5967 -0.4509
   64MPD2    C4  979   3.505   1.002  11.027  0.6259 -0.2964 -0.8786
   64MPD2    C5  980   3.477   0.870  11.001  1.1134 -0.2836  0.1490
   64MPD2     H  981   3.719   1.057  10.772 -1.2227 -0.6112 -0.8196
   64MPD2    H1  982   3.464   1.050  11.115  1.4079  0.9345 -1.1802
   64MPD2    H2  983   3.486   0.701  10.878  2.1824 -1.2902  2.4164
   64MPD2    H3  984   3.416   0.809  11.066  2.3345  0.1145  1.6802
   64MPD2     N  985   3.671   1.177  10.986 -0.0627 -0.7274 -1.3406
   64MPD2    H5  986   3.743   1.198  10.918  0.2526 -0.5060 -0.9333
   64MPD2    N1  987   3.665   0.811  10.694  0.2652  0.2798  0.4451
   64MPD2    H7  988   3.731   0.871  10.645 -0.9076  1.4696  0.3055
   65MPD2     C  989   0.024   1.026  15.943  0.0031 -0.4870 -0.1881
   65MPD2    C1  990   0.048   0.991  15.809  0.4226 -0.3763 -0.4047
   65MPD2    C2  991   0.071   0.859  15.776  0.0297 -0.2705  0.3896
   65MPD2    C3  992   0.045   0.765  15.870 -0.0002  0.5456  0.7545
   65MPD2    C4  993   0.041   0.802  16.004  0.0482  0.3575 -0.4566
   65MPD2    C5  994   0.032   0.932  16.041  0.0999 -0.0736  0.1144
   65MPD2     H  995   0.085   0.834  15.672  1.2539  0.0736  0.4634
   65MPD2    H1  996   0.023   0.741  16.092  1.1114  0.0517 -0.4389
   65MPD2    H2  997   0.006   1.130  15.967  1.3540  0.0968 -1.7118
   65MPD2    H3  998   0.011   0.952  16.145  1.5971  2.0696 -0.0110
   65MPD2     N  999   0.029   0.632  15.847 -0.0126  0.6052  0.3568
   65MPD2    H5 1000   0.023   0.565  15.923 -0.6284 -1.6942 -1.7244
   65MPD2    N1 1001   0.049   1.103  15.727  0.3949 -0.2703 -0.1062
   65MPD2    H7 1002   0.025   1.195  15.763 -0.3282 -0.9597  1.1388
   66TCq2    C1 1003   0.097   1.103  15.602 -0.2489  0.5826  0.4644
   66TCq2    O2 1004   0.136   1.005  15.543  0.3259 -0.4342 -0.4612
   66TCq2    C2 1005   0.077   1.226  15.530 -0.9952 -0.2047  0.3053
   66TCq2    C3 1006   0.118   1.219  15.396 -0.2233  0.0165  0.3735
   66TCq2    C4 1007   0.036   1.268  15.307  0.2587 -0.3416 -0.0102
   66TCq2    C5 1008   4.643   1.339  15.342  0.2619 -0.2587 -1.0768
   66TCq2    C6 1009   4.618   1.358  15.472  0.1640  0.1377 -0.7643
   66TCq2    C7 1010   4.697   1.305  15.570 -0.1179  0.1921  0.3269
   66TCq2    C8 1011   4.520   1.453  15.508 -0.4201  0.3494 -1.0242
   66TCq2    O4 1012   4.436   1.466  15.416  0.2771 -0.1406 -0.1247
   66TCq2    C9 1013   0.069   1.258  15.167  0.8433  0.0180 -0.8658
   66TCq2    O5 1014   4.714   1.309  15.084  0.0570 -0.3635  0.3314
   66TCq2    O6 1015   0.179   1.208  15.136 -0.0689  0.0007 -0.5645
   66TCq2    H2 1016   0.211   1.173  15.363 -0.2697 -1.3262  2.1069
   66TCq2    H3 1017   4.593   1.398  15.266 -2.1973  0.9846  1.5302
   66TCq2    H4 1018   4.659   1.305  15.672  0.8977  0.0288  0.7014
   67MPD2     C 1019   4.505   0.342  14.079 -0.5383 -0.2257 -0.1046
   67MPD2    C1 1020   4.439   0.432  14.162  0.7007 -0.1008 -0.0470
   67MPD2    C2 1021   4.320   0.491  14.123 -0.4931 -0.9116  0.7198
   67MPD2    C3 1022   4.266   0.450  13.999 -0.0263 -0.5091  0.5617
   67MPD2    C4 1023   4.334   0.356  13.922  0.0071  0.3396  0.4342
   67MPD2    C5 1024   4.454   0.312  13.962 -0.1062 -0.3652  0.2011
   67MPD2     H 1025   4.280   0.570  14.185  2.8143  0.5999  0.9540
   67MPD2    H1 1026   4.291   0.320  13.829  0.2107  2.6329 -0.5530
   67MPD2    H2 1027   4.605   0.312  14.106 -1.0773 -3.0190 -1.1961
   67MPD2    H3 1028   4.490   0.233  13.898 -1.1237 -0.8393  0.2279
   67MPD2     N 1029   4.136   0.478  13.948  0.3965 -0.0798 -0.2598
   67MPD2    H5 1030   4.110   0.459  13.852  0.8695 -0.0191 -0.3969
   67MPD2    N1 1031   4.490   0.488  14.284 -0.1767 -0.0150  0.5770
   67MPD2    H7 1032   4.439   0.559  14.335 -1.0353  0.2265 -0.6243
   68TCq2    C1 1033   4.606   0.446  14.342 -0.4162 -0.5352 -0.4045
   68TCq2    O2 1034   4.692   0.368  14.308 -0.5819  0.4586  0.1545
   68TCq2    C2 1035   4.654   0.525  14.450 -0.3661  0.1412 -0.2004
   68TCq2    C3 1036   4.604   0.649  14.470  0.7749 -0.3349  0.7192
   68TCq2    C4 1037   4.660   0.729  14.567  0.2704 -0.5238  0.3467
   68TCq2    C5 1038   0.028   0.679  14.651 -0.0840 -0.8249  0.6318
   68TCq2    C6 1039   0.077   0.552  14.634  0.5357  0.4342 -0.5262
   68TCq2    C7 1040   0.038   0.475  14.521 -0.0282 -0.5154  0.3895
   68TCq2    C8 1041   0.179   0.490  14.720 -0.1792 -0.4656 -0.5224
   68TCq2    O4 1042   0.205   0.378  14.708  0.2441  0.2030  0.6626
   68TCq2    C9 1043   4.613   0.864  14.589  0.3002 -0.2349  0.5039
   68TCq2    O5 1044   4.519   0.896  14.514 -0.3905 -0.6276  0.4612
   68TCq2    O6 1045   4.697   0.943  14.641  0.3558 -0.2574 -0.7944
   68TCq2    H2 1046   4.515   0.689  14.424  0.1707  0.0808  2.2351
   68TCq2    H3 1047   0.057   0.736  14.738  1.1084 -0.7026  0.1556
   68TCq2    H4 1048   0.062   0.369  14.521  2.2424 -0.0089  1.9950
   69TMC2    C1 1049   2.266   1.722  12.295  0.0162 -0.5132 -0.1278
   69TMC2    C2 1050   2.164   1.811  12.254  0.6013 -0.2366  0.6414
   69TMC2    C3 1051   2.148   1.816  12.118  1.3722 -0.5079 -0.1715
   69TMC2    C4 1052   2.351   1.650  12.210  0.5164 -0.3134 -0.4307
   69TMC2    C5 1053   2.322   1.663  12.080  0.1458 -0.3752  0.1517
   69TMC2    C6 1054   2.228   1.746  12.033 -0.0174 -0.3969 -0.4499
   69TMC2     C 1055   2.248   1.655  12.419 -0.8118  0.1216  0.1430
   69TMC2     O 1056   2.333   1.581  12.468  0.1750  0.0431 -0.4018
   69TMC2     H 1057   2.125   1.887  12.320  1.4190  1.8483 -1.2755
   69TMC2    H1 1058   2.437   1.593  12.244 -0.1490 -0.1298  1.5858
   69TMC2    H2 1059   2.212   1.747  11.926  1.9443 -3.4435 -0.7882
   69TMC2    C7 1060   2.407   1.583  11.996  0.2459  0.9763  0.0275
   69TMC2    C8 1061   2.095   1.940  12.062 -0.2052 -0.2743 -0.0370
   69TMC2    O1 1062   2.512   1.547  12.040  0.5435 -0.3085 -0.4609
   69TMC2    O2 1063   2.042   2.020  12.137 -0.3283  0.0542  0.5428
   69TMC2    O5 1064   2.170   1.981  11.956 -0.6644 -0.4915 -0.1799
   69TMC2    H5 1065   2.243   1.929  11.917 -1.3089 -0.2979 -1.6345
   70MPD2     C 1066   1.911   1.601  12.551 -0.3641 -0.0132  0.2309
   70MPD2    C1 1067   2.048   1.581  12.543  0.4080 -0.2723 -1.4146
   70MPD2    C2 1068   2.106   1.475  12.607  0.6521 -0.2813 -0.6121
   70MPD2    C3 1069   2.024   1.386  12.676 -0.4905  0.5802 -0.4216
   70MPD2    C4 1070   1.888   1.400  12.677  0.6261 -0.1103  0.4027
   70MPD2    C5 1071   1.830   1.511  12.618 -0.1966  0.4149 -0.9774
   70MPD2     H 1072   2.211   1.449  12.595  0.7443 -0.2100  0.0335
   70MPD2    H1 1073   1.825   1.332  12.733 -0.3985 -0.3171 -0.9676
   70MPD2    H2 1074   1.857   1.680  12.499 -0.3029  0.6327  1.1496
   70MPD2    H3 1075   1.723   1.528  12.622 -0.3312 -0.2578 -1.8800
   70MPD2     N 1076   2.067   1.263  12.731  0.1002  0.0217 -0.0475
   70MPD2    H5 1077   1.996   1.197  12.759 -1.1967  1.3516 -0.2166
   70MPD2    N1 1078   2.112   1.669  12.457  0.3765 -0.5582  0.0230
   70MPD2    H7 1079   2.065   1.749  12.416 -1.4579 -1.4255  0.4165
   71TMC2    C1 1080   3.257   0.412   0.853  0.4204  0.3529 -0.0343
   71TMC2    C2 1081   3.270   0.273   0.849 -0.4943 -0.9331 -0.7110
   71TMC2    C3 1082   3.160   0.206   0.810 -0.4666 -0.0516 -0.5573
   71TMC2    C4 1083   3.143   0.475   0.809  0.3081  0.0693 -0.2520
   71TMC2    C5 1084   3.032   0.399   0.789  0.2671 -0.6227 -0.4116
   71TMC2    C6 1085   3.043   0.264   0.782 -0.2313 -0.2058 -0.8978
   71TMC2     C 1086   3.372   0.493   0.887 -0.4578  0.0969 -0.5109
   71TMC2     O 1087   3.472   0.430   0.902 -0.5401 -0.3125 -0.0654
   71TMC2     H 1088   3.351   0.226   0.904 -1.0153 -1.1907 -0.1644
   71TMC2    H1 1089   3.132   0.582   0.800 -0.7518 -0.0545 -0.4411
   71TMC2    H2 1090   2.962   0.199   0.750  1.3636 -2.3078 -0.6473
   71TMC2    C7 1091   2.923   0.446   0.707  0.5480 -0.5888  0.4303
   71TMC2    C8 1092   3.155   0.062   0.827 -0.3120 -0.1535 -0.7576
   71TMC2    O1 1093   2.836   0.370   0.670  0.0726 -0.1978 -0.0857
   71TMC2    O2 1094   3.057   0.001   0.864  1.3134  1.0818 -0.5255
   71TMC2    O5 1095   3.281   0.023   0.835  0.4716  0.0272  0.0040
   71TMC2    H5 1096   3.338   0.093   0.796 -0.5849  0.9608  0.1394
   72MPD2     C 1097   3.605   0.937   0.986 -0.3653 -0.2385 -0.0166
   72MPD2    C1 1098   3.477   0.962   0.943  0.2304 -0.1031  0.8734
   72MPD2    C2 1099   3.380   0.864   0.935 -0.2762 -0.1813  0.1227
   72MPD2    C3 1100   3.422   0.728   0.939  0.5067  0.0764 -0.3395
   72MPD2    C4 1101   3.558   0.703   0.976  0.4887  0.7052  0.6718
   72MPD2    C5 1102   3.639   0.805   1.009  0.1230  0.3730 -0.4191
   72MPD2     H 1103   3.278   0.896   0.919  0.1227  0.6575 -0.7465
   72MPD2    H1 1104   3.600   0.603   0.980  0.1059  0.4377 -1.6897
   72MPD2    H2 1105   3.673   1.019   1.006 -0.9109  0.3463 -0.5929
   72MPD2    H3 1106   3.742   0.781   1.032 -0.4343  0.6413  2.4320
   72MPD2     N 1107   3.336   0.624   0.903 -0.5087  0.0885  0.4120
   72MPD2    H5 1108   3.243   0.658   0.883 -0.7835  0.7029  2.7241
   72MPD2    N1 1109   3.438   1.093   0.893  0.7239 -0.0906 -0.4748
   72MPD2    H7 1110   3.340   1.106   0.870  0.4148 -1.7533 -0.1130
   73TMC2    C1 1111   0.078   4.229  14.120  0.5985  0.3236  0.0073
   73TMC2    C2 1112   4.702   4.200  14.212 -0.3375 -0.1877 -0.1439
   73TMC2    C3 1113   4.707   4.245  14.335  0.3770  0.0201 -0.6315
   73TMC2    C4 1114   0.193   4.295  14.166 -0.0020 -0.3594 -0.0651
   73TMC2    C5 1115   0.179   4.360  14.292  0.1455 -0.4721 -0.7364
   73TMC2    C6 1116   0.076   4.331  14.376  0.0004 -0.0669 -0.4027
   73TMC2     C 1117   0.043   4.277  13.984 -0.3833  0.5523  0.1554
   73TMC2     O 1118   0.112   4.372  13.950 -0.2157 -0.3693 -0.8793
   73TMC2     H 1119   4.616   4.141  14.185 -0.0763  0.2505 -1.9133
   73TMC2    H1 1120   0.275   4.325  14.101  1.8152  1.0046  2.8496
   73TMC2    H2 1121   0.056   4.384  14.468 -0.1986  0.2788 -0.6452
   73TMC2    C7 1122   0.207   4.505  14.291 -0.2818  0.5629 -0.1278
   73TMC2    C8 1123   4.656   4.156  14.435  0.0605  0.2293  0.1118
   73TMC2    O1 1124   0.215   4.570  14.396  0.4481 -0.2701  0.4565
   73TMC2    O2 1125   4.559   4.085  14.422 -0.1114 -0.0879  0.0862
   73TMC2    O5 1126   0.039   4.124  14.514 -0.2047 -0.0941 -0.1002
   73TMC2    H5 1127   0.117   4.178  14.488  0.1653 -0.6274 -0.1057
   74MPD2     C 1128   4.462   4.353  13.570 -0.2736  0.5041 -0.1837
   74MPD2    C1 1129   4.572   4.425  13.613 -0.9586  0.2861 -0.5203
   74MPD2    C2 1130   4.639   4.378  13.730 -0.2613 -0.0616 -0.5048
   74MPD2    C3 1131   4.590   4.267  13.804  0.0142 -0.3297 -0.0106
   74MPD2    C4 1132   4.482   4.200  13.757 -0.2190  0.1226  0.2545
   74MPD2    C5 1133   4.417   4.243  13.640  0.1438 -0.2602 -0.4648
   74MPD2     H 1134   4.721   4.431  13.775  0.1129 -0.2506 -0.9593
   74MPD2    H1 1135   4.433   4.113  13.799  0.6985 -0.4895  0.0640
   74MPD2    H2 1136   4.408   4.384  13.481 -1.6216  1.0148  0.8161
   74MPD2    H3 1137   4.332   4.189  13.601  0.0023 -0.6052  0.3208
   74MPD2     N 1138   4.652   4.224  13.926  1.3754 -0.2233  0.7281
   74MPD2    H5 1139   4.608   4.146  13.973 -0.3103  0.0668 -0.3733
   74MPD2    N1 1140   4.600   4.547  13.552  0.2190 -0.4294  0.1628
   74MPD2    H7 1141   4.537   4.591  13.486 -1.0810 -1.8508  0.4507
   75TCq2    C1 1142   4.034   0.535  14.024 -0.2057  0.1622  0.1071
   75TCq2    O2 1143   4.037   0.565  14.140 -0.2567 -0.3525  0.1013
   75TCq2    C2 1144   3.907   0.538  13.960 -0.3938 -0.7187 -0.2020
   75TCq2    C3 1145   3.796   0.544  14.041  0.4089 -0.0566  0.3960
   75TCq2    C4 1146   3.674   0.584  13.997 -0.2388  0.8332 -0.2038
   75TCq2    C5 1147   3.661   0.633  13.871  0.1762  0.3687  0.3053
   75TCq2    C6 1148   3.768   0.619  13.784 -0.1310 -0.2208 -0.1533
   75TCq2    C7 1149   3.895   0.576  13.829  0.7020  0.4180  0.1443
   75TCq2    C8 1150   3.755   0.668  13.641  0.0695 -0.0686 -0.0474
   75TCq2    O4 1151   3.844   0.628  13.566 -1.0631 -0.0961 -0.2854
   75TCq2    C9 1152   3.565   0.571  14.089  0.4057  0.0763  1.0145
   75TCq2    O5 1153   3.457   0.583  14.028  0.0757  0.3157 -0.4997
   75TCq2    O6 1154   3.586   0.523  14.203  0.7278 -0.2323  0.4304
   75TCq2    H2 1155   3.804   0.500  14.139  0.9625 -1.2239 -0.1773
   75TCq2    H3 1156   3.568   0.675  13.835 -0.0638  1.0117  1.6848
   75TCq2    H4 1157   3.984   0.581  13.767  0.2136 -2.7150 -0.8090
   76MPD2     C 1158   3.582   1.355  12.052  0.2067 -0.7092 -0.7592
   76MPD2    C1 1159   3.521   1.244  11.991 -0.5456 -0.0581 -0.3740
   76MPD2    C2 1160   3.579   1.117  12.003 -0.2121  0.3787 -0.0901
   76MPD2    C3 1161   3.689   1.093  12.089  0.4287 -0.1999  0.1653
   76MPD2    C4 1162   3.735   1.204  12.158  0.5480  0.0503 -0.5444
   76MPD2    C5 1163   3.689   1.332  12.134  0.5833  0.6364 -0.3510
   76MPD2     H 1164   3.533   1.039  11.944  1.8843 -1.0906  0.1985
   76MPD2    H1 1165   3.806   1.189  12.239 -0.6765  0.4194  0.5896
   76MPD2    H2 1166   3.542   1.455  12.047  0.5401 -0.6199 -1.5496
   76MPD2    H3 1167   3.726   1.417  12.191  1.6658  0.3082 -0.5566
   76MPD2     N 1168   3.748   0.967  12.107 -0.1854 -0.0113  0.3624
   76MPD2    H5 1169   3.830   0.962  12.167  0.1663 -1.7336 -0.2595
   76MPD2    N1 1170   3.404   1.258  11.913 -0.9007  0.2048  0.9010
   76MPD2    H7 1171   3.366   1.175  11.868  0.2695  0.4949 -0.6012
   77TCq2    C1 1172   3.719   0.853  12.034 -0.0919  0.1435  0.0544
   77TCq2    O2 1173   3.619   0.838  11.961 -0.1107 -0.2162 -0.1340
   77TCq2    C2 1174   3.792   0.730  12.059 -0.3159  0.6588 -0.6635
   77TCq2    C3 1175   3.737   0.622  12.005  0.0748  0.1043 -0.5850
   77TCq2    C4 1176   3.795   0.503  12.024  0.0911 -0.9467 -0.0938
   77TCq2    C5 1177   3.906   0.499  12.102  0.7717 -0.8509 -0.0005
   77TCq2    C6 1178   3.960   0.614  12.152 -0.2396  0.3565 -0.1774
   77TCq2    C7 1179   3.906   0.737  12.135  0.6318  0.2663 -0.2521
   77TCq2    C8 1180   4.080   0.603  12.244 -0.0034 -0.1419 -0.0720
   77TCq2    O4 1181   4.104   0.490  12.284 -0.0792 -0.3107 -0.4122
   77TCq2    C9 1182   3.734   0.389  11.968  0.3503  0.7140  0.4402
   77TCq2    O5 1183   3.769   0.280  12.017 -0.4437  0.2075 -0.2365
   77TCq2    O6 1184   3.660   0.395  11.867 -0.4916 -0.4997  0.1348
   77TCq2    H2 1185   3.643   0.622  11.951 -1.0931 -2.6542  1.4680
   77TCq2    H3 1186   3.946   0.405  12.136 -0.4621 -1.6949 -0.8665
   77TCq2    H4 1187   3.958   0.826  12.169 -2.1301  2.0195 -0.6234
   78MPD1     C 1188   3.256   1.986   1.322 -0.5844  0.2129 -0.2699
   78MPD1    C1 1189   3.319   1.907   1.228  0.4557 -0.0166 -0.3120
   78MPD1    C2 1190   3.461   1.910   1.230  0.1772 -0.1283  0.2925
   78MPD1    C3 1191   3.535   1.961   1.337  0.0484  1.0681 -0.3936
   78MPD1    C4 1192   3.463   2.029   1.434 -0.0613 -0.1724  0.2080
   78MPD1    C5 1193   3.327   2.046   1.424 -0.3888  0.0137  0.0148
   78MPD1     H 1194   3.518   1.877   1.145  0.1467 -2.3505  1.1374
   78MPD1    H1 1195   3.512   2.101   1.498 -1.1803 -0.0724  0.9443
   78MPD1    H2 1196   3.149   2.003   1.316 -0.7325 -1.1389 -1.5491
   78MPD1    H3 1197   3.271   2.116   1.486  1.9085  1.8992 -0.0459
   78MPD1     N 1198   3.680   1.968   1.347 -0.1048 -0.1483 -0.4732
   78MPD1    H5 1199   3.707   2.017   1.431 -0.0544  1.1671 -1.2605
   78MPD1    N1 1200   3.253   1.872   1.112 -0.1918 -0.6481 -0.1649
   78MPD1    H6 1201   3.309   1.801   1.066 -1.2037 -1.0689 -0.7561
   78MPD1    H7 1202   3.156   1.841   1.122  0.6083 -2.4516  1.9074
   79TCq2    C1 1203   3.775   1.905   1.265 -0.0803  0.9193  0.2389
   79TCq2    O2 1204   3.748   1.836   1.164  0.6104  0.4691 -0.1754
   79TCq2    C2 1205   3.909   1.920   1.301 -0.6444 -0.1107  0.2865
   79TCq2    C3 1206   3.947   2.032   1.376  0.2679  0.4215  0.0956
   79TCq2    C4 1207   4.066   2.037   1.447 -0.2581  0.1036  0.2063
   79TCq2    C5 1208   4.154   1.942   1.431 -0.5215  0.7921 -0.0068
   79TCq2    C6 1209   4.118   1.830   1.362  0.8016 -0.3766  0.2083
   79TCq2    C7 1210   3.993   1.810   1.308 -1.1346 -0.7584 -0.1069
   79TCq2    C8 1211   4.217   1.719   1.348  0.1777  0.2158 -0.3007
   79TCq2    O4 1212   4.314   1.731   1.417 -0.3763  0.7767  0.4168
   79TCq2    C9 1213   4.102   2.137   1.538  0.7779 -0.2966  0.3021
   79TCq2    O5 1214   4.206   2.125   1.611 -0.5224  0.6083 -0.3454
   79TCq2    O6 1215   4.009   2.219   1.564 -0.0522 -0.0749  0.0479
   79TCq2    H2 1216   3.894   2.127   1.379  1.7595  1.2171  1.3561
   79TCq2    H3 1217   4.247   1.942   1.486 -0.3957  0.7988 -0.2192
   79TCq2    H4 1218   3.978   1.707   1.279 -0.7456 -0.6049 -0.8794
   80MPD2     C 1219   1.757   0.934  12.337  0.2360 -0.4484  0.3260
   80MPD2    C1 1220   1.792   0.934  12.203  0.2076 -0.1985  0.0816
   80MPD2    C2 1221   1.682   0.947  12.115 -0.1588 -0.3339 -0.2763
   80MPD2    C3 1222   1.553   0.964  12.163 -0.0914 -0.1260  0.0641
   80MPD2    C4 1223   1.520   0.963  12.294  0.0961  0.5008  0.2821
   80MPD2    C5 1224   1.630   0.952  12.378 -0.2981  0.2763  0.5697
   80MPD2     H 1225   1.709   0.940  12.010 -0.5877 -1.3362 -0.3239
   80MPD2    H1 1226   1.417   0.963  12.327  0.1462 -2.5086  0.4052
   80MPD2    H2 1227   1.823   0.914  12.421 -1.8253 -1.1095  1.7808
   80MPD2    H3 1228   1.603   0.944  12.482 -3.4499  1.5003 -0.1367
   80MPD2     N 1229   1.445   0.947  12.072 -0.5315 -0.4199 -0.0114
   80MPD2    H5 1230   1.352   0.927  12.107 -0.8263  1.9021  0.5370
   80MPD2    N1 1231   1.920   0.917  12.146 -0.5976  0.0626 -0.2129
   80MPD2    H7 1232   1.928   0.908  12.045 -1.8310  1.2362 -0.4165
   81TCq2    C1 1233   2.034   0.910  12.224  0.1147  0.2850 -0.5071
   81TCq2    O2 1234   2.053   0.923  12.343 -0.6436  0.3088  0.2424
   81TCq2    C2 1235   2.152   0.876  12.154  0.1320  0.2079  0.4057
   81TCq2    C3 1236   2.271   0.909  12.213  0.2263 -0.4367 -0.6864
   81TCq2    C4 1237   2.388   0.872  12.153 -0.4392  0.0854  0.2408
   81TCq2    C5 1238   2.388   0.821  12.031  0.0036  0.3926  0.1363
   81TCq2    C6 1239   2.266   0.789  11.971  0.4405 -0.7921  0.2297
   81TCq2    C7 1240   2.147   0.808  12.038 -0.3871  0.6513  0.3340
   81TCq2    C8 1241   2.265   0.697  11.865  0.3411 -0.6675 -0.0836
   81TCq2    O4 1242   2.344   0.716  11.774 -0.6613  0.2539 -0.3710
   81TCq2    C9 1243   2.519   0.903  12.201  0.1049  0.2704 -0.1289
   81TCq2    O5 1244   2.622   0.889  12.125  0.1815  0.3096  0.2296
   81TCq2    O6 1245   2.524   0.949  12.319  0.0806 -0.2300  0.0963
   81TCq2    H2 1246   2.275   0.957  12.310  0.7156  0.7386 -1.2893
   81TCq2    H3 1247   2.482   0.815  11.977  0.8928  2.6897  1.4326
   81TCq2    H4 1248   2.060   0.780  11.980 -1.0895  1.7216  0.8903
   82MPD2     C 1249   1.336   0.177   9.992 -0.0642 -1.0183  0.0802
   82MPD2    C1 1250   1.265   0.052  10.015  0.1838  0.1980 -0.2796
   82MPD2    C2 1251   1.301   4.702  10.122  0.3937  0.7387 -0.4202
   82MPD2    C3 1252   1.393   0.021  10.215 -0.4042 -0.2208 -0.3444
   82MPD2    C4 1253   1.466   0.138  10.181  0.0502  0.2287  0.1259
   82MPD2    C5 1254   1.445   0.212  10.066  0.4122  0.0039 -0.0463
   82MPD2     H 1255   1.242   4.614  10.144 -0.5572  1.2349 -0.9862
   82MPD2    H1 1256   1.555   0.169  10.235 -0.6235  0.7765  0.9079
   82MPD2    H2 1257   1.320   0.228   9.898  1.6003 -0.2797  0.1981
   82MPD2    H3 1258   1.496   0.307  10.052 -0.6004  0.5817  0.1628
   82MPD2     N 1259   1.411   4.680  10.347  0.3252 -0.1590 -0.2555
   82MPD2    H5 1260   1.495   4.711  10.394 -1.1713  0.3496  2.0528
   82MPD2    N1 1261   1.146   0.035   9.938 -0.2173  0.5114  0.0816
   82MPD2    H7 1262   1.131   0.111   9.872 -1.2748 -1.4218 -1.9039
   83TCq2    C1 1263   1.329   4.585  10.393  0.2760 -0.0008  0.0381
   83TCq2    O2 1264   1.212   4.568  10.362  0.6919  0.4081 -0.1818
   83TCq2    C2 1265   1.391   4.502  10.495 -0.0306 -0.4137 -0.4148
   83TCq2    C3 1266   1.470   4.548  10.592 -0.0788  0.2628  0.1734
   83TCq2    C4 1267   1.492   4.463  10.693  0.1573  0.2429  0.6217
   83TCq2    C5 1268   1.434   4.340  10.697 -0.5397 -0.6056  0.0483
   83TCq2    C6 1269   1.363   4.295  10.588 -0.5310 -0.0993 -0.5987
   83TCq2    C7 1270   1.336   4.376  10.489  0.3219  0.0545  0.5283
   83TCq2    C8 1271   1.266   4.190  10.621 -0.3006  0.2416  0.1851
   83TCq2    O4 1272   1.268   4.160  10.738  0.0476  0.0890 -0.8384
   83TCq2    C9 1273   1.570   4.508  10.807  0.1155 -0.2205  0.1064
   83TCq2    O5 1274   1.599   4.423  10.902  0.1328 -0.5131 -0.6079
   83TCq2    O6 1275   1.612   4.625  10.806 -0.1279 -0.7469  0.6484
   83TCq2    H2 1276   1.535   4.635  10.592 -1.9367  1.6547  1.6488
   83TCq2    H3 1277   1.468   4.276  10.778  0.1498 -1.4613 -0.9103
   83TCq2    H4 1278   1.263   4.349  10.414  1.1494 -0.3184 -0.1492
   84TCq2    C1 1279   2.181   3.179  10.455 -0.0544  0.2594 -0.2345
   84TCq2    O2 1280   2.064   3.193  10.420 -0.4099 -0.3241 -0.3339
   84TCq2    C2 1281   2.216   3.138  10.594 -0.2491 -0.0324  0.4732
   84TCq2    C3 1282   2.341   3.096  10.623 -0.1045 -0.2976 -0.5089
   84TCq2    C4 1283   2.374   3.094  10.759 -0.0138  0.2676 -0.0498
   84TCq2    C5 1284   2.290   3.135  10.856 -0.8763 -0.5490  0.5186
   84TCq2    C6 1285   2.165   3.181  10.821 -0.5084  0.1671  0.1331
   84TCq2    C7 1286   2.131   3.189  10.690  0.3155  0.4633  0.5861
   84TCq2    C8 1287   2.081   3.254  10.911  0.4694 -0.7472 -0.4910
   84TCq2    O4 1288   1.976   3.297  10.870 -0.0013 -0.6683  0.3264
   84TCq2    C9 1289   2.511   3.060  10.780  0.6204  0.7888 -0.1314
   84TCq2    O5 1290   2.588   3.059  10.680  0.3815 -0.2984 -0.3594
   84TCq2    O6 1291   2.543   3.052  10.899  1.0675 -0.0172 -0.2928
   84TCq2    H2 1292   2.411   3.051  10.554  1.8633 -0.3527  1.5517
   84TCq2    H3 1293   2.329   3.127  10.957  0.5378  2.4343  0.2296
   84TCq2    H4 1294   2.033   3.220  10.655  0.2943 -0.8524 -0.5041
   85MPD2     C 1295   2.576   1.697  16.435  1.0295 -0.0139  0.5465
   85MPD2    C1 1296   2.455   1.726  16.375 -0.3341 -0.2908  0.1541
   85MPD2    C2 1297   2.422   1.862  16.358  0.4031  0.3311  0.1301
   85MPD2    C3 1298   2.517   1.966  16.382 -0.0456  0.4681 -0.6154
   85MPD2    C4 1299   2.637   1.930  16.437  0.2099 -1.0493  0.1064
   85MPD2    C5 1300   2.664   1.796  16.464 -0.2167  0.6684 -0.1733
   85MPD2     H 1301   2.327   1.888  16.313  1.0598 -0.8758 -1.9183
   85MPD2    H1 1302   2.716   2.004  16.439 -0.8737  0.0290  3.2071
   85MPD2    H2 1303   2.595   1.594  16.461  1.7879  0.1948  0.8024
   85MPD2    H3 1304   2.763   1.770  16.501 -0.2318 -1.4902 -1.6542
   85MPD2     N 1305   2.490   2.104  16.365  0.2782 -0.3537 -0.0537
   85MPD2    H5 1306   2.564   2.170  16.385 -0.7397  1.0271 -0.8412
   85MPD2    N1 1307   2.358   1.626  16.338  0.0426 -0.2111  0.7360
   85MPD2    H7 1308   2.269   1.652  16.295 -0.0927 -3.3644 -0.8841
   86TCq2    C1 1309   2.361   2.149  16.367  0.1533  0.1010  0.0869
   86TCq2    O2 1310   2.254   2.093  16.391  0.8875 -0.1683  0.1836
   86TCq2    C2 1311   2.352   2.292  16.333 -0.2273 -0.5057 -0.2324
   86TCq2    C3 1312   2.238   2.364  16.350  0.7760  0.0244 -0.1718
   86TCq2    C4 1313   2.233   2.492  16.300  0.3385 -0.3413 -0.3648
   86TCq2    C5 1314   2.336   2.546  16.229 -0.6901 -0.1524  0.0093
   86TCq2    C6 1315   2.445   2.467  16.216  0.3061 -0.1873 -0.2149
   86TCq2    C7 1316   2.458   2.344  16.263  0.0216 -0.4593  0.4189
   86TCq2    C8 1317   2.526   2.492  16.099  0.1866 -0.1237 -0.1472
   86TCq2    O4 1318   2.633   2.430  16.093  0.5588  0.5045  0.3147
   86TCq2    C9 1319   2.113   2.563  16.326  0.3638 -0.1359  0.6676
   86TCq2    O5 1320   2.090   2.672  16.266  0.7443  0.4572 -0.4610
   86TCq2    O6 1321   2.024   2.496  16.383  0.0152 -0.1857  0.7561
   86TCq2    H2 1322   2.156   2.309  16.394  1.0960  0.1388  0.5690
   86TCq2    H3 1323   2.334   2.647  16.190 -0.3229  0.0663  0.5654
   86TCq2    H4 1324   2.541   2.281  16.233  0.8800  0.9746 -0.1845
   87MPD2     C 1325   4.249   0.667   1.115 -0.5342  0.3391 -0.4781
   87MPD2    C1 1326   4.174   0.569   1.055  0.6608  0.2007 -0.8940
   87MPD2    C2 1327   4.072   0.605   0.966 -0.2491  0.0775 -0.1148
   87MPD2    C3 1328   4.056   0.740   0.933  0.4198 -0.4200  0.0963
   87MPD2    C4 1329   4.136   0.838   0.995 -0.2832  0.1730  0.0736
   87MPD2    C5 1330   4.233   0.803   1.086 -0.4664  0.4300 -0.0960
   87MPD2     H 1331   4.021   0.519   0.925  0.6372 -0.9822  1.0078
   87MPD2    H1 1332   4.120   0.941   0.969  1.1997  0.4646  0.3507
   87MPD2    H2 1333   4.310   0.647   1.203 -2.5753  0.8759  1.0574
   87MPD2    H3 1334   4.303   0.871   1.134 -1.9953  2.8024 -1.2281
   87MPD2     N 1335   3.951   0.778   0.840  0.2624  0.3596 -0.2255
   87MPD2    H5 1336   3.938   0.878   0.841  0.8863  0.4443 -0.6619
   87MPD2    N1 1337   4.196   0.435   1.087  0.6675  0.0620 -0.0569
   87MPD2    H7 1338   4.131   0.367   1.049 -0.1854  0.5342  0.5402
   88TCq2    C1 1339   4.303   0.388   1.151 -0.1907  0.1978  0.0257
   88TCq2    O2 1340   4.411   0.440   1.163  0.4126  0.1835  0.3264
   88TCq2    C2 1341   4.291   0.243   1.167  0.2472  0.5008  0.7962
   88TCq2    C3 1342   4.171   0.187   1.174 -0.1785 -0.7036 -0.0082
   88TCq2    C4 1343   4.137   0.066   1.128 -0.2477  0.5553 -0.3728
   88TCq2    C5 1344   4.235   4.719   1.061 -0.3864  0.6451  0.7604
   88TCq2    C6 1345   4.364   0.043   1.053  0.3042 -0.0617 -0.2015
   88TCq2    C7 1346   4.394   0.173   1.105  0.8783 -0.3199 -0.0135
   88TCq2    C8 1347   4.458   4.718   0.950  0.6921 -0.3782 -0.4393
   88TCq2    O4 1348   4.575   0.037   0.945 -0.0551 -0.0650 -1.1197
   88TCq2    C9 1349   3.999   0.031   1.113 -0.1351 -0.2127 -0.7391
   88TCq2    O5 1350   3.965   4.648   1.053  0.6315 -0.2371  0.0553
   88TCq2    O6 1351   3.907   0.116   1.150  0.4779  0.6562 -0.6850
   88TCq2    H2 1352   4.090   0.249   1.212 -0.0345 -0.3422 -0.2883
   88TCq2    H3 1353   4.206   4.628   1.011 -0.0782  0.5052  0.8365
   88TCq2    H4 1354   4.495   0.211   1.116  0.6442  0.0861  0.8217
   89MPD2     C 1355   0.251   2.542   1.252 -0.0960  0.7168  0.0790
   89MPD2    C1 1356   0.134   2.556   1.177  0.2253 -1.2090  0.9050
   89MPD2    C2 1357   0.147   2.602   1.048 -0.1776  0.2611  0.5233
   89MPD2    C3 1358   0.270   2.635   0.990  0.0111 -0.5893  0.5134
   89MPD2    C4 1359   0.385   2.613   1.065 -0.3275  0.4861  0.4623
   89MPD2    C5 1360   0.374   2.576   1.199 -0.0988  0.6905 -0.5426
   89MPD2     H 1361   0.060   2.617   0.985 -0.0779 -0.7410  0.1472
   89MPD2    H1 1362   0.482   2.641   1.026 -1.2348  1.9010 -0.7595
   89MPD2    H2 1363   0.242   2.499   1.351 -0.6336  0.5917 -0.0284
   89MPD2    H3 1364   0.459   2.563   1.264 -1.5391 -0.3663  1.1159
   89MPD2     N 1365   0.281   2.678   0.853  0.2404  0.3395 -0.1631
   89MPD2    H5 1366   0.194   2.687   0.803  0.7059  0.9287 -0.8755
   89MPD2    N1 1367   4.722   2.544   1.229  0.0305  0.1630 -0.3750
   89MPD2    H7 1368   4.649   2.549   1.159  0.3566  0.7896 -0.6624
   90TCq2    C1 1369   0.385   2.747   0.794  0.0989  0.6966 -0.1771
   90TCq2    O2 1370   0.501   2.762   0.825  0.5697  0.3869 -0.1258
   90TCq2    C2 1371   0.344   2.807   0.669  0.3946 -0.3951  0.6306
   90TCq2    C3 1372   0.217   2.865   0.672  0.4606 -0.4901  0.0399
   90TCq2    C4 1373   0.192   2.968   0.589 -0.2672 -0.1773 -0.6053
   90TCq2    C5 1374   0.286   3.013   0.499 -0.0660 -0.0352  0.5459
   90TCq2    C6 1375   0.410   2.964   0.515  0.4713 -0.4356  0.5402
   90TCq2    C7 1376   0.446   2.862   0.599  0.2695 -0.2654 -1.2388
   90TCq2    C8 1377   0.495   2.977   0.392 -0.6449 -0.1080 -0.4201
   90TCq2    O4 1378   0.566   2.878   0.372  0.1935 -0.0124  0.0856
   90TCq2    C9 1379   0.059   3.019   0.593 -0.3303 -0.3959  0.0547
   90TCq2    O5 1380   0.008   3.023   0.707  0.3934  0.1371 -0.4511
   90TCq2    O6 1381   0.037   3.111   0.509 -0.3352 -0.0630 -0.2710
   90TCq2    H2 1382   0.134   2.821   0.726  0.8230 -2.8544 -1.3055
   90TCq2    H3 1383   0.264   3.103   0.443 -1.7444 -2.0274 -2.0280
   90TCq2    H4 1384   0.537   2.803   0.595 -0.2291 -1.0789 -0.8081
   91TMC2    C1 1385   2.791   3.174  16.610 -0.5331 -0.2680  0.0686
   91TMC2    C2 1386   2.802   3.281  16.517 -0.1294 -0.1524 -0.5091
   91TMC2    C3 1387   2.684   3.329  16.475 -0.2604 -0.3125  0.4620
   91TMC2    C4 1388   2.670   3.121  16.645 -0.0546 -0.3892 -1.3043
   91TMC2    C5 1389   2.559   3.176  16.591 -0.4580 -0.3272  0.0924
   91TMC2    C6 1390   2.560   3.277  16.498  0.2394  0.4556  0.7161
   91TMC2     C 1391   2.910   3.093  16.651  0.4052 -0.0970  0.0387
   91TMC2     O 1392   2.899   2.989  16.719  0.2184  0.2368 -0.1413
   91TMC2     H 1393   2.893   3.327  16.478 -0.0989  1.3268  1.3356
   91TMC2    H1 1394   2.674   3.035  16.710 -0.0553 -0.5886 -1.5715
   91TMC2    H2 1395   2.475   3.308  16.438  0.3016  2.7493  1.8174
   91TMC2    C7 1396   2.435   3.111  16.626 -0.2450  0.6927 -0.1045
   91TMC2    C8 1397   2.704   3.434  16.375  0.8248 -0.5386 -0.2991
   91TMC2    O1 1398   2.426   3.058  16.736 -0.5188 -0.1373 -0.0325
   91TMC2    O2 1399   2.792   3.437  16.293 -0.4063 -0.2921  0.0718
   91TMC2    O5 1400   2.586   3.496  16.368  0.1170  0.0615 -0.0124
   91TMC2    H5 1401   2.517   3.458  16.427 -2.4452  1.0833 -2.3150
   92MPD2     C 1402   3.169   2.948  16.623  0.1959 -0.4240 -0.4763
   92MPD2    C1 1403   3.155   3.086  16.606 -0.1514  0.2952 -0.3933
   92MPD2    C2 1404   3.273   3.160  16.582  0.3017 -0.3261  0.3331
   92MPD2    C3 1405   3.392   3.093  16.560 -0.4416  0.2080 -0.0071
   92MPD2    C4 1406   3.406   2.956  16.575  0.2200 -0.3489 -0.0088
   92MPD2    C5 1407   3.293   2.879  16.603 -0.3962  0.4224 -0.8040
   92MPD2     H 1408   3.260   3.267  16.569 -0.2278 -0.7756 -2.7432
   92MPD2    H1 1409   3.501   2.906  16.561 -1.0954 -2.9522  0.2708
   92MPD2    H2 1410   3.085   2.880  16.628 -0.4778  0.3508 -1.2398
   92MPD2    H3 1411   3.282   2.772  16.596  1.5495  0.0701  1.2991
   92MPD2     N 1412   3.498   3.173  16.509 -0.4762 -0.4533 -0.6904
   92MPD2    H5 1413   3.489   3.273  16.491  0.0666 -0.4393 -0.8548
   92MPD2    N1 1414   3.028   3.153  16.620  0.1793 -0.5231 -0.1284
   92MPD2    H7 1415   3.029   3.252  16.598  1.8573 -0.7126 -0.9188
   93MPD2     C 1416   4.045   3.274  13.903  0.5352  0.0938  0.5256
   93MPD2    C1 1417   3.995   3.382  13.969 -0.1400 -0.0463  0.7612
   93MPD2    C2 1418   3.867   3.385  14.003 -0.3344 -0.6300 -0.4118
   93MPD2    C3 1419   3.781   3.281  13.970 -0.3043  0.7257 -0.0817
   93MPD2    C4 1420   3.832   3.180  13.895 -0.4854  0.2118 -0.7070
   93MPD2    C5 1421   3.960   3.177  13.861  0.5766  0.5618  0.7678
   93MPD2     H 1422   3.835   3.469  14.063 -0.3505 -0.2178 -1.0000
   93MPD2    H1 1423   3.774   3.089  13.890 -2.0983  1.2167 -0.3054
   93MPD2    H2 1424   4.147   3.262  13.869  0.7928 -0.7264  1.5982
   93MPD2    H3 1425   4.003   3.100  13.798 -2.8688 -1.0155  0.3676
   93MPD2     N 1426   3.640   3.277  13.998  0.1033 -0.1178  0.2521
   93MPD2    H5 1427   3.592   3.192  13.971  0.1011 -0.4351  1.2570
   93MPD2    N1 1428   4.082   3.491  14.010  0.0573 -0.6107  0.4807
   93MPD2    H7 1429   4.035   3.575  14.042  0.6248  0.4012 -1.3789
   94TCq2    C1 1430   4.214   3.507  13.985 -0.5317 -0.2356  0.2373
   94TCq2    O2 1431   4.302   3.449  13.921  0.1957 -0.4390 -0.1051
   94TCq2    C2 1432   4.270   3.614  14.055  0.3953 -0.1914  0.3356
   94TCq2    C3 1433   4.204   3.670  14.160 -0.7522 -0.6339  1.0334
   94TCq2    C4 1434   4.254   3.793  14.210 -0.1326  0.0599  0.1715
   94TCq2    C5 1435   4.374   3.844  14.171 -0.5130  0.0637  0.2133
   94TCq2    C6 1436   4.445   3.774  14.071  0.2947  0.6693  1.1437
   94TCq2    C7 1437   4.398   3.656  14.016 -0.0336 -0.7164 -0.3683
   94TCq2    C8 1438   4.544   3.848  14.000  0.3521 -0.7856  0.8249
   94TCq2    O4 1439   4.529   3.967  13.989  0.3925  0.7666  0.6212
   94TCq2    C9 1440   4.179   3.876  14.299 -0.1062 -0.0621 -0.1323
   94TCq2    O5 1441   4.068   3.836  14.340 -0.3715 -0.0377  0.2504
   94TCq2    O6 1442   4.232   3.977  14.351 -0.3031 -0.4304 -0.2162
   94TCq2    H2 1443   4.102   3.648  14.191 -0.6064 -1.5162  0.8692
   94TCq2    H3 1444   4.417   3.932  14.216 -1.0339  0.9986 -1.1312
   94TCq2    H4 1445   4.455   3.612  13.935 -1.4792  0.8117 -2.2511
   95TMC2    C1 1446   3.966   0.112  16.327 -0.1990  0.1141 -0.1757
   95TMC2    C2 1447   3.937   4.699  16.332 -0.1847  0.7216 -0.7124
   95TMC2    C3 1448   3.882   4.655  16.453  0.7563 -0.0777  0.2883
   95TMC2    C4 1449   3.939   0.199  16.427  0.3896 -0.4371 -0.5345
   95TMC2    C5 1450   3.876   0.151  16.539 -0.4392 -0.1796  0.2984
   95TMC2    C6 1451   3.847   0.017  16.552  0.5422 -0.1741  0.9029
   95TMC2     C 1452   4.030   0.161  16.208  0.8757 -0.1556  0.2544
   95TMC2     O 1453   4.113   0.249  16.221 -0.6693 -0.5666 -0.4101
   95TMC2     H 1454   3.957   4.621  16.260 -0.5109  1.0251 -1.1290
   95TMC2    H1 1455   3.961   0.304  16.408 -1.1719  0.0282  0.2327
   95TMC2    H2 1456   3.799   4.696  16.638 -2.7109  0.9850 -0.3235
   95TMC2    C7 1457   3.802   0.245  16.623 -0.9023  0.9806  0.2260
   95TMC2    C8 1458   3.825   4.526  16.445 -0.2029  0.1144  0.2444
   95TMC2    O1 1459   3.733   0.195  16.709 -0.4755 -0.1994 -0.1710
   95TMC2    O2 1460   3.811   4.445  16.540 -0.1977 -0.5399  0.8873
   95TMC2    O5 1461   3.719   4.543  16.368  0.0624  0.2424  0.1740
   95TMC2    H5 1462   3.706   4.632  16.328 -0.6292  0.8380  1.7155
   96MPD2     C 1463   4.097   0.126  15.709 -0.3816  0.1988  0.2786
   96MPD2    C1 1464   4.185   0.174  15.803  0.1210 -1.1208  0.3896
   96MPD2    C2 1465   4.146   0.168  15.936 -0.4755 -0.3084 -0.9788
   96MPD2    C3 1466   4.020   0.113  15.968 -0.2311 -0.3787 -0.1963
   96MPD2    C4 1467   3.935   0.065  15.874  0.0072 -0.2699  0.2192
   96MPD2    C5 1468   3.973   0.066  15.742 -0.3108 -0.5442  0.0678
   96MPD2     H 1469   4.213   0.212  16.009 -0.1315 -3.8397  0.8149
   96MPD2    H1 1470   3.833   0.043  15.905 -0.2651 -0.4597 -0.8326
   96MPD2    H2 1471   4.124   0.130  15.604 -0.8280 -0.7292  0.1292
   96MPD2    H3 1472   3.903   0.030  15.668  0.2356  1.0738 -1.2214
   96MPD2     N 1473   3.981   0.096  16.098  0.0079  0.0820 -0.5263
   96MPD2    H5 1474   3.898   0.038  16.107 -0.7214  1.1522 -0.2686
   96MPD2    N1 1475   4.311   0.227  15.753  0.1932  0.1530  0.1694
   96MPD2    H7 1476   4.321   0.217  15.653  2.4927 -0.9456  0.4945
   97MPD2     C 1477   1.812   1.760   1.681  0.6362 -0.7733 -0.1856
   97MPD2    C1 1478   1.715   1.792   1.587 -0.3003  0.4413 -0.8304
   97MPD2    C2 1479   1.753   1.863   1.477  0.5984  0.2293 -0.2422
   97MPD2    C3 1480   1.879   1.919   1.467 -0.4573 -0.1027 -0.2734
   97MPD2    C4 1481   1.974   1.891   1.564 -0.5481  0.5816 -0.1184
   97MPD2    C5 1482   1.941   1.805   1.663  0.8004  0.4433 -0.5064
   97MPD2     H 1483   1.683   1.884   1.398  2.7988 -1.1631 -2.5635
   97MPD2    H1 1484   2.079   1.914   1.549 -0.8680  1.2996 -1.3425
   97MPD2    H2 1485   1.789   1.698   1.767 -2.4287  0.0866 -0.4064
   97MPD2    H3 1486   2.018   1.773   1.732  0.3555  1.5702  0.5065
   97MPD2     N 1487   1.917   1.996   1.356 -0.9063  0.1706 -0.1182
   97MPD2    H5 1488   2.016   2.014   1.343 -0.9861 -1.0434 -2.2702
   97MPD2    N1 1489   1.582   1.736   1.600  0.6270 -0.2079 -0.4873
   97MPD2    H7 1490   1.573   1.674   1.679  1.8580  0.8660  0.4924
   98TCq2    C1 1491   1.838   2.044   1.257 -0.1546  0.5596  0.4056
   98TCq2    O2 1492   1.718   2.044   1.240 -0.1484 -0.4768 -0.0888
   98TCq2    C2 1493   1.919   2.073   1.146 -0.6241 -0.1188  0.8123
   98TCq2    C3 1494   1.886   2.028   1.017  0.0005 -0.2421 -0.9614
   98TCq2    C4 1495   1.953   2.083   0.912  0.5406  0.2855  0.5057
   98TCq2    C5 1496   2.056   2.164   0.928  0.4205 -0.0748  0.3339
   98TCq2    C6 1497   2.085   2.217   1.054  0.4250  0.6495  0.0455
   98TCq2    C7 1498   2.017   2.171   1.161  0.2662 -1.0237  0.6818
   98TCq2    C8 1499   2.154   2.344   1.064  0.4214  0.4123 -0.2826
   98TCq2    O4 1500   2.119   2.419   1.153 -0.0778 -0.2336  0.0705
   98TCq2    C9 1501   1.915   2.052   0.774 -0.7907  0.7974 -0.0046
   98TCq2    O5 1502   2.004   2.064   0.687  0.6975  0.6924  0.0998
   98TCq2    O6 1503   1.800   1.998   0.760  0.4125  0.1120  0.6170
   98TCq2    H2 1504   1.803   1.961   0.996 -1.2151  1.4681 -1.6986
   98TCq2    H3 1505   2.100   2.210   0.840 -0.4801 -2.6191 -1.4717
   98TCq2    H4 1506   2.052   2.200   1.259  0.3019  1.1528  0.0142
   99MPD2     C 1507   4.722   4.065   1.281 -0.3477 -0.6427 -0.2600
   99MPD2    C1 1508   4.585   4.082   1.295 -0.1079  0.0754  1.5098
   99MPD2    C2 1509   4.500   4.030   1.202  0.5768 -0.1019 -0.7117
   99MPD2    C3 1510   4.540   3.937   1.105  0.4147  0.1755  0.4343
   99MPD2    C4 1511   4.675   3.935   1.094 -0.1977  0.3183 -0.1899
   99MPD2    C5 1512   0.044   3.988   1.183 -0.3511  0.4750  0.5033
   99MPD2     H 1513   4.396   4.054   1.217  1.0351  0.2886  1.7854
   99MPD2    H1 1514   0.013   3.890   1.017  0.4022 -0.5556  0.8022
   99MPD2    H2 1515   0.072   4.104   1.351  1.1090 -1.3128 -1.4175
   99MPD2    H3 1516   0.148   3.977   1.156  0.2194  1.3620  2.3997
   99MPD2     N 1517   4.458   3.869   1.012 -0.0171  0.0293 -0.1176
   99MPD2    H5 1518   4.359   3.890   1.007 -0.6018 -2.7170 -0.5180
   99MPD2    N1 1519   4.530   4.148   1.403  0.7750 -0.2124  0.5136
   99MPD2    H7 1520   4.430   4.139   1.423  0.7163  0.9684  0.7205
  100TCq2    C1 1521   4.610   4.226   1.485 -0.0222  0.6114  0.5061
  100TCq2    O2 1522   0.001   4.270   1.471 -0.9766 -0.5052  0.0641
  100TCq2    C2 1523   4.538   4.276   1.601 -0.3151 -0.2419 -0.3273
  100TCq2    C3 1524   4.566   4.403   1.646  0.1006 -0.1210 -0.4935
  100TCq2    C4 1525   4.489   4.458   1.745 -0.2536  0.6103  0.2292
  100TCq2    C5 1526   4.373   4.395   1.790 -0.0752  0.1662 -0.0363
  100TCq2    C6 1527   4.341   4.270   1.737 -0.2757 -0.2992 -0.4146
  100TCq2    C7 1528   4.427   4.211   1.645 -0.0428  0.1699  0.4115
  100TCq2    C8 1529   4.224   4.202   1.791 -0.0362 -0.0423  0.1951
  100TCq2    O4 1530   4.188   4.238   1.899 -0.4068  0.6185  0.3001
  100TCq2    C9 1531   4.522   4.588   1.802  0.5530  0.6404  0.2231
  100TCq2    O5 1532   4.428   4.642   1.864  0.0806 -0.1957 -0.0014
  100TCq2    O6 1533   4.628   4.642   1.763  0.0367  0.8702  0.0967
  100TCq2    H2 1534   4.649   4.464   1.613 -0.8006  1.1582 -0.3658
  100TCq2    H3 1535   4.300   4.449   1.850 -0.1212  0.0041  0.0527
  100TCq2    H4 1536   4.415   4.104   1.629  0.3461  0.1703  0.1129
  101MPD2     C 1537   0.943   1.254  13.117  0.0788 -0.0009 -1.1664
  101MPD2    C1 1538   0.862   1.159  13.059  0.2620  0.3375  0.7736
  101MPD2    C2 1539   0.796   1.072  13.149 -0.1274 -0.1938 -0.1499
  101MPD2    C3 1540   0.808   1.091  13.290 -0.3901 -0.4405  0.2539
  101MPD2    C4 1541   0.889   1.197  13.338  0.3577 -0.1351  0.2178
  101MPD2    C5 1542   0.958   1.273  13.248 -0.3370  1.1119 -0.3184
  101MPD2     H 1543   0.743   0.987  13.107 -0.8396  0.1586  0.0394
  101MPD2    H1 1544   0.913   1.224  13.440 -0.3704 -0.1722  0.4007
  101MPD2    H2 1545   0.995   1.330  13.060 -0.0589  1.1099  0.1980
  101MPD2    H3 1546   1.020   1.354  13.286 -0.1839  1.1361 -0.6202
  101MPD2     N 1547   0.746   1.013  13.381 -0.0393  0.3933  0.0231
  101MPD2    H5 1548   0.771   1.033  13.477  1.8939  1.5332 -0.7174
  101MPD2    N1 1549   0.846   1.172  12.917 -0.5988 -0.3655 -0.1234
  101MPD2    H7 1550   0.899   1.247  12.872  1.7986 -2.7682 -1.3250
  102TCq2    C1 1551   0.926   1.304  12.427 -0.0387 -0.2983  0.5973
  102TCq2    O2 1552   1.036   1.255  12.450  0.4697 -1.1378 -0.0428
  102TCq2    C2 1553   0.815   1.258  12.510  0.2653  0.2315  0.8672
  102TCq2    C3 1554   0.701   1.222  12.436  0.1919 -0.2708 -0.8416
  102TCq2    C4 1555   0.618   1.135  12.498  1.0818 -0.0382  0.5722
  102TCq2    C5 1556   0.632   1.108  12.637 -0.3006 -0.0909  0.4074
  102TCq2    C6 1557   0.746   1.148  12.703  0.0785 -0.2604  0.2751
  102TCq2    C7 1558   0.842   1.212  12.636  0.0467 -0.1727  0.6497
  102TCq2    C8 1559   0.758   1.098  12.839 -0.0827 -0.5713 -0.0696
  102TCq2    O4 1560   0.672   1.017  12.880 -0.3974 -0.0627 -0.0444
  102TCq2    C9 1561   0.509   1.078  12.424  0.2769 -0.5902  0.7688
  102TCq2    O5 1562   0.514   1.085  12.298  0.2553  0.0298  0.4578
  102TCq2    O6 1563   0.442   0.998  12.494  0.4540  0.2476  0.0364
  102TCq2    H2 1564   0.689   1.244  12.331  0.3017 -0.9923 -1.0002
  102TCq2    H3 1565   0.558   1.055  12.696  0.0006  2.5094  3.1277
  102TCq2    H4 1566   0.924   1.257  12.692  1.2231 -1.9600  0.3527
  103TMC2    C1 1567   4.441   1.175  12.648  0.4462 -1.0407 -0.1369
  103TMC2    C2 1568   4.572   1.200  12.644 -0.5805 -0.2217 -0.1799
  103TMC2    C3 1569   4.627   1.270  12.756  0.3070 -0.0471 -0.1510
  103TMC2    C4 1570   4.358   1.219  12.743 -0.2718  0.5964 -0.6327
  103TMC2    C5 1571   4.413   1.282  12.849 -0.1858 -0.5471  0.3933
  103TMC2    C6 1572   4.550   1.303  12.863  1.1803 -0.5076 -0.3305
  103TMC2     C 1573   4.380   1.091  12.547  0.5343 -0.1365 -0.7085
  103TMC2     O 1574   4.259   1.114  12.526  0.7142 -0.4648 -0.7423
  103TMC2     H 1575   4.635   1.179  12.558 -0.4961  0.6598 -0.3375
  103TMC2    H1 1576   4.254   1.190  12.743  0.8409 -3.4590 -2.1373
  103TMC2    H2 1577   4.599   1.346  12.949 -1.8899  0.4121  0.9743
  103TMC2    C7 1578   4.323   1.331  12.945 -0.0688  0.2954 -0.7966
  103TMC2    C8 1579   0.042   1.237  12.774 -0.4188 -0.4640  0.0073
  103TMC2    O1 1580   4.212   1.280  12.938 -0.4199 -0.2615  0.0631
  103TMC2    O2 1581   0.094   1.144  12.712  0.0428 -0.0681  0.1619
  103TMC2    O5 1582   0.088   1.353  12.813 -0.1892 -1.0796 -0.4782
  103TMC2    H5 1583   0.020   1.410  12.854 -0.7180 -1.8875 -0.2273
  104MPD2     C 1584   4.487   0.747  12.507 -0.5880  0.1051 -0.1119
  104MPD2    C1 1585   4.412   0.866  12.474  0.2280 -0.2538 -0.1544
  104MPD2    C2 1586   4.299   0.848  12.394 -0.9225 -0.2035  1.0695
  104MPD2    C3 1587   4.262   0.731  12.342 -0.3800  0.2251 -0.0869
  104MPD2    C4 1588   4.334   0.617  12.375  0.4409  0.1735  0.2708
  104MPD2    C5 1589   4.446   0.627  12.457  0.1840  0.5638  0.4977
  104MPD2     H 1590   4.232   0.927  12.362 -1.5680 -0.8059  0.9403
  104MPD2    H1 1591   4.318   0.515  12.343  0.3999  0.4585 -0.6277
  104MPD2    H2 1592   4.584   0.765  12.551 -0.4604  1.4482 -0.9662
  104MPD2    H3 1593   4.503   0.536  12.475 -1.2141 -0.4106 -0.0170
  104MPD2     N 1594   4.137   0.721  12.277 -0.3829 -0.4248 -0.2065
  104MPD2    H5 1595   4.089   0.804  12.242  0.0542  0.1037  0.4470
  104MPD2    N1 1596   4.463   0.991  12.515  0.6138  0.0573 -0.2601
  104MPD2    H7 1597   4.556   0.988  12.558  0.9508  0.7692 -0.9357
  105MPD2     C 1598   0.802   4.327  17.473 -0.3200 -0.4004 -0.2965
  105MPD2    C1 1599   0.757   4.461  17.456  0.0171  0.1036 -0.5811
  105MPD2    C2 1600   0.671   4.513  17.544 -0.2109  0.0039 -0.0746
  105MPD2    C3 1601   0.631   4.440  17.658  0.1824  0.9148 -0.1624
  105MPD2    C4 1602   0.682   4.312  17.679  0.5940 -0.1702 -0.2309
  105MPD2    C5 1603   0.766   4.264  17.585  0.0117  0.4022  0.1503
  105MPD2     H 1604   0.623   4.609  17.524 -0.2573  0.0377  0.1898
  105MPD2    H1 1605   0.660   4.257   0.075  2.0464 -0.8519 -0.2871
  105MPD2    H2 1606   0.888   4.279  17.428 -0.2744 -0.4820 -0.1199
  105MPD2    H3 1607   0.800   4.163  17.601 -1.2787  0.1916  1.5951
  105MPD2     N 1608   0.539   4.499   0.056  0.5399  0.1638 -0.7996
  105MPD2    H5 1609   0.499   4.585   0.018 -1.4302 -0.2258  0.4129
  105MPD2    N1 1610   0.811   4.547  17.357 -0.6822  0.3633 -1.0110
  105MPD2    H7 1611   0.791   4.646  17.367  0.0384  0.2559  1.4010
  106TCq2    C1 1612   0.481   4.451   0.171 -0.5508 -0.7662 -0.2121
  106TCq2    O2 1613   0.493   4.342   0.224  0.3219  0.4116 -0.1837
  106TCq2    C2 1614   0.378   4.547   0.209 -0.1712  0.4560 -0.2947
  106TCq2    C3 1615   0.403   4.682   0.225 -0.1446  0.7935 -0.0758
  106TCq2    C4 1616   0.321   0.033   0.315  0.5658  0.4194 -0.2756
  106TCq2    C5 1617   0.214   4.702   0.377 -0.0816 -0.4163 -0.4261
  106TCq2    C6 1618   0.201   4.566   0.370  0.1536  0.1432  0.4363
  106TCq2    C7 1619   0.277   4.488   0.285 -0.1126  0.2172  0.6017
  106TCq2    C8 1620   0.081   4.510   0.430 -0.3842 -0.2440  0.0728
  106TCq2    O4 1621   0.059   4.398   0.396 -0.6447 -0.3105 -0.4030
  106TCq2    C9 1622   0.337   0.180   0.315 -0.5936 -0.3215 -1.0393
  106TCq2    O5 1623   0.440   0.224   0.255 -0.5673 -0.2921 -0.7864
  106TCq2    O6 1624   0.242   0.250   0.357 -0.1694 -0.0844  0.1262
  106TCq2    H2 1625   0.476   0.006   0.160  0.9630 -0.5244  0.2243
  106TCq2    H3 1626   0.154   0.046   0.438 -1.2604 -1.8682  0.0203
  106TCq2    H4 1627   0.253   4.385   0.263 -1.2895  0.3614  1.2113
  107TMC2    C1 1628   1.545   3.957  11.295 -0.1107  0.2382 -0.4913
  107TMC2    C2 1629   1.542   3.969  11.153  0.5954 -0.1833  0.1480
  107TMC2    C3 1630   1.627   3.892  11.080 -0.3936  0.1533 -0.7619
  107TMC2    C4 1631   1.596   3.839  11.351  0.9157  0.0310 -0.0574
  107TMC2    C5 1632   1.675   3.758  11.272 -0.0257 -0.1024  0.0619
  107TMC2    C6 1633   1.693   3.786  11.135  0.3395  0.7050 -0.5778
  107TMC2     C 1634   1.475   4.058  11.378 -0.4142 -0.2456 -0.0025
  107TMC2     O 1635   1.452   4.030  11.496 -0.5254 -0.8526 -0.5345
  107TMC2     H 1636   1.475   4.043  11.110 -0.4865 -0.9337  0.5286
  107TMC2    H1 1637   1.582   3.826  11.458  1.3531  1.3576  0.1611
  107TMC2    H2 1638   1.755   3.735  11.062  1.4116  3.2007 -1.4140
  107TMC2    C7 1639   1.756   3.657  11.331  1.3300  0.0073  0.0214
  107TMC2    C8 1640   1.619   3.904  10.939  0.0412  0.3338 -0.6499
  107TMC2    O1 1641   1.756   3.639  11.455  0.2152  0.5985  0.1201
  107TMC2    O2 1642   1.662   3.816  10.869 -0.2612  0.1301 -0.4674
  107TMC2    O5 1643   1.592   4.039  10.914 -0.0362 -0.2829 -0.0909
  107TMC2    H5 1644   1.586   4.099  10.992  3.0124  0.5738 -0.5330
  108MPD2     C 1645   1.399   4.393  11.261 -0.4592 -0.5653  0.4421
  108MPD2    C1 1646   1.410   4.294  11.358  1.0238  0.0775  0.2734
  108MPD2    C2 1647   1.346   4.312  11.479  0.3362 -0.7214  0.0219
  108MPD2    C3 1648   1.272   4.426  11.500 -0.3691 -0.4166  0.1533
  108MPD2    C4 1649   1.264   4.527  11.396 -0.3829 -0.9785 -0.4914
  108MPD2    C5 1650   1.332   4.511  11.282  0.4042 -0.2160  0.6480
  108MPD2     H 1651   1.348   4.227  11.546 -0.0964  0.6770  1.7986
  108MPD2    H1 1652   1.208   4.619  11.410 -1.7994 -1.6727 -1.6265
  108MPD2    H2 1653   1.441   4.381  11.162  1.1103  0.3137  0.9921
  108MPD2    H3 1654   1.325   4.582  11.200  1.3016  0.2413  0.9701
  108MPD2     N 1655   1.201   4.450  11.619 -0.2987  0.6185  0.2562
  108MPD2    H5 1656   1.145   4.534  11.619 -0.4726  0.5032 -1.0551
  108MPD2    N1 1657   1.474   4.176  11.317 -0.5350 -0.6682 -0.4713
  108MPD2    H7 1658   1.505   4.195  11.222  3.6434  2.7460  1.5845
  109MPD2     C 1659   0.135   0.992   1.809  0.2060 -0.1148  0.0641
  109MPD2    C1 1660   0.245   1.064   1.759 -0.0889 -0.5125  0.0935
  109MPD2    C2 1661   0.372   1.023   1.787 -0.7219  0.3785  0.2797
  109MPD2    C3 1662   0.386   0.914   1.866 -0.2320 -0.2596  0.4217
  109MPD2    C4 1663   0.282   0.853   1.928 -0.1953 -0.6319 -0.7560
  109MPD2    C5 1664   0.159   0.893   1.894 -0.4300 -0.1977  0.0330
  109MPD2     H 1665   0.457   1.084   1.758  0.9109 -1.9394  0.2373
  109MPD2    H1 1666   0.290   0.779   2.006  1.3224  0.6728  0.3197
  109MPD2    H2 1667   0.035   1.004   1.770 -1.3237  0.7738  4.1907
  109MPD2    H3 1668   0.075   0.834   1.928 -2.9089  2.0581 -2.1328
  109MPD2     N 1669   0.519   0.868   1.898 -0.2082 -0.6235  0.4769
  109MPD2    H5 1670   0.587   0.920   1.843  0.7968 -1.2904  1.0835
  109MPD2    N1 1671   0.213   1.156   1.654 -0.1646 -0.0354 -0.0292
  109MPD2    H7 1672   0.117   1.177   1.627 -0.1442 -1.6916 -1.3638
  110TCq2    C1 1673   0.555   0.781   1.998  0.1576 -0.1216  0.1415
  110TCq2    O2 1674   0.488   0.707   2.070  0.2486 -0.3684 -0.4408
  110TCq2    C2 1675   0.698   0.787   2.032  0.0427 -0.5021 -0.1295
  110TCq2    C3 1676   0.742   0.694   2.123 -0.1875 -0.3042  0.1917
  110TCq2    C4 1677   0.875   0.704   2.171  0.3716  0.0577  0.2094
  110TCq2    C5 1678   0.962   0.800   2.123 -0.1831  0.4985  0.4671
  110TCq2    C6 1679   0.906   0.892   2.039  0.0474  0.1393  0.5499
  110TCq2    C7 1680   0.778   0.892   1.994 -0.6494  0.2812 -0.6312
  110TCq2    C8 1681   0.992   0.995   1.985 -0.8348 -0.5866 -0.7582
  110TCq2    O4 1682   0.933   1.085   1.925  0.2191 -0.7470  0.1619
  110TCq2    C9 1683   0.930   0.602   2.257 -0.1634 -0.3222  0.3076
  110TCq2    O5 1684   1.028   0.641   2.331  0.0328 -0.1635  0.1971
  110TCq2    O6 1685   0.873   0.489   2.273 -0.3150  0.5552  0.0252
  110TCq2    H2 1686   0.689   0.605   2.155 -1.0981 -0.3247 -1.3817
  110TCq2    H3 1687   1.057   0.800   2.174 -1.3752  0.3357  2.6861
  110TCq2    H4 1688   0.746   0.970   1.927 -2.9749  0.1674  0.3285
  111TMC2    C1 1689   1.336   1.969  11.159  0.2320  0.3978 -0.1632
  111TMC2    C2 1690   1.197   1.947  11.167 -0.1287  0.0523 -0.1691
  111TMC2    C3 1691   1.159   1.845  11.247 -0.0906  0.5160  0.4662
  111TMC2    C4 1692   1.430   1.885  11.219 -0.1571  0.8798 -0.1768
  111TMC2    C5 1693   1.385   1.793  11.305 -0.9407 -0.3956  0.6905
  111TMC2    C6 1694   1.251   1.765  11.313 -0.1172 -0.1229 -0.1729
  111TMC2     C 1695   1.381   2.038  11.037 -0.2427 -0.0477 -0.2420
  111TMC2     O 1696   1.308   2.029  10.937 -0.1515  0.3981 -0.2783
  111TMC2     H 1697   1.116   2.007  11.126  0.8567  1.5764  0.0968
  111TMC2    H1 1698   1.537   1.897  11.210 -0.0029 -1.0190 -0.7098
  111TMC2    H2 1699   1.216   1.700  11.391 -1.9045 -0.3617 -1.1767
  111TMC2    C7 1700   1.472   1.724  11.405 -0.4223 -0.5070  0.4946
  111TMC2    C8 1701   1.018   1.830  11.268  0.8452  0.0946 -1.0942
  111TMC2    O1 1702   1.427   1.699  11.512  0.1598  0.2203  0.7120
  111TMC2    O2 1703   0.937   1.919  11.290  0.4314 -0.4312  0.7517
  111TMC2    O5 1704   1.009   1.694  11.276 -0.3750  0.2098 -0.5529
  111TMC2    H5 1705   1.090   1.647  11.246  0.0678  0.3667  0.4074
  112MPD2     C 1706   1.724   2.271  10.735 -0.7855  0.1473 -0.3511
  112MPD2    C1 1707   1.585   2.247  10.716 -0.2860  0.1244 -0.1246
  112MPD2    C2 1708   1.516   2.184  10.821 -0.0444 -0.2582  0.1142
  112MPD2    C3 1709   1.586   2.140  10.936 -0.3439  0.2136 -0.5455
  112MPD2    C4 1710   1.721   2.166  10.946  0.2743  0.7390 -0.7218
  112MPD2    C5 1711   1.793   2.226  10.846 -0.0307  0.6308  0.6627
  112MPD2     H 1712   1.408   2.184  10.810 -0.0338 -0.7439  0.0083
  112MPD2    H1 1713   1.774   2.126  11.032  0.1751  0.3765 -0.8312
  112MPD2    H2 1714   1.777   2.320  10.654 -1.3055 -1.5318 -1.7070
  112MPD2    H3 1715   1.899   2.250  10.853 -0.5303  2.1175  3.0986
  112MPD2     N 1716   1.516   2.080  11.043 -0.0305  0.5287  0.5852
  112MPD2    H5 1717   1.570   2.051  11.123 -0.0493 -1.5095 -0.1191
  112MPD2    N1 1718   1.512   2.295  10.604 -0.1809 -0.3634 -0.4493
  112MPD2    H7 1719   1.412   2.280  10.610 -0.0925 -0.4123  0.8913
  113MPD2     C 1720   3.888   3.766   1.068 -0.8680  0.4404 -0.0103
  113MPD2    C1 1721   3.752   3.787   1.051 -0.7011  0.2268 -0.5401
  113MPD2    C2 1722   3.699   3.743   0.926  0.5067 -0.1026  0.1812
  113MPD2    C3 1723   3.775   3.688   0.818  0.1641 -0.3726  0.0151
  113MPD2    C4 1724   3.907   3.685   0.842  0.1437  0.0782  0.1072
  113MPD2    C5 1725   3.964   3.715   0.963 -0.2757  0.5719  0.0618
  113MPD2     H 1726   3.592   3.754   0.914  0.6160  1.2234  0.4391
  113MPD2    H1 1727   3.978   3.649   0.769 -0.5816 -1.5300  0.1872
  113MPD2    H2 1728   3.943   3.795   1.158 -2.0426 -1.8402  1.4187
  113MPD2    H3 1729   4.071   3.706   0.976 -0.1550  0.5632 -0.9541
  113MPD2     N 1730   3.718   3.640   0.697 -0.6184 -0.2557 -0.8088
  113MPD2    H5 1731   3.788   3.620   0.626  0.1828  0.7487 -0.2980
  113MPD2    N1 1732   3.668   3.851   1.146  0.0824 -0.0879 -0.0008
  113MPD2    H7 1733   3.568   3.858   1.128 -0.2045  1.4051  2.0586
  114TCq2    C1 1734   3.587   3.615   0.674  0.0824  0.0926  0.6990
  114TCq2    O2 1735   3.493   3.599   0.752  0.7831 -0.4561  0.2019
  114TCq2    C2 1736   3.585   3.543   0.548 -0.1045 -0.2150 -0.3768
  114TCq2    C3 1737   3.608   3.610   0.428 -0.0049  0.2550  0.2359
  114TCq2    C4 1738   3.607   3.536   0.319  0.2856  0.7718  0.5296
  114TCq2    C5 1739   3.571   3.401   0.317  0.7423 -0.3586  0.1624
  114TCq2    C6 1740   3.532   3.344   0.428 -0.2473 -0.0943 -0.3089
  114TCq2    C7 1741   3.530   3.417   0.552 -0.5016  0.0095 -0.3167
  114TCq2    C8 1742   3.480   3.205   0.427  0.2547 -0.6005  0.0838
  114TCq2    O4 1743   3.488   3.143   0.321  0.1688  0.5989  0.3571
  114TCq2    C9 1744   3.656   3.601   0.202 -0.4364 -0.6464  0.5822
  114TCq2    O5 1745   3.685   3.726   0.211 -0.5853 -0.1734  0.2070
  114TCq2    O6 1746   3.695   3.521   0.118  0.3618  0.4387  0.1423
  114TCq2    H2 1747   3.645   3.711   0.438  1.6057 -0.2005 -1.2278
  114TCq2    H3 1748   3.568   3.345   0.225  0.7316  0.3171 -0.2447
  114TCq2    H4 1749   3.519   3.384   0.654  0.9980  0.7444  0.0842
  115TMC2    C1 1750   0.366   1.882  17.267 -0.3908 -0.0601  0.0676
  115TMC2    C2 1751   0.434   1.925  17.375  0.1860 -0.3518 -0.4056
  115TMC2    C3 1752   0.466   2.061  17.388 -0.0328  0.1020 -0.4762
  115TMC2    C4 1753   0.306   1.980  17.192 -0.2814 -0.3046 -0.5635
  115TMC2    C5 1754   0.335   2.109  17.211 -0.7688  0.6128  0.0727
  115TMC2    C6 1755   0.425   2.156  17.299 -0.0138 -0.4462  0.0035
  115TMC2     C 1756   0.328   1.746  17.245  1.2095 -0.4562 -0.2021
  115TMC2     O 1757   0.235   1.717  17.168 -0.2740  0.1599 -0.2684
  115TMC2     H 1758   0.467   1.855  17.451  0.5488 -1.3825 -1.5191
  115TMC2    H1 1759   0.242   1.948  17.111 -1.4098 -1.0417  0.5993
  115TMC2    H2 1760   0.445   2.261  17.317  1.3916 -1.0313  1.8597
  115TMC2    C7 1761   0.285   2.200  17.106 -0.2779 -0.2136 -0.0512
  115TMC2    C8 1762   0.505   2.104  17.513 -0.1976  0.3800  0.5328
  115TMC2    O1 1763   0.179   2.162  17.052  0.4166 -0.1735  0.2934
  115TMC2    O2 1764   0.596   2.188  17.517 -0.0832  0.1520 -0.2960
  115TMC2    O5 1765   0.389   2.105  17.589 -0.2755 -0.2331  0.2057
  115TMC2    H5 1766   0.314   2.061  17.544 -0.0415  0.8844 -1.2866
  116MPD2     C 1767   0.388   1.245  17.327  0.4724 -0.3432  0.3390
  116MPD2    C1 1768   0.277   1.327  17.300  0.3511  0.5732  0.2865
  116MPD2    C2 1769   0.289   1.460  17.299  0.2093  0.4288  0.0751
  116MPD2    C3 1770   0.406   1.526  17.317  0.6564  0.2982 -0.3847
  116MPD2    C4 1771   0.516   1.449  17.340  0.2280 -1.4519  0.2933
  116MPD2    C5 1772   0.506   1.317  17.352 -0.2890 -0.9183 -0.0346
  116MPD2     H 1773   0.200   1.519  17.283 -1.4881 -2.0523  0.4333
  116MPD2    H1 1774   0.615   1.490  17.356 -0.4653 -0.0974  1.0204
  116MPD2    H2 1775   0.378   1.137  17.327  0.1803 -0.3219 -1.1567
  116MPD2    H3 1776   0.593   1.259  17.379  0.3352 -0.1254 -0.3300
  116MPD2     N 1777   0.414   1.666  17.315  0.8768  0.1915  0.5969
  116MPD2    H5 1778   0.489   1.718  17.360  0.9351  0.8833 -0.2984
  116MPD2    N1 1779   0.151   1.265  17.291  0.1473  0.3021 -0.3015
  116MPD2    H7 1780   0.158   1.164  17.302 -1.3239  0.3260  0.8276
  117TMC2    C1 1781   3.337   3.897  14.101  0.1902 -0.0630 -0.2966
  117TMC2    C2 1782   3.338   3.897  14.243  0.2608  0.4575  0.5033
  117TMC2    C3 1783   3.458   3.926  14.299 -0.0383 -0.5870 -0.5941
  117TMC2    C4 1784   3.441   3.941  14.025 -0.5000 -0.1025 -0.0911
  117TMC2    C5 1785   3.558   3.974  14.085  0.2634 -0.2951  0.0743
  117TMC2    C6 1786   3.570   3.956  14.226  0.8729 -0.4428  0.5695
  117TMC2     C 1787   3.207   3.893  14.034 -0.0258 -0.0136 -0.8536
  117TMC2     O 1788   3.202   3.968  13.939  0.2555 -0.2729  0.1738
  117TMC2     H 1789   3.259   3.856  14.305  0.9019 -0.4341  0.7314
  117TMC2    H1 1790   3.423   3.955  13.919  2.6321  2.4425 -0.2858
  117TMC2    H2 1791   3.664   3.974  14.276 -0.1253  0.3609  2.1518
  117TMC2    C7 1792   3.665   4.026  14.001  0.1298 -0.0291  0.6038
  117TMC2    C8 1793   3.468   3.936  14.447  0.3168 -0.2728  0.1599
  117TMC2    O1 1794   3.761   4.069  14.060  0.2081  0.4197 -0.1319
  117TMC2    O2 1795   3.395   3.875  14.525 -0.2432 -0.2535  0.1807
  117TMC2    O5 1796   3.529   4.054  14.481  0.2911 -0.1669  0.3032
  117TMC2    H5 1797   3.555   4.092  14.394 -1.4880 -0.8627 -0.5564
  118MPD2     C 1798   3.680   4.006  13.625 -0.0433  0.0919  0.3271
  118MPD2    C1 1799   3.715   4.049  13.753  0.4351  0.8749 -0.5453
  118MPD2    C2 1800   3.827   4.130  13.772  0.1201  0.0328 -0.3470
  118MPD2    C3 1801   3.897   4.184  13.667 -0.0604 -0.1252 -0.2926
  118MPD2    C4 1802   3.855   4.140  13.540  0.2713  0.0980  0.2953
  118MPD2    C5 1803   3.752   4.055  13.518 -0.3035 -0.6042  0.5675
  118MPD2     H 1804   3.861   4.147  13.874  0.7265 -0.1049 -0.5245
  118MPD2    H1 1805   3.905   4.172  13.450 -1.1172  0.0712 -0.4851
  118MPD2    H2 1806   3.594   3.943  13.605 -0.8147  0.6980  1.6871
  118MPD2    H3 1807   3.721   4.024  13.419 -1.5169 -1.9889  1.3855
  118MPD2     N 1808   4.004   4.278  13.670 -0.1799  0.1449 -0.3876
  118MPD2    H5 1809   4.048   4.300  13.581 -2.1327  1.8820 -0.9092
  118MPD2    N1 1810   3.645   3.998  13.865 -0.3869  0.0848 -0.6199
  118MPD2    H7 1811   3.565   3.938  13.844  0.6198 -1.0602 -1.2172
  119MPD2     C 1812   2.041   0.419  14.108 -0.1165  0.3833 -0.0582
  119MPD2    C1 1813   1.913   0.455  14.154 -0.1252 -0.1428  0.1051
  119MPD2    C2 1814   1.806   0.449  14.072 -0.4739 -1.1781  1.3598
  119MPD2    C3 1815   1.809   0.395  13.949  0.0241 -0.3053  0.1173
  119MPD2    C4 1816   1.934   0.356  13.903  0.1982 -0.4636  0.1596
  119MPD2    C5 1817   2.046   0.372  13.979 -0.4402  0.5869 -0.0059
  119MPD2     H 1818   1.717   0.493  14.115  1.3297  2.9031  0.8932
  119MPD2    H1 1819   1.937   0.328  13.798  1.4539 -0.4950  0.2096
  119MPD2    H2 1820   2.137   0.417  14.159 -0.2642 -0.4108  0.1936
  119MPD2    H3 1821   2.142   0.333  13.948 -0.2227  1.4421 -0.4132
  119MPD2     N 1822   1.692   0.373  13.869  0.0075 -0.9116  0.2567
  119MPD2    H5 1823   1.703   0.331  13.778  0.7158  3.3975 -1.6624
  119MPD2    N1 1824   1.910   0.506  14.283  0.3510 -0.2401 -0.2039
  119MPD2    H7 1825   2.001   0.532  14.319  0.4639  0.6658 -1.1394
  120TCq2    C1 1826   1.566   0.395  13.911 -0.0982  0.4062  0.1686
  120TCq2    O2 1827   1.531   0.414  14.030  0.2999  0.1317  0.5243
  120TCq2    C2 1828   1.477   0.352  13.809 -0.0719 -0.3431  0.5490
  120TCq2    C3 1829   1.487   0.401  13.685 -0.3305 -0.2133 -0.4442
  120TCq2    C4 1830   1.378   0.387  13.600  0.4546  0.5626  0.4263
  120TCq2    C5 1831   1.263   0.323  13.639  0.2909 -0.1072  0.3825
  120TCq2    C6 1832   1.265   0.264  13.759 -0.2367 -0.5530 -0.7332
  120TCq2    C7 1833   1.367   0.278  13.846  0.3937  0.0813 -0.6305
  120TCq2    C8 1834   1.145   0.187  13.791 -0.4305  0.4249 -0.6293
  120TCq2    O4 1835   1.047   0.205  13.719  0.1250 -0.4588  0.2235
  120TCq2    C9 1836   1.380   0.450  13.467  0.3482  0.0641  1.0987
  120TCq2    O5 1837   1.273   0.465  13.404  0.7937  0.3581  0.3577
  120TCq2    O6 1838   1.493   0.474  13.411 -0.3940 -0.0938 -0.8605
  120TCq2    H2 1839   1.560   0.473  13.649  1.0379 -1.8458 -0.9107
  120TCq2    H3 1840   1.180   0.311  13.571  1.8125 -0.2089 -1.4391
  120TCq2    H4 1841   1.355   0.247  13.949 -0.9907  4.0977  0.3907
  121TMC2    C1 1842   3.644   2.358  14.320 -0.1920 -0.3682 -0.0770
  121TMC2    C2 1843   3.582   2.404  14.428 -0.3114  0.3156  0.2354
  121TMC2    C3 1844   3.480   2.332  14.481  0.1764 -0.3914  0.0721
  121TMC2    C4 1845   3.611   2.244  14.249  0.6669  0.0417  0.2348
  121TMC2    C5 1846   3.524   2.163  14.317  0.1005  0.1036  0.6430
  121TMC2    C6 1847   3.450   2.209  14.427  0.0008 -0.3413 -0.5306
  121TMC2     C 1848   3.761   2.442  14.269  0.0640  0.0980  0.2773
  121TMC2     O 1849   3.816   2.522  14.344 -1.0681  0.0015  0.1814
  121TMC2     H 1850   3.611   2.501  14.467  1.7638 -0.7985  1.4906
  121TMC2    H1 1851   3.660   2.209  14.159 -0.5786 -2.0963  0.3849
  121TMC2    H2 1852   3.396   2.138  14.489  0.2566  1.6252  1.9179
  121TMC2    C7 1853   3.493   2.039  14.257 -0.0458 -0.9370 -0.4599
  121TMC2    C8 1854   3.409   2.380  14.599 -0.2276  0.7595 -0.1775
  121TMC2    O1 1855   3.583   1.966  14.213  0.3546  0.7915 -0.6635
  121TMC2    O2 1856   3.467   2.468  14.666  0.7793  0.2745 -0.2078
  121TMC2    O5 1857   3.299   2.309  14.628 -0.2726  0.2624  0.7128
  121TMC2    H5 1858   3.272   2.256  14.550 -1.6878  3.0777 -0.7298
  122MPD2     C 1859   3.984   2.532  14.107  1.1803 -0.0414 -0.0419
  122MPD2    C1 1860   3.871   2.478  14.057  0.3131 -0.4133 -0.0390
  122MPD2    C2 1861   3.859   2.482  13.918  0.0819 -0.0257  0.2045
  122MPD2    C3 1862   3.947   2.551  13.841  0.8720 -0.8247 -0.1887
  122MPD2    C4 1863   4.053   2.621  13.897 -0.3840  0.3623  0.6718
  122MPD2    C5 1864   4.072   2.603  14.032  0.2934 -0.2010 -0.4166
  122MPD2     H 1865   3.772   2.442  13.867 -0.0534 -0.2199  0.5869
  122MPD2    H1 1866   4.140   2.653  13.840  0.4811  0.9848  2.3418
  122MPD2    H2 1867   4.002   2.524  14.213  0.6803  0.4870  0.0857
  122MPD2    H3 1868   4.164   2.639  14.076 -0.3104 -0.4617  1.0690
  122MPD2     N 1869   3.927   2.573  13.698  0.6583  0.3380 -0.3591
  122MPD2    H5 1870   3.980   2.646  13.652 -0.8663  1.5846 -0.1470
  122MPD2    N1 1871   3.780   2.413  14.141  0.0659 -0.2431 -0.1161
  122MPD2    H7 1872   3.708   2.352  14.104 -0.5375 -0.7863  1.9702
  123MPD2     C 1873   2.621   4.244   8.785 -0.6150 -0.6863 -0.4033
  123MPD2    C1 1874   2.578   4.276   8.913 -0.0225  0.8320  0.2489
  123MPD2    C2 1875   2.658   4.370   8.981  0.1899  0.1021  0.5778
  123MPD2    C3 1876   2.768   4.431   8.919  0.1775  0.2449 -0.4584
  123MPD2    C4 1877   2.793   4.410   8.786  0.0650  0.0117 -0.5118
  123MPD2    C5 1878   2.719   4.314   8.724  0.1573  0.3253 -0.4199
  123MPD2     H 1879   2.632   4.409   9.079 -1.3699 -1.6836  0.8820
  123MPD2    H1 1880   2.875   4.458   8.734  1.1571  0.3264  1.5249
  123MPD2    H2 1881   2.580   4.159   8.730 -0.2135  0.1694 -2.0284
  123MPD2    H3 1882   2.745   4.294   8.620  0.2144  0.3373 -0.4082
  123MPD2     N 1883   2.846   4.521   8.995  0.0337 -0.8418  0.0727
  123MPD2    H5 1884   2.843   4.507   9.095 -0.3276 -0.6702  0.0864
  123MPD2    N1 1885   2.462   4.212   8.964  0.6041 -0.3639 -0.3835
  123MPD2    H7 1886   2.414   4.142   8.910 -1.1557  1.2579 -0.9135
  124TCq2    C1 1887   2.946   4.610   8.948  0.6505  0.3681  0.3397
  124TCq2    O2 1888   2.969   4.643   8.827  0.0362 -0.4898 -0.4037
  124TCq2    C2 1889   3.027   4.677   9.046  0.2958 -0.7669 -0.0562
  124TCq2    C3 1890   3.138   0.024   9.003  0.4176 -0.1491 -0.2300
  124TCq2    C4 1891   3.227   0.071   9.088  0.0852  0.2159 -0.5387
  124TCq2    C5 1892   3.207   0.054   9.224 -0.2560  0.3060 -0.3135
  124TCq2    C6 1893   3.089   4.712   9.268  0.4281 -0.3282  0.5376
  124TCq2    C7 1894   2.997   4.659   9.182  0.1572  0.0237  0.5285
  124TCq2    C8 1895   3.072   4.656   9.408 -0.2137  1.1829  0.3363
  124TCq2    O4 1896   2.981   4.577   9.428 -0.4578 -0.4059  0.1793
  124TCq2    C9 1897   3.349   0.133   9.039  0.4646 -0.1079 -0.0170
  124TCq2    O5 1898   3.376   0.123   8.916  0.7298 -0.2121 -0.3093
  124TCq2    O6 1899   3.419   0.184   9.130  0.4334  0.5713 -0.4483
  124TCq2    H2 1900   3.164   0.034   8.898  0.2393  0.2491 -0.2385
  124TCq2    H3 1901   3.276   0.091   9.299  0.9639 -1.8603 -0.3526
  124TCq2    H4 1902   2.915   4.598   9.218  0.3045 -0.9045 -0.7092
  125TMC2    C1 1903   3.191   0.473   9.163 -0.1492 -0.5229 -0.6933
  125TMC2    C2 1904   3.324   0.452   9.182  0.0787  0.0436  0.2121
  125TMC2    C3 1905   3.398   0.525   9.093  0.0937 -0.3828  0.3398
  125TMC2    C4 1906   3.133   0.565   9.073  0.6687 -0.0059  0.3595
  125TMC2    C5 1907   3.218   0.650   9.003  0.6613  0.0820  0.1452
  125TMC2    C6 1908   3.347   0.624   9.011 -0.4970  0.1333  0.7008
  125TMC2     C 1909   3.100   0.402   9.246  0.0357  0.8585 -0.2011
  125TMC2     O 1910   2.991   0.377   9.196  0.1726  0.0557  0.2132
  125TMC2     H 1911   3.364   0.379   9.252 -0.9923  0.4544  1.2440
  125TMC2    H1 1912   3.025   0.567   9.074  0.6761  0.4734  0.1707
  125TMC2    H2 1913   3.414   0.662   8.935 -2.6315  0.2185 -1.1322
  125TMC2    C7 1914   3.173   0.745   8.911  0.2205  0.3502  0.8768
  125TMC2    C8 1915   3.536   0.503   9.053  0.0637 -0.6372  0.1559
  125TMC2    O1 1916   3.080   0.705   8.845  0.0677 -0.3692 -0.1597
  125TMC2    O2 1917   3.619   0.594   9.037 -0.5420  0.3355  0.1807
  125TMC2    O5 1918   3.576   0.384   9.109  0.3506 -0.5664 -0.4278
  125TMC2    H5 1919   3.500   0.323   9.120  0.7615 -1.1274 -0.7293
  126MPD1     C 1920   2.930   0.244   9.696 -0.1017  0.1393  0.3528
  126MPD1    C1 1921   3.060   0.287   9.715  0.3961 -0.2643 -0.0099
  126MPD1    C2 1922   3.121   0.339   9.604  0.0101  0.9631  0.0719
  126MPD1    C3 1923   3.064   0.336   9.480 -0.3505 -0.4081 -0.2663
  126MPD1    C4 1924   2.940   0.281   9.459  0.3075  0.1495 -0.5158
  126MPD1    C5 1925   2.871   0.248   9.570 -0.0964 -0.0868  0.9042
  126MPD1     H 1926   3.224   0.371   9.613  0.6254 -0.7334 -1.0310
  126MPD1    H1 1927   2.891   0.263   9.364 -1.0933 -1.9140  0.6027
  126MPD1    H2 1928   2.873   0.204   9.778 -1.9249  1.6405 -0.1797
  126MPD1    H3 1929   2.771   0.207   9.561 -0.1246  0.2785 -0.3885
  126MPD1     N 1930   3.142   0.395   9.377  0.0224 -0.0868 -0.1702
  126MPD1    H5 1931   3.232   0.439   9.394  0.7349 -0.1993 -3.5770
  126MPD1    N1 1932   3.106   0.316   9.845 -0.2054  0.5566 -0.3509
  126MPD1    H6 1933   3.078   0.249   9.917 -0.7429  3.0619  1.7832
  126MPD1    H7 1934   3.207   0.326   9.846  0.1393 -3.3229  1.9236
  127MPD2     C 1935   4.003   0.439  10.048 -0.4531  0.1537  1.3448
  127MPD2    C1 1936   3.967   0.408   9.915 -0.1916 -0.3169  0.1110
  127MPD2    C2 1937   4.010   0.493   9.812 -0.1905  0.4518 -0.0099
  127MPD2    C3 1938   4.078   0.610   9.840 -0.5031 -0.0527 -0.7113
  127MPD2    C4 1939   4.121   0.639   9.969 -0.1488  0.1766  0.4225
  127MPD2    C5 1940   4.078   0.557  10.073  0.3986  0.0316  0.6052
  127MPD2     H 1941   3.994   0.470   9.708  0.2274 -0.6305  0.1688
  127MPD2    H1 1942   4.184   0.722  10.000  0.0917  0.7891 -1.7304
  127MPD2    H2 1943   3.981   0.372  10.130  2.6838  0.3510  2.3604
  127MPD2    H3 1944   4.115   0.586  10.171  1.2493  1.6925 -0.2128
  127MPD2     N 1945   4.106   0.699   9.729  0.4372  0.2692 -0.5791
  127MPD2    H5 1946   4.080   0.665   9.637 -0.1253  0.1471 -0.3748
  127MPD2    N1 1947   3.909   0.288   9.895  0.0360  0.3101 -0.1958
  127MPD2    H7 1948   3.888   0.231   9.976  0.1965  1.1038  0.3973
  128TCq2    C1 1949   3.855   0.246   9.778  0.2334  0.1716 -0.3516
  128TCq2    O2 1950   3.870   0.287   9.663  0.0059  0.0491 -0.5298
  128TCq2    C2 1951   3.786   0.124   9.791  0.1584 -0.2186 -0.2807
  128TCq2    C3 1952   3.763   0.066   9.913  0.3165  0.0617 -1.0340
  128TCq2    C4 1953   3.696   4.673   9.913  0.0460 -0.3062  0.2112
  128TCq2    C5 1954   3.659   4.608   9.802  0.1764 -0.5842 -0.0154
  128TCq2    C6 1955   3.686   4.666   9.686  0.2946  0.7009  0.5530
  128TCq2    C7 1956   3.748   0.062   9.673  0.7049 -0.4072 -0.0317
  128TCq2    C8 1957   3.630   4.606   9.567 -0.0041  1.1869 -0.6012
  128TCq2    O4 1958   3.669   4.647   9.459  0.3329  0.2376 -0.5842
  128TCq2    C9 1959   3.658   4.607  10.037  0.4999 -0.0562 -0.5958
  128TCq2    O5 1960   3.589   4.504  10.040  0.9113  0.5969 -0.5144
  128TCq2    O6 1961   3.691   4.673  10.140 -0.4644  0.3363 -0.1341
  128TCq2    H2 1962   3.795   0.112  10.006  0.8401 -0.3528 -1.0073
  128TCq2    H3 1963   3.593   4.522   9.813 -1.0666  0.3520 -0.1020
  128TCq2    H4 1964   3.736   0.119   9.581  1.5878  0.2627  0.2635
  129MPD2     C 1965   1.359   1.461   1.258  0.3797 -0.1045  0.3489
  129MPD2    C1 1966   1.448   1.390   1.335 -0.4685 -0.2765  0.4218
  129MPD2    C2 1967   1.580   1.430   1.331  0.0821  0.0978  0.3712
  129MPD2    C3 1968   1.628   1.532   1.255 -1.4094  0.6719 -0.0510
  129MPD2    C4 1969   1.536   1.594   1.173  0.9393  0.4845  0.7096
  129MPD2    C5 1970   1.407   1.565   1.174 -0.6660 -0.1261 -0.0530
  129MPD2     H 1971   1.649   1.365   1.385  4.5148  2.6503 -2.2329
  129MPD2    H1 1972   1.571   1.678   1.114 -0.9857  0.2482 -0.7761
  129MPD2    H2 1973   1.254   1.441   1.240  0.4832 -0.4022  0.0901
  129MPD2    H3 1974   1.343   1.618   1.105 -1.8218  0.0339  1.1504
  129MPD2     N 1975   1.757   1.565   1.272 -0.3670  0.0547 -0.6604
  129MPD2    H5 1976   1.795   1.496   1.337  1.9086  2.1568  0.2761
  129MPD2    N1 1977   1.415   1.281   1.416  0.1453  0.5917  0.1258
  129MPD2    H7 1978   1.485   1.226   1.465 -1.3084 -0.5238  0.9711
  130TCq2    C1 1979   1.277   1.234   1.430 -0.1462 -0.0024  0.1750
  130TCq2    O2 1980   1.174   1.293   1.401 -0.4567 -0.1838  0.1937
  130TCq2    C2 1981   1.271   1.118   1.513 -0.2199 -0.0739 -0.1631
  130TCq2    C3 1982   1.389   1.058   1.566  0.4923 -0.2197  0.4257
  130TCq2    C4 1983   1.377   0.945   1.629  1.3326  0.1205  0.1194
  130TCq2    C5 1984   1.255   0.886   1.640  0.1416  0.1215 -0.5738
  130TCq2    C6 1985   1.143   0.943   1.588  0.5555  0.2656 -0.0691
  130TCq2    C7 1986   1.149   1.058   1.516 -0.2471  0.2714  0.3463
  130TCq2    C8 1987   1.009   0.884   1.602  0.1333  0.1633  0.1904
  130TCq2    O4 1988   0.921   0.937   1.539  0.4857  0.1223  0.5207
  130TCq2    C9 1989   1.493   0.892   1.694 -0.7275 -0.1678 -0.0699
  130TCq2    O5 1990   1.470   0.792   1.768 -0.7276 -0.7921 -0.4483
  130TCq2    O6 1991   1.610   0.946   1.695  0.6498 -0.1783 -0.2961
  130TCq2    H2 1992   1.485   1.106   1.580  0.1646  1.1527 -1.9597
  130TCq2    H3 1993   1.255   0.788   1.686 -1.8945  0.6400  0.5175
  130TCq2    H4 1994   1.077   1.089   1.442 -0.3345  0.6967  0.6101
  131MPD2     C 1995   1.714   4.664   9.438 -0.5743  0.1781 -0.3537
  131MPD2    C1 1996   1.851   4.664   9.470  0.3777 -0.8380  1.3488
  131MPD2    C2 1997   1.933   4.561   9.422  0.0999 -0.5065  0.9644
  131MPD2    C3 1998   1.880   4.464   9.344  0.6275  1.1368 -0.3067
  131MPD2    C4 1999   1.754   4.488   9.283  0.2652  0.2165 -0.2439
  131MPD2    C5 2000   1.668   4.581   9.341  0.3307 -0.1014 -0.4964
  131MPD2     H 2001   2.039   4.554   9.444  0.5152  0.0395 -0.8608
  131MPD2    H1 2002   1.709   4.429   9.205  0.7092  3.1966 -2.7611
  131MPD2    H2 2003   1.647   0.012   9.486 -1.8190 -1.2463  0.0026
  131MPD2    H3 2004   1.566   4.597   9.306 -0.1023  0.5814  1.0456
  131MPD2     N 2005   1.965   4.351   9.326  0.2402 -0.1977 -0.1438
  131MPD2    H5 2006   2.053   4.356   9.376 -1.9926  0.4222  3.8100
  131MPD2    N1 2007   1.885   0.038   9.572  0.4693 -0.1940 -0.1165
  131MPD2    H7 2008   1.816   0.109   9.596  2.1824  1.3248  0.3997
  132TCq2    C1 2009   2.329   0.292   9.860  0.1714 -0.6992  0.6362
  132TCq2    O2 2010   2.413   0.204   9.831  0.7962  0.1251  0.6397
  132TCq2    C2 2011   2.186   0.270   9.845 -0.1804 -0.4829 -0.3075
  132TCq2    C3 2012   2.096   0.373   9.865  0.6144 -0.7550  0.3700
  132TCq2    C4 2013   1.975   0.363   9.801  0.9145  0.1216 -0.3672
  132TCq2    C5 2014   1.935   0.244   9.740  0.2747  0.4262  0.1490
  132TCq2    C6 2015   2.027   0.138   9.731 -0.8668 -0.2567  0.8616
  132TCq2    C7 2016   2.155   0.152   9.783  0.4269  0.3027 -0.6740
  132TCq2    C8 2017   2.004   0.034   9.646 -0.1654 -0.0129  1.0879
  132TCq2    O4 2018   2.084   4.664   9.647 -0.0159  0.1384 -0.0132
  132TCq2    C9 2019   1.880   0.466   9.819 -0.2713  0.1206 -0.1700
  132TCq2    O5 2020   1.922   0.580   9.866  0.4355 -0.5012 -0.6481
  132TCq2    O6 2021   1.759   0.428   9.829  0.2029 -0.0397 -0.5927
  132TCq2    H2 2022   2.109   0.462   9.927  0.0528 -0.1591 -0.3629
  132TCq2    H3 2023   1.836   0.233   9.699  0.4181 -1.6745  0.3731
  132TCq2    H4 2024   2.226   0.070   9.777 -1.2144 -1.1165 -0.6795
  133MPD2     C 2025   1.265   1.497   9.305 -0.1724  0.7697  0.3657
  133MPD2    C1 2026   1.386   1.438   9.292 -0.3099  0.0488  0.4037
  133MPD2    C2 2027   1.391   1.299   9.286  0.1643  0.5156  0.2476
  133MPD2    C3 2028   1.273   1.219   9.285  0.7203 -0.5081 -0.1876
  133MPD2    C4 2029   1.152   1.284   9.305 -0.4237  0.5974 -0.1939
  133MPD2    C5 2030   1.153   1.422   9.315 -0.2757 -0.6019  0.2374
  133MPD2     H 2031   1.486   1.247   9.277 -0.4431 -0.4029 -0.8473
  133MPD2    H1 2032   1.060   1.229   9.323 -1.1508  1.8374 -0.1148
  133MPD2    H2 2033   1.249   1.605   9.302 -1.4339  0.6563  3.2988
  133MPD2    H3 2034   1.056   1.467   9.331  0.1326 -0.9547  3.7741
  133MPD2     N 2035   1.268   1.083   9.278 -0.4872 -0.5370 -1.1457
  133MPD2    H5 2036   1.184   1.030   9.259  0.9215 -3.1737 -0.0933
  133MPD2    N1 2037   1.502   1.514   9.272  0.1325 -0.1353  0.6746
  133MPD2    H7 2038   1.490   1.615   9.271  1.0035 -0.0365  0.4751
  134TCq2    C1 2039   1.629   1.461   9.270 -0.0993  0.0877  0.0698
  134TCq2    O2 2040   1.671   1.353   9.310 -1.0772  0.8559 -0.4332
  134TCq2    C2 2041   1.724   1.562   9.223 -0.5995  0.4552 -0.0795
  134TCq2    C3 2042   1.678   1.673   9.157 -0.7497  0.1554 -0.7634
  134TCq2    C4 2043   1.763   1.755   9.094  0.3889 -0.6615  0.2236
  134TCq2    C5 2044   1.903   1.740   9.104 -0.0655 -0.5232  0.9746
  134TCq2    C6 2045   1.944   1.628   9.165  1.0312  0.1006  0.1883
  134TCq2    C7 2046   1.859   1.539   9.223 -0.1877 -0.4396 -0.4050
  134TCq2    C8 2047   2.090   1.602   9.171 -0.0194 -0.7447 -0.2154
  134TCq2    O4 2048   2.158   1.703   9.175 -0.3873 -0.4250  0.0628
  134TCq2    C9 2049   1.707   1.864   9.019  0.7040  0.7724  0.6117
  134TCq2    O5 2050   1.789   1.958   8.993  0.1225  1.2950 -0.0891
  134TCq2    O6 2051   1.579   1.867   8.999  0.0232 -0.1230 -0.7130
  134TCq2    H2 2052   1.573   1.699   9.150 -1.4292 -2.2511  0.4866
  134TCq2    H3 2053   1.970   1.806   9.051 -0.6350 -0.2553  0.5813
  134TCq2    H4 2054   1.893   1.454   9.281  0.0539 -0.5270 -0.6781
  135MPD2     C 2055   3.663   2.264   9.574  0.1768 -0.0314 -0.5969
  135MPD2    C1 2056   3.703   2.162   9.658  0.0973  0.1610 -0.0884
  135MPD2    C2 2057   3.824   2.107   9.636  0.0007 -0.4419  0.8012
  135MPD2    C3 2058   3.906   2.125   9.525  0.2850 -0.8504  0.6597
  135MPD2    C4 2059   3.865   2.225   9.442  0.1767  0.3965 -0.9715
  135MPD2    C5 2060   3.747   2.297   9.472 -0.1440 -0.2671 -0.8493
  135MPD2     H 2061   3.858   2.040   9.715 -0.9470 -0.3632  1.2783
  135MPD2    H1 2062   3.921   2.261   9.357  0.9482  1.2729 -0.0952
  135MPD2    H2 2063   3.577   2.326   9.594  0.8103  0.8089 -0.5110
  135MPD2    H3 2064   3.719   2.375   9.401  1.0554  3.0812  2.3499
  135MPD2     N 2065   4.027   2.050   9.509  0.1156 -0.0092  0.1647
  135MPD2    H5 2066   4.072   2.019   9.594  0.6075  0.3860  0.0514
  135MPD2    N1 2067   3.624   2.124   9.768 -0.0616 -0.3277  0.1269
  135MPD2    H7 2068   3.665   2.048   9.822  2.8021  1.3134  0.2583
  136TCq2    C1 2069   3.487   2.151   9.782 -0.3758 -0.3497 -0.1717
  136TCq2    O2 2070   3.402   2.215   9.718 -0.1466  0.2241 -0.0430
  136TCq2    C2 2071   3.431   2.084   9.896  0.2552 -0.0822 -0.4109
  136TCq2    C3 2072   3.309   2.031   9.885  0.3038  0.0282 -0.4984
  136TCq2    C4 2073   3.257   1.964   9.983  0.5850 -0.1510 -0.6345
  136TCq2    C5 2074   3.317   1.950  10.103 -0.2635  0.4382  0.4387
  136TCq2    C6 2075   3.441   2.008  10.118 -0.2833 -0.7109 -0.6775
  136TCq2    C7 2076   3.502   2.086  10.016  0.1263  0.7190  0.4814
  136TCq2    C8 2077   3.531   1.960  10.215 -0.2854 -0.3693 -0.0602
  136TCq2    O4 2078   3.633   2.021  10.234  0.1348  0.2264 -0.3103
  136TCq2    C9 2079   3.136   1.893   9.958  0.6465  0.4306  0.8091
  136TCq2    O5 2080   3.076   1.919   9.848 -0.0495  0.1055 -0.1051
  136TCq2    O6 2081   3.099   1.812  10.050 -0.3986  0.0242 -0.4802
  136TCq2    H2 2082   3.254   2.043   9.792  0.3075  4.0358  0.0382
  136TCq2    H3 2083   3.274   1.895  10.186  1.8653 -2.2877 -0.2832
  136TCq2    H4 2084   3.604   2.118  10.033  0.3191  0.2130  0.2730
  137MPD2     C 2085   2.928   0.796   9.261 -0.3784  0.4586 -0.1803
  137MPD2    C1 2086   3.012   0.902   9.246 -0.1896  0.5158  0.5635
  137MPD2    C2 2087   3.119   0.910   9.330  0.1618  0.4933  0.1109
  137MPD2    C3 2088   3.152   0.812   9.420  0.3338  0.7385 -0.1507
  137MPD2    C4 2089   3.066   0.700   9.438  0.0150 -0.1794  0.7340
  137MPD2    C5 2090   2.950   0.701   9.361 -0.2255  0.3203  0.3817
  137MPD2     H 2091   3.193   0.989   9.332  1.6352 -0.8551 -1.2964
  137MPD2    H1 2092   3.083   0.633   9.522  0.6348 -1.8009 -0.6847
  137MPD2    H2 2093   2.838   0.793   9.201 -2.1569 -1.8557  2.6066
  137MPD2    H3 2094   2.891   0.610   9.371 -2.7590  1.9935  0.5760
  137MPD2     N 2095   3.265   0.836   9.500 -0.4742  0.3207  0.5544
  137MPD2    H5 2096   3.308   0.925   9.479 -0.5855 -0.0170 -1.1217
  137MPD2    N1 2097   2.986   1.001   9.154  0.2032 -0.6034  0.2776
  137MPD2    H7 2098   2.899   0.981   9.105 -0.0980 -2.3498  1.5542
  138TCq2    C1 2099   3.052   1.128   9.146  0.3421 -0.0478  0.3692
  138TCq2    O2 2100   3.147   1.167   9.211  0.1771 -0.0803 -0.2494
  138TCq2    C2 2101   2.958   1.228   9.091 -0.2073 -0.3218 -0.8326
  138TCq2    C3 2102   2.876   1.178   9.001  1.1019  0.4139  0.4440
  138TCq2    C4 2103   2.771   1.252   8.970 -0.2032  0.1328  0.4081
  138TCq2    C5 2104   2.755   1.380   9.031 -1.0033  0.1750  0.0221
  138TCq2    C6 2105   2.849   1.421   9.126  0.4789 -0.4290  0.1944
  138TCq2    C7 2106   2.947   1.340   9.166  0.4656 -0.5183  0.0797
  138TCq2    C8 2107   2.812   1.528   9.208  0.1289  0.4587  0.1112
  138TCq2    O4 2108   2.764   1.630   9.160  0.1445  0.0228  0.5771
  138TCq2    C9 2109   2.673   1.201   8.886  0.4023 -0.3595 -0.4114
  138TCq2    O5 2110   2.680   1.076   8.862 -0.0894  0.0091  0.6819
  138TCq2    O6 2111   2.587   1.280   8.850 -0.4657  0.2871  0.4528
  138TCq2    H2 2112   2.881   1.088   8.941 -2.1892  0.3681  0.2425
  138TCq2    H3 2113   2.672   1.444   9.005 -2.3644 -2.0157 -1.0907
  138TCq2    H4 2114   3.027   1.360   9.236 -0.4961 -0.2147  1.0881
  139TMC2    C1 2115   2.766   4.502  13.092 -0.2480 -0.8374  0.1100
  139TMC2    C2 2116   2.719   4.486  12.965 -0.0319  0.0188  0.1541
  139TMC2    C3 2117   2.646   4.590  12.912  0.4843 -0.0598 -0.0779
  139TMC2    C4 2118   2.724   4.604  13.171  0.2214 -0.5014  0.0607
  139TMC2    C5 2119   2.637   4.693  13.117  0.2339  0.2304 -0.1209
  139TMC2    C6 2120   2.587   4.682  12.992 -0.1377 -0.0182 -0.4148
  139TMC2     C 2121   2.868   4.408  13.128 -0.2868  0.7264 -0.2868
  139TMC2     O 2122   2.901   4.320  13.047 -0.4281  0.5137 -0.3898
  139TMC2     H 2123   2.751   4.404  12.901  0.6445  0.8176 -0.5180
  139TMC2    H1 2124   2.741   4.606  13.278  0.9187 -0.6980 -0.0489
  139TMC2    H2 2125   2.529   0.038  12.946  0.1511 -0.7202 -1.9962
  139TMC2    C7 2126   2.598   0.088  13.200  0.0103  0.3493 -0.0762
  139TMC2    C8 2127   2.595   4.568  12.780 -0.3607 -0.3507 -0.1456
  139TMC2    O1 2128   2.494   0.143  13.169 -0.3053 -0.2127 -0.2239
  139TMC2    O2 2129   2.575   4.458  12.729  0.3910  0.3908 -0.6322
  139TMC2    O5 2130   2.606   4.690  12.717 -0.5268  0.3704  0.4502
  139TMC2    H5 2131   2.633   0.036  12.782  0.5614  0.7800 -0.4403
  140MPD2     C 2132   3.066   4.415  13.440  0.0503  0.4280  0.1739
  140MPD2    C1 2133   3.040   4.369  13.307  0.6185  0.1986 -0.1268
  140MPD2    C2 2134   3.122   4.282  13.235  0.1097  0.0890  0.2161
  140MPD2    C3 2135   3.231   4.224  13.305 -0.1182 -0.0463 -0.3748
  140MPD2    C4 2136   3.254   4.258  13.435  0.2993  0.6178  0.1602
  140MPD2    C5 2137   3.178   4.356  13.495  0.3086  0.6836 -0.2647
  140MPD2     H 2138   3.103   4.261  13.130 -3.2776  0.1942  0.8083
  140MPD2    H1 2139   3.332   4.220  13.500  1.1973  1.9727 -0.0958
  140MPD2    H2 2140   3.005   4.489  13.489 -0.0153  0.2039  0.4328
  140MPD2    H3 2141   3.213   4.375  13.596 -0.4400 -1.4164  0.3945
  140MPD2     N 2142   3.303   4.131  13.233  0.2726  0.3645 -0.0741
  140MPD2    H5 2143   3.287   4.118  13.134 -2.0359  3.0135 -0.0504
  140MPD2    N1 2144   2.933   4.436  13.246  0.1068 -0.3327 -0.1006
  140MPD2    H7 2145   2.902   4.516  13.300  3.6586 -0.2755  1.8956
  141TCq2    C1 2146   3.646   1.142  14.283 -0.0733  0.5814 -0.1675
  141TCq2    O2 2147   3.619   1.258  14.258  0.2029  0.2596 -0.0578
  141TCq2    C2 2148   3.667   1.105  14.425  0.1380  0.5779 -0.4476
  141TCq2    C3 2149   3.695   0.978  14.467 -0.3217  0.2999  0.4820
  141TCq2    C4 2150   3.719   0.952  14.598  0.2497  0.1432  0.6564
  141TCq2    C5 2151   3.699   1.048  14.690 -0.5381  0.2448 -0.2450
  141TCq2    C6 2152   3.654   1.173  14.644 -0.4412 -0.3695 -0.2018
  141TCq2    C7 2153   3.632   1.199  14.514 -0.0889  0.5971 -0.0322
  141TCq2    C8 2154   3.643   1.277  14.743  0.1711 -0.3734 -0.2914
  141TCq2    O4 2155   3.592   1.250  14.852 -0.0512 -0.2766  0.2960
  141TCq2    C9 2156   3.735   0.819  14.640  0.1818 -0.4195 -0.1472
  141TCq2    O5 2157   3.754   0.796  14.760 -0.5445 -0.2800  0.0068
  141TCq2    O6 2158   3.696   0.731  14.557  0.2520  0.3939 -0.5077
  141TCq2    H2 2159   3.719   0.897  14.400  3.1642  0.7542  1.1581
  141TCq2    H3 2160   3.723   1.026  14.793 -0.0297  1.0769 -0.1857
  141TCq2    H4 2161   3.604   1.298  14.482 -0.3475  0.8349  0.9248
  142MPD2     C 2162   2.484   3.604  10.301 -0.5453  1.2677  0.2352
  142MPD2    C1 2163   2.451   3.713  10.219  0.6112 -0.5027 -0.5648
  142MPD2    C2 2164   2.556   3.797  10.173  0.0524  0.5135 -0.0075
  142MPD2    C3 2165   2.691   3.774  10.214  0.1426 -0.6269  0.0928
  142MPD2    C4 2166   2.712   3.668  10.300  0.0834  0.6437 -0.3744
  142MPD2    C5 2167   2.618   3.578  10.334  0.1868 -0.0918  1.3961
  142MPD2     H 2168   2.534   3.884  10.113 -1.6309 -1.6292 -2.4934
  142MPD2    H1 2169   2.811   3.651  10.343 -1.3184  1.6640  3.2495
  142MPD2    H2 2170   2.407   3.535  10.333  0.0712  0.2006 -0.6097
  142MPD2    H3 2171   2.630   3.486  10.390  0.0571 -1.4977 -0.8751
  142MPD2     N 2172   2.793   3.872  10.178 -0.2446  0.6648 -0.8292
  142MPD2    H5 2173   2.884   3.855  10.219 -1.2780  2.1945  2.0733
  142MPD2    N1 2174   2.312   3.727  10.197  0.3757 -0.2457  0.2829
  142MPD2    H7 2175   2.242   3.688  10.259 -1.5408  0.0937 -1.6582
  143TCq2    C1 2176   2.776   3.982  10.095  0.0169  0.9420  0.3484
  143TCq2    O2 2177   2.696   4.006  10.008  0.3899 -0.0848 -0.4039
  143TCq2    C2 2178   2.897   4.066  10.085 -0.1057  0.3602  0.0870
  143TCq2    C3 2179   3.003   4.021  10.153  0.0171  0.0503 -0.9893
  143TCq2    C4 2180   3.125   4.052  10.109  0.7399  0.5619  0.3318
  143TCq2    C5 2181   3.143   4.136  10.001  0.0225  0.3741 -0.8729
  143TCq2    C6 2182   3.029   4.196   9.944  0.2195  0.6607 -0.4584
  143TCq2    C7 2183   2.908   4.160   9.986 -0.8366  0.1965 -0.6988
  143TCq2    C8 2184   3.049   4.287   9.834  0.4070 -0.4922  0.0040
  143TCq2    O4 2185   2.964   4.299   9.748 -0.1762  0.0327 -0.4589
  143TCq2    C9 2186   3.248   3.999  10.165 -0.0273 -0.0752 -0.7649
  143TCq2    O5 2187   3.254   3.881  10.210 -0.6434 -0.1500  0.2218
  143TCq2    O6 2188   3.349   4.067  10.134 -0.2724 -0.9266 -0.8333
  143TCq2    H2 2189   3.006   3.951  10.236 -3.3632 -1.2167 -1.9218
  143TCq2    H3 2190   3.238   4.142   9.950  0.5669 -1.3197 -0.0710
  143TCq2    H4 2191   2.809   4.184   9.947 -0.5797 -0.8515 -1.9974
  144MPD2     C 2192   3.565   2.639   0.358 -0.5400 -0.5098  0.5380
  144MPD2    C1 2193   3.635   2.750   0.319 -0.3855 -0.3459  0.2939
  144MPD2    C2 2194   3.761   2.768   0.372 -0.0148 -0.2295 -0.5315
  144MPD2    C3 2195   3.807   2.679   0.471  0.1928 -0.0639  0.2860
  144MPD2    C4 2196   3.735   2.561   0.503 -0.6056 -0.3726  0.0861
  144MPD2    C5 2197   3.613   2.545   0.450  0.2932  0.3157 -0.1162
  144MPD2     H 2198   3.812   2.858   0.341  0.3261 -0.2153  0.0812
  144MPD2    H1 2199   3.768   2.486   0.574  1.1938  0.3801  0.0374
  144MPD2    H2 2200   3.474   2.610   0.308 -0.5843  1.1805 -0.3265
  144MPD2    H3 2201   3.561   2.453   0.472  0.0768  0.5135  0.1869
  144MPD2     N 2202   3.928   2.712   0.543  0.1596  0.4203  0.0701
  144MPD2    H5 2203   3.972   2.637   0.595 -1.9131 -0.0060  1.2090
  144MPD2    N1 2204   3.591   2.830   0.211  0.4253 -0.3956 -0.1787
  144MPD2    H7 2205   3.664   2.893   0.179 -0.0868  0.5190  0.4394
  145TCq2    C1 2206   3.996   2.833   0.541  0.4247  0.0166  0.6293
  145TCq2    O2 2207   3.952   2.944   0.502 -0.1302 -0.0523  0.2993
  145TCq2    C2 2208   4.115   2.837   0.631 -0.3997  0.7007  0.0467
  145TCq2    C3 2209   4.213   2.750   0.606  0.2670 -0.9510  0.2192
  145TCq2    C4 2210   4.339   2.782   0.652 -0.1189 -0.5441  0.4256
  145TCq2    C5 2211   4.358   2.896   0.725 -0.1835  0.3598 -0.1699
  145TCq2    C6 2212   4.258   2.985   0.749 -0.2825 -0.5565  0.0782
  145TCq2    C7 2213   4.133   2.959   0.700  0.3645 -0.2064  0.3157
  145TCq2    C8 2214   4.289   3.114   0.803  0.3265 -0.0314  0.3180
  145TCq2    O4 2215   4.407   3.145   0.797  0.1137 -0.0294  0.6501
  145TCq2    C9 2216   4.438   2.673   0.657  0.1994  0.2811 -0.3227
  145TCq2    O5 2217   4.415   2.574   0.583  0.0386 -0.0464 -0.0870
  145TCq2    O6 2218   4.531   2.684   0.739  0.0812  0.4476  0.3452
  145TCq2    H2 2219   4.189   2.656   0.559 -2.9665  0.0050 -0.0184
  145TCq2    H3 2220   4.461   2.920   0.750 -0.5243  1.1011  0.5167
  145TCq2    H4 2221   4.054   3.032   0.690 -0.6851 -1.5324 -1.1396
  146TMC2    C1 2222   0.637   2.310  12.598  0.2746  0.2861  0.3828
  146TMC2    C2 2223   0.556   2.364  12.497  0.1713 -0.2877  0.5911
  146TMC2    C3 2224   0.573   2.343  12.365 -0.3495 -0.6350 -0.5435
  146TMC2    C4 2225   0.738   2.229  12.564 -0.4407 -0.3990  0.5360
  146TMC2    C5 2226   0.741   2.190  12.429 -0.5215 -0.3695 -0.1211
  146TMC2    C6 2227   0.657   2.244  12.332  0.0021  0.2447 -0.5236
  146TMC2     C 2228   0.607   2.345  12.736 -0.4643  0.2020  0.5995
  146TMC2     O 2229   0.534   2.441  12.752  0.5164 -0.9110  0.3287
  146TMC2     H 2230   0.490   2.445  12.524  0.7300 -0.3717  2.2239
  146TMC2    H1 2231   0.822   2.203  12.628 -0.2076  0.7322  0.6965
  146TMC2    H2 2232   0.672   2.220  12.227  1.6576 -1.8367  0.1900
  146TMC2    C7 2233   0.847   2.108  12.377 -0.3088  0.5208  0.5588
  146TMC2    C8 2234   0.530   2.445  12.279 -0.3357  0.8642 -0.1962
  146TMC2    O1 2235   0.868   2.096  12.259  0.1393 -0.9011 -0.4964
  146TMC2    O2 2236   0.609   2.492  12.199  0.0702  0.2737  0.0724
  146TMC2    O5 2237   0.406   2.399  12.253 -0.9756 -0.3254 -0.4864
  146TMC2    H5 2238   0.374   2.341  12.325  2.2940 -1.5922 -0.1008
  147MPD2     C 2239   1.254   1.794  12.419 -0.6124  0.3217  0.0721
  147MPD2    C1 2240   1.209   1.821  12.543  0.3461  0.5588 -0.1806
  147MPD2    C2 2241   1.096   1.898  12.559 -0.8145 -0.7186 -0.1524
  147MPD2    C3 2242   1.031   1.957  12.448 -0.3058  0.4368  0.2190
  147MPD2    C4 2243   1.082   1.929  12.317  0.8631  0.2363 -0.3176
  147MPD2    C5 2244   1.192   1.847  12.306 -0.0699  0.0742 -0.1413
  147MPD2     H 2245   1.064   1.936  12.656 -0.2180 -3.2085  1.0411
  147MPD2    H1 2246   1.034   1.967  12.227 -1.1535  1.2360  1.1699
  147MPD2    H2 2247   1.343   1.732  12.405 -0.2320  0.8360  0.2184
  147MPD2    H3 2248   1.241   1.833  12.211  0.7649  0.6441  0.2022
  147MPD2     N 2249   0.917   2.036  12.471 -0.1201 -0.0398 -0.1377
  147MPD2    H5 2250   0.886   2.035  12.568  2.2400  0.8000  0.6263
  147MPD2    N1 2251   1.293   1.775  12.645 -0.0662 -0.1692  0.4842
  147MPD2    H7 2252   1.382   1.731  12.625  0.6537  2.2385 -1.7071
  148MPD2     C 2253   0.985   0.648   9.938 -0.1233 -0.7133  0.3642
  148MPD2    C1 2254   1.098   0.572   9.921  0.0138 -0.3863 -0.0625
  148MPD2    C2 2255   1.101   0.478   9.818  0.1175 -0.3826 -0.3624
  148MPD2    C3 2256   0.991   0.457   9.741 -0.3054  0.4782 -0.3222
  148MPD2    C4 2257   0.880   0.529   9.760 -0.2363 -0.3533  0.3298
  148MPD2    C5 2258   0.876   0.622   9.863 -0.5344  0.3912  0.0388
  148MPD2     H 2259   1.188   0.416   9.800 -0.5866 -1.1619 -1.1263
  148MPD2    H1 2260   0.798   0.506   9.693  1.2149  1.2340 -1.9959
  148MPD2    H2 2261   0.981   0.731  10.008  0.3546 -2.9109  2.9711
  148MPD2    H3 2262   0.786   0.678   9.885 -0.4844  0.4799  0.0187
  148MPD2     N 2263   0.989   0.365   9.629 -0.0471  0.2563 -0.5125
  148MPD2    H5 2264   0.917   0.372   9.558 -3.1599  0.5050  2.6676
  148MPD2    N1 2265   1.221   0.605   9.988  0.0628  0.2135 -0.0821
  148MPD2    H7 2266   1.293   0.533   9.983  1.4823  1.7725 -1.9774
  149TCq2    C1 2267   1.247   0.718  10.054 -0.3893  0.2459  0.1312
  149TCq2    O2 2268   1.185   0.824  10.055  0.4841  0.5604 -0.0660
  149TCq2    C2 2269   1.374   0.718  10.114 -0.1614 -0.1321  0.1232
  149TCq2    C3 2270   1.467   0.808  10.060 -0.5053 -0.0632 -0.1640
  149TCq2    C4 2271   1.594   0.795  10.101 -0.1182 -0.5052  0.0194
  149TCq2    C5 2272   1.646   0.690  10.172  0.2313  0.3073 -0.3426
  149TCq2    C6 2273   1.545   0.613  10.236  0.8604  0.1915 -0.2172
  149TCq2    C7 2274   1.409   0.620  10.205 -0.4673 -0.2348  1.0134
  149TCq2    C8 2275   1.592   0.498  10.326 -0.1140 -0.7662 -0.0197
  149TCq2    O4 2276   1.522   0.394  10.337  0.1434 -0.3039  0.0308
  149TCq2    C9 2277   1.691   0.865  10.012 -0.0255  0.7382 -0.3757
  149TCq2    O5 2278   1.813   0.844  10.028  0.3236 -0.2244  0.6990
  149TCq2    O6 2279   1.637   0.953   9.944  0.1285  0.5907  0.2701
  149TCq2    H2 2280   1.441   0.877   9.981  0.5776 -0.6168 -1.0094
  149TCq2    H3 2281   1.754   0.681  10.177  0.3839  2.8831  1.4047
  149TCq2    H4 2282   1.333   0.546  10.229 -0.3362 -0.1873  1.5740
  150MPD2     C 2283   2.956   4.573  12.047 -0.3482  0.6723 -1.0106
  150MPD2    C1 2284   2.929   4.664  11.950  0.0317  0.4877  0.2726
  150MPD2    C2 2285   2.982   0.068  11.963  0.5705 -0.1801  0.0443
  150MPD2    C3 2286   3.058   0.103  12.074 -0.0944  0.0139 -0.0046
  150MPD2    C4 2287   3.077   0.013  12.175  0.2568  0.3468 -0.5389
  150MPD2    C5 2288   3.031   4.612  12.161 -0.0442  0.3950  0.5533
  150MPD2     H 2289   2.965   0.151  11.895 -1.3843 -0.3215  0.3525
  150MPD2    H1 2290   3.129   0.025  12.269 -2.2370 -0.6762  0.9817
  150MPD2    H2 2291   2.931   4.468  12.048  1.4605  0.2811  1.2793
  150MPD2    H3 2292   3.058   4.537  12.234 -0.1125 -0.0165  0.1554
  150MPD2     N 2293   3.098   0.238  12.088  0.4383 -0.0068 -0.0751
  150MPD2    H5 2294   3.077   0.298  12.009  3.5206  0.7584 -0.2959
  150MPD2    N1 2295   2.849   4.624  11.845  0.2134  0.4347 -0.0970
  150MPD2    H7 2296   2.816   4.528  11.843  0.4202  0.3563  0.3155
  151TCq2    C1 2297   3.167   0.288  12.191  0.2360 -0.1871 -0.1660
  151TCq2    O2 2298   3.229   0.234  12.283  0.1852  0.2215 -0.4846
  151TCq2    C2 2299   3.188   0.437  12.183 -0.2930  0.5107  0.2803
  151TCq2    C3 2300   3.120   0.518  12.092 -0.0785 -0.0984  0.4335
  151TCq2    C4 2301   3.182   0.635  12.049  0.4762  0.6126  0.1479
  151TCq2    C5 2302   3.296   0.681  12.110 -0.0736 -0.2714  0.4617
  151TCq2    C6 2303   3.357   0.603  12.203 -0.3453  0.2461  0.5422
  151TCq2    C7 2304   3.307   0.480  12.236 -0.3900  0.2091  0.4959
  151TCq2    C8 2305   3.477   0.656  12.263  0.2045 -0.0773  0.3813
  151TCq2    O4 2306   3.490   0.777  12.266  0.4788 -0.1342 -0.0732
  151TCq2    C9 2307   3.131   0.707  11.929  0.1012 -0.4716  0.3106
  151TCq2    O5 2308   3.203   0.800  11.896  0.5215 -0.2676 -0.2070
  151TCq2    O6 2309   3.030   0.664  11.876  0.6686 -0.0943  0.1684
  151TCq2    H2 2310   3.028   0.488  12.043 -0.4175  1.0291  0.3788
  151TCq2    H3 2311   3.333   0.780  12.084  1.0835 -0.7244  0.4023
  151TCq2    H4 2312   3.352   0.414  12.310 -0.4513  1.3875  1.5806
  152MPD2     C 2313   2.317   4.434  12.525 -0.2011  0.0325  0.3806
  152MPD2    C1 2314   2.363   4.504  12.410 -0.4175 -0.1241  0.3611
  152MPD2    C2 2315   2.277   4.538  12.302  0.0649 -0.2616 -0.0871
  152MPD2    C3 2316   2.144   4.503  12.317  0.5023  0.1796  0.3403
  152MPD2    C4 2317   2.100   4.427  12.426 -0.6271 -0.1455 -0.3473
  152MPD2    C5 2318   2.188   4.387  12.527 -0.5138  0.2524 -1.0593
  152MPD2     H 2319   2.306   4.593  12.214 -0.0946 -0.6612 -0.3869
  152MPD2    H1 2320   1.993   4.409  12.431 -0.8588  1.1086 -0.8867
  152MPD2    H2 2321   2.391   4.395  12.594  0.7061 -1.3164 -1.3528
  152MPD2    H3 2322   2.160   4.318  12.605  1.1846  2.3717  1.4075
  152MPD2     N 2323   2.064   4.537  12.203 -0.1128  0.4817 -0.0283
  152MPD2    H5 2324   2.123   4.569  12.128 -1.4515  1.4422 -0.6826
  152MPD2    N1 2325   2.490   4.549  12.417  0.4318 -0.1086  0.2855
  152MPD2    H7 2326   2.535   4.540  12.507 -1.6381 -0.0303  1.3265
  153TCq2    C1 2327   2.558   4.619  12.323 -0.0152 -0.0730  0.3911
  153TCq2    O2 2328   2.539   4.649  12.206  0.2304  0.3549  0.1806
  153TCq2    C2 2329   2.690   4.654  12.360  0.1114 -0.2893 -0.4387
  153TCq2    C3 2330   2.758   4.573  12.446  0.1141 -0.5678 -0.7170
  153TCq2    C4 2331   2.857   4.618  12.528 -0.6116  0.5240  0.5718
  153TCq2    C5 2332   2.895   0.026  12.524  0.1923  0.3876 -0.9321
  153TCq2    C6 2333   2.827   0.109  12.438 -0.3388 -0.1244 -0.5719
  153TCq2    C7 2334   2.720   0.059  12.362  0.0865  0.3400 -0.1185
  153TCq2    C8 2335   2.861   0.251  12.426 -0.0209 -0.1992 -0.8012
  153TCq2    O4 2336   2.805   0.311  12.334  0.2038 -0.9006 -0.4511
  153TCq2    C9 2337   2.926   4.517  12.610 -0.0334  0.1332 -0.2535
  153TCq2    O5 2338   2.880   4.404  12.599  0.7938 -0.5628  0.0925
  153TCq2    O6 2339   2.994   4.557  12.705 -0.6264 -0.1589 -0.3446
  153TCq2    H2 2340   2.744   4.466  12.439 -0.9701 -0.4734 -0.0364
  153TCq2    H3 2341   2.966   0.057  12.600 -0.3857  1.3158 -0.7818
  153TCq2    H4 2342   2.652   0.122  12.305  0.2794 -0.5057 -1.2947
  154MPD2     C 2343   4.066   4.455   0.221  0.7080  0.7577  0.3871
  154MPD2    C1 2344   4.050   4.578   0.281  0.1937  0.3979 -0.4605
  154MPD2    C2 2345   3.929   4.605   0.342 -0.3115  0.1042  0.3983
  154MPD2    C3 2346   3.826   4.518   0.344 -0.4116  0.1568 -0.4949
  154MPD2    C4 2347   3.847   4.398   0.278  0.3458  0.2649 -0.0734
  154MPD2    C5 2348   3.966   4.367   0.221 -0.3414 -0.1248  0.1003
  154MPD2     H 2349   3.914   4.700   0.390 -0.8870 -0.5015  1.4101
  154MPD2    H1 2350   3.769   4.323   0.265 -0.3929  0.6949  1.9106
  154MPD2    H2 2351   4.164   4.429   0.184  1.2322 -1.3580  3.2160
  154MPD2    H3 2352   3.986   4.266   0.187 -1.0401  0.2472 -1.3901
  154MPD2     N 2353   3.706   4.543   0.416  0.7524 -0.4036  0.1589
  154MPD2    H5 2354   3.686   4.637   0.448 -2.7614 -1.0949 -0.0408
  154MPD2    N1 2355   4.164   4.658   0.286 -0.2549 -0.3170 -0.0092
  154MPD2    H7 2356   4.248   4.621   0.244 -0.8149 -1.3898 -0.1912
  155TCq2    C1 2357   4.178   0.046   0.365 -0.0608  0.6910 -0.6621
  155TCq2    O2 2358   4.110   0.096   0.453  0.3017 -0.2482  0.2236
  155TCq2    C2 2359   4.300   0.103   0.339 -0.4296  0.7307 -0.1347
  155TCq2    C3 2360   4.376   0.144   0.441  0.2990 -0.5078  0.0897
  155TCq2    C4 2361   4.508   0.155   0.432 -0.1021  0.3077  0.1638
  155TCq2    C5 2362   4.576   0.115   0.322 -0.2631  0.3429  0.1289
  155TCq2    C6 2363   4.506   0.078   0.218  0.2183  0.7540  0.5744
  155TCq2    C7 2364   4.366   0.066   0.222 -0.0132 -0.4436 -0.4547
  155TCq2    C8 2365   4.572   0.013   0.108  0.1692 -0.0918  0.0662
  155TCq2    O4 2366   4.501   4.656   0.042 -0.1978 -0.5260  0.1790
  155TCq2    C9 2367   4.575   0.189   0.551 -0.0252  0.1397  0.0689
  155TCq2    O5 2368   4.698   0.184   0.553  0.7139 -0.2842 -0.3193
  155TCq2    O6 2369   4.507   0.245   0.645 -0.3505 -0.0784  0.5083
  155TCq2    H2 2370   4.321   0.149   0.534  1.4599 -0.1702  0.7538
  155TCq2    H3 2371   4.684   0.113   0.333 -0.4307  0.6507  1.8532
  155TCq2    H4 2372   4.313   0.049   0.130 -0.2370 -0.6796 -0.2808
  156MPD2     C 2373   3.865   2.579  12.463  0.6197  0.2012  0.0191
  156MPD2    C1 2374   3.741   2.571  12.404 -0.0425 -0.0326  0.7368
  156MPD2    C2 2375   3.659   2.679  12.398 -0.3278  0.2747  0.1243
  156MPD2    C3 2376   3.702   2.805  12.430 -0.1319  0.2170 -0.0653
  156MPD2    C4 2377   3.829   2.815  12.490 -0.1235  0.4122  0.2617
  156MPD2    C5 2378   3.907   2.702  12.515 -0.4324  0.2060 -0.0683
  156MPD2     H 2379   3.558   2.663  12.362  0.2494  0.2119 -1.4354
  156MPD2    H1 2380   3.858   2.913  12.528  0.4497  0.8158 -1.1879
  156MPD2    H2 2381   3.927   2.491  12.478  0.5385 -0.1771 -1.8830
  156MPD2    H3 2382   4.003   2.713  12.564 -1.4422  3.5227  1.1495
  156MPD2     N 2383   3.627   2.921  12.417 -0.1938 -0.1184  0.0162
  156MPD2    H5 2384   3.667   3.010  12.445 -1.8446  0.1587  1.4705
  156MPD2    N1 2385   3.704   2.451  12.337 -0.1463 -0.8416 -0.2194
  156MPD2    H7 2386   3.779   2.382  12.335  0.6453  0.0182 -0.5463
  157TCq2    C1 2387   3.581   2.416  12.284 -0.4065 -0.4794 -0.5656
  157TCq2    O2 2388   3.473   2.474  12.287  0.0486  1.0353  0.0690
  157TCq2    C2 2389   3.588   2.290  12.202 -0.2137 -0.1435 -0.3110
  157TCq2    C3 2390   3.711   2.227  12.192  0.4860 -0.3515 -0.3737
  157TCq2    C4 2391   3.721   2.124  12.101  0.7178  0.0343 -0.1296
  157TCq2    C5 2392   3.608   2.087  12.025 -0.3591  0.0821  0.0231
  157TCq2    C6 2393   3.492   2.162  12.032  0.4207 -0.1312 -0.0933
  157TCq2    C7 2394   3.476   2.256  12.130 -0.0888 -0.5728  1.2177
  157TCq2    C8 2395   3.418   2.192  11.910 -0.3696  0.0509 -0.2076
  157TCq2    O4 2396   3.333   2.282  11.909  0.6408 -0.2437 -0.1274
  157TCq2    C9 2397   3.848   2.053  12.088 -0.7003 -0.3445 -0.1332
  157TCq2    O5 2398   3.947   2.110  12.138 -0.0265  0.3052  0.5510
  157TCq2    O6 2399   3.846   1.951  12.005 -0.2371 -0.3757  0.2045
  157TCq2    H2 2400   3.797   2.245  12.255 -0.2234 -2.1388  1.0780
  157TCq2    H3 2401   3.616   1.998  11.963 -3.2719 -0.2094  0.0576
  157TCq2    H4 2402   3.381   2.308  12.136  1.6125  2.8382 -0.8953
  158TMC2    C1 2403   2.857   1.135  13.147  0.3071 -0.1966 -1.1550
  158TMC2    C2 2404   2.907   1.197  13.043  0.2341 -0.6860 -0.6066
  158TMC2    C3 2405   2.820   1.258  12.958  0.1479 -0.4848  0.2880
  158TMC2    C4 2406   2.724   1.149  13.177  0.5308  0.1828  0.2097
  158TMC2    C5 2407   2.640   1.211  13.090  0.3852  0.3001 -0.1930
  158TMC2    C6 2408   2.683   1.258  12.972  0.4430 -0.2089  0.4098
  158TMC2     C 2409   2.949   1.060  13.237  0.1378 -0.3037  0.0847
  158TMC2     O 2410   3.064   1.043  13.198 -0.2704 -0.2444  0.5647
  158TMC2     H 2411   3.015   1.205  13.034  0.2833 -0.3818  0.2248
  158TMC2    H1 2412   2.681   1.096  13.261 -2.6357 -0.7136 -1.9902
  158TMC2    H2 2413   2.612   1.324  12.924  0.2909 -0.2852  0.5284
  158TMC2    C7 2414   2.494   1.216  13.121 -0.0912  0.0249  0.1768
  158TMC2    C8 2415   2.880   1.327  12.849 -0.2227 -0.4524 -0.4118
  158TMC2    O1 2416   2.430   1.290  13.048  0.3647  0.0649 -0.2613
  158TMC2    O2 2417   3.002   1.358  12.842 -0.1670 -0.3431  0.6623
  158TMC2    O5 2418   2.781   1.390  12.777  0.2886  0.2521 -0.1062
  158TMC2    H5 2419   2.695   1.346  12.794  1.3631 -1.3272  1.1405
  159MPD2     C 2420   3.120   0.855  13.670  0.4234 -0.1176 -0.8723
  159MPD2    C1 2421   3.012   0.941  13.695  0.2937 -0.2694 -0.0781
  159MPD2    C2 2422   2.946   1.004  13.589  0.1108 -0.2930  0.4776
  159MPD2    C3 2423   2.985   0.974  13.462  0.2984 -0.3653 -0.2365
  159MPD2    C4 2424   3.087   0.885  13.436 -0.0130 -0.0075  0.4243
  159MPD2    C5 2425   3.154   0.829  13.537  0.0125  0.4420 -0.0570
  159MPD2     H 2426   2.862   1.072  13.603  0.1320 -0.1320 -0.1596
  159MPD2    H1 2427   3.119   0.871  13.333  0.5432 -1.7877  0.8332
  159MPD2    H2 2428   3.178   0.806  13.747  0.2873 -1.4023 -1.6019
  159MPD2    H3 2429   3.238   0.763  13.519 -0.0303  0.1422  0.8304
  159MPD2     N 2430   2.906   1.045  13.365  0.0481 -0.0988  0.5823
  159MPD2    H5 2431   2.824   1.093  13.402 -0.8077 -1.4984  0.5197
  159MPD2    N1 2432   2.976   0.968  13.830 -0.3219 -0.4806 -0.3236
  159MPD2    H7 2433   3.034   0.921  13.900  1.3256  0.2355 -1.2040
  160TMC2    C1 2434   2.086   3.546   1.349 -0.1687 -0.4440  0.5427
  160TMC2    C2 2435   2.184   3.462   1.399 -0.4366 -0.3543  0.1141
  160TMC2    C3 2436   2.273   3.417   1.299 -0.1642 -0.3155  0.0264
  160TMC2    C4 2437   2.069   3.585   1.215  0.3297  0.8613  0.1773
  160TMC2    C5 2438   2.162   3.532   1.123 -0.1089 -0.7081  0.4381
  160TMC2    C6 2439   2.256   3.439   1.163 -0.0200  0.6848  0.0598
  160TMC2     C 2440   2.025   3.619   1.448 -0.1113 -0.3082 -0.0531
  160TMC2     O 2441   2.086   3.626   1.554 -0.2494 -0.0018 -0.0637
  160TMC2     H 2442   2.195   3.431   1.502 -1.8322 -0.7559  0.1524
  160TMC2    H1 2443   1.983   3.641   1.181 -0.9902  0.0241  2.1560
  160TMC2    H2 2444   2.310   3.381   1.089 -0.2318 -0.0492  0.4803
  160TMC2    C7 2445   2.168   3.588   0.992 -0.2537 -0.2889 -0.1530
  160TMC2    C8 2446   2.340   3.293   1.340  0.1390 -0.0480  0.2186
  160TMC2    O1 2447   2.066   3.618   0.933 -0.2337 -0.3601 -0.3523
  160TMC2    O2 2448   2.320   3.234   1.443  0.3705  0.0647  0.6919
  160TMC2    O5 2449   2.445   3.280   1.253 -0.8141  0.3536  0.0736
  160TMC2    H5 2450   2.451   3.339   1.175  3.9498  0.3095  0.3796
  161MPD2     C 2451   1.866   3.834   1.587  0.7594 -0.4032  0.3545
  161MPD2    C1 2452   1.822   3.764   1.477  0.1532 -0.3335 -0.1803
  161MPD2    C2 2453   1.695   3.783   1.442 -0.5278 -0.0813 -0.2160
  161MPD2    C3 2454   1.613   3.880   1.496 -0.7193  0.1398  0.4922
  161MPD2    C4 2455   1.662   3.956   1.602  0.8139  0.2986 -0.5036
  161MPD2    C5 2456   1.788   3.930   1.642 -0.7886  0.6816  0.0306
  161MPD2     H 2457   1.651   3.723   1.363  0.9675 -0.2938 -0.8917
  161MPD2    H1 2458   1.621   4.053   1.630 -1.7850 -0.9182 -0.1169
  161MPD2    H2 2459   1.969   3.823   1.619  1.2179 -0.0302 -0.9756
  161MPD2    H3 2460   1.840   3.986   1.719 -1.1783 -0.1369  0.8858
  161MPD2     N 2461   1.476   3.899   1.455 -0.6799  0.4008 -0.4354
  161MPD2    H5 2462   1.434   3.969   1.514  2.2992 -0.0254  2.1804
  161MPD2    N1 2463   1.901   3.662   1.412  0.3375  0.1067  0.3908
  161MPD2    H7 2464   1.858   3.619   1.331  1.6341  1.4724 -1.0048
  162TMC2    C1 2465   0.566   1.530   0.803  0.7192  0.3646 -0.7825
  162TMC2    C2 2466   0.567   1.667   0.824  0.5952 -0.4747  0.5070
  162TMC2    C3 2467   0.458   1.720   0.880 -0.1209  0.2640  0.1983
  162TMC2    C4 2468   0.453   1.456   0.839  0.4951 -0.5378 -0.2598
  162TMC2    C5 2469   0.342   1.516   0.895  0.5724  0.4549 -0.2056
  162TMC2    C6 2470   0.351   1.650   0.919 -0.1237  1.0125  0.0571
  162TMC2     C 2471   0.685   1.453   0.759 -0.0711  0.3081 -0.2498
  162TMC2     O 2472   0.670   1.343   0.712  0.8598  0.2621  0.1036
  162TMC2     H 2473   0.650   1.732   0.804  0.2177  0.2181  1.2089
  162TMC2    H1 2474   0.445   1.353   0.808  0.4547 -1.1157  1.6949
  162TMC2    H2 2475   0.264   1.705   0.951 -1.1607 -0.5648 -0.0383
  162TMC2    C7 2476   0.223   1.449   0.933 -0.2741  0.4574  0.6940
  162TMC2    C8 2477   0.451   1.862   0.894  0.7669 -0.0712  0.1384
  162TMC2    O1 2478   0.121   1.508   0.965 -0.4644 -0.5276  0.0877
  162TMC2    O2 2479   0.507   1.945   0.825 -0.0520  0.3638 -0.2670
  162TMC2    O5 2480   0.427   1.885   1.022 -0.9656 -0.3180  0.4486
  162TMC2    H5 2481   0.398   1.801   1.063 -1.7194  0.1400  0.8693
  163MPD2     C 2482   1.147   1.483   0.549 -0.2023  0.4010  0.6904
  163MPD2    C1 2483   1.070   1.372   0.570 -0.0341 -1.4256 -0.4615
  163MPD2    C2 2484   0.954   1.387   0.636  0.7960  0.0054  0.3329
  163MPD2    C3 2485   0.907   1.513   0.678  0.3624 -0.2607 -0.1205
  163MPD2    C4 2486   0.982   1.623   0.639 -1.0751  0.1025 -0.1766
  163MPD2    C5 2487   1.103   1.604   0.580 -0.4822 -0.0753  0.0019
  163MPD2     H 2488   0.902   1.295   0.660 -0.6824  0.4740 -1.1376
  163MPD2    H1 2489   0.949   1.720   0.673  2.3485  0.6120  1.7218
  163MPD2    H2 2490   1.245   1.489   0.503 -0.6328 -0.3559 -0.3315
  163MPD2    H3 2491   1.170   1.690   0.574  0.5526 -0.7970  1.0917
  163MPD2     N 2492   0.791   1.541   0.748  0.0880 -0.2786  0.1123
  163MPD2    H5 2493   0.793   1.633   0.791 -2.0255 -1.5150  2.8545
  163MPD2    N1 2494   1.121   1.257   0.510  0.5251  0.8158  0.1022
  163MPD2    H7 2495   1.208   1.267   0.458 -1.0588 -0.6833 -2.8193
  164TCq2    C1 2496   1.832   1.386  11.118 -0.3678 -0.1329 -0.6265
  164TCq2    O2 2497   1.954   1.396  11.120  0.0683  0.2510  0.3051
  164TCq2    C2 2498   1.775   1.327  11.235 -0.1544 -0.1283 -0.6331
  164TCq2    C3 2499   1.845   1.247  11.322 -0.4729 -1.0850 -0.0634
  164TCq2    C4 2500   1.794   1.199  11.439 -1.2744 -0.0362 -0.1999
  164TCq2    C5 2501   1.669   1.236  11.467  0.8896 -0.5818 -0.0466
  164TCq2    C6 2502   1.598   1.314  11.383 -0.1857 -0.2246 -0.6118
  164TCq2    C7 2503   1.652   1.367  11.276 -0.6326 -0.1861 -1.4862
  164TCq2    C8 2504   1.453   1.332  11.395 -0.4057  0.6645 -0.3667
  164TCq2    O4 2505   1.389   1.350  11.292  0.5593  0.5001 -0.0277
  164TCq2    C9 2506   1.862   1.100  11.519 -0.0708 -0.0970 -0.3305
  164TCq2    O5 2507   1.804   1.075  11.630  0.1467  0.2997 -0.4201
  164TCq2    O6 2508   1.960   1.039  11.462  0.3227  0.4977  0.7364
  164TCq2    H2 2509   1.936   1.199  11.288 -0.3528  0.7836 -2.4052
  164TCq2    H3 2510   1.623   1.193  11.556  0.6760 -1.3394 -0.5244
  164TCq2    H4 2511   1.597   1.430  11.206 -0.4527  0.1297 -1.3468
  165MPD2     C 2512   2.543   2.062   2.622  0.2351 -0.4074 -0.9523
  165MPD2    C1 2513   2.580   2.053   2.487 -1.2980 -0.0168  0.6119
  165MPD2    C2 2514   2.601   2.172   2.415 -0.1144 -0.2606 -0.4930
  165MPD2    C3 2515   2.598   2.293   2.477 -0.4752  0.6527 -0.4311
  165MPD2    C4 2516   2.552   2.295   2.609 -0.1090  0.1070 -0.2900
  165MPD2    C5 2517   2.520   2.183   2.682 -0.1882 -0.1766  0.1499
  165MPD2     H 2518   2.632   2.166   2.311  1.9454 -0.9412  0.1551
  165MPD2    H1 2519   2.555   2.391   2.658  0.9721 -0.9443  1.7226
  165MPD2    H2 2520   2.527   1.970   2.676 -1.0451  0.6139  0.3866
  165MPD2    H3 2521   2.500   2.183   2.789 -0.5616 -1.8994  0.0811
  165MPD2     N 2522   2.625   2.414   2.411  0.6447 -0.9054  0.3685
  165MPD2    H5 2523   2.617   2.492   2.475 -2.1984 -0.0917 -0.9838
  165MPD2    N1 2524   2.582   1.923   2.421  0.1044  0.4688  0.2532
  165MPD2    H7 2525   2.569   1.845   2.484 -2.5708  1.4930  0.9624
  166TCq2    C1 2526   2.653   2.435   2.277 -0.2316 -0.5188 -0.2537
  166TCq2    O2 2527   2.667   2.354   2.184 -0.0953 -0.3899 -0.1810
  166TCq2    C2 2528   2.688   2.579   2.255 -0.3375 -0.1177  0.6337
  166TCq2    C3 2529   2.680   2.675   2.353 -0.1624 -0.3432  0.0294
  166TCq2    C4 2530   2.665   2.806   2.312  1.3663  0.1235  0.6012
  166TCq2    C5 2531   2.669   2.833   2.182 -0.0961  0.3782  0.4967
  166TCq2    C6 2532   2.693   2.741   2.087  0.5444  0.7427 -0.0893
  166TCq2    C7 2533   2.698   2.606   2.123 -0.3963  0.1508  0.3982
  166TCq2    C8 2534   2.724   2.780   1.949  0.0957  0.0945 -0.2108
  166TCq2    O4 2535   2.776   2.698   1.875 -0.5655 -0.2744 -0.3044
  166TCq2    C9 2536   2.671   2.915   2.404 -0.2195  0.7312 -0.0516
  166TCq2    O5 2537   2.680   3.033   2.358  0.2241 -0.4852 -0.1894
  166TCq2    O6 2538   2.683   2.888   2.529  0.6807  0.1381 -0.0442
  166TCq2    H2 2539   2.692   2.647   2.457 -2.6739  0.2513  0.4747
  166TCq2    H3 2540   2.666   2.938   2.158 -1.2440  0.4068  0.7883
  166TCq2    H4 2541   2.714   2.529   2.049 -0.4902  0.5754 -0.0629
  167TMC2    C1 2542   1.246   0.079  12.553  0.5911  0.1034 -0.1434
  167TMC2    C2 2543   1.131   0.095  12.613  0.3549  0.0876 -0.7925
  167TMC2    C3 2544   1.058   4.705  12.648  0.6698 -0.0548 -0.4136
  167TMC2    C4 2545   1.299   4.671  12.530 -0.0689 -0.2150  0.0154
  167TMC2    C5 2546   1.214   4.567  12.555 -0.1809 -0.3862  0.0481
  167TMC2    C6 2547   1.099   4.582  12.625  0.1017  0.1148 -0.4390
  167TMC2     C 2548   1.322   0.187  12.489  0.7870 -0.9170 -0.6153
  167TMC2     O 2549   1.438   0.170  12.451 -0.0858  0.0907 -0.1197
  167TMC2     H 2550   1.091   0.194  12.632 -1.6087 -0.9481  0.5123
  167TMC2    H1 2551   1.382   4.661  12.462  1.1845 -2.9261  1.9293
  167TMC2    H2 2552   1.032   4.497  12.633 -0.9523  1.1630  1.8669
  167TMC2    C7 2553   1.261   4.431  12.525 -0.1915  0.2065 -0.0271
  167TMC2    C8 2554   0.918   0.002  12.680  0.7665 -0.1177 -0.3704
  167TMC2    O1 2555   1.227   4.334  12.593 -0.1643 -0.6441  0.2619
  167TMC2    O2 2556   0.854   0.095  12.635  0.6040  0.3262  0.1180
  167TMC2    O5 2557   0.896   4.646  12.788  0.1294  0.1336 -0.3133
  167TMC2    H5 2558   0.985   4.624  12.824  0.1582 -1.3131 -1.3149
  168MPD2     C 2559   1.406   0.459  12.398 -1.1761 -0.2221 -0.1746
  168MPD2    C1 2560   1.278   0.416  12.411 -1.0510  0.1806  0.0523
  168MPD2    C2 2561   1.176   0.510  12.399  0.5210 -0.1844  0.9134
  168MPD2    C3 2562   1.202   0.629  12.347 -0.8877 -0.7684  0.3953
  168MPD2    C4 2563   1.331   0.671  12.325  0.3332  0.1358 -0.6385
  168MPD2    C5 2564   1.435   0.582  12.349 -0.1973  0.1289  0.3150
  168MPD2     H 2565   1.071   0.493  12.418 -0.0883  0.0173 -2.3152
  168MPD2    H1 2566   1.355   0.768  12.282  2.4627 -0.1493 -0.0694
  168MPD2    H2 2567   1.496   0.401  12.415 -2.4486 -2.2295 -0.2085
  168MPD2    H3 2568   1.534   0.625  12.339 -0.4988  0.4173 -1.5433
  168MPD2     N 2569   1.096   0.722  12.322  0.1725  0.0533 -0.2405
  168MPD2    H5 2570   1.000   0.706  12.351 -1.4440  2.6583 -4.0693
  168MPD2    N1 2571   1.243   0.297  12.473 -0.2707 -0.5588 -0.1749
  168MPD2    H7 2572   1.145   0.286  12.497 -0.4063  1.1177  0.0281
  169MPD1     C 2573   3.769   4.126   9.829  0.1468  0.1232 -0.1749
  169MPD1    C1 2574   3.853   4.234   9.790  0.1037  0.1050  0.2078
  169MPD1    C2 2575   3.855   4.271   9.663  0.2152  0.2680  0.1641
  169MPD1    C3 2576   3.772   4.218   9.565  0.1549  0.7471 -0.5277
  169MPD1    C4 2577   3.679   4.123   9.609  0.0922  0.3107  0.0226
  169MPD1    C5 2578   3.686   4.070   9.735 -0.3030 -0.3164 -0.4853
  169MPD1     H 2579   3.926   4.346   9.630 -0.1998  1.1177  1.2240
  169MPD1    H1 2580   3.604   4.079   9.545 -0.7969  1.9281 -0.0654
  169MPD1    H2 2581   3.770   4.092   9.932  3.3328 -1.1452 -0.6286
  169MPD1    H3 2582   3.612   4.000   9.772 -0.6279 -1.3904 -3.1583
  169MPD1     N 2583   3.773   4.254   9.428  0.0096  0.8394 -0.0011
  169MPD1    H5 2584   3.700   4.214   9.370 -0.4191  0.5800  0.7204
  169MPD1    N1 2585   3.952   4.282   9.878  0.4457  0.0450  0.1112
  169MPD1    H6 2586   3.905   4.283   9.968 -2.6439 -3.0185 -1.4588
  169MPD1    H7 2587   3.991   4.375   9.867  0.6261 -0.1992 -1.4085
  170MPD1     C 2588   2.072   2.791  12.734 -0.0886 -0.0996 -0.2770
  170MPD1    C1 2589   1.982   2.887  12.710 -0.1977  0.5105 -0.3692
  170MPD1    C2 2590   1.946   2.968  12.815  0.6246 -0.2979  0.0080
  170MPD1    C3 2591   1.993   2.967  12.942 -0.3839 -0.0249 -0.0025
  170MPD1    C4 2592   2.084   2.865  12.967  0.3759 -0.7298 -0.5192
  170MPD1    C5 2593   2.125   2.780  12.860 -0.1918  0.5692 -0.1297
  170MPD1     H 2594   1.868   3.043  12.802 -0.5662 -1.7141 -1.0191
  170MPD1    H1 2595   2.129   2.856  13.065  2.6523 -1.9625 -1.6633
  170MPD1    H2 2596   2.100   2.738  12.644 -0.4726  0.7757 -0.9133
  170MPD1    H3 2597   2.217   2.725  12.872 -0.3148  0.5337  0.6376
  170MPD1     N 2598   1.939   3.046  13.036 -0.0818  0.6564 -0.3791
  170MPD1    H5 2599   1.872   3.113  13.000 -1.3944 -1.0960 -1.2008
  170MPD1    N1 2600   1.892   2.889  12.598 -0.3612 -0.2605  0.0220
  170MPD1    H6 2601   1.843   2.976  12.585 -0.3934 -0.3513 -0.4586
  170MPD1    H7 2602   1.931   2.858  12.509  0.0221 -1.5413  0.6233
  171MPD1     C 2603   0.402   3.343  14.519 -1.0808  0.2641  1.0308
  171MPD1    C1 2604   0.296   3.360  14.606 -0.7147 -0.5774  0.8951
  171MPD1    C2 2605   0.314   3.377  14.741  0.0750  0.1948 -0.5962
  171MPD1    C3 2606   0.442   3.373  14.794 -0.1819 -0.0690  0.1357
  171MPD1    C4 2607   0.545   3.340  14.712 -0.0702  0.0353  0.0364
  171MPD1    C5 2608   0.527   3.337  14.575  0.8878  0.0973 -0.7011
  171MPD1     H 2609   0.230   3.396  14.806 -0.1294  3.2838 -1.7261
  171MPD1    H1 2610   0.641   3.316  14.755 -0.3576  1.0215  1.2081
  171MPD1    H2 2611   0.383   3.343  14.412 -1.3395  0.1451  1.0750
  171MPD1    H3 2612   0.608   3.321  14.505  1.4562  0.5019 -0.1329
  171MPD1     N 2613   0.455   3.385  14.935  0.4238  0.1075 -0.0114
  171MPD1    H5 2614   0.546   3.364  14.975  0.7294  0.1064 -0.7185
  171MPD1    N1 2615   0.176   3.391  14.543 -0.3868 -0.4623 -0.1390
  171MPD1    H6 2616   0.161   3.313  14.480  0.6339  1.4493 -2.7464
  171MPD1    H7 2617   0.098   3.393  14.609 -1.0661 -0.3706 -0.9408
  172MPD1     C 2618   3.793   2.367  17.637 -0.1003 -0.4691 -0.6920
  172MPD1    C1 2619   3.757   2.474   0.022  0.1637 -0.1356 -0.5502
  172MPD1    C2 2620   3.830   2.586   0.024  0.6304  0.4622 -0.3675
  172MPD1    C3 2621   3.959   2.591  17.669 -0.5018  0.6605 -0.3203
  172MPD1    C4 2622   4.006   2.479  17.610  0.2769  0.0378  0.1641
  172MPD1    C5 2623   3.922   2.372  17.589 -0.7217  0.0940 -0.7547
  172MPD1     H 2624   3.786   2.673   0.071  0.3035 -1.3334  2.7330
  172MPD1    H1 2625   4.102   2.469  17.560  1.8950 -1.1000  3.4396
  172MPD1    H2 2626   3.721   2.290  17.613  0.8828 -0.7865 -2.5786
  172MPD1    H3 2627   3.968   2.289  17.537  2.0949  2.5698 -2.2124
  172MPD1     N 2628   4.036   2.704  17.686  0.4762 -0.0803  0.5046
  172MPD1    H5 2629   4.121   2.714  17.631 -0.8377  0.4126 -1.4448
  172MPD1    N1 2630   3.628   2.479   0.073 -0.1314  0.2238 -0.2848
  172MPD1    H6 2631   3.594   2.385   0.091  0.2697 -0.3203 -2.5242
  172MPD1    H7 2632   3.621   2.537   0.157  1.3512  0.4745 -0.3408
  173MPD1     C 2633   1.470   3.218  14.094 -0.0103  0.9316 -0.0267
  173MPD1    C1 2634   1.373   3.170  14.015  0.1123  0.2918 -0.6571
  173MPD1    C2 2635   1.271   3.098  14.065  0.3387 -1.0192 -0.5556
  173MPD1    C3 2636   1.264   3.078  14.206 -0.6193 -0.3615  0.2335
  173MPD1    C4 2637   1.365   3.130  14.285  0.4362 -0.0186  0.0290
  173MPD1    C5 2638   1.467   3.198  14.230  0.1958 -0.4004  0.4661
  173MPD1     H 2639   1.202   3.060  13.991 -0.4011  1.3506 -1.0655
  173MPD1    H1 2640   1.357   3.124  14.393 -1.3665  5.3750  0.2141
  173MPD1    H2 2641   1.559   3.263  14.051  0.7735  0.0994  0.7001
  173MPD1    H3 2642   1.546   3.241  14.291 -0.8067  0.2954  1.2690
  173MPD1     N 2643   1.162   2.993  14.257 -0.0734 -0.2344  0.3549
  173MPD1    H5 2644   1.121   2.923  14.196  0.9807  1.2247 -1.9922
  173MPD1    N1 2645   1.391   3.162  13.877  0.7435  0.9385 -0.0795
  173MPD1    H6 2646   1.300   3.155  13.833  0.1520  1.4178  1.0810
  173MPD1    H7 2647   1.437   3.247  13.842 -0.7834  0.3679 -3.5230
  174MPD1     C 2648   0.725   2.433  13.844  0.4901  0.4404 -0.2680
  174MPD1    C1 2649   0.624   2.486  13.924  0.0683  0.4064  0.4613
  174MPD1    C2 2650   0.662   2.534  14.048  0.0891  0.5046  0.5561
  174MPD1    C3 2651   0.791   2.571  14.068  0.7926  0.1654 -0.2367
  174MPD1    C4 2652   0.885   2.544  13.974 -0.1152  0.2871  0.2683
  174MPD1    C5 2653   0.852   2.472  13.865  0.3727 -0.5751  0.1301
  174MPD1     H 2654   0.588   2.566  14.120  0.2089  0.8989  0.5028
  174MPD1    H1 2655   0.991   2.559  13.993  0.4677  0.7762 -3.4769
  174MPD1    H2 2656   0.702   2.387  13.749  2.1787 -1.2970  0.1777
  174MPD1    H3 2657   0.929   2.441  13.796 -1.6690 -3.1149 -1.0176
  174MPD1     N 2658   0.835   2.636  14.184 -1.1504 -0.1107  0.0397
  174MPD1    H5 2659   0.933   2.662  14.177 -1.0859  0.0279  1.4022
  174MPD1    N1 2660   0.496   2.434  13.900 -0.3902  0.1884 -0.4740
  174MPD1    H6 2661   0.487   2.420  13.799  1.5488 -0.4615 -0.5552
  174MPD1    H7 2662   0.417   2.490  13.931 -2.5385 -2.2383 -1.5535
  175MPD1     C 2663   4.049   4.118  14.983  0.1508 -0.0521 -0.4032
  175MPD1    C1 2664   3.980   4.048  15.084 -0.1737  0.3873 -0.6028
  175MPD1    C2 2665   3.969   4.105  15.209  0.1748  1.2925  0.0397
  175MPD1    C3 2666   4.022   4.231  15.228  0.0682  0.9109  0.7666
  175MPD1    C4 2667   4.083   4.299  15.126  0.0012  0.0266 -0.4210
  175MPD1    C5 2668   4.103   4.241  15.003 -0.4286  0.2231 -0.1836
  175MPD1     H 2669   3.918   4.050  15.286  1.6455 -1.0695 -0.6700
  175MPD1    H1 2670   4.127   4.398  15.130  1.2435 -0.5467  0.2527
  175MPD1    H2 2671   4.074   4.070  14.888 -0.7026  0.8347 -1.0747
  175MPD1    H3 2672   4.151   4.301  14.927  0.6477 -0.5367 -0.1132
  175MPD1     N 2673   4.021   4.299  15.357 -0.2010  0.0144 -0.6174
  175MPD1    H5 2674   4.079   4.381  15.375 -0.2255 -0.1888  0.3582
  175MPD1    N1 2675   3.919   3.924  15.074  0.3100 -0.8879 -0.0594
  175MPD1    H6 2676   3.937   3.875  15.161  1.9204  0.0052  0.1045
  175MPD1    H7 2677   3.962   3.872  14.997  1.3762  0.8514 -0.6421
  176MPD1     C 2678   1.139   0.607  16.288 -1.0661 -0.2170  0.7934
  176MPD1    C1 2679   1.133   0.738  16.324  0.3400 -0.1085  0.0592
  176MPD1    C2 2680   1.144   0.769  16.455  0.1267 -0.0821 -0.3709
  176MPD1    C3 2681   1.141   0.674  16.559  0.0289 -0.3283 -0.1834
  176MPD1    C4 2682   1.134   0.542  16.517  0.1109  0.0620  0.4703
  176MPD1    C5 2683   1.144   0.506  16.385  0.1023 -0.8845  0.0361
  176MPD1     H 2684   1.170   0.867  16.494  0.2259  0.0364 -0.7369
  176MPD1    H1 2685   1.133   0.464  16.592  0.3723 -0.6512 -0.2718
  176MPD1    H2 2686   1.148   0.585  16.182  0.3851 -0.2607  0.9261
  176MPD1    H3 2687   1.152   0.402  16.355 -0.7386 -1.6166  2.3785
  176MPD1     N 2688   1.135   0.712  16.692 -0.3761  0.9960  0.3409
  176MPD1    H5 2689   1.146   0.811  16.712  0.5835  1.1283 -0.8105
  176MPD1    N1 2690   1.161   0.831  16.222  0.2663 -0.2220  0.2424
  176MPD1    H6 2691   1.126   0.798  16.132 -1.4027  0.5244  0.6175
  176MPD1    H7 2692   1.143   0.929  16.241 -0.1842 -0.2131 -0.2306
  177MPD1     C 2693   4.323   0.363   8.966  0.3024  0.2958  0.0668
  177MPD1    C1 2694   4.231   0.340   9.068 -0.3811 -1.1593 -0.4138
  177MPD1    C2 2695   4.197   0.445   9.153 -0.0591  0.0212  0.7599
  177MPD1    C3 2696   4.285   0.549   9.161  0.2558  0.2908  0.8476
  177MPD1    C4 2697   4.389   0.560   9.071  0.3027  0.3738  0.2673
  177MPD1    C5 2698   4.407   0.469   8.974 -0.2706  0.0268 -0.3832
  177MPD1     H 2699   4.112   0.440   9.219  0.6955 -0.8770  1.6653
  177MPD1    H1 2700   4.466   0.637   9.074  0.5141  0.1407  0.8264
  177MPD1    H2 2701   4.346   0.288   8.890 -1.1137  0.1487 -0.2103
  177MPD1    H3 2702   4.489   0.477   8.904 -1.5827  0.1894 -1.8994
  177MPD1     N 2703   4.258   0.645   9.264  0.2811  0.3336 -0.0723
  177MPD1    H5 2704   4.188   0.620   9.333  0.0057  0.3927 -0.3330
  177MPD1    N1 2705   4.146   0.230   9.057 -0.0361 -0.0613 -0.1271
  177MPD1    H6 2706   4.087   0.219   9.139 -1.9910 -1.2431 -1.6970
  177MPD1    H7 2707   4.188   0.143   9.028 -0.8849  0.1900 -2.0963
  178MPD1     C 2708   1.852   2.342   0.381  0.7205 -0.1979  0.1737
  178MPD1    C1 2709   1.862   2.208   0.347  0.6437 -0.6758 -0.1989
  178MPD1    C2 2710   1.866   2.179   0.209 -0.3572 -0.6960 -0.0497
  178MPD1    C3 2711   1.872   2.271   0.114 -0.7200 -0.0151  1.1310
  178MPD1    C4 2712   1.892   2.408   0.149  0.0388 -0.1301 -1.0442
  178MPD1    C5 2713   1.868   2.438   0.281  0.0412  0.2998  0.1344
  178MPD1     H 2714   1.852   2.075   0.182  0.3780 -0.1355 -2.5818
  178MPD1    H1 2715   1.920   2.488   0.082  0.9468  1.9878  1.8721
  178MPD1    H2 2716   1.844   2.368   0.486  2.5994 -0.4702  0.3902
  178MPD1    H3 2717   1.867   2.541   0.316  0.7618 -0.0950  1.3301
  178MPD1     N 2718   1.879   2.237  17.671 -0.1301 -0.2130 -0.6101
  178MPD1    H5 2719   1.893   2.314  17.606  1.0364 -0.1124 -0.2562
  178MPD1    N1 2720   1.844   2.110   0.444  0.4913  0.1413  0.3909
  178MPD1    H6 2721   1.896   2.128   0.529 -0.0709 -0.8415  0.9367
  178MPD1    H7 2722   1.881   2.026   0.400 -1.0479 -0.6869  0.6947
  179MPD1     C 2723   1.844   4.352  15.122  0.2661 -0.5225  0.4270
  179MPD1    C1 2724   1.742   4.266  15.157  0.3291  0.1550  0.4433
  179MPD1    C2 2725   1.686   4.282  15.284 -0.0868 -0.2724 -0.0237
  179MPD1    C3 2726   1.746   4.378  15.367 -0.6046  0.2854 -0.3577
  179MPD1    C4 2727   1.851   4.457  15.332  0.8217 -0.2424 -0.7983
  179MPD1    C5 2728   1.899   4.442  15.204 -0.3585  0.1246 -0.7317
  179MPD1     H 2729   1.604   4.223  15.323 -0.2688 -0.2728 -0.4048
  179MPD1    H1 2730   1.894   4.531  15.399  0.1583 -0.0723 -0.5566
  179MPD1    H2 2731   1.887   4.353  15.022 -1.9107 -0.0778 -0.5059
  179MPD1    H3 2732   1.981   4.507  15.177  0.0037 -1.0697 -2.5120
  179MPD1     N 2733   1.686   4.421  15.491  0.1580 -0.4640  0.2944
  179MPD1    H5 2734   1.729   4.499  15.540 -1.7323  0.1717  0.9414
  179MPD1    N1 2735   1.688   4.178  15.068 -0.4391  0.4970 -0.7042
  179MPD1    H6 2736   1.650   4.104  15.125 -0.0589  0.1053 -0.9557
  179MPD1    H7 2737   1.756   4.134  15.005  0.0738  0.7393 -0.3199
  180MPD1     C 2738   2.528   2.111  14.707 -0.4445  0.0761  0.6206
  180MPD1    C1 2739   2.488   2.089  14.574  0.5333 -0.2475 -0.6864
  180MPD1    C2 2740   2.357   2.094  14.548 -1.1244  0.2270  0.1034
  180MPD1    C3 2741   2.265   2.065  14.647 -0.3467  0.4867 -0.6375
  180MPD1    C4 2742   2.309   2.056  14.777  0.0253  1.0757  0.3628
  180MPD1    C5 2743   2.431   2.095  14.801  0.5046  0.2562 -0.4639
  180MPD1     H 2744   2.330   2.093  14.443 -0.3254  0.2981 -0.1009
  180MPD1    H1 2745   2.239   2.049  14.859 -0.2039 -0.9683 -0.0081
  180MPD1    H2 2746   2.630   2.138  14.730 -0.7100  1.3298  0.3410
  180MPD1    H3 2747   2.451   2.104  14.907 -1.1579  0.8645 -0.1967
  180MPD1     N 2748   2.125   2.058  14.622 -0.2566  0.2470  0.3049
  180MPD1    H5 2749   2.098   2.089  14.529 -1.4403 -0.1207  0.5320
  180MPD1    N1 2750   2.584   2.098  14.468 -0.0710 -0.5584  0.1831
  180MPD1    H6 2751   2.554   2.071  14.375  0.1183 -2.8463  0.7749
  180MPD1    H7 2752   2.672   2.053  14.494 -0.0635 -0.3707  0.4853
  181MPD1     C 2753   2.455   2.681   9.652 -0.2552 -0.2081 -0.5574
  181MPD1    C1 2754   2.452   2.801   9.583 -0.0560  0.0023 -0.2152
  181MPD1    C2 2755   2.559   2.885   9.605  1.0116  0.5217 -0.9926
  181MPD1    C3 2756   2.662   2.852   9.691 -0.8543  0.2885 -1.1112
  181MPD1    C4 2757   2.651   2.737   9.765 -0.1261 -0.2813 -0.1078
  181MPD1    C5 2758   2.541   2.655   9.754  0.3709  0.4740 -0.9451
  181MPD1     H 2759   2.557   2.978   9.550 -3.5737 -0.5977 -2.6757
  181MPD1    H1 2760   2.737   2.708   9.824 -0.3686 -0.0712  0.3487
  181MPD1    H2 2761   2.378   2.605   9.646 -1.1439  0.6365  0.0915
  181MPD1    H3 2762   2.526   2.565   9.812  1.1263  2.1739  1.9132
  181MPD1     N 2763   2.782   2.928   9.706  0.3295  0.4813  0.7189
  181MPD1    H5 2764   2.852   2.906   9.777  0.2181  0.3013  0.7720
  181MPD1    N1 2765   2.364   2.820   9.474  0.1639 -0.6812  0.0614
  181MPD1    H6 2766   2.281   2.763   9.487  0.2791 -0.4687  1.7237
  181MPD1    H7 2767   2.338   2.911   9.436 -0.0501  0.5719  3.2511
  182MPD1     C 2768   3.179   1.309   1.011  0.1086 -0.2729 -0.2626
  182MPD1    C1 2769   3.130   1.267   0.886 -0.1042  0.1562 -0.5467
  182MPD1    C2 2770   3.127   1.356   0.784 -0.3074 -0.8103 -0.2174
  182MPD1    C3 2771   3.166   1.488   0.799 -0.3914 -0.5020  0.1257
  182MPD1    C4 2772   3.199   1.531   0.926 -0.2681  0.3369 -0.3370
  182MPD1    C5 2773   3.206   1.441   1.030  0.3527 -0.3583  0.9966
  182MPD1     H 2774   3.106   1.327   0.682  2.3675  1.1859 -1.3375
  182MPD1    H1 2775   3.224   1.634   0.948  0.5392 -0.4428  2.2724
  182MPD1    H2 2776   3.193   1.234   1.088  0.5129  0.7610  0.6743
  182MPD1    H3 2777   3.230   1.476   1.130  0.0042  2.6814  0.0093
  182MPD1     N 2778   3.195   1.585   0.695  0.2302  0.1001  0.3663
  182MPD1    H5 2779   3.238   1.671   0.725 -1.3391  1.6625 -1.8604
  182MPD1    N1 2780   3.121   1.127   0.861 -0.1401 -0.8556  0.5011
  182MPD1    H6 2781   3.095   1.091   0.953  1.5872  1.0090  1.7191
  182MPD1    H7 2782   3.047   1.111   0.792  0.2933 -0.6123 -0.0144
  183MPD1     C 2783   3.892   2.936   9.488  0.6893  0.6841  0.0047
  183MPD1    C1 2784   3.857   2.991   9.610 -0.6634 -0.7005  0.0165
  183MPD1    C2 2785   3.955   3.003   9.706  0.0257  0.9120 -0.1020
  183MPD1    C3 2786   4.084   2.961   9.678 -0.0107 -0.0167  0.0294
  183MPD1    C4 2787   4.121   2.909   9.561 -0.0170 -0.3867  0.0544
  183MPD1    C5 2788   4.022   2.890   9.463 -0.8046 -0.0209 -0.3394
  183MPD1     H 2789   3.933   3.049   9.801  3.9825  0.9003  0.7987
  183MPD1    H1 2790   4.214   2.863   9.531  0.7861  1.3431 -0.0777
  183MPD1    H2 2791   3.817   2.925   9.410 -1.0275  0.9095  1.6140
  183MPD1    H3 2792   4.057   2.843   9.372  0.9541 -0.1502  0.3864
  183MPD1     N 2793   4.173   2.955   9.789 -0.3736  0.8847 -0.3417
  183MPD1    H5 2794   4.138   2.998   9.874  1.3351  1.3348  0.1269
  183MPD1    N1 2795   3.735   3.065   9.625 -0.0414  0.2225  0.1652
  183MPD1    H6 2796   3.659   3.036   9.563 -0.2012  0.8263  0.0696
  183MPD1    H7 2797   3.700   3.052   9.719  0.1028 -2.1393 -0.1085
  184MPD1     C 2798   3.744   0.666   9.753 -0.0738 -0.9406 -0.3912
  184MPD1    C1 2799   3.790   0.769   9.832 -0.6187  0.1718  0.1702
  184MPD1    C2 2800   3.807   0.897   9.777  0.4571  0.0077 -0.1625
  184MPD1    C3 2801   3.767   0.926   9.652 -0.2846  0.2394  0.0652
  184MPD1    C4 2802   3.716   0.822   9.573  1.0161  0.6324  0.1328
  184MPD1    C5 2803   3.712   0.690   9.623 -0.0935  0.0535 -0.4609
  184MPD1     H 2804   3.861   0.968   9.838 -0.3196  1.1571 -0.8267
  184MPD1    H1 2805   3.684   0.846   9.472 -1.0528 -1.2890  0.3337
  184MPD1    H2 2806   3.749   0.562   9.786  0.5554 -1.1537 -1.1511
  184MPD1    H3 2807   3.688   0.608   9.556  2.7571  0.7873 -2.3593
  184MPD1     N 2808   3.783   1.057   9.597 -0.1465 -0.9074 -0.1176
  184MPD1    H5 2809   3.757   1.074   9.501 -1.0714  1.8345  0.6155
  184MPD1    N1 2810   3.842   0.745   9.962  0.1041  0.3077 -0.1299
  184MPD1    H6 2811   3.942   0.745   9.947  0.1202  2.8145  0.0387
  184MPD1    H7 2812   3.808   0.656   9.998  0.7507  0.4400  0.7894
  185MPD1     C 2813   3.329   1.724   9.014 -0.2687  0.5226  0.1700
  185MPD1    C1 2814   3.284   1.613   9.079 -0.5247 -0.0087 -0.6796
  185MPD1    C2 2815   3.365   1.552   9.178  0.0472 -0.1495 -0.8783
  185MPD1    C3 2816   3.482   1.617   9.214  0.2240  0.3018 -0.2370
  185MPD1    C4 2817   3.524   1.727   9.142  0.3340  0.3148  0.0272
  185MPD1    C5 2818   3.446   1.776   9.041 -0.4176  0.5583  0.0537
  185MPD1     H 2819   3.343   1.462   9.235 -0.6820  0.7543  0.2674
  185MPD1    H1 2820   3.608   1.788   9.173  1.9911 -2.9518  1.9421
  185MPD1    H2 2821   3.269   1.779   8.942 -0.9953 -0.1810  0.2368
  185MPD1    H3 2822   3.463   1.875   9.001  0.9722 -0.6961 -2.4087
  185MPD1     N 2823   3.571   1.576   9.316  0.1894 -0.3624 -0.7529
  185MPD1    H5 2824   3.640   1.649   9.328 -0.4904  0.2225 -0.3624
  185MPD1    N1 2825   3.148   1.574   9.066  0.2839  0.1449  0.0766
  185MPD1    H6 2826   3.136   1.474   9.055 -0.5023  0.1357  1.0581
  185MPD1    H7 2827   3.104   1.631   8.993 -1.9018 -0.9248  0.5737
  186MPD1     C 2828   1.529   0.112  15.593 -0.0452 -0.0535  0.6972
  186MPD1    C1 2829   1.667   0.114  15.587  0.0175 -0.3024  0.4593
  186MPD1    C2 2830   1.735   0.194  15.675 -0.0591 -0.2945  0.1593
  186MPD1    C3 2831   1.660   0.275  15.764 -0.0851  0.6673  0.3451
  186MPD1    C4 2832   1.524   0.287  15.755 -1.0060 -0.3407 -0.7468
  186MPD1    C5 2833   1.457   0.207  15.663 -0.3382  0.7654  0.2342
  186MPD1     H 2834   1.843   0.193  15.673 -0.0115  0.4023  2.1940
  186MPD1    H1 2835   1.460   0.355  15.810  0.4358 -0.6846  1.3355
  186MPD1    H2 2836   1.478   0.047  15.523 -2.2609  2.8963 -0.3869
  186MPD1    H3 2837   1.352   0.217  15.640 -0.6381 -1.4160  0.6244
  186MPD1     N 2838   1.712   0.350  15.871 -0.2266 -0.3184 -0.3092
  186MPD1    H5 2839   1.646   0.413  15.916  1.2923  1.7525 -0.9622
  186MPD1    N1 2840   1.735   0.019  15.512 -0.2466 -0.2260 -0.3657
  186MPD1    H6 2841   1.691   4.716  15.424 -1.3053  2.2615 -0.5671
  186MPD1    H7 2842   1.834   0.038  15.497 -0.1890  0.0354  0.3542
  187MPD1     C 2843   1.535   1.701  17.503 -0.6411 -0.4795 -0.0818
  187MPD1    C1 2844   1.510   1.806  17.591  0.3878 -0.5549 -0.6214
  187MPD1    C2 2845   1.416   1.898  17.550 -0.1534  0.0390 -0.5929
  187MPD1    C3 2846   1.360   1.898  17.423 -0.3629  0.0172  0.1384
  187MPD1    C4 2847   1.397   1.798  17.331 -0.4167 -0.7925  0.2426
  187MPD1    C5 2848   1.491   1.706  17.372  0.5868  0.4800 -0.1859
  187MPD1     H 2849   1.379   1.969  17.623 -0.0180 -1.6712  1.1553
  187MPD1    H1 2850   1.360   1.808  17.230  1.6282 -2.3066 -0.6670
  187MPD1    H2 2851   1.601   1.622  17.536 -1.1377 -0.5597  0.7311
  187MPD1    H3 2852   1.529   1.638  17.297  2.8266 -1.0038  2.3008
  187MPD1     N 2853   1.256   1.987  17.381 -0.1947  0.6777  0.7235
  187MPD1    H5 2854   1.224   1.963  17.288  1.8587 -0.8476  0.3976
  187MPD1    N1 2855   1.529   1.788   0.035 -0.1099 -0.7355 -0.2205
  187MPD1    H6 2856   1.549   1.881   0.072  0.4742 -1.0274  0.2060
  187MPD1    H7 2857   1.602   1.721   0.059  2.0393  2.4506  2.1858
  188MPD1     C 2858   1.643   2.348  10.005  0.5598  0.5177 -0.7013
  188MPD1    C1 2859   1.741   2.256  10.021  0.5820 -0.3815  0.1476
  188MPD1    C2 2860   1.740   2.138   9.952 -1.1674 -0.6567 -0.0100
  188MPD1    C3 2861   1.647   2.123   9.849 -0.5236  0.4077  0.9903
  188MPD1    C4 2862   1.558   2.223   9.820 -0.4982 -0.1109 -0.6272
  188MPD1    C5 2863   1.565   2.337   9.894 -0.0123  0.1084  0.1800
  188MPD1     H 2864   1.816   2.067   9.982  0.3955  0.9427 -0.1888
  188MPD1    H1 2865   1.504   2.236   9.727 -0.7903  2.7774 -0.0629
  188MPD1    H2 2866   1.653   2.445  10.052 -1.8865 -0.5149  1.9728
  188MPD1    H3 2867   1.526   2.431   9.858  1.5437  0.8299  0.3580
  188MPD1     N 2868   1.640   2.012   9.759 -0.0857  0.0508 -0.1542
  188MPD1    H5 2869   1.554   1.994   9.708 -0.6341  0.1934  0.7099
  188MPD1    N1 2870   1.819   2.264  10.134 -0.2566 -0.7973  0.6365
  188MPD1    H6 2871   1.830   2.360  10.167 -1.3265 -1.0655  1.8004
  188MPD1    H7 2872   1.908   2.215  10.131  0.2235  0.2598 -1.8889
  189MPD1     C 2873   2.804   1.925   0.260 -0.0959 -0.6264 -0.2285
  189MPD1    C1 2874   2.778   1.969   0.386 -0.5192  0.1618 -0.8669
  189MPD1    C2 2875   2.738   2.100   0.405 -0.2040 -0.1490  0.1337
  189MPD1    C3 2876   2.734   2.189   0.298 -1.1032 -0.5131 -0.0128
  189MPD1    C4 2877   2.776   2.141   0.175  0.0114 -0.6808  0.2551
  189MPD1    C5 2878   2.812   2.014   0.156  0.2707 -0.5020 -0.0527
  189MPD1     H 2879   2.704   2.133   0.503 -1.6594 -0.4422 -0.2750
  189MPD1    H1 2880   2.781   2.201   0.085 -1.4956  1.6662  1.7233
  189MPD1    H2 2881   2.829   1.822   0.235  3.1555  0.0300  0.3399
  189MPD1    H3 2882   2.841   1.979   0.057  1.1185 -2.7799  1.0123
  189MPD1     N 2883   2.691   2.324   0.309  0.1575  0.6164  0.6094
  189MPD1    H5 2884   2.652   2.350   0.398  0.5937 -1.3773  1.3768
  189MPD1    N1 2885   2.784   1.884   0.497 -0.8138  0.1592 -0.4472
  189MPD1    H6 2886   2.819   1.792   0.471 -1.3596  0.0024 -0.6330
  189MPD1    H7 2887   2.843   1.928   0.566 -0.8102  0.9775 -0.9782
  190MPD1     C 2888   1.306   2.113  15.251  0.1839 -0.3444  0.7063
  190MPD1    C1 2889   1.380   2.025  15.189 -0.1393  0.3000  1.2107
  190MPD1    C2 2890   1.478   1.949  15.256 -0.0632  0.4831  0.2358
  190MPD1    C3 2891   1.483   1.953  15.391  0.1603 -0.0355  0.1435
  190MPD1    C4 2892   1.402   2.032  15.461  0.0499 -0.1253  0.3988
  190MPD1    C5 2893   1.316   2.108  15.389  0.1041  0.0571  0.2050
  190MPD1     H 2894   1.547   1.887  15.201 -0.0607  1.3783 -0.7688
  190MPD1    H1 2895   1.419   2.043  15.568 -1.5997 -0.8195  0.7313
  190MPD1    H2 2896   1.228   2.173  15.207  0.0002 -1.7837 -0.9242
  190MPD1    H3 2897   1.252   2.182  15.436 -0.6065 -0.9782  0.8827
  190MPD1     N 2898   1.576   1.869  15.453  0.5737 -0.5434 -0.5554
  190MPD1    H5 2899   1.650   1.822  15.401  2.2605  0.6234  0.8073
  190MPD1    N1 2900   1.386   2.014  15.054  0.1819  0.1920 -0.4353
  190MPD1    H6 2901   1.313   2.053  14.995 -1.6984 -0.5920  1.3631
  190MPD1    H7 2902   1.401   1.926  15.006  1.2186 -0.4106  0.9767
  191MPD1     C 2903   0.387   3.274  12.464  0.1308  0.2048  0.3120
  191MPD1    C1 2904   0.313   3.387  12.467 -0.1280 -0.4791  0.3932
  191MPD1    C2 2905   0.371   3.503  12.431  0.4228  0.0326 -0.2333
  191MPD1    C3 2906   0.494   3.512  12.379  0.1390 -0.2439  0.6641
  191MPD1    C4 2907   0.568   3.394  12.367 -0.1284 -0.5286 -0.1307
  191MPD1    C5 2908   0.508   3.281  12.407 -0.3283  0.0567  0.4982
  191MPD1     H 2909   0.313   3.593  12.445  0.3748  0.1737 -1.3540
  191MPD1    H1 2910   0.661   3.390  12.312 -0.4876  0.1835 -0.7941
  191MPD1    H2 2911   0.345   3.179  12.495 -1.4625  1.4490  2.0243
  191MPD1    H3 2912   0.564   3.188  12.394 -2.1331 -1.1937  1.6125
  191MPD1     N 2913   0.538   3.639  12.339  0.5533  0.2873  0.0443
  191MPD1    H5 2914   0.466   3.709  12.322  1.2935  1.1976  0.6788
  191MPD1    N1 2915   0.195   3.379  12.536  0.0457  0.8327  0.4541
  191MPD1    H6 2916   0.134   3.455  12.506 -1.2552  0.2858  1.7431
  191MPD1    H7 2917   0.149   3.289  12.525 -0.6896  1.3510 -0.7041
  192MPD1     C 2918   0.293   4.375  12.668 -0.0075  0.0192  0.0858
  192MPD1    C1 2919   0.315   4.393  12.529  0.6192 -0.6747  0.1756
  192MPD1    C2 2920   0.407   4.320  12.462  0.1243  0.2947 -0.0875
  192MPD1    C3 2921   0.472   4.208  12.518 -0.0564 -0.1544 -0.0667
  192MPD1    C4 2922   0.445   4.193  12.654 -0.1042  0.2091 -0.2723
  192MPD1    C5 2923   0.373   4.282  12.728  0.4426 -0.2160 -0.0547
  192MPD1     H 2924   0.424   4.340  12.357  1.3501  2.5237  0.5226
  192MPD1    H1 2925   0.499   4.113  12.704  0.2465  0.8765  0.4248
  192MPD1    H2 2926   0.230   4.445  12.721 -0.5283  0.3130 -0.9227
  192MPD1    H3 2927   0.368   4.264  12.835 -1.9397 -0.7948 -0.2579
  192MPD1     N 2928   0.561   4.123  12.449  0.2220  0.0894 -0.3543
  192MPD1    H5 2929   0.587   4.043  12.506 -0.6272  0.6011  0.7558
  192MPD1    N1 2930   0.264   4.509  12.479  0.2394 -0.2362 -0.0340
  192MPD1    H6 2931   0.246   4.502  12.379 -0.6992  1.5710  0.0195
  192MPD1    H7 2932   0.176   4.527  12.527 -0.1976  1.1864 -1.3803
  193MPD1     C 2933   1.055   2.964  17.123 -0.0725  0.2535  0.2703
  193MPD1    C1 2934   0.934   3.017  17.080  0.5491 -0.0606 -0.1271
  193MPD1    C2 2935   0.940   3.143  17.025  0.0385 -0.2337 -0.1866
  193MPD1    C3 2936   1.062   3.205  17.009  0.0713  0.2123 -0.0768
  193MPD1    C4 2937   1.180   3.153  17.054 -0.6216 -0.2273 -0.3457
  193MPD1    C5 2938   1.177   3.031  17.106 -0.4858  0.3389  0.6052
  193MPD1     H 2939   0.850   3.195  16.994  0.0368  0.4037  0.9050
  193MPD1    H1 2940   1.274   3.202  17.034  0.1330 -0.5747  2.3919
  193MPD1    H2 2941   1.052   2.862  17.159 -1.2674  0.9721  2.2082
  193MPD1    H3 2942   1.273   2.989  17.134  0.7342  1.1243 -2.3952
  193MPD1     N 2943   1.075   3.340  16.949  0.1869 -0.0963  0.2503
  193MPD1    H5 2944   1.168   3.381  16.946 -0.0129  0.3605  0.4179
  193MPD1    N1 2945   0.814   2.972  17.140 -0.4232  0.2740  0.0462
  193MPD1    H6 2946   0.730   3.006  17.095  0.4762  1.7851 -0.4822
  193MPD1    H7 2947   0.807   2.873  17.162 -1.4426 -0.1546 -2.1235
  194MPD1     C 2948   3.876   1.572  16.992 -0.0324 -0.1609  0.5719
  194MPD1    C1 2949   3.871   1.481  16.888  0.1480 -0.3276 -0.3814
  194MPD1    C2 2950   3.775   1.378  16.900 -0.3653 -0.1941  0.6469
  194MPD1    C3 2951   3.694   1.360  17.014 -0.7687  0.5410  0.4944
  194MPD1    C4 2952   3.710   1.449  17.115 -0.2061  0.1845 -1.1131
  194MPD1    C5 2953   3.800   1.548  17.105  0.5064 -0.5189  0.0869
  194MPD1     H 2954   3.772   1.309  16.817  0.6960 -0.3305  0.7173
  194MPD1    H1 2955   3.645   1.447  17.202 -1.3965  0.1082 -2.0025
  194MPD1    H2 2956   3.945   1.656  16.985 -1.7436  1.2496  0.5787
  194MPD1    H3 2957   3.815   1.617  17.187  0.5718  0.0210 -0.3804
  194MPD1     N 2958   3.594   1.263  17.020 -0.4269  0.0503  0.3954
  194MPD1    H5 2959   3.524   1.276  17.091 -1.4879 -0.8555 -0.4869
  194MPD1    N1 2960   3.931   1.520  16.763  0.4012  0.1505 -0.2034
  194MPD1    H6 2961   4.002   1.593  16.764 -0.1660  0.7684 -4.4111
  194MPD1    H7 2962   3.957   1.451  16.693 -1.3536  0.6334 -1.3470
  195MPD1     C 2963   1.170   1.713   0.209 -0.2363 -0.0911 -0.4363
  195MPD1    C1 2964   1.207   1.591   0.161 -0.3576 -0.4452 -0.8515
  195MPD1    C2 2965   1.118   1.486   0.168  0.7207 -0.1552  0.1999
  195MPD1    C3 2966   0.989   1.503   0.209 -0.6991 -0.1347 -0.0235
  195MPD1    C4 2967   0.949   1.626   0.259 -0.3538  0.2459 -0.1178
  195MPD1    C5 2968   1.046   1.724   0.267 -0.2279  0.7120  0.6498
  195MPD1     H 2969   1.154   1.399   0.114  1.5106 -0.1117  0.6619
  195MPD1    H1 2970   0.846   1.640   0.291  1.0456 -0.1831  4.4383
  195MPD1    H2 2971   1.244   1.790   0.225  0.9005 -1.0688 -1.0289
  195MPD1    H3 2972   1.014   1.818   0.310 -0.3486  0.8305  0.3023
  195MPD1     N 2973   0.898   1.395   0.217  0.3997  0.3804 -0.5462
  195MPD1    H5 2974   0.803   1.413   0.245  0.8742 -0.4420  1.5794
  195MPD1    N1 2975   1.344   1.570   0.129 -0.6822  0.1367  0.3435
  195MPD1    H6 2976   1.389   1.648   0.082 -0.7343  1.7374  2.9328
  195MPD1    H7 2977   1.353   1.487   0.070  0.9505  1.0403 -0.6927
  196MPD1     C 2978   3.156   1.001  17.665  0.1581  0.5864  0.3975
  196MPD1    C1 2979   3.105   0.967   0.095 -0.1335 -0.5050  0.3322
  196MPD1    C2 2980   3.135   1.038   0.204 -0.5893  0.0093 -0.9303
  196MPD1    C3 2981   3.240   1.133   0.192 -0.1371 -0.0621  0.5440
  196MPD1    C4 2982   3.296   1.158   0.070 -0.1769 -0.7189  0.0017
  196MPD1    C5 2983   3.252   1.096  17.649  0.2707 -0.2480 -0.2139
  196MPD1     H 2984   3.085   1.014   0.297  0.3553  0.3518 -0.3347
  196MPD1    H1 2985   3.372   1.235   0.060 -2.4111  1.2795 -1.4486
  196MPD1    H2 2986   3.120   0.945  17.580  1.0559  1.2398 -0.4074
  196MPD1    H3 2987   3.293   1.123  17.552 -0.9329  2.3238 -0.0080
  196MPD1     N 2988   3.303   1.182   0.303  0.2017 -0.7703 -0.1346
  196MPD1    H5 2989   3.389   1.236   0.291 -0.2596  0.1874  0.8226
  196MPD1    N1 2990   3.008   0.870   0.108  0.0162 -0.1451  0.1844
  196MPD1    H6 2991   2.982   0.851   0.204  1.3124 -1.1697  0.3327
  196MPD1    H7 2992   3.043   0.786   0.061 -0.1212 -1.2141  1.9766
  197MPD1     C 2993   4.420   3.686  17.086 -0.3418 -0.3224 -0.3203
  197MPD1    C1 2994   4.305   3.720  17.154  0.4455 -0.2994 -0.0483
  197MPD1    C2 2995   4.243   3.845  17.124 -0.3263  0.6110 -0.3826
  197MPD1    C3 2996   4.294   3.929  17.028  0.2752 -0.0399 -0.3898
  197MPD1    C4 2997   4.413   3.897  16.967  0.0560 -0.0099 -0.2334
  197MPD1    C5 2998   4.474   3.775  16.988 -0.0408  0.2477 -0.0831
  197MPD1     H 2999   4.150   3.865  17.176 -0.3305 -0.4739  0.0136
  197MPD1    H1 3000   4.454   3.961  16.890 -0.1425 -1.2307 -1.3708
  197MPD1    H2 3001   4.476   3.594  17.099  1.5655  0.7652 -0.6857
  197MPD1    H3 3002   4.555   3.731  16.931  0.4223  1.9163 -0.7095
  197MPD1     N 3003   4.237   4.057  16.994  0.5379 -0.0608 -0.7749
  197MPD1    H5 3004   4.275   4.105  16.913  0.2989  0.7322 -0.4179
  197MPD1    N1 3005   4.236   3.621  17.223 -0.2984 -0.1064 -0.3913
  197MPD1    H6 3006   4.181   3.666  17.296  0.8845 -1.2283  1.1954
  197MPD1    H7 3007   4.294   3.558  17.278  2.9891  1.8625 -1.6521
  198MPD1     C 3008   0.985   3.040  15.793  0.3147 -0.3017  0.8116
  198MPD1    C1 3009   1.074   3.111  15.710  0.2092 -0.2300 -0.5843
  198MPD1    C2 3010   1.194   3.147  15.767  0.8128  0.0433 -0.6612
  198MPD1    C3 3011   1.227   3.113  15.898  0.1655  0.1466 -0.1695
  198MPD1    C4 3012   1.146   3.031  15.969  0.5826  0.0727 -0.6699
  198MPD1    C5 3013   1.024   2.995  15.913  0.0504 -0.1541  0.1132
  198MPD1     H 3014   1.265   3.211  15.715 -2.3975  1.8749 -2.7357
  198MPD1    H1 3015   1.176   2.981  16.060 -1.1257  0.7155  0.2559
  198MPD1    H2 3016   0.888   3.012  15.753  1.5336 -1.1918 -1.5348
  198MPD1    H3 3017   0.955   2.935  15.971  0.8681 -2.2002 -1.0621
  198MPD1     N 3018   1.344   3.174  15.950 -0.8456 -0.3956 -0.0393
  198MPD1    H5 3019   1.391   3.239  15.888  3.4005 -3.7240 -0.3148
  198MPD1    N1 3020   1.032   3.154  15.582 -0.9105  0.1508  0.5964
  198MPD1    H6 3021   0.965   3.086  15.546  1.4277  0.5423 -4.5862
  198MPD1    H7 3022   1.111   3.170  15.519  0.2468 -0.6602  1.8414
  199MPD1     C 3023   3.249   2.886   9.401  0.2104  0.7207 -0.0008
  199MPD1    C1 3024   3.342   2.983   9.374  0.0079 -0.5451  0.1665
  199MPD1    C2 3025   3.312   3.097   9.307  0.3594 -0.2850 -0.0708
  199MPD1    C3 3026   3.182   3.116   9.261  0.5758  0.3551 -0.2200
  199MPD1    C4 3027   3.086   3.019   9.284  0.1835 -0.5372  0.1670
  199MPD1    C5 3028   3.123   2.904   9.356 -0.2050  0.0429  0.6177
  199MPD1     H 3029   3.390   3.171   9.292 -1.5925  1.4605 -1.5879
  199MPD1    H1 3030   2.983   3.028   9.251  0.4807  0.9464 -0.3697
  199MPD1    H2 3031   3.271   2.796   9.457  0.0722 -0.5692 -2.0251
  199MPD1    H3 3032   3.050   2.828   9.381  0.1256 -1.0398 -1.6529
  199MPD1     N 3033   3.141   3.232   9.199 -0.5506  0.3672 -0.4838
  199MPD1    H5 3034   3.051   3.235   9.152 -1.4267 -0.5056  1.1199
  199MPD1    N1 3035   3.473   2.978   9.424  0.2495  0.1930  0.1520
  199MPD1    H6 3036   3.508   2.883   9.437  1.0670  0.4268 -0.3127
  199MPD1    H7 3037   3.545   3.024   9.369 -0.5774  0.2463 -0.8902
  200MPD1     C 3038   2.053   4.058  15.055  0.1288 -0.3827  0.0744
  200MPD1    C1 3039   2.032   3.979  14.944 -0.1161  0.1407 -0.2921
  200MPD1    C2 3040   2.130   3.956  14.844 -0.3719  0.2280  0.3427
  200MPD1    C3 3041   2.262   3.998  14.879  0.0415 -0.5360 -0.4430
  200MPD1    C4 3042   2.288   4.053  15.003 -0.3954  0.3403  0.5486
  200MPD1    C5 3043   2.185   4.095  15.081 -0.5382  0.1364 -0.6201
  200MPD1     H 3044   2.120   3.907  14.748  1.1653  0.5900 -0.0057
  200MPD1    H1 3045   2.389   4.081  15.031 -0.3160 -0.0512  0.6570
  200MPD1    H2 3046   1.976   4.093  15.123 -1.0981 -2.7317 -0.0939
  200MPD1    H3 3047   2.201   4.147  15.175 -0.0458 -1.2163  0.0541
  200MPD1     N 3048   2.366   3.976  14.788 -0.1344 -0.2225  0.3145
  200MPD1    H5 3049   2.346   3.923  14.704 -0.2625  1.8400 -0.9360
  200MPD1    N1 3050   1.897   3.958  14.906  0.0139  0.3160  0.1221
  200MPD1    H6 3051   1.836   3.946  14.987 -1.9475  0.0670 -1.3911
  200MPD1    H7 3052   1.881   3.887  14.835 -2.9644  0.6349  0.4575
  201MPD1     C 3053   4.049   2.943  13.564 -0.3378 -0.4129 -0.6582
  201MPD1    C1 3054   4.117   2.954  13.446  0.0198  0.3853  0.2046
  201MPD1    C2 3055   4.249   2.900  13.438  0.3753 -0.5521  0.4173
  201MPD1    C3 3056   4.314   2.852  13.553  0.1785 -0.8032 -0.4607
  201MPD1    C4 3057   4.240   2.836  13.671  0.0102  0.3083  0.4902
  201MPD1    C5 3058   4.110   2.882  13.672  0.3241 -0.8489  0.5933
  201MPD1     H 3059   4.299   2.916  13.343  0.6004 -1.1970  0.4228
  201MPD1    H1 3060   4.287   2.812  13.766 -0.5324  1.9997  1.1754
  201MPD1    H2 3061   3.953   2.991  13.577 -0.2056 -0.5093  0.6696
  201MPD1    H3 3062   4.057   2.871  13.765 -1.6981  3.2560 -0.0613
  201MPD1     N 3063   4.449   2.823  13.533 -0.1830  0.5134  0.5628
  201MPD1    H5 3064   4.498   2.839  13.446 -0.2076  1.9177  0.7964
  201MPD1    N1 3065   4.065   3.031  13.334 -0.1723 -0.0915  0.3864
  201MPD1    H6 3066   3.976   2.996  13.300  0.1484 -1.6668  1.1686
  201MPD1    H7 3067   4.132   3.027  13.258  0.3601  1.2118  0.7884
  202MPD1     C 3068   4.618   2.449   9.157  0.1723  0.4776 -0.1641
  202MPD1    C1 3069   4.631   2.316   9.137  0.0615  0.6685 -0.2230
  202MPD1    C2 3070   4.685   2.241   9.243  0.1396 -0.1888  0.6670
  202MPD1    C3 3071   4.665   2.288   9.367 -0.8014 -1.1265 -0.4891
  202MPD1    C4 3072   4.631   2.418   9.396  0.6167 -0.8086  0.0029
  202MPD1    C5 3073   4.611   2.492   9.288  0.0171 -0.5105  0.0133
  202MPD1     H 3074   4.703   2.136   9.223 -1.0034 -0.2704  0.0337
  202MPD1    H1 3075   4.626   2.459   9.496 -1.9413 -0.9011 -0.0864
  202MPD1    H2 3076   4.583   2.520   9.083  0.3051  0.4376 -0.2645
  202MPD1    H3 3077   4.595   2.598   9.305 -1.9502 -0.8048  0.0062
  202MPD1     N 3078   4.677   2.212   9.482  0.1384 -1.0072 -0.0459
  202MPD1    H5 3079   4.669   2.261   9.571  1.2693 -0.6347 -0.1449
  202MPD1    N1 3080   4.662   2.273   9.007  0.0190  0.8155 -0.2977
  202MPD1    H6 3081   4.672   2.173   8.993  1.1130  1.2052 -2.2913
  202MPD1    H7 3082   4.601   2.295   8.928 -0.3103 -1.1712 -0.6058
  203MPD1     C 3083   3.930   4.076  13.004 -0.2327  0.0468 -0.8361
  203MPD1    C1 3084   3.973   3.954  13.057  0.4633 -0.1362  0.2062
  203MPD1    C2 3085   3.931   3.836  12.991  0.1586 -0.2156  1.0196
  203MPD1    C3 3086   3.838   3.842  12.890  0.4874 -0.0366 -0.0053
  203MPD1    C4 3087   3.784   3.966  12.850 -0.5316  0.4613  1.3792
  203MPD1    C5 3088   3.840   4.080  12.903 -0.1427 -0.5479  0.1237
  203MPD1     H 3089   3.970   3.740  13.021  0.5114 -0.4716 -0.2244
  203MPD1    H1 3090   3.701   3.975  12.781  0.2779  0.0210  0.3326
  203MPD1    H2 3091   3.966   4.171  13.043 -1.7171 -0.5032  1.8623
  203MPD1    H3 3092   3.799   4.177  12.878  0.2552 -0.6958 -1.1206
  203MPD1     N 3093   3.792   3.717  12.836  0.5460  0.0145 -0.4962
  203MPD1    H5 3094   3.838   3.635  12.874  0.8556 -0.0615 -1.0321
  203MPD1    N1 3095   4.059   3.943  13.168  0.4599 -0.3002 -0.1628
  203MPD1    H6 3096   4.122   3.864  13.159 -0.8644 -1.3252 -0.5888
  203MPD1    H7 3097   4.120   4.023  13.178  2.4395 -1.5427 -2.3365
  204MPD1     C 3098   3.671   4.450  17.642  0.2538  0.1584  0.2644
  204MPD1    C1 3099   3.649   4.557  17.550  0.0634 -0.3404  0.3760
  204MPD1    C2 3100   3.532   4.562  17.478 -0.5018 -1.3536  0.0193
  204MPD1    C3 3101   3.443   4.458  17.493 -0.3288  0.4848  0.8545
  204MPD1    C4 3102   3.467   4.358  17.594 -0.5537 -0.1495 -0.2732
  204MPD1    C5 3103   3.577   4.365  17.670  0.2997 -0.2291  0.0676
  204MPD1     H 3104   3.506   4.649  17.419 -0.8589 -1.8328 -0.5272
  204MPD1    H1 3105   3.394   4.286  17.629 -0.8393 -0.2175 -0.9989
  204MPD1    H2 3106   3.764   4.445   0.002 -0.3379 -1.2775  1.1170
  204MPD1    H3 3107   3.600   4.296   0.057  0.8747  1.3823  1.2718
  204MPD1     N 3108   3.328   4.459  17.418 -0.1372  0.4328  0.2721
  204MPD1    H5 3109   3.338   4.515  17.334 -4.2629 -0.7158 -0.9724
  204MPD1    N1 3110   3.740   4.659  17.558 -0.4629  0.2140  0.0686
  204MPD1    H6 3111   3.835   4.632  17.580 -1.3967 -0.9474  2.6304
  204MPD1    H7 3112   3.743   4.715  17.472 -1.0150  1.6961  1.0152
  205MPD1     C 3113   3.723   3.564  16.667 -0.0634  0.0292 -0.1041
  205MPD1    C1 3114   3.712   3.442  16.727 -0.5336 -0.1425  0.2435
  205MPD1    C2 3115   3.590   3.396  16.770  0.2543  0.2940  0.0276
  205MPD1    C3 3116   3.484   3.481  16.738 -0.3834  0.0446 -0.4943
  205MPD1    C4 3117   3.498   3.599  16.673 -0.3013 -0.0146  0.5053
  205MPD1    C5 3118   3.615   3.637  16.635 -0.2525 -0.3584  0.1525
  205MPD1     H 3119   3.588   3.299  16.818 -1.2732  0.3391  0.0424
  205MPD1    H1 3120   3.413   3.660  16.645 -0.5872 -0.4044  0.5226
  205MPD1    H2 3121   3.821   3.606  16.647 -0.3091  0.8862  0.4827
  205MPD1    H3 3122   3.632   3.737  16.596  1.7052 -1.2535 -1.3063
  205MPD1     N 3123   3.349   3.436  16.784  0.2243 -0.0525  0.7665
  205MPD1    H5 3124   3.274   3.498  16.755  0.8757  0.2156 -0.3386
  205MPD1    N1 3125   3.831   3.380  16.765 -0.2475 -0.5244  0.0971
  205MPD1    H6 3126   3.910   3.406  16.706 -0.9378 -0.7259 -0.9079
  205MPD1    H7 3127   3.831   3.281  16.788 -1.1921 -1.1616 -2.6875
  206MPD1     C 3128   3.445   1.678  16.802 -0.1776  0.2073 -0.4310
  206MPD1    C1 3129   3.521   1.614  16.706 -0.2710 -0.1843  0.2181
  206MPD1    C2 3130   3.448   1.562  16.601 -0.3870  0.2468 -0.1556
  206MPD1    C3 3131   3.314   1.539  16.612  0.9958  0.3079  0.0950
  206MPD1    C4 3132   3.241   1.592  16.718  1.1675  0.3254 -0.1020
  206MPD1    C5 3133   3.307   1.664  16.813  0.1980  0.2587  0.2740
  206MPD1     H 3134   3.514   1.525  16.523  0.5035  1.1923  0.1667
  206MPD1    H1 3135   3.133   1.594  16.710  1.0638  0.4434  1.3809
  206MPD1    H2 3136   3.491   1.742  16.876 -2.0519  0.9018  0.1375
  206MPD1    H3 3137   3.255   1.709  16.896 -0.8154 -0.9713  0.3148
  206MPD1     N 3138   3.240   1.490  16.505  0.2918  0.4356  0.1077
  206MPD1    H5 3139   3.140   1.480  16.515  0.4008  0.5508  1.3596
  206MPD1    N1 3140   3.655   1.636  16.693 -0.1566 -0.1654 -0.1240
  206MPD1    H6 3141   3.711   1.639  16.778 -2.7258  2.2435  1.4789
  206MPD1    H7 3142   3.707   1.589  16.619  0.7035 -1.9053  1.6076
  207MPD1     C 3143   1.694   4.326   9.667 -0.3289 -0.1920  0.5768
  207MPD1    C1 3144   1.644   4.200   9.686  0.4136  1.0710  0.2683
  207MPD1    C2 3145   1.701   4.122   9.786  1.4557 -0.5271  0.0763
  207MPD1    C3 3146   1.796   4.181   9.865 -0.1791  0.3255 -0.4257
  207MPD1    C4 3147   1.842   4.309   9.846 -0.2957  0.2925  0.2051
  207MPD1    C5 3148   1.795   4.382   9.744 -0.3780  0.1445 -0.3073
  207MPD1     H 3149   1.664   4.021   9.794 -0.2699 -0.1155 -2.6597
  207MPD1    H1 3150   1.907   4.359   9.918  0.1026 -0.3440  0.2901
  207MPD1    H2 3151   1.657   4.389   9.587 -2.3680 -1.6749  0.3410
  207MPD1    H3 3152   1.817   4.488   9.729 -1.0271  0.7410  3.0658
  207MPD1     N 3153   1.855   4.113   9.978  0.1290 -0.8761  0.3348
  207MPD1    H5 3154   1.903   4.165  10.051  0.3212  1.0783 -1.2161
  207MPD1    N1 3155   1.524   4.155   9.627 -0.9791 -0.4013  1.0917
  207MPD1    H6 3156   1.536   4.054   9.618  1.1123 -0.0032 -0.6772
  207MPD1    H7 3157   1.511   4.196   9.535  1.9246 -2.2377 -0.1599
  208MPD1     C 3158   4.050   2.371  17.245 -0.0975  0.2954 -1.0474
  208MPD1    C1 3159   4.004   2.252  17.281 -0.6436 -0.7200 -0.2376
  208MPD1    C2 3160   3.869   2.225  17.291 -0.1906 -1.2159  0.7788
  208MPD1    C3 3161   3.773   2.314  17.247 -0.8319 -0.1083  0.6427
  208MPD1    C4 3162   3.825   2.439  17.206  0.1380 -0.1444 -0.0367
  208MPD1    C5 3163   3.962   2.463  17.203 -0.3905  0.0198 -0.5107
  208MPD1     H 3164   3.840   2.132  17.339  0.2780 -0.8904  1.6975
  208MPD1    H1 3165   3.760   2.513  17.161  0.0885  0.2537  0.7024
  208MPD1    H2 3166   4.157   2.387  17.246 -0.1052  0.3253 -0.3599
  208MPD1    H3 3167   3.996   2.557  17.160 -1.7451  0.9324  0.4106
  208MPD1     N 3168   3.634   2.284  17.251 -0.4022 -0.0047 -0.0553
  208MPD1    H5 3169   3.609   2.200  17.301  1.9207  0.1255  1.3354
  208MPD1    N1 3170   4.107   2.155  17.314  0.3573  0.0097  0.5230
  208MPD1    H6 3171   4.092   2.110  17.404  0.1150 -1.8319 -0.4364
  208MPD1    H7 3172   4.201   2.192  17.309 -0.0829  1.0071 -0.5405
  209MPD1     C 3173   0.762   2.948   9.671  0.4398  0.4547  0.3304
  209MPD1    C1 3174   0.861   3.037   9.644  0.0324 -0.5645  0.3952
  209MPD1    C2 3175   0.977   3.037   9.723  0.2751  0.0323  0.0020
  209MPD1    C3 3176   0.983   2.970   9.848 -0.2250  0.2116 -0.7480
  209MPD1    C4 3177   0.873   2.896   9.883  0.5280  0.2977 -0.5088
  209MPD1    C5 3178   0.763   2.885   9.797 -0.3639  0.1111  0.6791
  209MPD1     H 3179   1.067   3.092   9.699  0.5614  0.3622  1.7774
  209MPD1    H1 3180   0.855   2.842   9.975 -1.8251  0.4783 -0.8748
  209MPD1    H2 3181   0.672   2.938   9.611  1.1625 -1.1617 -0.4797
  209MPD1    H3 3182   0.675   2.832   9.832  0.2704  0.2887  2.5138
  209MPD1     N 3183   1.101   2.967   9.927  0.4470 -0.2600  0.6201
  209MPD1    H5 3184   1.173   3.026   9.886 -0.1137  0.1529  0.2140
  209MPD1    N1 3185   0.857   3.103   9.526  0.4808  0.5453  0.4063
  209MPD1    H6 3186   0.763   3.120   9.491  0.5171 -2.1734 -1.0543
  209MPD1    H7 3187   0.896   3.197   9.525  0.6221  0.4768 -0.6742
  210MPD1     C 3188   1.680   2.592  10.805 -0.7079  0.4136  0.6017
  210MPD1    C1 3189   1.540   2.591  10.766 -0.8252  0.0534  0.7691
  210MPD1    C2 3190   1.492   2.665  10.654 -0.3544  0.3609 -0.2304
  210MPD1    C3 3191   1.577   2.725  10.566  0.4570  0.8520  0.3541
  210MPD1    C4 3192   1.708   2.703  10.593 -0.0452 -0.0805  0.4349
  210MPD1    C5 3193   1.759   2.637  10.706 -0.1935 -0.4129 -0.4145
  210MPD1     H 3194   1.384   2.667  10.640 -0.4633 -0.9150  0.3740
  210MPD1    H1 3195   1.777   2.744  10.520  0.7443  1.2320  1.9011
  210MPD1    H2 3196   1.720   2.535  10.888  0.1930  0.6701  0.3530
  210MPD1    H3 3197   1.866   2.635  10.723 -0.6178 -0.8329  2.1488
  210MPD1     N 3198   1.534   2.791  10.451 -0.2189 -0.2381  0.6963
  210MPD1    H5 3199   1.606   2.817  10.384  0.6380  0.9792  2.0870
  210MPD1    N1 3200   1.448   2.536  10.855 -1.1993 -0.3370  0.5727
  210MPD1    H6 3201   1.357   2.506  10.820 -1.3950  1.0642 -0.1015
  210MPD1    H7 3202   1.492   2.462  10.911  0.3360  3.3392  4.2476
  211MPD1     C 3203   4.551   3.431  16.413 -0.9773 -0.6475  0.0101
  211MPD1    C1 3204   4.495   3.465  16.294 -0.1411  0.6157  0.7896
  211MPD1    C2 3205   4.359   3.437  16.271 -0.9625 -0.6308  0.3834
  211MPD1    C3 3206   4.289   3.384  16.374  0.9366 -0.7058 -0.4285
  211MPD1    C4 3207   4.349   3.333  16.488  0.1142 -0.3758  0.2469
  211MPD1    C5 3208   4.483   3.361  16.507 -0.2793 -0.1070 -0.3603
  211MPD1     H 3209   4.313   3.463  16.177  0.2329  0.4433  0.0927
  211MPD1    H1 3210   4.307   3.264  16.561  2.7549 -1.1741  1.0004
  211MPD1    H2 3211   4.655   3.447  16.436 -1.4162 -2.3852  3.1955
  211MPD1    H3 3212   4.536   3.314  16.590  0.2040 -0.6087 -0.9487
  211MPD1     N 3213   4.154   3.372  16.347  1.1177  0.2659 -0.6479
  211MPD1    H5 3214   4.120   3.392  16.254 -1.3519 -1.7077 -0.1666
  211MPD1    N1 3215   4.566   3.542  16.201 -0.0754  0.6497  0.2597
  211MPD1    H6 3216   4.537   3.519  16.106  1.3198 -1.0609  0.2506
  211MPD1    H7 3217   4.665   3.521  16.198 -0.4429 -1.2168  1.0219
  212MPD1     C 3218   2.825   1.144  16.375  0.8039 -0.5065  0.2182
  212MPD1    C1 3219   2.720   1.201  16.456 -0.0187  0.5643 -0.0947
  212MPD1    C2 3220   2.657   1.120  16.546  0.1625  0.3948 -0.2634
  212MPD1    C3 3221   2.680   0.984  16.545  0.4830  0.1057 -0.2475
  212MPD1    C4 3222   2.769   0.929  16.457 -0.4580  0.2775  0.3092
  212MPD1    C5 3223   2.854   1.008  16.384  0.7195 -0.6317  0.2672
  212MPD1     H 3224   2.592   1.168  16.617  0.5932  0.5429  0.0321
  212MPD1    H1 3225   2.780   0.821  16.452 -0.4986  0.3055 -0.3557
  212MPD1    H2 3226   2.867   1.209  16.299  1.3462  0.0575  0.9972
  212MPD1    H3 3227   2.929   0.959  16.323  1.3680 -1.1000  1.4499
  212MPD1     N 3228   2.614   0.897  16.629  0.2676 -0.5858 -0.8618
  212MPD1    H5 3229   2.640   0.801  16.608 -2.2195 -1.7303  1.2530
  212MPD1    N1 3230   2.700   1.343  16.462 -0.1094  0.0510  0.0858
  212MPD1    H6 3231   2.744   1.394  16.385 -0.5573  1.1504  0.5732
  212MPD1    H7 3232   2.600   1.362  16.452 -0.6426 -2.0759  1.3372
  213MPD1     C 3233   0.810   1.938  15.816  0.1935 -0.1947 -0.2844
  213MPD1    C1 3234   0.683   1.930  15.763 -0.4249  0.8446  0.0982
  213MPD1    C2 3235   0.677   1.956  15.629  0.1224 -0.8232  0.2843
  213MPD1    C3 3236   0.776   2.014  15.549  0.0827  0.0928 -0.2152
  213MPD1    C4 3237   0.897   2.042  15.615 -0.3403 -0.3032 -0.5519
  213MPD1    C5 3238   0.908   2.002  15.748  0.1412 -0.1651 -0.2907
  213MPD1     H 3239   0.584   1.923  15.583 -0.6461 -1.9661  2.6617
  213MPD1    H1 3240   0.982   2.084  15.562  0.3122 -2.4111 -1.1453
  213MPD1    H2 3241   0.833   1.908  15.918  1.7035  0.0261 -0.5543
  213MPD1    H3 3242   1.003   2.015  15.798 -0.2481  3.1662 -0.4137
  213MPD1     N 3243   0.759   2.022  15.407 -0.5255 -0.4325  0.9713
  213MPD1    H5 3244   0.663   2.014  15.376 -0.4495  1.5345  0.2143
  213MPD1    N1 3245   0.589   1.848  15.819  0.6973  0.1963 -0.0019
  213MPD1    H6 3246   0.491   1.866  15.797  1.1276  1.3268 -1.0205
  213MPD1    H7 3247   0.603   1.864  15.918  0.6779  3.7475 -0.5507
  214MPD1     C 3248   0.077   1.716  15.190 -0.4578 -0.1641 -0.7484
  214MPD1    C1 3249   0.167   1.665  15.095 -0.5229 -0.1030 -0.6969
  214MPD1    C2 3250   0.280   1.738  15.071 -0.5755 -0.0611  0.6351
  214MPD1    C3 3251   0.313   1.857  15.134 -0.0794  0.4059  1.2770
  214MPD1    C4 3252   0.214   1.904  15.223 -0.1067  0.4238  0.5352
  214MPD1    C5 3253   0.105   1.831  15.252  0.1558  0.0289  0.1973
  214MPD1     H 3254   0.345   1.693  14.997  0.1268 -0.4949  1.5169
  214MPD1    H1 3255   0.216   1.998  15.277  1.1857 -0.1413  1.4978
  214MPD1    H2 3256   4.705   1.665  15.199 -0.7901  0.7046  0.6063
  214MPD1    H3 3257   0.026   1.864  15.318  0.1286  0.2723  0.0452
  214MPD1     N 3258   0.428   1.933  15.111  0.0568  0.1717  0.8018
  214MPD1    H5 3259   0.442   2.007  15.180  0.5719  0.9928 -0.1842
  214MPD1    N1 3260   0.129   1.553  15.016 -0.0933 -0.6647  0.5481
  214MPD1    H6 3261   0.072   1.493  15.075  1.2898  0.6751  3.2560
  214MPD1    H7 3262   0.209   1.491  15.008 -0.6105 -1.1986 -0.4256
  215MPD1     C 3263   0.908   2.222  11.099 -0.2610  0.3397 -0.3167
  215MPD1    C1 3264   0.889   2.335  11.178  0.3862 -0.5833  0.1021
  215MPD1    C2 3265   0.935   2.457  11.135 -0.0609 -0.6781  0.1912
  215MPD1    C3 3266   0.983   2.472  11.003  0.0935  0.5675 -1.1497
  215MPD1    C4 3267   1.004   2.359  10.929 -0.0031 -0.3569 -0.1784
  215MPD1    C5 3268   0.970   2.232  10.975 -0.0836 -0.4425 -0.2244
  215MPD1     H 3269   0.931   2.544  11.199  2.0873 -1.8212  1.8868
  215MPD1    H1 3270   1.057   2.355  10.834 -1.9931  2.0995 -1.3697
  215MPD1    H2 3271   0.889   2.123  11.138  0.9532  0.3985  0.4269
  215MPD1    H3 3272   1.002   2.148  10.914 -1.2685 -2.2176  1.6069
  215MPD1     N 3273   1.030   2.596  10.967  0.0748  0.0474  0.5026
  215MPD1    H5 3274   1.004   2.661  11.040 -4.3097 -1.1732 -0.0005
  215MPD1    N1 3275   0.866   2.316  11.315  0.0951 -0.5361 -0.2224
  215MPD1    H6 3276   0.802   2.239  11.336  2.6667 -2.4987  0.4651
  215MPD1    H7 3277   0.817   2.395  11.356  0.6401  0.3455 -1.2711
  216MPD1     C 3278   2.766   0.290  16.107  0.0447 -0.4274 -0.0191
  216MPD1    C1 3279   2.706   0.171  16.105 -0.1920 -0.4194  0.3804
  216MPD1    C2 3280   2.670   0.116  16.224 -0.2703  0.4375  0.1986
  216MPD1    C3 3281   2.674   0.184  16.344  0.6310 -0.1747  0.0830
  216MPD1    C4 3282   2.699   0.319  16.341 -0.0374 -0.1057 -0.1260
  216MPD1    C5 3283   2.753   0.372  16.224  0.0424  0.1682 -0.0732
  216MPD1     H 3284   2.650   0.009  16.220 -3.7002  1.0615  0.6116
  216MPD1    H1 3285   2.696   0.383  16.429 -2.5426  0.4234 -0.6187
  216MPD1    H2 3286   2.814   0.339  16.023 -0.1135  2.3458  1.5056
  216MPD1    H3 3287   2.791   0.473  16.221 -3.2230  1.2811 -3.0012
  216MPD1     N 3288   2.637   0.126  16.470  0.0033 -0.3114 -0.0780
  216MPD1    H5 3289   2.616   0.028  16.461  0.8687 -0.4108 -1.0665
  216MPD1    N1 3290   2.725   0.087  15.991  0.3430  0.1066 -0.0117
  216MPD1    H6 3291   2.732   0.140  15.905  1.7197 -2.9291 -1.7594
  216MPD1    H7 3292   2.640   0.031  15.990  0.4968 -0.1339  0.3672
  217MPD1     C 3293   4.537   1.195   9.146 -0.5180  0.1587 -0.1340
  217MPD1    C1 3294   4.506   1.299   9.065 -0.1367  0.2762 -0.3833
  217MPD1    C2 3295   4.456   1.418   9.119  1.2068  0.3767 -0.0942
  217MPD1    C3 3296   4.453   1.435   9.262  0.5396  0.4745  0.0186
  217MPD1    C4 3297   4.490   1.329   9.342 -0.1403  0.1470  0.1879
  217MPD1    C5 3298   4.536   1.214   9.281  0.8758  0.7590  0.1745
  217MPD1     H 3299   4.424   1.493   9.047  1.7712  1.9728  1.3304
  217MPD1    H1 3300   4.508   1.332   9.449 -1.3059 -0.7415  0.4037
  217MPD1    H2 3301   4.575   1.099   9.116 -0.5190  0.1953 -0.2519
  217MPD1    H3 3302   4.579   1.144   9.352  0.0016  0.5484  0.4974
  217MPD1     N 3303   4.404   1.554   9.326  0.1813  0.0470 -0.4141
  217MPD1    H5 3304   4.418   1.561   9.426  0.9997 -1.1853 -0.4465
  217MPD1    N1 3305   4.515   1.272   8.930 -0.5759  0.3603  0.3504
  217MPD1    H6 3306   4.538   1.353   8.874 -0.1493  0.0583  0.0884
  217MPD1    H7 3307   4.577   1.192   8.918 -0.2070  0.6959  0.0290
  218MPD1     C 3308   1.379   3.110  11.565  0.9447 -0.3069  0.6772
  218MPD1    C1 3309   1.396   3.108  11.698  0.6278  1.0032 -1.0977
  218MPD1    C2 3310   1.292   3.051  11.769 -0.3261 -0.0110  0.9724
  218MPD1    C3 3311   1.180   2.996  11.708  0.1523  0.6579  0.2884
  218MPD1    C4 3312   1.166   2.997  11.570 -0.7189  0.1484  0.1775
  218MPD1    C5 3313   1.270   3.055  11.503 -0.8505 -0.5559 -0.3399
  218MPD1     H 3314   1.282   3.058  11.877 -0.7680  0.2144  0.9186
  218MPD1    H1 3315   1.086   2.954  11.511  1.3490 -2.3467 -0.7766
  218MPD1    H2 3316   1.455   3.159  11.505  0.1313  0.3865  0.2142
  218MPD1    H3 3317   1.276   3.060  11.394 -0.5543 -1.0384 -0.3451
  218MPD1     N 3318   1.075   2.937  11.783  0.1480 -0.5496  0.0884
  218MPD1    H5 3319   1.092   2.914  11.880 -0.2630  0.5064  0.4097
  218MPD1    N1 3320   1.490   3.188  11.768  0.2891 -1.2425  0.2574
  218MPD1    H6 3321   1.572   3.199  11.708 -1.5205 -1.2443 -2.2429
  218MPD1    H7 3322   1.514   3.148  11.858 -0.7659  0.5216  1.3044
  219MPD1     C 3323   0.077   2.982  11.884 -0.0166  0.0394 -0.7689
  219MPD1    C1 3324   0.146   2.969  12.007  0.1227  0.1925 -0.5350
  219MPD1    C2 3325   0.283   2.953  11.996 -0.8717  0.9872  0.4444
  219MPD1    C3 3326   0.340   2.899  11.879 -0.2308 -0.4655  0.3539
  219MPD1    C4 3327   0.264   2.914  11.762 -0.3934 -0.0420  0.0682
  219MPD1    C5 3328   0.136   2.952  11.762 -0.0431  1.1745  0.0177
  219MPD1     H 3329   0.340   2.964  12.088  0.3317 -0.2382 -0.1616
  219MPD1    H1 3330   0.314   2.896  11.668 -0.6820  0.5925 -0.2079
  219MPD1    H2 3331   4.697   3.013  11.879  0.1771  0.2713 -3.4589
  219MPD1    H3 3332   0.070   2.957  11.676 -2.1768 -0.3095  1.5605
  219MPD1     N 3333   0.473   2.855  11.865 -0.0472  0.5788 -0.2483
  219MPD1    H5 3334   0.529   2.857  11.779 -1.7982  2.1771 -1.3533
  219MPD1    N1 3335   0.090   3.019  12.127  0.2300  0.2020  0.0053
  219MPD1    H6 3336   4.714   2.994  12.130  0.3948  0.0336  4.3099
  219MPD1    H7 3337   0.132   3.002  12.218 -0.7076 -0.8032  0.2406
  220MPD1     C 3338   0.456   3.468   9.321  0.4241 -0.1490  0.2414
  220MPD1    C1 3339   0.574   3.508   9.379 -0.6422 -0.6100  0.2584
  220MPD1    C2 3340   0.613   3.452   9.496  0.1558  0.7913 -0.8411
  220MPD1    C3 3341   0.535   3.368   9.565 -0.2918  0.1886 -0.1147
  220MPD1    C4 3342   0.415   3.323   9.505  0.3199  0.2378 -0.3799
  220MPD1    C5 3343   0.374   3.373   9.382 -0.7243  0.0397 -0.0142
  220MPD1     H 3344   0.696   3.492   9.553  1.3944  0.3956 -2.3648
  220MPD1    H1 3345   0.345   3.266   9.565 -0.4040  1.7792  0.2436
  220MPD1    H2 3346   0.434   3.504   9.221 -1.4918  1.5891  1.2787
  220MPD1    H3 3347   0.283   3.332   9.340 -1.3778  0.3061  1.1342
  220MPD1     N 3348   0.595   3.306   9.678  0.0441 -0.5317  0.0426
  220MPD1    H5 3349   0.675   3.355   9.718 -0.1902  0.1001 -0.2552
  220MPD1    N1 3350   0.663   3.585   9.302  0.7918  1.1034  0.6531
  220MPD1    H6 3351   0.608   3.640   9.237 -1.2938  1.1179  2.4426
  220MPD1    H7 3352   0.725   3.646   9.356  0.2914  1.0619  1.2787
  221MPD1     C 3353   2.430   3.071  16.244 -0.1045 -0.3062  0.3516
  221MPD1    C1 3354   2.531   3.155  16.204 -0.2980  0.2836  0.2594
  221MPD1    C2 3355   2.661   3.123  16.230 -1.1598 -0.5479  0.9284
  221MPD1    C3 3356   2.694   3.000  16.289 -0.3207  0.2159  0.6166
  221MPD1    C4 3357   2.594   2.910  16.322  0.8552 -0.5616  0.4389
  221MPD1    C5 3358   2.465   2.943  16.289 -0.1588 -0.0969  0.0482
  221MPD1     H 3359   2.735   3.187  16.183 -1.1225 -1.0471  0.3104
  221MPD1    H1 3360   2.619   2.814  16.366 -1.3301 -0.6067  1.5888
  221MPD1    H2 3361   2.326   3.099  16.239 -0.2276 -0.4990  1.7563
  221MPD1    H3 3362   2.388   2.874  16.319 -0.5622  0.3849  0.1204
  221MPD1     N 3363   2.829   2.957  16.303  0.4276 -0.1198 -0.4528
  221MPD1    H5 3364   2.844   2.871  16.355  1.7093  0.1888 -0.3143
  221MPD1    N1 3365   2.497   3.285  16.164 -0.0085  0.5270 -0.2877
  221MPD1    H6 3366   2.403   3.314  16.142  0.2100 -0.5176 -2.6141
  221MPD1    H7 3367   2.568   3.349  16.129  0.0818  0.2776 -0.5594
  222MPD1     C 3368   3.161   1.239  16.794  0.1586 -0.1048 -1.1306
  222MPD1    C1 3369   3.071   1.148  16.749 -0.3043 -0.4773  0.1433
  222MPD1    C2 3370   2.976   1.103  16.841 -0.2372 -0.9933  0.5007
  222MPD1    C3 3371   2.982   1.145  16.974  0.0020 -0.3569 -0.6594
  222MPD1    C4 3372   3.083   1.231  17.019 -0.7862 -0.6081 -0.0123
  222MPD1    C5 3373   3.169   1.284  16.927  0.3642  0.2011 -0.0121
  222MPD1     H 3374   2.896   1.037  16.809 -0.7370  0.4575 -1.2507
  222MPD1    H1 3375   3.086   1.251  17.126 -2.6208 -1.0589  0.1286
  222MPD1    H2 3376   3.242   1.278  16.733 -0.5114  1.1274 -1.2185
  222MPD1    H3 3377   3.245   1.353  16.962  1.4409 -0.3856 -1.1549
  222MPD1     N 3378   2.888   1.092  17.073 -0.8039  0.1028  0.1290
  222MPD1    H5 3379   2.912   1.112  17.170 -0.0659  1.7957 -0.4013
  222MPD1    N1 3380   3.053   1.127  16.610  0.1851 -0.1540  0.1327
  222MPD1    H6 3381   2.994   1.045  16.598 -1.2411  0.7117  1.3443
  222MPD1    H7 3382   3.135   1.120  16.549  1.0056  0.9576  1.1175
  223MPD1     C 3383   2.060   0.524  17.530  0.6375 -0.4594  0.2482
  223MPD1    C1 3384   2.116   0.616  17.610  0.4351 -0.0408 -0.4119
  223MPD1    C2 3385   2.220   0.693  17.574  0.2339 -0.5948 -0.3392
  223MPD1    C3 3386   2.268   0.692  17.450 -0.3330 -0.1702  0.1752
  223MPD1    C4 3387   2.200   0.608  17.361  0.2137 -1.0327  0.1598
  223MPD1    C5 3388   2.108   0.518  17.406 -0.0948  0.0236  1.1641
  223MPD1     H 3389   2.260   0.758  17.651 -0.9180 -0.1691 -0.0959
  223MPD1    H1 3390   2.230   0.604  17.257 -0.3902 -0.1583 -0.0490
  223MPD1    H2 3391   1.979   0.459  17.561  0.1741 -0.8704 -1.8306
  223MPD1    H3 3392   2.065   0.447  17.336  0.9355 -0.2903  0.8451
  223MPD1     N 3393   2.371   0.779  17.414  0.1029  0.0304 -0.8306
  223MPD1    H5 3394   2.414   0.831  17.489 -0.2049 -0.9802  0.0568
  223MPD1    N1 3395   2.075   0.616   0.053  0.4627  0.2911  0.2877
  223MPD1    H6 3396   2.103   0.708   0.087 -0.9223  0.6669  0.4256
  223MPD1    H7 3397   1.978   0.587   0.057 -0.2501  2.7983  1.7443
  224MPD1     C 3398   4.263   2.351   9.131  0.0802  0.1681  0.2271
  224MPD1    C1 3399   4.159   2.441   9.124 -0.8772  0.8009  0.5154
  224MPD1    C2 3400   4.112   2.487   9.243 -0.4351 -0.2191 -0.1014
  224MPD1    C3 3401   4.155   2.446   9.368  1.0529  0.1891 -0.0605
  224MPD1    C4 3402   4.245   2.340   9.365  0.6719 -0.0645  0.2308
  224MPD1    C5 3403   4.307   2.300   9.249  0.0517 -0.6078  0.1295
  224MPD1     H 3404   4.049   2.575   9.239 -1.7307 -1.1750 -0.4608
  224MPD1    H1 3405   4.278   2.297   9.458 -0.7486 -1.6107  0.0141
  224MPD1    H2 3406   4.313   2.320   9.040  2.9307 -1.9339  2.5230
  224MPD1    H3 3407   4.391   2.232   9.236 -0.8304 -1.6790  0.0775
  224MPD1     N 3408   4.122   2.495   9.494  0.0905  0.1488  0.0710
  224MPD1    H5 3409   4.166   2.461   9.579 -0.2894 -2.1433 -0.6661
  224MPD1    N1 3410   4.112   2.485   9.002 -0.2434 -0.5789  0.6487
  224MPD1    H6 3411   4.016   2.518   9.006  0.1615  0.6617 -0.0251
  224MPD1    H7 3412   4.118   2.417   8.926 -2.1042  0.6942 -0.6432
  225MPD1     C 3413   4.247   3.833  12.799  0.4434  0.5534 -0.5658
  225MPD1    C1 3414   4.353   3.750  12.785  0.6879 -0.2354 -0.5017
  225MPD1    C2 3415   4.462   3.806  12.723 -0.2123 -0.2508  0.2569
  225MPD1    C3 3416   4.459   3.924  12.646  0.7805 -0.2037 -0.5792
  225MPD1    C4 3417   4.344   3.998  12.652 -0.7948  0.4306 -0.4584
  225MPD1    C5 3418   4.237   3.945  12.722  0.7005 -0.0729  0.1265
  225MPD1     H 3419   4.553   3.748  12.731  0.5879  1.1855  1.6699
  225MPD1    H1 3420   4.323   4.090  12.598 -1.8430  0.3378 -0.2205
  225MPD1    H2 3421   4.174   3.809  12.876 -0.1584 -2.6128 -2.1154
  225MPD1    H3 3422   4.147   4.006  12.733  1.1516  0.4273  1.0802
  225MPD1     N 3423   4.565   3.979  12.565  0.6618  0.3188 -0.1194
  225MPD1    H5 3424   4.535   4.047  12.497 -0.1379  0.4355  0.3539
  225MPD1    N1 3425   4.357   3.628  12.852 -0.4311  0.0172 -0.0266
  225MPD1    H6 3426   4.268   3.581  12.866 -1.3145  1.4956 -0.6852
  225MPD1    H7 3427   4.425   3.562  12.815 -2.0734 -1.9887  0.5319
  226MPD1     C 3428   0.680   4.474  10.031  0.5737 -0.2523  0.2607
  226MPD1    C1 3429   0.614   4.420  10.137 -0.5136  1.1372  0.6937
  226MPD1    C2 3430   0.533   4.308  10.103  0.2606  0.0001  0.4876
  226MPD1    C3 3431   0.529   4.255   9.975 -0.3678  0.2212 -0.5725
  226MPD1    C4 3432   0.604   4.313   9.881 -0.8167 -0.1194 -0.7745
  226MPD1    C5 3433   0.672   4.425   9.909  0.2994 -0.4651 -0.0803
  226MPD1     H 3434   0.478   4.272  10.189  0.3831 -2.0731 -0.2977
  226MPD1    H1 3435   0.615   4.293   9.775 -0.3266 -2.7586 -0.2272
  226MPD1    H2 3436   0.734   4.566  10.050 -0.9563  0.0957  3.0264
  226MPD1    H3 3437   0.717   4.481   9.828  1.1669  0.8287  1.3154
  226MPD1     N 3438   0.450   4.138   9.943 -0.0074 -0.4130  0.2023
  226MPD1    H5 3439   0.402   4.106  10.027 -0.0434 -0.8292  0.0216
  226MPD1    N1 3440   0.619   4.479  10.264  0.5021  0.2382  0.4905
  226MPD1    H6 3441   0.610   4.415  10.342 -1.0727  0.8421  0.7905
  226MPD1    H7 3442   0.708   4.526  10.280  0.1469  1.0614  0.0331
  227MPD1     C 3443   0.012   3.390   9.228 -0.1816  0.0911  0.8112
  227MPD1    C1 3444   4.711   3.349   9.353  0.2018 -0.4021 -0.1516
  227MPD1    C2 3445   0.042   3.426   9.458 -0.1106  0.4075 -0.0750
  227MPD1    C3 3446   0.102   3.552   9.443  0.6396  1.1942 -0.8561
  227MPD1    C4 3447   0.126   3.591   9.316  0.4229 -0.0984 -0.8311
  227MPD1    C5 3448   0.081   3.515   9.209 -0.0942 -1.0913  0.7389
  227MPD1     H 3449   0.021   3.393   9.559 -1.5738  1.8712  0.0932
  227MPD1    H1 3450   0.170   3.686   9.289  2.0216 -0.4433  0.6199
  227MPD1    H2 3451   4.702   3.326   9.148 -0.1676  1.9894 -0.6975
  227MPD1    H3 3452   0.102   3.559   9.112 -1.1706 -0.7737  0.6489
  227MPD1     N 3453   0.140   3.630   9.562  0.2960  0.1712 -0.0817
  227MPD1    H5 3454   0.115   3.584   9.649  2.8223 -3.6940 -1.3875
  227MPD1    N1 3455   4.659   3.227   9.377  0.5463  0.0281 -0.1938
  227MPD1    H6 3456   4.596   3.212   9.298  1.4575 -1.3709 -0.6570
  227MPD1    H7 3457   4.607   3.218   9.464 -0.5412 -2.0100 -1.0574
  228MPD1     C 3458   2.135   1.882  12.738 -0.2486 -0.3296  0.2563
  228MPD1    C1 3459   2.028   1.935  12.665  0.5285 -0.5033  0.1023
  228MPD1    C2 3460   1.896   1.900  12.693 -0.8726  0.1757 -0.1073
  228MPD1    C3 3461   1.867   1.814  12.800  0.3943  0.8722 -0.0899
  228MPD1    C4 3462   1.969   1.777  12.887 -0.2691 -0.3123 -0.5385
  228MPD1    C5 3463   2.101   1.810  12.854  0.5640  0.4397 -0.8605
  228MPD1     H 3464   1.821   1.941  12.627 -0.7326 -2.0605 -1.6391
  228MPD1    H1 3465   1.953   1.725  12.981  1.6552 -0.4571 -0.2942
  228MPD1    H2 3466   2.237   1.894  12.703 -1.1171 -1.3665 -2.6915
  228MPD1    H3 3467   2.183   1.783  12.919 -0.1907  0.3645  0.0668
  228MPD1     N 3468   1.731   1.763  12.817 -1.1939 -0.7182 -0.1517
  228MPD1    H5 3469   1.663   1.786  12.745  0.0747  1.4802 -0.6356
  228MPD1    N1 3470   2.052   2.006  12.545  0.4037  0.3063  0.1851
  228MPD1    H6 3471   2.139   2.059  12.544  1.3578 -1.2302 -0.0737
  228MPD1    H7 3472   1.974   2.068  12.525  1.9802  2.1510 -0.1826
  229MPD1     C 3473   0.966   0.032  15.357 -0.8238  0.2045  0.1773
  229MPD1    C1 3474   0.992   0.150  15.297  0.9213 -0.1876  0.6981
  229MPD1    C2 3475   1.114   0.168  15.239  0.4566 -0.3880 -0.3921
  229MPD1    C3 3476   1.203   0.064  15.213  0.3447  0.1954 -0.6728
  229MPD1    C4 3477   1.160   4.664  15.256 -0.7786  0.0756  0.9242
  229MPD1    C5 3478   1.048   4.650  15.327  0.4225 -0.0508  0.3509
  229MPD1     H 3479   1.126   0.267  15.196 -2.3796 -0.8800 -2.3356
  229MPD1    H1 3480   1.219   4.575  15.237 -2.0965 -0.3219 -1.2762
  229MPD1    H2 3481   0.882   0.015  15.423 -0.1173  0.3190  1.1114
  229MPD1    H3 3482   1.019   4.553  15.366  0.2952  0.0860  0.5991
  229MPD1     N 3483   1.328   0.066  15.138  0.4197  0.0939 -0.1011
  229MPD1    H5 3484   1.375   4.700  15.129 -1.9456 -1.1524  0.0342
  229MPD1    N1 3485   0.903   0.261  15.302 -0.3416  0.0263 -0.5908
  229MPD1    H6 3486   0.916   0.327  15.225  0.6754  1.2359  0.6176
  229MPD1    H7 3487   0.807   0.234  15.323 -0.0197  0.2959  1.2374
  230MPD1     C 3488   1.930   0.702  15.509 -0.6308 -1.0491 -0.4019
  230MPD1    C1 3489   1.854   0.734  15.405 -0.6818 -0.3159 -0.2167
  230MPD1    C2 3490   1.815   0.636  15.314 -0.0784 -0.5112 -0.4805
  230MPD1    C3 3491   1.878   0.512  15.314  0.1311  0.0022 -0.0098
  230MPD1    C4 3492   1.966   0.484  15.416 -0.7957  0.4969  0.3587
  230MPD1    C5 3493   1.979   0.575  15.521 -0.2902 -0.9997  0.1986
  230MPD1     H 3494   1.740   0.666  15.243  1.1812  1.0396 -1.1449
  230MPD1    H1 3495   2.006   0.385  15.435 -2.5549 -0.6517 -2.0163
  230MPD1    H2 3496   1.950   0.772  15.588  0.0277 -1.0462 -0.5739
  230MPD1    H3 3497   2.041   0.546  15.605  0.4475  2.2034  0.7600
  230MPD1     N 3498   1.817   0.408  15.237  0.4591 -0.0513 -0.1684
  230MPD1    H5 3499   1.741   0.427  15.173 -1.8621 -2.4919  1.8535
  230MPD1    N1 3500   1.793   0.857  15.411 -0.6595  0.1161 -0.4061
  230MPD1    H6 3501   1.841   0.928  15.467 -0.9102 -0.3031  0.3480
  230MPD1    H7 3502   1.770   0.895  15.320 -1.1282 -2.1629 -1.2321
  231MPD1     C 3503   4.404   2.093  15.645  0.4664  0.0397  0.6265
  231MPD1    C1 3504   4.382   2.224  15.601 -0.7050 -0.4962 -0.2510
  231MPD1    C2 3505   4.466   2.274  15.502 -0.0488  0.4202 -0.5166
  231MPD1    C3 3506   4.581   2.213  15.477 -0.3972 -0.0190 -0.2411
  231MPD1    C4 3507   4.605   2.089  15.524 -0.4121  0.0697  0.5629
  231MPD1    C5 3508   4.517   2.032  15.611 -0.2209 -0.4096  0.3246
  231MPD1     H 3509   4.442   2.361  15.442  2.0248  0.9767 -0.5448
  231MPD1    H1 3510   4.692   2.028  15.504  1.4496  2.7191  0.5847
  231MPD1    H2 3511   4.339   2.043  15.716 -1.0922 -0.8982 -1.4650
  231MPD1    H3 3512   4.528   1.930  15.648 -0.4335 -0.9399 -1.0847
  231MPD1     N 3513   4.681   2.279  15.406 -0.0125 -0.0776 -0.1462
  231MPD1    H5 3514   4.658   2.373  15.377 -1.2384 -0.6035 -0.8604
  231MPD1    N1 3515   4.258   2.283  15.622 -1.3220  0.4411  0.3002
  231MPD1    H6 3516   4.252   2.385  15.613  0.6997  0.4528 -0.7430
  231MPD1    H7 3517   4.213   2.263  15.711  0.1680 -1.7303  0.5444
  232MPD1     C 3518   1.381   0.666  17.607 -0.1271 -0.2664  0.0338
  232MPD1    C1 3519   1.365   0.613  17.488 -0.7696  1.1652  0.3514
  232MPD1    C2 3520   1.288   0.495  17.490  0.1124  0.3435 -0.0242
  232MPD1    C3 3521   1.259   0.430  17.615 -0.2311 -0.9590  0.0164
  232MPD1    C4 3522   1.296   0.481   0.038 -0.1715 -0.1907  0.1653
  232MPD1    C5 3523   1.362   0.601   0.032 -0.0465  0.3258  0.1130
  232MPD1     H 3524   1.289   0.445  17.394 -1.6058  0.0169  0.1194
  232MPD1    H1 3525   1.263   0.447   0.136  0.3073  0.7662  0.6489
  232MPD1    H2 3526   1.442   0.755  17.615  1.4721 -1.4211  0.5677
  232MPD1    H3 3527   1.394   0.647   0.125  1.3172 -2.1357  0.8724
  232MPD1     N 3528   1.181   0.311  17.614 -0.6309  0.1028 -0.2902
  232MPD1    H5 3529   1.168   0.265  17.524 -1.9978  0.3440 -0.2201
  232MPD1    N1 3530   1.385   0.679  17.367 -0.3478 -0.0918 -0.4505
  232MPD1    H6 3531   1.410   0.613  17.293  0.2569  0.8449 -1.0928
  232MPD1    H7 3532   1.462   0.745  17.379 -0.4721 -0.0238 -0.0415
  233MPD1     C 3533   2.431   2.916   1.412  0.6118 -0.5266 -0.7623
  233MPD1    C1 3534   2.356   2.801   1.440  0.2023 -0.3988  0.8133
  233MPD1    C2 3535   2.394   2.685   1.384 -0.2125 -0.4114  0.2655
  233MPD1    C3 3536   2.501   2.670   1.302  0.9080 -0.0181 -0.4201
  233MPD1    C4 3537   2.576   2.786   1.278 -0.3632 -0.1488 -0.3890
  233MPD1    C5 3538   2.544   2.908   1.333  0.2678 -0.0888 -1.3909
  233MPD1     H 3539   2.336   2.596   1.403  0.7842 -0.7577  1.6494
  233MPD1    H1 3540   2.658   2.786   1.207  0.2157 -0.8918  0.2823
  233MPD1    H2 3541   2.407   3.021   1.428  0.8394 -0.5645 -0.1838
  233MPD1    H3 3542   2.602   2.996   1.307  0.1280  0.5679  0.5725
  233MPD1     N 3543   2.545   2.556   1.232  0.2647 -0.3953  0.0594
  233MPD1    H5 3544   2.626   2.568   1.172 -1.3463  1.3652 -1.7504
  233MPD1    N1 3545   2.230   2.819   1.487  0.2103 -0.6262 -0.3277
  233MPD1    H6 3546   2.186   2.739   1.533 -1.3018  1.1883  1.3998
  233MPD1    H7 3547   2.242   2.898   1.549 -2.1843 -1.6297  1.4326
  234MPD1     C 3548   0.771   2.348  10.180 -0.1116  0.0662 -0.0112
  234MPD1    C1 3549   0.719   2.243  10.112  0.3320  0.3410  0.1960
  234MPD1    C2 3550   0.593   2.204  10.150 -0.5628  0.1292  0.1202
  234MPD1    C3 3551   0.529   2.247  10.270 -0.4961  0.1401  0.1003
  234MPD1    C4 3552   0.591   2.345  10.333 -0.1471  0.2891 -0.0088
  234MPD1    C5 3553   0.712   2.399  10.289 -0.8927 -0.6646  0.0581
  234MPD1     H 3554   0.528   2.136  10.096  0.9453 -0.5703 -0.7964
  234MPD1    H1 3555   0.558   2.392  10.425  1.3819 -1.8119  1.6265
  234MPD1    H2 3556   0.864   2.391  10.145 -0.3472 -0.2004 -0.9718
  234MPD1    H3 3557   0.764   2.481  10.337 -0.4179 -0.0068 -1.5986
  234MPD1     N 3558   0.401   2.197  10.294 -0.1027  0.4845 -0.2581
  234MPD1    H5 3559   0.369   2.124  10.231  2.3922 -0.9018  0.0669
  234MPD1    N1 3560   0.776   2.194   9.993  0.2094 -0.1562 -0.4280
  234MPD1    H6 3561   0.878   2.202   9.990  0.3601 -2.1916 -0.1804
  234MPD1    H7 3562   0.752   2.103   9.956 -2.5112  0.0675  0.7890
  235MPD1     C 3563   2.058   3.350   9.174  0.0845  0.6120 -1.0152
  235MPD1    C1 3564   2.024   3.425   9.286  0.1669  0.5106  0.6212
  235MPD1    C2 3565   2.011   3.568   9.266  0.9233 -0.3455 -0.6931
  235MPD1    C3 3566   2.066   3.626   9.152  0.2938  0.0293  0.3957
  235MPD1    C4 3567   2.108   3.548   9.043 -0.0800  0.6305 -0.2320
  235MPD1    C5 3568   2.095   3.412   9.054  0.3525 -0.1991 -0.6826
  235MPD1     H 3569   1.985   3.630   9.351  0.0882 -1.1789 -0.3471
  235MPD1    H1 3570   2.148   3.584   8.949 -0.1151  2.1770  0.3401
  235MPD1    H2 3571   2.057   3.241   9.171 -2.3711  0.6729 -2.8075
  235MPD1    H3 3572   2.128   3.353   8.970  0.5480 -1.5037  0.3150
  235MPD1     N 3573   2.076   3.768   9.151  0.0132  0.4691  0.4460
  235MPD1    H5 3574   2.055   3.822   9.235 -1.3670  2.7467 -1.3539
  235MPD1    N1 3575   1.952   3.358   9.391 -0.6271  0.2859 -0.3553
  235MPD1    H6 3576   1.998   3.271   9.416 -2.0700 -0.6573 -1.0061
  235MPD1    H7 3577   1.938   3.424   9.468 -1.4319 -0.1525 -0.1313
  236MPD1     C 3578   0.866   0.542   8.770  0.1910  0.3025 -0.5191
  236MPD1    C1 3579   0.895   0.408   8.756  0.2003 -0.5782  0.3489
  236MPD1    C2 3580   0.930   0.340   8.872 -0.2714 -0.7368  0.6527
  236MPD1    C3 3581   0.939   0.400   8.996  0.0026 -0.2788 -0.2428
  236MPD1    C4 3582   0.921   0.536   9.008  0.0511 -0.0723 -0.5107
  236MPD1    C5 3583   0.886   0.603   8.891  0.0306 -0.6099 -0.4094
  236MPD1     H 3584   0.951   0.234   8.865  2.3342 -0.2010  0.2426
  236MPD1    H1 3585   0.932   0.585   9.104  1.3498 -0.5953 -0.3841
  236MPD1    H2 3586   0.832   0.607   8.690  0.9589  0.7382 -0.4938
  236MPD1    H3 3587   0.884   0.711   8.897 -3.1351 -0.8251  3.0070
  236MPD1     N 3588   0.968   0.334   9.116  0.3228  0.5831 -0.3665
  236MPD1    H5 3589   0.969   0.397   9.195  0.5370  1.2820 -0.9216
  236MPD1    N1 3590   0.853   0.348   8.636 -0.5392  0.4483 -0.2205
  236MPD1    H6 3591   0.883   0.408   8.559 -0.5827 -0.9768 -1.3464
  236MPD1    H7 3592   0.890   0.255   8.621  0.3663  0.8648 -0.5980
  237MPD1     C 3593   0.644   2.888  15.003  0.5481  0.0512  0.4950
  237MPD1    C1 3594   0.583   2.889  15.131 -0.8412  0.5092 -0.2746
  237MPD1    C2 3595   0.464   2.965  15.135  0.1043  0.4120  0.0575
  237MPD1    C3 3596   0.411   3.026  15.024 -0.1398  0.2450  0.7701
  237MPD1    C4 3597   0.475   3.010  14.903  0.0125 -0.2809  0.1514
  237MPD1    C5 3598   0.588   2.945  14.893  0.4191  0.5410 -0.3232
  237MPD1     H 3599   0.428   2.967  15.237  1.6906  1.0607  0.6135
  237MPD1    H1 3600   0.431   3.051  14.813 -0.1241 -0.8959 -0.0603
  237MPD1    H2 3601   0.739   2.837  14.992  1.0499  0.9769  0.5816
  237MPD1    H3 3602   0.629   2.937  14.792 -0.3182  0.7362 -0.6355
  237MPD1     N 3603   0.290   3.087  15.025  0.0051 -0.4244  0.3412
  237MPD1    H5 3604   0.252   3.115  14.935  1.0743 -0.8777 -0.2425
  237MPD1    N1 3605   0.623   2.791  15.224  0.1609  0.8054 -0.0293
  237MPD1    H6 3606   0.723   2.772  15.229 -0.0782 -0.3560  0.3006
  237MPD1    H7 3607   0.586   2.816  15.315 -1.4274  0.9256 -0.7127
  238MPD1     C 3608   1.640   2.470  15.421  0.4766 -0.0984  0.6827
  238MPD1    C1 3609   1.657   2.578  15.335 -0.9165 -0.4426  0.1567
  238MPD1    C2 3610   1.649   2.544  15.199 -0.0858  0.2430  0.2797
  238MPD1    C3 3611   1.629   2.408  15.159  1.1398  0.7417  0.2784
  238MPD1    C4 3612   1.629   2.302  15.256  0.3342 -0.1787  0.3348
  238MPD1    C5 3613   1.633   2.340  15.385 -0.5047 -0.3135 -0.2420
  238MPD1     H 3614   1.621   2.625  15.134  2.1589  1.2928  0.6344
  238MPD1    H1 3615   1.616   2.196  15.238 -1.1014  0.2976 -1.4573
  238MPD1    H2 3616   1.650   2.484  15.528  0.8463 -1.3416  0.8114
  238MPD1    H3 3617   1.634   2.264  15.462  0.4800  1.6639  1.7021
  238MPD1     N 3618   1.604   2.363  15.029  0.1133  0.2065  0.4123
  238MPD1    H5 3619   1.594   2.263  15.013 -0.4954  0.1817  0.9157
  238MPD1    N1 3620   1.655   2.709  15.385 -0.4551 -0.4330  0.2080
  238MPD1    H6 3621   1.710   2.773  15.329 -1.3984 -0.0461 -0.2859
  238MPD1    H7 3622   1.700   2.713  15.476 -2.6341  1.0409  1.2488
  239MPD1     C 3623   2.812   2.905  14.515  0.2475 -0.3729 -0.3730
  239MPD1    C1 3624   2.697   2.946  14.584  0.1244  0.1118 -0.0073
  239MPD1    C2 3625   2.591   3.012  14.523 -0.1501  0.5215  0.4979
  239MPD1    C3 3626   2.608   3.037  14.390 -0.5182  0.2268  0.0083
  239MPD1    C4 3627   2.729   3.006  14.322  0.0560 -0.4678  0.2339
  239MPD1    C5 3628   2.830   2.935  14.382  0.5974 -0.9043  0.3559
  239MPD1     H 3629   2.499   3.035  14.576 -1.7820 -1.0936 -1.6433
  239MPD1    H1 3630   2.745   3.030  14.218  0.8631 -0.5184  0.3495
  239MPD1    H2 3631   2.895   2.855  14.562 -1.0314 -1.1680  1.0364
  239MPD1    H3 3632   2.922   2.903  14.333  1.5250  3.1455 -0.5007
  239MPD1     N 3633   2.514   3.109  14.312 -0.3005 -0.1588 -0.2192
  239MPD1    H5 3634   2.555   3.124  14.221  0.0701  0.6063  0.0732
  239MPD1    N1 3635   2.690   2.924  14.725  0.0438  0.7355  0.5144
  239MPD1    H6 3636   2.733   2.836  14.753 -0.0240  1.3332  2.5207
  239MPD1    H7 3637   2.593   2.931  14.757 -0.5103  2.1837 -1.5397
  240MPD1     C 3638   1.804   2.761  13.469  0.3650 -0.1488 -0.2220
  240MPD1    C1 3639   1.867   2.786  13.584  0.0611 -0.0286  0.3459
  240MPD1    C2 3640   1.784   2.797  13.702  0.7016 -0.1194 -0.3522
  240MPD1    C3 3641   1.647   2.778  13.706  0.6540 -0.4113 -0.1201
  240MPD1    C4 3642   1.595   2.739  13.584  0.1984 -0.2126  0.6363
  240MPD1    C5 3643   1.669   2.726  13.471 -0.5519  0.1387  0.2243
  240MPD1     H 3644   1.834   2.820  13.795  1.4612 -3.8917  0.1594
  240MPD1    H1 3645   1.489   2.727  13.569  0.8622 -2.5583 -2.1302
  240MPD1    H2 3646   1.851   2.763  13.371  1.3611  0.7374  0.2658
  240MPD1    H3 3647   1.627   2.701  13.375  1.2856  0.7586 -0.7577
  240MPD1     N 3648   1.572   2.789  13.830  0.5431 -0.2644  0.2253
  240MPD1    H5 3649   1.621   2.816  13.915  3.1119  1.1762 -1.6872
  240MPD1    N1 3650   2.000   2.831  13.580 -0.5169  0.8530 -0.3008
  240MPD1    H6 3651   2.049   2.789  13.501 -2.9975 -0.9338 -0.9017
  240MPD1    H7 3652   2.051   2.824  13.668 -1.5937  1.7920  0.3853
  241MPD1     C 3653   1.881   2.949  14.714 -0.3772  0.9672 -0.5353
  241MPD1    C1 3654   1.913   2.959  14.582 -0.3097 -0.3029 -0.4644
  241MPD1    C2 3655   1.821   2.912  14.492 -0.0379  0.4464  0.2666
  241MPD1    C3 3656   1.701   2.856  14.530  0.3386 -0.0775 -0.4705
  241MPD1    C4 3657   1.688   2.820  14.661  0.1088  0.4298  0.4338
  241MPD1    C5 3658   1.779   2.858  14.753  0.0815 -1.2183  0.6376
  241MPD1     H 3659   1.854   2.927  14.390  0.8672 -1.2366  0.3229
  241MPD1    H1 3660   1.602   2.762  14.693 -1.0233  0.8697 -1.7764
  241MPD1    H2 3661   1.959   2.991  14.776 -1.9104  2.4070  0.4161
  241MPD1    H3 3662   1.768   2.839  14.859 -0.1197  2.3353  1.2588
  241MPD1     N 3663   1.599   2.832  14.431  0.4561  0.2843  0.1887
  241MPD1    H5 3664   1.526   2.777  14.475  0.4233 -0.8853 -1.2918
  241MPD1    N1 3665   2.020   3.034  14.532  0.1987  0.0132  0.0405
  241MPD1    H6 3666   2.101   3.018  14.591  1.0514 -2.8993 -1.9345
  241MPD1    H7 3667   2.050   3.007  14.438  0.0562 -3.0272  0.8849
  242MPD1     C 3668   1.400   1.353  15.873 -0.3176 -0.3334 -0.1047
  242MPD1    C1 3669   1.338   1.460  15.821  0.8040 -1.2047  1.0341
  242MPD1    C2 3670   1.381   1.505  15.698  0.0822  0.3019  0.0956
  242MPD1    C3 3671   1.473   1.440  15.619 -0.3633 -0.0306  0.1479
  242MPD1    C4 3672   1.537   1.330  15.679  0.1886 -0.2331  0.1350
  242MPD1    C5 3673   1.496   1.286  15.800  0.2104 -0.0031  0.6244
  242MPD1     H 3674   1.347   1.603  15.668 -1.3122  0.3196  1.7636
  242MPD1    H1 3675   1.610   1.265  15.634  0.7722 -0.1613  0.9652
  242MPD1    H2 3676   1.375   1.320  15.973 -0.6809  4.4208  1.3587
  242MPD1    H3 3677   1.547   1.198  15.839 -1.2385 -0.6140  1.1705
  242MPD1     N 3678   1.502   1.481  15.482 -0.2932  0.1267 -0.1339
  242MPD1    H5 3679   1.571   1.425  15.432  1.1568  0.2982  1.6693
  242MPD1    N1 3680   1.265   1.540  15.909 -0.7615  0.4145 -0.3707
  242MPD1    H6 3681   1.189   1.591  15.864 -0.6907  0.0673 -0.8920
  242MPD1    H7 3682   1.229   1.492  15.990  0.8044  0.7519  0.5270
  243MPD1     C 3683   3.437   0.259  17.469  0.4504  0.1549  0.6879
  243MPD1    C1 3684   3.370   0.314  17.367 -0.0422 -0.1041  0.0092
  243MPD1    C2 3685   3.264   0.243  17.310 -0.8654 -0.6046  0.0179
  243MPD1    C3 3686   3.209   0.129  17.364 -0.1067  0.4959 -0.0442
  243MPD1    C4 3687   3.276   0.074  17.478  0.3118  0.0025  0.1624
  243MPD1    C5 3688   3.384   0.142  17.527 -0.6091  0.6011 -0.1212
  243MPD1     H 3689   3.217   0.272  17.217 -0.6749  3.1216  1.0760
  243MPD1    H1 3690   3.249   4.701  17.520 -0.1839  0.0183 -0.1194
  243MPD1    H2 3691   3.529   0.307  17.500  0.1041 -0.1935  2.3038
  243MPD1    H3 3692   3.439   0.091  17.606  0.7490 -1.1022 -2.1783
  243MPD1     N 3693   3.099   0.078  17.298 -0.5144  0.0262  0.0181
  243MPD1    H5 3694   3.075   0.135  17.218  0.1788 -0.7433 -0.7339
  243MPD1    N1 3695   3.411   0.431  17.302  0.2589 -0.2796 -0.3952
  243MPD1    H6 3696   3.335   0.488  17.266  0.9066  0.6624 -0.2698
  243MPD1    H7 3697   3.472   0.494  17.353 -0.0615 -0.5549  0.3300
  244MPD1     C 3698   2.169   4.467  17.512 -0.3196  0.4218  0.1169
  244MPD1    C1 3699   2.278   4.480  17.598 -0.2722  0.4281 -0.5690
  244MPD1    C2 3700   2.398   4.496  17.539 -0.1557  0.4477  0.0180
  244MPD1    C3 3701   2.420   4.500  17.400  0.3962  0.1029  0.4633
  244MPD1    C4 3702   2.311   4.484  17.323  0.4992  0.1644 -0.1556
  244MPD1    C5 3703   2.187   4.472  17.377 -0.2051 -0.1487  0.2289
  244MPD1     H 3704   2.480   4.502  17.609  0.2583  1.1898 -0.5223
  244MPD1    H1 3705   2.322   4.486  17.215  2.0609  1.4437  0.0345
  244MPD1    H2 3706   2.067   4.458  17.548 -0.5215  0.1969 -0.5093
  244MPD1    H3 3707   2.101   4.446  17.317  0.0342 -0.9978  0.2478
  244MPD1     N 3708   2.555   4.517  17.352 -0.2349 -0.1001  0.4022
  244MPD1    H5 3709   2.627   4.544  17.418  0.7205 -0.1560 -0.6104
  244MPD1    N1 3710   2.265   4.469   0.043 -0.0370 -0.7050  0.2625
  244MPD1    H6 3711   2.345   4.413   0.070 -1.7286 -3.4881 -0.4430
  244MPD1    H7 3712   2.179   4.416   0.061  1.1395 -3.2106 -1.5435
  245MPD1     C 3713   3.839   0.270  13.203  0.0568  0.4491  0.4006
  245MPD1    C1 3714   3.805   0.395  13.252 -0.5944  0.2909  0.5086
  245MPD1    C2 3715   3.900   0.489  13.279 -0.0688  0.4187  0.1794
  245MPD1    C3 3716   4.034   0.463  13.267  0.6770 -0.3442  0.0090
  245MPD1    C4 3717   4.072   0.343  13.212 -0.1050  0.4072  0.2866
  245MPD1    C5 3718   3.970   0.248  13.192 -0.5320  0.1117 -0.2320
  245MPD1     H 3719   3.867   0.590  13.300  0.6030  0.2888  1.8786
  245MPD1    H1 3720   4.174   0.308  13.198 -0.3551 -0.3543  0.3819
  245MPD1    H2 3721   3.762   0.199  13.173  1.1430 -0.2722 -0.6969
  245MPD1    H3 3722   3.994   0.156  13.140  0.2091 -0.7862  1.7130
  245MPD1     N 3723   4.123   0.562  13.314  0.4248 -0.4738  0.1379
  245MPD1    H5 3724   4.084   0.649  13.349  2.0161  0.7986 -1.2164
  245MPD1    N1 3725   3.667   0.430  13.257  0.0819 -0.1808  0.1680
  245MPD1    H6 3726   3.648   0.461  13.352  1.0045  0.6749  0.0856
  245MPD1    H7 3727   3.602   0.356  13.235  1.3939 -0.9868 -1.0059
  246MPD1     C 3728   2.475   1.249   9.232 -0.4978 -0.4512  0.3458
  246MPD1    C1 3729   2.362   1.191   9.175  0.3120  0.0640  0.0293
  246MPD1    C2 3730   2.253   1.275   9.168 -0.5232 -0.2280  0.1095
  246MPD1    C3 3731   2.246   1.405   9.206 -0.3004  0.0614 -0.3898
  246MPD1    C4 3732   2.363   1.472   9.247 -0.2830  0.3072  0.3257
  246MPD1    C5 3733   2.473   1.388   9.252 -0.8787 -0.0383 -0.3423
  246MPD1     H 3734   2.164   1.220   9.139 -1.2413  0.2251  1.4485
  246MPD1    H1 3735   2.352   1.574   9.283  0.9167  0.2695  0.7904
  246MPD1    H2 3736   2.562   1.188   9.253  0.2329  0.3754 -0.2761
  246MPD1    H3 3737   2.552   1.439   9.306  0.9390 -1.6153 -1.5094
  246MPD1     N 3738   2.117   1.467   9.170 -0.4740  0.0772 -0.4580
  246MPD1    H5 3739   2.047   1.403   9.133 -1.3777  0.1436  1.1376
  246MPD1    N1 3740   2.355   1.050   9.150  0.0898  0.0936 -0.2151
  246MPD1    H6 3741   2.281   1.029   9.083  0.1265 -1.2043  0.1593
  246MPD1    H7 3742   2.439   1.002   9.119 -0.4148 -0.7803 -0.2444
  247MPD1     C 3743   3.642   0.721  16.768  0.7493 -0.5987 -0.0195
  247MPD1    C1 3744   3.618   0.597  16.822 -0.3418 -0.4708 -0.1877
  247MPD1    C2 3745   3.664   0.480  16.759 -0.4302 -0.1440 -0.1755
  247MPD1    C3 3746   3.733   0.481  16.644  0.1183  0.0923 -0.1289
  247MPD1    C4 3747   3.746   0.605  16.581  0.0932  0.1636 -0.6434
  247MPD1    C5 3748   3.696   0.721  16.645 -0.1919 -0.1332 -0.1983
  247MPD1     H 3749   3.655   0.386  16.813 -0.2417 -0.1091 -0.0849
  247MPD1    H1 3750   3.793   0.618  16.485 -0.9186  0.2319 -1.1347
  247MPD1    H2 3751   3.608   0.815  16.811  1.3372 -0.9958  1.3323
  247MPD1    H3 3752   3.697   0.816  16.593  0.9457  0.0194  0.1136
  247MPD1     N 3753   3.795   0.372  16.579  0.3407  0.2145  0.5342
  247MPD1    H5 3754   3.856   0.404  16.505 -1.4939 -0.5738 -1.3282
  247MPD1    N1 3755   3.545   0.586  16.942 -0.0812  0.1398  0.1736
  247MPD1    H6 3756   3.468   0.653  16.939 -0.7542 -0.6903 -0.9022
  247MPD1    H7 3757   3.496   0.497  16.951  0.2457  0.1488  2.0874
  248MPD1     C 3758   0.256   4.570  17.555 -0.2627  0.2063 -0.2461
  248MPD1    C1 3759   0.282   4.697  17.604  0.6571 -0.4690 -0.4526
  248MPD1    C2 3760   0.190   0.039  17.685  0.4463 -0.2356  0.0463
  248MPD1    C3 3761   0.072   4.701   0.020 -0.2395  0.0434 -0.4860
  248MPD1    C4 3762   0.053   4.579  17.652  0.7553 -0.4589 -0.4719
  248MPD1    C5 3763   0.140   4.503  17.577 -0.0738  0.5099 -0.1891
  248MPD1     H 3764   0.213   0.135   0.035 -1.0553 -0.2966  0.9359
  248MPD1    H1 3765   4.680   4.530  17.666  0.1151  0.5445 -1.2957
  248MPD1    H2 3766   0.331   4.514  17.500  0.4039  0.9365 -0.0770
  248MPD1    H3 3767   0.119   4.411  17.523  2.4734  0.2721 -0.7734
  248MPD1     N 3768   4.698   0.043   0.101 -0.2795  0.4775  0.1778
  248MPD1    H5 3769   0.008   0.125   0.151  0.6651 -0.4722  1.0990
  248MPD1    N1 3770   0.411   0.025  17.595 -0.7446 -0.0679  0.1628
  248MPD1    H6 3771   0.452   4.720  17.506  0.4052 -2.7256  1.5140
  248MPD1    H7 3772   0.421   0.126  17.597 -0.4277 -0.1516  2.6091
  249MPD1     C 3773   1.562   2.709   9.942 -0.2000 -0.7523  0.5925
  249MPD1    C1 3774   1.688   2.748   9.972  0.3165  0.0528  0.4643
  249MPD1    C2 3775   1.714   2.883   9.948 -0.1414 -1.0272  0.9053
  249MPD1    C3 3776   1.644   2.961   9.865  0.2251  0.0459  0.4050
  249MPD1    C4 3777   1.526   2.911   9.817 -0.0150  0.1525 -0.2875
  249MPD1    C5 3778   1.483   2.791   9.855  0.1641 -0.0845 -1.2475
  249MPD1     H 3779   1.808   2.921   9.987 -1.5704  2.8022  0.6079
  249MPD1    H1 3780   1.466   2.976   9.755 -0.6805  0.5359  0.7630
  249MPD1    H2 3781   1.515   2.616   9.970 -2.0652  0.5515  1.7665
  249MPD1    H3 3782   1.387   2.753   9.821  0.2127 -0.7245 -0.6680
  249MPD1     N 3783   1.694   3.088   9.845 -0.2135  0.2908 -0.2428
  249MPD1    H5 3784   1.774   3.112   9.903  0.0436  0.5865 -0.7232
  249MPD1    N1 3785   1.772   2.665  10.051  0.3194  0.0707 -0.0259
  249MPD1    H6 3786   1.749   2.567  10.033 -0.8933  0.1733  0.9084
  249MPD1    H7 3787   1.872   2.680  10.043  0.6671 -0.9145  2.4203
  250MPD2     C 3788   2.555   3.503  13.238  0.3676  0.2033  0.0790
  250MPD2    C1 3789   2.548   3.544  13.104 -0.0523  0.3824 -0.0283
  250MPD2    C2 3790   2.490   3.454  13.006 -0.2205  0.2743  0.2619
  250MPD2    C3 3791   2.452   3.327  13.042 -0.3712 -0.7842 -0.4265
  250MPD2    C4 3792   2.459   3.292  13.176  0.0037 -0.6599 -0.3429
  250MPD2    C5 3793   2.511   3.376  13.268 -0.2544 -0.0321  0.4658
  250MPD2     H 3794   2.499   3.480  12.901 -0.0841 -0.2513  0.1442
  250MPD2    H1 3795   2.433   3.193  13.212 -0.0637  0.1799  1.9461
  250MPD2    H2 3796   2.584   3.562  13.324  2.4537 -2.9348  1.5229
  250MPD2    H3 3797   2.513   3.333  13.368 -2.5426 -0.3476  0.3812
  250MPD2     N 3798   2.414   3.221  12.954  0.3759  0.0329 -0.2402
  250MPD2    H5 3799   2.423   3.127  12.992 -2.1583 -0.1190 -0.0340
  250MPD2    N1 3800   2.605   3.667  13.061 -0.1395 -0.7930  0.3903
  250MPD2    H7 3801   2.633   3.722  13.142 -1.0097  1.5006 -0.8510
  251TMC3    C1 3802   2.667   3.835  12.911  0.4435  0.5004  0.5374
  251TMC3    C2 3803   2.621   3.928  12.999  0.1494  0.3954  0.3203
  251TMC3    C3 3804   2.629   4.058  12.966 -0.0988  0.5268  0.0309
  251TMC3    C4 3805   2.719   3.884  12.793  0.3529 -0.7172 -0.1220
  251TMC3    C5 3806   2.734   4.024  12.763  0.9101 -0.3131  1.0417
  251TMC3    C6 3807   2.685   4.110  12.856 -0.2622  0.0827 -0.1757
  251TMC3     C 3808   2.644   3.694  12.933 -0.5465 -0.1889 -0.5596
  251TMC3     O 3809   2.647   3.620  12.835  0.2318 -0.5127 -0.1991
  251TMC3     H 3810   2.582   3.903  13.097 -2.5359 -0.0792 -0.8576
  251TMC3    H1 3811   2.774   3.809  12.737  3.6813  1.2456  0.4885
  251TMC3    H2 3812   2.694   4.216  12.835 -2.1795  0.5323  1.2646
  251TMC3    C7 3813   2.863   4.066  12.707  0.0811  0.5019 -0.0427
  251TMC3    C8 3814   2.571   4.155  13.057  0.1522  0.3297 -0.2451
  251TMC3    O1 3815   2.929   4.160  12.756  0.5180  0.0012 -0.3175
  251TMC3    O2 3816   2.595   4.141  13.179  0.2208  0.0306 -0.3151
  252TMC3    C1 3817   3.840   4.355   9.228 -0.5670  0.1437  0.1699
  252TMC3    C2 3818   3.920   4.448   9.164  0.0402  0.8675  0.0515
  252TMC3    C3 3819   3.896   4.496   9.041 -1.0383  0.3188 -0.4739
  252TMC3    C4 3820   3.729   4.315   9.158  0.4839 -0.1827 -0.5348
  252TMC3    C5 3821   3.701   4.366   9.030 -0.5504 -0.0512  0.0060
  252TMC3    C6 3822   3.782   4.460   8.973  0.8413 -0.3512  0.8427
  252TMC3     C 3823   3.852   4.348   9.369  0.5103  0.1489 -0.3325
  252TMC3     O 3824   3.937   4.423   9.417 -0.0965  0.4183  0.3103
  252TMC3     H 3825   4.011   4.480   9.212 -1.0821  0.1006  2.7029
  252TMC3    H1 3826   3.656   4.254   9.210 -0.0370  0.7703 -0.1449
  252TMC3    H2 3827   3.751   4.518   8.886 -0.0498 -2.3851 -0.1908
  252TMC3    C7 3828   3.567   4.362   8.985 -0.1439  0.5561  0.5704
  252TMC3    C8 3829   3.999   4.552   8.951 -0.5079 -1.2933 -0.0680
  252TMC3    O1 3830   3.524   4.460   8.930 -0.1186 -0.3862  0.3347
  252TMC3    O2 3831   3.987   4.542   8.833  0.0718  0.1733  0.2990
  253MPD2     C 3832   4.047   3.388  14.965 -0.6848  0.0116  0.4731
  253MPD2    C1 3833   4.040   3.522  14.957  0.3895 -0.7152  0.3588
  253MPD2    C2 3834   4.100   3.594  15.064  0.0426 -0.6512  0.6296
  253MPD2    C3 3835   4.161   3.524  15.173  0.8481  0.6208  0.1753
  253MPD2    C4 3836   4.169   3.388  15.168 -0.0923 -0.1173  0.2189
  253MPD2    C5 3837   4.111   3.317  15.066 -0.3354  0.2648  0.0895
  253MPD2     H 3838   4.078   3.700  15.070  1.8343 -0.3279  1.4114
  253MPD2    H1 3839   4.219   3.333  15.247  1.5529  0.1053 -0.6628
  253MPD2    H2 3840   4.001   3.322  14.891  0.0069  1.2337 -1.0379
  253MPD2    H3 3841   4.114   3.211  15.046  2.9115  0.1610  1.1421
  253MPD2     N 3842   4.230   3.597  15.275 -0.1275 -0.3629 -0.5720
  253MPD2    H5 3843   4.299   3.543  15.326 -0.1965  1.0604  1.0369
  253MPD2    N1 3844   3.965   3.571  14.846  0.1452 -0.3037 -0.2775
  253MPD2    H7 3845   3.924   3.502  14.785  3.8257 -0.8167 -2.1709
  254TMC3    C1 3846   4.294   3.792  15.405  0.4210 -0.0898  0.7154
  254TMC3    C2 3847   4.235   3.895  15.469  0.8200 -0.1557  0.3012
  254TMC3    C3 3848   4.268   3.916  15.603 -0.3744  0.1569  0.7883
  254TMC3    C4 3849   4.395   3.717  15.463  0.0476 -0.1449 -0.7476
  254TMC3    C5 3850   4.422   3.746  15.593  0.3028  0.5580 -0.4239
  254TMC3    C6 3851   4.368   3.844  15.666 -0.5810 -0.3201 -0.1386
  254TMC3     C 3852   4.211   3.732  15.300 -0.0336 -0.2282  0.5351
  254TMC3     O 3853   4.103   3.792  15.280  0.4652 -0.5861  0.4255
  254TMC3     H 3854   4.164   3.963  15.425  1.5736  0.2691 -0.2663
  254TMC3    H1 3855   4.447   3.645  15.401 -1.9767 -2.1224 -0.1543
  254TMC3    H2 3856   4.398   3.864  15.768 -3.0126  1.5884  0.1954
  254TMC3    C7 3857   4.517   3.672  15.675  0.0493  0.3981  1.0195
  254TMC3    C8 3858   4.178   3.990  15.682 -0.4418 -0.0810  0.9616
  254TMC3    O1 3859   4.501   3.676  15.796 -0.0878  0.3857  0.0148
  254TMC3    O2 3860   4.217   4.017  15.799  0.3213 -0.2065 -0.2377
  255MPD2     C 3861   3.316   0.776  10.511  0.0982  0.2987 -0.6611
  255MPD2    C1 3862   3.354   0.905  10.491 -0.6448  0.0680  0.3248
  255MPD2    C2 3863   3.406   0.932  10.364 -0.1843 -0.7414 -0.4209
  255MPD2    C3 3864   3.417   0.833  10.267  0.1746 -0.1120 -0.1869
  255MPD2    C4 3865   3.372   0.701  10.295 -0.3963 -0.8187  0.3614
  255MPD2    C5 3866   3.316   0.676  10.418  0.0160 -0.2413  0.1880
  255MPD2     H 3867   3.447   1.031  10.344 -4.2248  0.6675 -1.5873
  255MPD2    H1 3868   3.360   0.630  10.214 -2.0885 -2.4079  2.0001
  255MPD2    H2 3869   3.271   0.749  10.607  0.0080  0.9807 -0.5156
  255MPD2    H3 3870   3.254   0.590  10.438 -2.4983  1.2591 -1.0307
  255MPD2     N 3871   3.451   0.872  10.137  0.1609 -0.2068  0.5855
  255MPD2    H5 3872   3.446   0.973  10.130 -1.4623 -0.2551  1.1179
  255MPD2    N1 3873   3.338   1.010  10.590  0.4648  0.2060  0.6761
  255MPD2    H7 3874   3.378   1.100  10.565  0.5164 -0.1399 -0.4687
  256TMC3    C1 3875   3.260   1.125  10.772  0.0355 -0.3807 -0.8859
  256TMC3    C2 3876   3.364   1.213  10.748  0.0688  0.9001 -0.1129
  256TMC3    C3 3877   3.331   1.351  10.733 -0.0313  0.1338 -0.2362
  256TMC3    C4 3878   3.129   1.170  10.755  0.4096  0.5036 -0.2444
  256TMC3    C5 3879   3.109   1.301  10.719  0.0571  0.4406  0.3274
  256TMC3    C6 3880   3.208   1.394  10.704  0.0979  0.1490  0.5869
  256TMC3     C 3881   3.272   0.993  10.709 -0.2409 -0.3706 -0.0504
  256TMC3     O 3882   3.198   0.905  10.748  0.0650  0.4542  0.0949
  256TMC3     H 3883   3.467   1.181  10.748 -0.2691 -0.2024  0.1790
  256TMC3    H1 3884   3.048   1.103  10.780 -0.6509  1.8879  0.0257
  256TMC3    H2 3885   3.187   1.498  10.681 -1.0560 -0.3208 -0.4919
  256TMC3    C7 3886   2.978   1.321  10.668  0.1273  0.1896 -0.2902
  256TMC3    C8 3887   3.444   1.435  10.707  0.3721 -0.2867 -0.0387
  256TMC3    O1 3888   2.940   1.216  10.610 -0.7679 -0.2047  0.5694
  256TMC3    O2 3889   3.547   1.410  10.771  0.4168 -0.3166  0.3434
  257MPD2     C 3890   1.935   3.825  12.876  0.3735  0.5729 -0.0632
  257MPD2    C1 3891   1.884   3.726  12.798  0.2766 -0.4050 -0.3250
  257MPD2    C2 3892   1.839   3.611  12.870  0.4212 -0.6196 -0.2210
  257MPD2    C3 3893   1.836   3.606  13.011  0.1588 -0.2266  0.7418
  257MPD2    C4 3894   1.875   3.719  13.085  0.7566  0.0437  0.2817
  257MPD2    C5 3895   1.926   3.823  13.015 -0.5057 -0.3032  0.0071
  257MPD2     H 3896   1.808   3.521  12.817 -1.1066  0.2787 -0.8269
  257MPD2    H1 3897   1.884   3.720  13.193  0.8101  1.0661  0.2690
  257MPD2    H2 3898   1.973   3.914  12.827 -0.9033  0.5330 -1.1381
  257MPD2    H3 3899   1.959   3.902  13.082  0.2936 -1.2454  0.7377
  257MPD2     N 3900   1.796   3.489  13.078 -0.2566  0.2109  0.3374
  257MPD2    H5 3901   1.777   3.407  13.021  0.5492  0.6145 -0.5025
  257MPD2    N1 3902   1.873   3.747  12.659 -0.3687  0.2384 -0.5975
  257MPD2    H7 3903   1.899   3.836  12.620 -0.0833  0.6102  0.4373
  258TMC3    C1 3904   1.777   3.343  13.260  0.5172 -0.0322  0.7523
  258TMC3    C2 3905   1.838   3.242  13.181  0.1577  0.6030 -0.4548
  258TMC3    C3 3906   1.870   3.126  13.246  0.0119 -0.4849 -0.1638
  258TMC3    C4 3907   1.749   3.329  13.397  0.0917  0.5282 -0.2792
  258TMC3    C5 3908   1.797   3.210  13.450 -0.8354  0.7260 -0.6204
  258TMC3    C6 3909   1.865   3.114  13.378  0.2958 -0.2282  0.5040
  258TMC3     C 3910   1.785   3.475  13.218  0.4039  0.1036 -0.2821
  258TMC3     O 3911   1.775   3.561  13.308  0.0792 -0.3378 -0.4122
  258TMC3     H 3912   1.880   3.262  13.083  1.9390  3.4169  0.8636
  258TMC3    H1 3913   1.711   3.406  13.463  0.3505  3.4821 -3.5677
  258TMC3    H2 3914   1.890   3.024  13.433  1.4600  1.0713  2.0867
  258TMC3    C7 3915   1.787   3.209  13.597  0.0049 -0.0284  0.1454
  258TMC3    C8 3916   1.949   3.032  13.174 -0.6720 -0.5753 -0.1686
  258TMC3    O1 3917   1.733   3.299  13.653 -0.3914 -0.0775 -0.3729
  258TMC3    O2 3918   2.006   2.944  13.237 -0.4037  0.8725  0.5877
  259MPD2     C 3919   4.326   4.280   0.916  0.5389 -0.2749 -0.4343
  259MPD2    C1 3920   4.430   4.313   0.999  0.6488  0.0164  0.5866
  259MPD2    C2 3921   4.553   4.277   0.958 -0.1664  0.2630 -0.5178
  259MPD2    C3 3922   4.575   4.205   0.843 -0.1914  0.6151  0.4932
  259MPD2    C4 3923   4.471   4.176   0.764  0.0326 -0.1150 -0.9455
  259MPD2    C5 3924   4.345   4.212   0.805  0.3119  0.8604 -0.2519
  259MPD2     H 3925   4.640   4.313   1.011  0.9490 -2.2202 -0.6723
  259MPD2    H1 3926   4.474   4.134   0.664  0.3628  2.5099 -2.0267
  259MPD2    H2 3927   4.225   4.311   0.939  0.6652 -1.0546  1.1513
  259MPD2    H3 3928   4.263   4.210   0.736 -0.6089 -0.4575  0.8820
  259MPD2     N 3929   4.703   4.190   0.799 -0.2177  0.0597  0.4025
  259MPD2    H5 3930   0.051   4.245   0.845 -1.3935  0.5103  1.6701
  259MPD2    N1 3931   4.395   4.388   1.109 -0.0427 -0.2673  0.1552
  259MPD2    H7 3932   4.296   4.408   1.124 -0.1666 -0.6503 -0.1360
  260TMC3    C1 3933   0.161   4.113   0.652  0.1550 -0.0483  0.0884
  260TMC3    C2 3934   0.223   4.234   0.678 -0.2345  0.5350 -0.3791
  260TMC3    C3 3935   0.321   4.275   0.596  0.0273  0.1538  0.1446
  260TMC3    C4 3936   0.197   4.036   0.547 -0.9366  0.7486 -0.4433
  260TMC3    C5 3937   0.284   4.094   0.460  1.0034  0.0474  0.5694
  260TMC3    C6 3938   0.352   4.210   0.486 -0.0180  0.5890 -0.8199
  260TMC3     C 3939   0.022   4.099   0.699 -0.1929 -0.5004  0.0015
  260TMC3     O 3940   4.670   4.028   0.633  0.6584  0.2328 -0.8626
  260TMC3     H 3941   0.202   4.294   0.766  0.9733 -0.2480  0.4320
  260TMC3    H1 3942   0.151   3.939   0.536  0.0781  0.3425 -1.0841
  260TMC3    H2 3943   0.438   4.237   0.427  1.6774 -0.9279  0.9564
  260TMC3    C7 3944   0.348   4.000   0.378 -0.2910  0.5762 -0.7220
  260TMC3    C8 3945   0.382   4.409   0.620 -0.0445 -0.3387  0.5284
  260TMC3    O1 3946   0.356   3.881   0.416  0.1534  0.0768 -0.2407
  260TMC3    O2 3947   0.334   4.480   0.707  0.2710 -0.3704  0.4622
  261MPD2     C 3948   2.366   2.956  12.173  0.0424  0.3893 -0.8235
  261MPD2    C1 3949   2.358   3.072  12.248 -0.2495  0.8619 -0.0621
  261MPD2    C2 3950   2.387   3.197  12.194 -0.3140 -0.1452  0.3506
  261MPD2    C3 3951   2.445   3.197  12.068 -0.2859  0.8695 -0.0192
  261MPD2    C4 3952   2.480   3.077  12.012 -0.2239 -0.0679 -0.4687
  261MPD2    C5 3953   2.430   2.960  12.056 -0.2813 -0.4535  0.0185
  261MPD2     H 3954   2.372   3.289  12.249 -0.5012 -0.4800  0.8682
  261MPD2    H1 3955   2.530   3.073  11.915 -0.5333  0.6736 -0.6529
  261MPD2    H2 3956   2.326   2.864  12.215 -1.4661  1.3133 -0.2435
  261MPD2    H3 3957   2.448   2.875  11.991  0.4270  0.0455 -0.4380
  261MPD2     N 3958   2.495   3.312  12.000 -0.2830 -0.1243 -0.6726
  261MPD2    H5 3959   2.572   3.306  11.934 -0.4569 -2.4221 -0.6793
  261MPD2    N1 3960   2.315   3.065  12.389  0.4281 -0.5236  0.2918
  261MPD2    H7 3961   2.323   3.153  12.438 -1.8495 -0.1477  0.0127
  262TMC3    C1 3962   2.521   3.540  11.981  0.3788  0.2592 -0.8351
  262TMC3    C2 3963   2.501   3.664  12.044 -0.4208  0.0961  0.4980
  262TMC3    C3 3964   2.581   3.769  11.999 -0.0572 -0.4100  0.1929
  262TMC3    C4 3965   2.604   3.517  11.879  0.0387  0.7013 -0.6108
  262TMC3    C5 3966   2.686   3.622  11.843 -0.3231 -1.0581 -0.1132
  262TMC3    C6 3967   2.672   3.749  11.895 -0.5495  0.0493 -0.7730
  262TMC3     C 3968   2.443   3.431  12.034 -0.4886 -0.0649 -0.5383
  262TMC3     O 3969   2.345   3.466  12.097  0.1001 -0.0443  0.3521
  262TMC3     H 3970   2.427   3.673  12.123 -3.7903 -0.6685 -2.5522
  262TMC3    H1 3971   2.603   3.426  11.819 -1.4527  0.7239 -0.6218
  262TMC3    H2 3972   2.726   3.838  11.863  0.3872 -0.9057 -1.8174
  262TMC3    C7 3973   2.760   3.597  11.722  0.6635  0.4596  0.2275
  262TMC3    C8 3974   2.535   3.909  11.991 -0.5307 -0.4021 -0.0788
  262TMC3    O1 3975   2.822   3.494  11.721  0.1041  0.5910 -0.4699
  262TMC3    O2 3976   2.620   3.999  12.004 -0.3913 -0.0781 -0.3093
  263MPD2     C 3977   3.598   2.515  11.453  0.6024 -0.4612  0.4345
  263MPD2    C1 3978   3.620   2.649  11.467 -0.7451  0.2115 -0.6910
  263MPD2    C2 3979   3.606   2.727  11.357  0.0417  0.2920  0.4833
  263MPD2    C3 3980   3.581   2.674  11.230 -0.1438 -0.7556 -0.6219
  263MPD2    C4 3981   3.586   2.535  11.211 -0.0660 -0.2350  0.4267
  263MPD2    C5 3982   3.589   2.459  11.328  0.3413 -0.0767 -0.1784
  263MPD2     H 3983   3.622   2.834  11.366 -3.2530  0.8732 -0.6476
  263MPD2    H1 3984   3.583   2.494  11.111  2.3998 -1.6013  0.9132
  263MPD2    H2 3985   3.594   2.460  11.546 -0.2127 -0.0657  0.6310
  263MPD2    H3 3986   3.594   2.351  11.324 -0.3935 -0.1387  0.5102
  263MPD2     N 3987   3.556   2.752  11.116 -0.6541 -0.2018  0.1141
  263MPD2    H5 3988   3.553   2.707  11.025 -0.2841  0.6137 -0.2999
  263MPD2    N1 3989   3.661   2.698  11.589  0.1975 -0.0956 -0.0560
  263MPD2    H7 3990   3.672   2.637  11.670 -0.1549  0.8033  0.6670
  264TMC3    C1 3991   3.534   2.951  10.991  0.5394 -0.1425 -0.4975
  264TMC3    C2 3992   3.474   3.070  10.982  0.0092  0.4137  0.0090
  264TMC3    C3 3993   3.462   3.123  10.856  0.3718  1.0270 -1.0845
  264TMC3    C4 3994   3.600   2.897  10.887 -0.0543 -0.3502 -0.2219
  264TMC3    C5 3995   3.598   2.959  10.766  0.4986  0.0795  0.5769
  264TMC3    C6 3996   3.516   3.066  10.747  0.6262  0.3856  0.2700
  264TMC3     C 3997   3.528   2.884  11.120 -0.1980 -0.1984  0.1836
  264TMC3     O 3998   3.501   2.955  11.215 -0.2420 -0.2917 -0.0924
  264TMC3     H 3999   3.435   3.119  11.070  0.7915 -2.1025  1.7540
  264TMC3    H1 4000   3.657   2.805  10.892  0.8306  0.1965 -0.3275
  264TMC3    H2 4001   3.491   3.116  10.654 -1.2420 -1.0725 -0.0250
  264TMC3    C7 4002   3.726   2.959  10.697  0.0295 -0.1196  0.6477
  264TMC3    C8 4003   3.505   3.260  10.857 -0.4246  1.1586 -0.0417
  264TMC3    O1 4004   3.798   2.864  10.705 -0.0899  0.5767  0.4296
  264TMC3    O2 4005   3.579   3.281  10.762  0.6496 -0.1238  0.3977
  265MPD2     C 4006   0.791   2.996  15.406 -0.0193 -0.6125 -0.1126
  265MPD2    C1 4007   0.787   3.081  15.296  0.3906  0.9646 -0.8771
  265MPD2    C2 4008   0.883   3.060  15.196 -0.4647  0.4110 -0.0853
  265MPD2    C3 4009   0.973   2.955  15.206  0.2375  0.2998 -0.0993
  265MPD2    C4 4010   0.972   2.866  15.312  0.3704 -0.1547  0.2787
  265MPD2    C5 4011   0.877   2.891  15.411 -0.5999  0.0348  0.4788
  265MPD2     H 4012   0.877   3.122  15.107 -1.4013  3.1479  1.8983
  265MPD2    H1 4013   1.053   2.794  15.321 -1.3158 -1.8429  2.0051
  265MPD2    H2 4014   0.728   3.010  15.493  1.4332  2.0232  0.5208
  265MPD2    H3 4015   0.881   2.841  15.507 -1.6656  1.7620  1.4121
  265MPD2     N 4016   1.079   2.948  15.111  0.5949 -0.1996  0.1813
  265MPD2    H5 4017   1.142   2.869  15.119  0.9490  0.0650  0.0138
  265MPD2    N1 4018   0.690   3.178  15.287 -0.3738  0.0826  0.0870
  265MPD2    H7 4019   0.692   3.236  15.204 -0.6766  2.2172  1.5623
  266TMC3    C1 4020   0.525   3.342  15.332 -0.0822  0.3438  0.1184
  266TMC3    C2 4021   0.481   3.439  15.424  1.1323 -0.5728  0.1099
  266TMC3    C3 4022   0.399   3.535  15.376  0.1216 -0.2130 -0.2516
  266TMC3    C4 4023   0.487   3.343  15.197  0.2060  0.1522  0.1719
  266TMC3    C5 4024   0.402   3.441  15.158  0.1462 -0.0729  0.3214
  266TMC3    C6 4025   0.357   3.539  15.245  0.4035  0.0073 -0.5821
  266TMC3     C 4026   0.598   3.222  15.381  0.9004 -0.4977  0.0158
  266TMC3     O 4027   0.576   3.177  15.492 -0.1112  0.0347 -0.0421
  266TMC3     H 4028   0.508   3.455  15.528  0.4300  0.5470  0.1186
  266TMC3    H1 4029   0.507   3.256  15.135  1.2977  0.7976 -0.3738
  266TMC3    H2 4030   0.283   3.609  15.208  1.8629  1.3422 -0.9780
  266TMC3    C7 4031   0.362   3.446  15.023 -0.3932 -0.7096  0.2143
  266TMC3    C8 4032   0.330   3.629  15.464  0.1274 -0.1404 -0.5950
  266TMC3    O1 4033   0.293   3.540  14.994 -0.5500 -0.0969 -0.0769
  266TMC3    O2 4034   0.231   3.672  15.406  0.0718  0.0769  0.0557
  267MPD2     C 4035   2.399   0.116  17.548  0.4637  0.4808  0.2009
  267MPD2    C1 4036   2.520   0.138  17.493  0.3863 -0.5606 -0.1308
  267MPD2    C2 4037   2.538   0.126  17.359  0.1910 -0.1691  0.4561
  267MPD2    C3 4038   2.427   0.124  17.278  0.2855  0.1933  0.0840
  267MPD2    C4 4039   2.299   0.128  17.330  0.1181  0.5068  0.2432
  267MPD2    C5 4040   2.288   0.121  17.466 -0.1872  0.1074 -0.2164
  267MPD2     H 4041   2.634   0.130  17.308  0.3408 -2.4385  0.5567
  267MPD2    H1 4042   2.212   0.119  17.267 -0.1773  1.9383  0.4321
  267MPD2    H2 4043   2.392   0.121  17.656 -0.6758 -0.1041  0.1550
  267MPD2    H3 4044   2.183   0.118  17.493 -0.2877 -0.7947 -0.7056
  267MPD2     N 4045   2.434   0.118  17.134 -0.7670 -0.3441 -0.1068
  267MPD2    H5 4046   2.344   0.119  17.087  0.3540  3.0702 -2.1804
  267MPD2    N1 4047   2.642   0.145  17.566  0.1408 -0.2470  0.0478
  267MPD2    H7 4048   2.637   0.131  17.667  0.7220 -0.7111  0.0140
  268TMC3    C1 4049   2.874   0.166  17.623 -0.1102 -0.7694  0.2821
  268TMC3    C2 4050   2.976   0.258  17.610  0.1108  0.5355 -0.0242
  268TMC3    C3 4051   3.075   0.251   0.005 -0.3225  1.2033 -0.9709
  268TMC3    C4 4052   2.870   0.063   0.020  0.2235 -0.8057  0.0429
  268TMC3    C5 4053   2.975   0.051   0.102  1.0854  0.1659 -0.1776
  268TMC3    C6 4054   3.079   0.145   0.093  0.5967 -0.7300 -0.2604
  268TMC3     C 4055   2.767   0.176  17.520  0.7882 -1.0354 -0.1878
  268TMC3     O 4056   2.793   0.225  17.412  0.1665  0.0785 -0.4114
  268TMC3     H 4057   2.969   0.335  17.535 -0.5487 -0.2432 -0.7669
  268TMC3    H1 4058   2.789   4.714   0.020 -0.0773 -0.4815 -1.1905
  268TMC3    H2 4059   3.154   0.138   0.171 -1.1548  1.2670  1.6178
  268TMC3    C7 4060   2.997   4.660   0.185 -0.0826 -0.6319  1.0159
  268TMC3    C8 4061   3.177   0.354   0.015  0.4404 -0.6549 -0.8412
  268TMC3    O1 4062   2.894   4.604   0.224  0.0364  0.0177  0.6585
  268TMC3    O2 4063   3.271   0.323   0.086  0.1067  0.3994  0.1685
  269MPD2     C 4064   3.305   3.644  15.545 -0.2280 -0.0282 -0.1926
  269MPD2    C1 4065   3.218   3.695  15.639  0.6369 -0.3162 -0.2960
  269MPD2    C2 4066   3.215   3.833  15.661 -0.4726  0.2583  0.2713
  269MPD2    C3 4067   3.293   3.921  15.594 -0.7561 -0.2746  0.6754
  269MPD2    C4 4068   3.367   3.869  15.492  0.1465  0.1189  0.0121
  269MPD2    C5 4069   3.382   3.733  15.477  0.2632 -0.1630  0.1681
  269MPD2     H 4070   3.162   3.879  15.744  2.1626 -0.3370  2.2822
  269MPD2    H1 4071   3.427   3.922  15.419 -1.1764 -0.9467 -1.8461
  269MPD2    H2 4072   3.307   3.539  15.518  0.3584 -0.9147  3.2780
  269MPD2    H3 4073   3.456   3.692  15.409 -0.1816 -0.0580 -0.3702
  269MPD2     N 4074   3.258   4.057  15.601  0.7011 -0.0629 -0.7132
  269MPD2    H5 4075   3.190   4.084  15.671  1.5829 -0.7776  0.4186
  269MPD2    N1 4076   3.137   3.602  15.715  0.4736  0.3947  0.2128
  269MPD2    H7 4077   3.147   3.502  15.701 -1.7761 -0.0498  1.8356
  270TMC3    C1 4078   2.957   3.526  15.835 -0.4273  0.1320  0.4174
  270TMC3    C2 4079   2.825   3.537  15.812 -0.8255 -0.3799  0.2388
  270TMC3    C3 4080   2.759   3.418  15.785 -0.0131 -0.5276 -1.1773
  270TMC3    C4 4081   3.020   3.398  15.839 -0.8157  0.2999  0.0560
  270TMC3    C5 4082   2.952   3.279  15.813 -0.0494  1.1258 -0.5204
  270TMC3    C6 4083   2.816   3.291  15.777  0.8044  0.0641  0.1267
  270TMC3     C 4084   3.035   3.643  15.793 -0.1376  0.3032 -0.1446
  270TMC3     O 4085   3.003   3.756  15.828 -0.3127 -0.2660  0.0450
  270TMC3     H 4086   2.774   3.631  15.796 -0.4356  0.0212  1.3280
  270TMC3    H1 4087   3.127   3.392  15.857 -0.9968  0.0640  1.0916
  270TMC3    H2 4088   2.759   3.209  15.736  1.8707 -1.6468  2.0753
  270TMC3    C7 4089   3.013   3.149  15.811 -0.3668  0.0164 -0.4374
  270TMC3    C8 4090   2.677   3.454  15.670 -0.6317 -0.2812 -0.4145
  270TMC3    O1 4091   2.943   3.050  15.781  0.3293 -0.2767 -0.0184
  270TMC3    O2 4092   2.574   3.514  15.697  0.3893 -0.1189 -0.2855
  271MPD2     C 4093   2.521   3.472  13.788  0.3633  0.1201 -0.0377
  271MPD2    C1 4094   2.467   3.542  13.897  0.4886  0.5520 -0.2661
  271MPD2    C2 4095   2.379   3.644  13.868  0.2860 -0.0077 -0.5648
  271MPD2    C3 4096   2.344   3.672  13.737 -0.0925 -0.2977 -0.2152
  271MPD2    C4 4097   2.384   3.585  13.637  0.5266 -0.1438  0.9616
  271MPD2    C5 4098   2.469   3.488  13.663  0.1887 -0.3398 -0.6856
  271MPD2     H 4099   2.336   3.710  13.942 -0.2546 -1.1180  0.0965
  271MPD2    H1 4100   2.354   3.609  13.536  2.3777 -2.4928 -0.1345
  271MPD2    H2 4101   2.604   3.403  13.794  1.0707  0.9615 -0.2184
  271MPD2    H3 4102   2.502   3.408  13.598  2.8367 -0.1289  0.3877
  271MPD2     N 4103   2.253   3.770  13.705 -0.6634  0.2859  0.4565
  271MPD2    H5 4104   2.230   3.792  13.608  0.0380 -2.1214 -0.2662
  271MPD2    N1 4105   2.508   3.529  14.034  0.4424  0.2884  0.1707
  271MPD2    H7 4106   2.473   3.596  14.102  0.2727 -0.3691  0.7359
  272TMC3    C1 4107   2.636   3.473  14.220 -0.3990 -0.3946  0.4750
  272TMC3    C2 4108   2.763   3.437  14.248  0.0877 -0.3558  0.1744
  272TMC3    C3 4109   2.791   3.396  14.372  0.3868  0.2193  0.1171
  272TMC3    C4 4110   2.538   3.462  14.313 -0.2188  0.0185  0.1158
  272TMC3    C5 4111   2.569   3.430  14.442  0.2656  0.8625 -0.2461
  272TMC3    C6 4112   2.702   3.389  14.473  0.0370  0.2930 -0.6454
  272TMC3     C 4113   2.600   3.440  14.083 -0.2389  0.1110  0.2015
  272TMC3     O 4114   2.659   3.349  14.036 -0.4468 -0.9045 -0.1938
  272TMC3     H 4115   2.832   3.437  14.164 -0.2872  1.9552 -0.1360
  272TMC3    H1 4116   2.433   3.480  14.292 -0.2685 -0.0754  0.2810
  272TMC3    H2 4117   2.738   3.383  14.575 -1.2267 -0.0653 -0.2229
  272TMC3    C7 4118   2.472   3.469  14.540 -0.6859 -0.5977  0.2927
  272TMC3    C8 4119   2.925   3.354  14.397 -0.2560 -0.0520  0.4612
  272TMC3    O1 4120   2.357   3.480  14.498 -0.3124  0.7496 -0.0890
  272TMC3    O2 4121   3.007   3.383  14.313 -0.0950  0.0183  0.0697
  273MPD2     C 4122   4.005   1.421  12.011  0.1448  0.7196 -0.9697
  273MPD2    C1 4123   4.126   1.477  12.041  0.4568 -0.1229 -0.1586
  273MPD2    C2 4124   4.153   1.592  11.982  0.0066 -0.0698 -0.2542
  273MPD2    C3 4125   4.080   1.660  11.884 -0.2120 -0.1860  0.3038
  273MPD2    C4 4126   3.962   1.599  11.844 -0.2131  0.5615 -0.6386
  273MPD2    C5 4127   3.925   1.482  11.913  0.9188  0.5132 -0.3551
  273MPD2     H 4128   4.249   1.637  12.003 -0.1808 -0.7276  1.9411
  273MPD2    H1 4129   3.894   1.628  11.764  0.1054 -0.1788 -1.1839
  273MPD2    H2 4130   3.978   1.341  12.079  0.6194  2.2511  1.0103
  273MPD2    H3 4131   3.833   1.426  11.899  0.7097  0.7737 -0.0135
  273MPD2     N 4132   4.127   1.776  11.817  0.7824  1.1048  0.5413
  273MPD2    H5 4133   4.076   1.799  11.732 -1.9582  0.7453  2.0839
  273MPD2    N1 4134   4.200   1.434  12.145  0.2897  0.2815 -0.3906
  273MPD2    H7 4135   4.160   1.372  12.215 -0.5889 -0.5639 -1.6344
  274TMC3    C1 4136   4.266   1.978  11.784  0.4214 -0.8805  0.5538
  274TMC3    C2 4137   4.234   1.975  11.650 -0.0972 -0.1840  0.5367
  274TMC3    C3 4138   4.286   2.082  11.581 -0.1843  0.0635 -0.4642
  274TMC3    C4 4139   4.335   2.078  11.846  0.0370  0.2448 -0.8092
  274TMC3    C5 4140   4.376   2.181  11.768  0.0915  0.4613  0.6135
  274TMC3    C6 4141   4.373   2.170  11.631  0.5406 -0.3321 -0.4585
  274TMC3     C 4142   4.226   1.858  11.874 -0.3972  0.0015 -0.1119
  274TMC3     O 4143   4.277   1.855  11.988  0.0204  0.4333  0.1829
  274TMC3     H 4144   4.179   1.900  11.595 -2.5428 -0.5191  3.4491
  274TMC3    H1 4145   4.354   2.067  11.952 -0.9659 -1.5484 -0.8208
  274TMC3    H2 4146   4.376   2.270  11.589 -1.5744  0.1317  0.5384
  274TMC3    C7 4147   4.376   2.308  11.834  0.2941  0.2908 -0.0343
  274TMC3    C8 4148   4.224   2.114  11.448  0.6086  0.1493  0.3074
  274TMC3    O1 4149   4.305   2.314  11.936  0.2370  0.7406 -0.4078
  274TMC3    O2 4150   4.135   2.038  11.416 -0.6157 -0.5143  0.9097
  275MPD2     C 4151   3.797   0.032  14.375  0.6587 -0.7044  0.3815
  275MPD2    C1 4152   3.726   0.008  14.483  0.6278 -0.2569 -0.2744
  275MPD2    C2 4153   3.607   4.660  14.485  0.2600 -0.8523  0.6643
  275MPD2    C3 4154   3.563   4.601  14.363 -0.7160  0.0123 -0.4889
  275MPD2    C4 4155   3.642   4.629  14.251  0.4226 -0.1246 -0.3716
  275MPD2    C5 4156   3.757   4.701  14.255  0.4511  0.0196  0.0469
  275MPD2     H 4157   3.557   4.650  14.580  2.1773  1.8996  1.9422
  275MPD2    H1 4158   3.622   4.592  14.150  2.4659  0.3960 -0.9652
  275MPD2    H2 4159   3.883   0.099  14.374 -0.1971  0.3796 -0.4306
  275MPD2    H3 4160   3.808   4.723  14.162  0.5811 -1.9006 -0.3272
  275MPD2     N 4161   3.451   4.512  14.355 -0.1737  0.4255  0.1112
  275MPD2    H5 4162   3.416   4.480  14.266 -0.0985 -1.1725  0.6546
  275MPD2    N1 4163   3.770   0.051  14.609 -0.0193  0.0307  0.1727
  275MPD2    H7 4164   3.712   0.039  14.692 -2.0342  0.2185 -1.1973
  276TMC3    C1 4165   3.894   0.127  14.788 -0.0573  0.0475 -0.0052
  276TMC3    C2 4166   3.802   0.062  14.869  0.2469 -0.5480  0.7887
  276TMC3    C3 4167   3.823   0.061  15.005 -0.5253 -0.1606  0.2469
  276TMC3    C4 4168   4.004   0.193  14.842  0.0260 -0.0955  0.3651
  276TMC3    C5 4169   4.015   0.202  14.979  0.9152  0.1099 -0.7452
  276TMC3    C6 4170   3.931   0.129  15.063  0.5960  0.5600  0.1200
  276TMC3     C 4171   3.883   0.117  14.641  0.0639 -0.3681 -0.2758
  276TMC3     O 4172   3.977   0.158  14.570  0.1938  0.2370  0.1607
  276TMC3     H 4173   3.717   0.010  14.827  0.1981  0.2098 -0.0480
  276TMC3    H1 4174   4.067   0.250  14.774  1.6078 -1.0022  1.0683
  276TMC3    H2 4175   3.960   0.115  15.166 -0.4588  1.9062  0.5861
  276TMC3    C7 4176   4.131   0.252  15.042  0.2711  0.1773  0.0007
  276TMC3    C8 4177   3.764   4.677  15.078 -0.2769 -0.1201 -0.3763
  276TMC3    O1 4178   4.109   0.308  15.147  0.0756  0.2821  0.1673
  276TMC3    O2 4179   3.746   4.693  15.198 -0.2075 -0.8010  0.1287
  277MPD2     C 4180   1.106   3.844  13.210  0.1182  0.3796 -0.0233
  277MPD2    C1 4181   0.973   3.871  13.215 -0.2169 -0.0231 -0.3146
  277MPD2    C2 4182   0.906   3.838  13.331  0.4795  0.3197 -0.3424
  277MPD2    C3 4183   0.970   3.772  13.434  0.5226 -0.1341 -0.1808
  277MPD2    C4 4184   1.100   3.731  13.419  0.2394  0.4442  1.1981
  277MPD2    C5 4185   1.163   3.768  13.307 -0.1876  0.7557 -0.3695
  277MPD2     H 4186   0.803   3.870  13.342  0.9174  1.3637  0.6298
  277MPD2    H1 4187   1.149   3.663  13.487 -3.7955 -2.8079  0.8043
  277MPD2    H2 4188   1.164   3.876  13.124  1.3588 -0.2691  0.5666
  277MPD2    H3 4189   1.259   3.723  13.284 -1.1799 -0.6415 -1.8017
  277MPD2     N 4190   0.898   3.735  13.545  0.7935  0.3797 -0.0823
  277MPD2    H5 4191   0.800   3.763  13.543  0.7063 -0.0369 -1.4289
  277MPD2    N1 4192   0.923   3.957  13.111  0.1053 -0.2345 -0.0633
  277MPD2    H7 4193   0.987   3.982  13.036  0.7770  1.8267  1.2244
  278TMC3    C1 4194   0.819   3.626  13.753 -0.6974  0.0512  1.0094
  278TMC3    C2 4195   0.822   3.500  13.801  0.6173  0.0708  0.5018
  278TMC3    C3 4196   0.703   3.445  13.810 -0.4929  0.4644 -0.5434
  278TMC3    C4 4197   0.710   3.700  13.720  0.1338  0.4186  0.1726
  278TMC3    C5 4198   0.587   3.641  13.733  0.0682 -0.0780  0.4687
  278TMC3    C6 4199   0.581   3.511  13.782 -0.3066  0.1117 -0.1097
  278TMC3     C 4200   0.930   3.661  13.660  0.0932 -0.5397 -0.1580
  278TMC3     O 4201   1.035   3.615  13.693  0.0573 -0.0820  0.0583
  278TMC3     H 4202   0.919   3.455  13.818  0.5581 -0.8182 -1.4108
  278TMC3    H1 4203   0.718   3.807  13.703  2.4996  0.3327  0.7040
  278TMC3    H2 4204   0.490   3.455  13.802 -0.9979  0.5307 -2.0488
  278TMC3    C7 4205   0.479   3.723  13.703 -0.5163 -0.3814  0.1929
  278TMC3    C8 4206   0.699   3.302  13.842  0.1178  0.9065  0.9012
  278TMC3    O1 4207   0.504   3.819  13.634  0.0329 -0.3757  0.3720
  278TMC3    O2 4208   0.788   3.268  13.917  0.2897  0.1031  0.8269
  279MPD2     C 4209   4.710   2.721  17.565 -0.3757  0.0286  0.1836
  279MPD2    C1 4210   4.644   2.846  17.563  0.4117 -0.1239  0.4387
  279MPD2    C2 4211   4.713   2.958  17.517 -0.2902 -0.3592  0.2004
  279MPD2    C3 4212   0.123   2.941  17.467 -0.3234 -0.2217 -0.2324
  279MPD2    C4 4213   0.183   2.818  17.481  0.4854  0.2114 -0.5039
  279MPD2    C5 4214   0.118   2.710  17.535 -0.4006 -0.2083 -0.0815
  279MPD2     H 4215   4.657   3.045  17.485 -0.9538 -1.3407 -1.3298
  279MPD2    H1 4216   0.285   2.807  17.445  1.2676 -0.8034  2.0249
  279MPD2    H2 4217   4.661   2.643  17.622  0.0308 -0.1781  0.2502
  279MPD2    H3 4218   0.173   2.620  17.563  2.4068  1.5981  0.1755
  279MPD2     N 4219   0.189   3.043  17.397 -0.2248 -0.1020 -0.2541
  279MPD2    H5 4220   0.280   3.025  17.356  0.6748  0.3942  1.4839
  279MPD2    N1 4221   4.508   2.855  17.598  0.2503  0.0046 -0.2264
  279MPD2    H7 4222   4.455   2.770  17.609 -1.3842  1.1701  0.8955
  280TMC3    C1 4223   4.317   2.997  17.642 -0.2334 -0.7449 -0.3813
  280TMC3    C2 4224   4.226   2.898  17.665  0.1616  0.5157 -0.0240
  280TMC3    C3 4225   4.094   2.928  17.682  0.2383  0.6622 -0.1728
  280TMC3    C4 4226   4.282   3.130  17.630 -0.1978 -0.1548 -0.4985
  280TMC3    C5 4227   4.150   3.160  17.655  0.7366  0.1913 -0.1348
  280TMC3    C6 4228   4.053   3.060  17.682  0.6363  0.2578 -0.3007
  280TMC3     C 4229   4.459   2.979  17.630  0.1682 -0.0366 -0.2717
  280TMC3     O 4230   4.523   3.075  17.663  1.1373 -0.0423 -0.5349
  280TMC3     H 4231   4.265   2.798  17.680 -1.3105 -0.1461 -0.6086
  280TMC3    H1 4232   4.349   3.204  17.587 -2.3189  1.1406 -1.5870
  280TMC3    H2 4233   3.950   3.084   0.008  0.1322 -2.7493  0.5631
  280TMC3    C7 4234   4.103   3.293  17.627  0.4031 -0.2756 -0.0692
  280TMC3    C8 4235   3.993   2.828   0.037  0.3497 -0.2892  0.6702
  280TMC3    O1 4236   3.983   3.315  17.611  0.3509  0.4903 -0.3644
  280TMC3    O2 4237   3.881   2.866   0.073 -0.5979  0.8977 -0.1801
  281TMC3    C1 4238   3.485   3.997  13.187 -0.7886  0.5793 -0.0376
  281TMC3    C2 4239   3.478   4.044  13.056 -0.6316 -0.1319  0.9550
  281TMC3    C3 4240   3.456   3.951  12.958 -0.5567  0.5037 -0.0020
  281TMC3    C4 4241   3.484   3.860  13.206  0.0647 -0.2831  1.1580
  281TMC3    C5 4242   3.467   3.771  13.104  0.3576  0.2784  0.0417
  281TMC3    C6 4243   3.441   3.822  12.983  0.1206  0.0321  0.3276
  281TMC3     C 4244   3.412   4.069  13.289 -0.2838 -0.1549  0.1180
  281TMC3     O 4245   3.447   4.055  13.403  0.6699 -0.0371 -0.0102
  281TMC3     H 4246   3.472   4.149  13.031  1.0790  0.1736  1.8554
  281TMC3    H1 4247   3.503   3.827  13.308 -2.1681 -0.8426  1.4017
  281TMC3    H2 4248   3.385   3.756  12.917  1.2779  0.0216 -0.6665
  281TMC3    C7 4249   3.421   3.634  13.127 -0.1944  0.5605 -0.3247
  281TMC3    C8 4250   3.361   4.006  12.860 -0.4538  0.5592 -0.7033
  281TMC3    O1 4251   3.395   3.567  13.024  0.2114 -0.0605 -0.0673
  281TMC3    O2 4252   3.287   4.096  12.903  0.2217 -0.1910  0.1176
  282MPD2     C 4253   0.528   0.499  15.094  0.2291  0.0658 -0.1885
  282MPD2    C1 4254   0.448   0.614  15.105  0.0445 -0.0175  0.2527
  282MPD2    C2 4255   0.351   0.640  15.012 -0.6025  0.0109 -0.2131
  282MPD2    C3 4256   0.327   0.548  14.907  0.2582  0.0498  0.0886
  282MPD2    C4 4257   0.414   0.439  14.899  0.9350  1.0201  0.1663
  282MPD2    C5 4258   0.515   0.415  14.988  0.0036  0.5690  0.0281
  282MPD2     H 4259   0.284   0.724  15.021  0.0950  0.5828 -0.3918
  282MPD2    H1 4260   0.403   0.364  14.821  2.9126  0.9708 -0.0817
  282MPD2    H2 4261   0.607   0.472  15.164  0.4289 -1.3039 -0.9319
  282MPD2    H3 4262   0.579   0.329  14.974  0.8215  1.0040  1.0525
  282MPD2     N 4263   0.219   0.573  14.815 -0.7281  0.2536 -0.1614
  282MPD2    H5 4264   0.158   0.652  14.835  0.5595  0.9573  0.9582
  282MPD2    N1 4265   0.451   0.708  15.213 -0.9797 -0.5590 -0.1318
  282MPD2    H7 4266   0.382   0.782  15.213 -0.4769 -0.0859 -1.2931
  283TMC3    C1 4267   0.465   0.760  15.437  0.2602  0.1459  0.1379
  283TMC3    C2 4268   0.473   0.892  15.451  0.5669  0.4646  0.7121
  283TMC3    C3 4269   0.459   0.948  15.578 -0.0318 -0.0472  0.6634
  283TMC3    C4 4270   0.443   0.665  15.536  0.8169  0.6808 -0.0193
  283TMC3    C5 4271   0.424   0.724  15.662 -0.0927 -0.7986  0.5942
  283TMC3    C6 4272   0.428   0.863  15.681  0.0372  0.4701 -0.1582
  283TMC3     C 4273   0.523   0.698  15.324  0.6845  1.0214  0.3901
  283TMC3     O 4274   0.607   0.608  15.349 -0.1772 -0.2313 -0.3688
  283TMC3     H 4275   0.487   0.955  15.364 -0.4559 -1.5260 -0.8939
  283TMC3    H1 4276   0.430   0.563  15.503 -1.4077  0.5115  1.3796
  283TMC3    H2 4277   0.417   0.903  15.781 -0.5478 -0.7877  0.2812
  283TMC3    C7 4278   0.433   0.638  15.778  0.9131  0.7509  0.0981
  283TMC3    C8 4279   0.444   1.095  15.596  0.0702  0.7660  0.0655
  283TMC3    O1 4280   0.418   0.681  15.890 -0.7821  1.0618 -0.5762
  283TMC3    O2 4281   0.417   1.133  15.711 -0.3019  0.8793 -0.3210
  284MPD2     C 4282   4.023   4.706  11.463 -0.1081  0.0180  0.2408
  284MPD2    C1 4283   4.143   4.670  11.406 -0.6222  0.1404 -0.8006
  284MPD2    C2 4284   4.243   4.639  11.487  0.2258  0.6987 -0.7175
  284MPD2    C3 4285   4.226   4.649  11.626  0.0921  0.6131 -0.8439
  284MPD2    C4 4286   4.102   4.668  11.677 -0.0094 -0.1144 -0.0927
  284MPD2    C5 4287   4.002   4.703  11.598  0.5090 -0.1587 -0.4886
  284MPD2     H 4288   4.341   4.630  11.442  1.0732  1.0339  1.0630
  284MPD2    H1 4289   4.084   4.667  11.784 -1.6973  1.6692 -0.3653
  284MPD2    H2 4290   3.937   0.021  11.410  1.0021  1.6823 -0.3639
  284MPD2    H3 4291   3.906   0.020  11.629  0.9137 -0.5842  1.3125
  284MPD2     N 4292   4.344   4.619  11.701 -0.0226 -0.0462 -0.0183
  284MPD2    H5 4293   4.424   4.583  11.652 -0.7685 -0.5802 -0.8471
  284MPD2    N1 4294   4.170   4.681  11.271  0.7312 -0.1594  0.1043
  284MPD2    H7 4295   4.269   4.681  11.246  0.4738  3.3893 -0.8764
  285TMC3    C1 4296   4.139   4.713  11.051 -0.0064  0.0829 -0.2291
  285TMC3    C2 4297   4.106   4.633  10.946 -0.6136 -0.0885  0.0960
  285TMC3    C3 4298   4.176   4.630  10.833 -0.4106 -0.7770 -1.2632
  285TMC3    C4 4299   4.247   0.075  11.052  0.8301 -0.0248  0.2252
  285TMC3    C5 4300   4.317   0.075  10.933  0.4171  0.3163  0.6896
  285TMC3    C6 4301   4.284   4.714  10.826  0.2479  1.0195 -0.3135
  285TMC3     C 4302   4.075   4.700  11.178 -0.0966 -0.6217 -0.2195
  285TMC3     O 4303   3.953   4.697  11.190 -0.8869  0.1785 -0.2548
  285TMC3     H 4304   4.018   4.572  10.958 -0.0674 -0.4440  2.3451
  285TMC3    H1 4305   4.272   0.139  11.136  1.2744  1.2014 -0.8407
  285TMC3    H2 4306   4.352   4.715  10.741  1.9286  0.0892  1.0216
  285TMC3    C7 4307   4.451   0.138  10.938  0.3075 -0.1976 -0.0050
  285TMC3    C8 4308   4.159   4.515  10.748 -0.3681 -0.3502 -0.0646
  285TMC3    O1 4309   4.451   0.246  10.993  0.1466  0.5211 -0.1386
  285TMC3    O2 4310   4.073   4.437  10.780  0.3144 -0.0546  0.4385
  286MPD2     C 4311   2.904   2.317   1.114 -0.0346  0.1174 -0.7488
  286MPD2    C1 4312   3.005   2.396   1.073  0.2617 -0.5545  1.1419
  286MPD2    C2 4313   3.114   2.337   1.018  0.0538  0.5228 -1.0980
  286MPD2    C3 4314   3.132   2.200   1.019 -1.2136  0.2131 -0.0464
  286MPD2    C4 4315   3.022   2.121   1.043 -0.4099 -0.6617 -0.4350
  286MPD2    C5 4316   2.912   2.182   1.098 -0.5017  0.0613 -0.0542
  286MPD2     H 4317   3.193   2.400   0.979  1.1686 -1.0477 -1.3885
  286MPD2    H1 4318   3.023   2.013   1.039  1.9120 -0.6542  0.0350
  286MPD2    H2 4319   2.824   2.361   1.172  0.4001  0.1388 -0.1746
  286MPD2    H3 4320   2.832   2.118   1.133  1.7335 -0.8370  3.4719
  286MPD2     N 4321   3.249   2.133   0.971 -1.0624  0.2108 -0.1491
  286MPD2    H5 4322   3.251   2.033   0.952  0.1930  0.2065  0.0014
  286MPD2    N1 4323   3.001   2.538   1.083  0.3395 -0.0765  0.2920
  286MPD2    H7 4324   3.079   2.584   1.037 -0.0949  0.5090  0.1506
  287TMC3    C1 4325   3.473   2.105   0.937  0.1062 -0.3268  0.4393
  287TMC3    C2 4326   3.466   2.057   0.814 -0.4130  0.7613 -0.4364
  287TMC3    C3 4327   3.579   2.012   0.756  0.5407 -0.2862  0.4793
  287TMC3    C4 4328   3.588   2.121   1.008  0.8809 -0.0020  0.4262
  287TMC3    C5 4329   3.703   2.091   0.939  0.2467 -0.4618 -0.1759
  287TMC3    C6 4330   3.701   2.040   0.815  0.2821 -0.0785 -0.5327
  287TMC3     C 4331   3.371   2.196   0.980 -0.3834  0.1562  0.1871
  287TMC3     O 4332   3.407   2.293   1.048  0.3457 -0.0561 -0.1048
  287TMC3     H 4333   3.372   2.063   0.759 -0.3582  3.0693 -0.2781
  287TMC3    H1 4334   3.587   2.150   1.113  2.5095 -1.5770  0.8817
  287TMC3    H2 4335   3.795   2.012   0.769  0.8643  0.3167  0.4324
  287TMC3    C7 4336   3.820   2.138   1.001 -0.0989  0.6911 -0.1346
  287TMC3    C8 4337   3.578   1.999   0.618  0.3010 -0.0829 -0.2070
  287TMC3    O1 4338   3.801   2.225   1.086  0.4304  0.0190  0.1966
  287TMC3    O2 4339   3.478   1.944   0.575 -0.3881 -0.1300 -0.1765
  288TMC3    C1 4340   0.858   2.745  14.386  0.1453 -0.1637  0.0251
  288TMC3    C2 4341   0.828   2.732  14.518  0.0188 -0.2326  0.0569
  288TMC3    C3 4342   0.925   2.785  14.601  0.1281 -0.1614 -0.0705
  288TMC3    C4 4343   0.958   2.830  14.341 -0.2125 -0.5948 -0.7363
  288TMC3    C5 4344   1.040   2.882  14.433  0.1462  0.1056  0.1014
  288TMC3    C6 4345   1.028   2.856  14.560 -0.3220  0.2469 -0.9872
  288TMC3     C 4346   0.772   2.667  14.297  0.1693 -0.5889 -0.0313
  288TMC3     O 4347   0.663   2.633  14.332 -0.5763 -0.4779  0.8330
  288TMC3     H 4348   0.746   2.667  14.548 -1.1110  0.8874 -0.6231
  288TMC3    H1 4349   0.950   2.863  14.238 -2.8184  1.5776  0.1688
  288TMC3    H2 4350   1.105   2.887  14.630  1.4340 -2.7784 -1.5610
  288TMC3    C7 4351   1.133   2.990  14.390 -0.3859  0.2621  0.0922
  288TMC3    C8 4352   0.905   2.765  14.742 -1.0100  0.2627 -0.3465
  288TMC3    O1 4353   1.169   3.058  14.484  0.1595 -0.4236  0.2834
  288TMC3    O2 4354   0.972   2.830  14.822 -0.0381 -0.0248 -0.8362
  289MPD2     C 4355   1.251   2.220  14.091  0.5141 -0.2101  1.0106
  289MPD2    C1 4356   1.200   2.329  14.150 -0.1033 -0.7653  0.2780
  289MPD2    C2 4357   1.069   2.310  14.195  0.3353  0.4806 -0.2276
  289MPD2    C3 4358   1.007   2.191  14.200  0.7342 -1.0815 -0.7396
  289MPD2    C4 4359   1.056   2.086  14.138  0.0352 -0.4070 -0.3385
  289MPD2    C5 4360   1.187   2.100  14.085  0.2369 -0.8051  1.2075
  289MPD2     H 4361   1.023   2.392  14.248  1.1903  1.0870 -0.4378
  289MPD2    H1 4362   1.003   1.993  14.123  3.0022 -2.5441  2.2121
  289MPD2    H2 4363   1.348   2.228  14.045  0.0483 -1.2811 -0.1406
  289MPD2    H3 4364   1.241   2.023  14.031  1.2973 -0.1619  1.3547
  289MPD2     N 4365   0.883   2.162  14.258 -0.8662  0.5249 -0.5092
  289MPD2    H5 4366   0.843   2.070  14.240  0.8724 -0.3183 -0.0558
  289MPD2    N1 4367   1.275   2.447  14.147 -0.0189  0.5574 -0.3421
  289MPD2    H7 4368   1.368   2.447  14.106 -0.9085  0.0211 -2.3248
  290TMC3    C1 4369   0.685   2.203  14.385 -0.2384  0.4798 -0.7072
  290TMC3    C2 4370   0.581   2.288  14.356 -0.0244 -0.6991  0.1228
  290TMC3    C3 4371   0.454   2.232  14.357 -0.6111  0.2055  0.6267
  290TMC3    C4 4372   0.663   2.070  14.407  0.0567 -0.5204 -0.3467
  290TMC3    C5 4373   0.534   2.026  14.420 -0.5386 -0.8673  0.1130
  290TMC3    C6 4374   0.424   2.107  14.402 -0.0023  0.0802  0.2513
  290TMC3     C 4375   0.818   2.249  14.344 -0.1931  1.0026 -0.2763
  290TMC3     O 4376   0.832   2.369  14.366 -0.0580 -0.3525 -0.2764
  290TMC3     H 4377   0.612   2.387  14.324 -0.4424 -0.6469 -0.1243
  290TMC3    H1 4378   0.739   1.998  14.434  0.8026  0.6873  0.7445
  290TMC3    H2 4379   0.324   2.066  14.401  0.8392 -1.9748 -2.4382
  290TMC3    C7 4380   0.525   1.902  14.503  0.3370 -0.1210  0.0450
  290TMC3    C8 4381   0.337   2.316  14.311  0.1126 -0.2091  0.1632
  290TMC3    O1 4382   0.615   1.873  14.580  0.5904 -0.0951  0.7084
  290TMC3    O2 4383   0.231   2.255  14.287  0.1957  0.1741  0.0199
  291MPD2     C 4384   0.117   1.568  17.578 -0.4815  0.2036 -0.8290
  291MPD2    C1 4385   0.091   1.436  17.614  0.2486  0.7447  0.0285
  291MPD2    C2 4386   0.197   1.357  17.663  0.7130 -0.8341  0.1359
  291MPD2    C3 4387   0.323   1.408  17.687  0.9766 -0.3014  0.0003
  291MPD2    C4 4388   0.347   1.539  17.666  0.2236 -0.0578 -1.2282
  291MPD2    C5 4389   0.243   1.616  17.609 -0.0252 -0.3382 -0.7382
  291MPD2     H 4390   0.167   1.256  17.688 -2.4855 -0.1035 -0.7809
  291MPD2    H1 4391   0.444   1.585  17.686 -0.7132  1.2576  0.3034
  291MPD2    H2 4392   0.044   1.630  17.528  0.6719  0.5392 -2.0948
  291MPD2    H3 4393   0.262   1.721  17.587 -0.9518  0.4513  2.2344
  291MPD2     N 4394   0.440   1.337   0.043 -0.3463  0.2929 -0.0479
  291MPD2    H5 4395   0.528   1.388   0.043 -0.4546  0.4728 -1.9325
  291MPD2    N1 4396   4.684   1.385  17.620  0.1393 -0.4469 -0.1826
  291MPD2    H7 4397   4.672   1.291  17.657 -1.6273  0.0118  0.4109
  292TMC3    C1 4398   4.460   1.379  17.644 -0.1954  0.0755 -0.3191
  292TMC3    C2 4399   4.379   1.437   0.041 -0.3221  0.5694  0.5105
  292TMC3    C3 4400   4.285   1.363   0.099 -0.5414  0.3451 -1.0422
  292TMC3    C4 4401   4.449   1.247  17.609 -0.3215 -0.6056  0.3725
  292TMC3    C5 4402   4.354   1.177  17.669 -0.1799 -0.6315 -0.0593
  292TMC3    C6 4403   4.267   1.232   0.069  0.3583  0.0348 -0.6750
  292TMC3     C 4404   4.571   1.456  17.593 -0.3939  0.6344  0.1622
  292TMC3     O 4405   4.543   1.567  17.552  0.2880  0.3466  0.0561
  292TMC3     H 4406   4.384   1.543   0.061  0.7522  0.7697 -0.8372
  292TMC3    H1 4407   4.518   1.196  17.543 -1.4340 -0.4074 -0.9640
  292TMC3    H2 4408   4.192   1.175   0.122 -1.6346  1.3975 -2.0032
  292TMC3    C7 4409   4.367   1.034  17.654  0.3299  0.1916  0.3448
  292TMC3    C8 4410   4.219   1.422   0.217 -0.3309 -0.1980  0.0550
  292TMC3    O1 4411   4.427   0.994  17.553  0.0560  0.4023  0.2342
  292TMC3    O2 4412   4.278   1.512   0.280  0.2653  0.1272 -0.3406
  293MPD2     C 4413   2.219   3.661  12.337  0.5394 -0.0453 -0.3003
  293MPD2    C1 4414   2.162   3.558  12.397  0.1469 -0.4371  0.0743
  293MPD2    C2 4415   2.172   3.560  12.534 -0.4593  0.4362 -0.2973
  293MPD2    C3 4416   2.220   3.661  12.609  0.4143  0.1398 -0.4233
  293MPD2    C4 4417   2.250   3.783  12.542  0.3228 -0.3440 -0.5874
  293MPD2    C5 4418   2.241   3.779  12.407 -0.0186 -0.0597  0.8027
  293MPD2     H 4419   2.127   3.476  12.586 -1.6583  2.3919  1.8224
  293MPD2    H1 4420   2.281   3.875  12.589  0.9301 -1.0437  0.3847
  293MPD2    H2 4421   2.223   3.661  12.229  0.1758 -1.1970 -0.3115
  293MPD2    H3 4422   2.264   3.869  12.350  1.0944 -0.4957  0.5676
  293MPD2     N 4423   2.228   3.645  12.747  0.2121 -0.5000  0.4483
  293MPD2    H5 4424   2.196   3.554  12.780 -2.1767 -0.8735 -2.9134
  293MPD2    N1 4425   2.114   3.451  12.313  0.2247  0.2244 -0.4045
  293MPD2    H7 4426   2.114   3.470  12.213 -1.0345 -0.9314 -0.6368
  294TMC3    C1 4427   2.017   3.254  12.242 -0.4499 -0.3768 -0.0904
  294TMC3    C2 4428   1.964   3.130  12.274  0.0559  0.3764  0.1934
  294TMC3    C3 4429   1.976   3.028  12.181 -0.7962  0.1388 -0.7596
  294TMC3    C4 4430   2.074   3.279  12.117  0.0303 -0.2834  0.4331
  294TMC3    C5 4431   2.064   3.178  12.024  0.2083 -0.7946 -0.2647
  294TMC3    C6 4432   2.013   3.053  12.054  0.0131 -0.2349  0.8215
  294TMC3     C 4433   2.050   3.341  12.354 -0.1286  0.6617 -0.0774
  294TMC3     O 4434   2.023   3.302  12.470 -0.5710 -0.0257  0.3925
  294TMC3     H 4435   1.934   3.111  12.376  1.0835 -1.0075  0.2402
  294TMC3    H1 4436   2.128   3.368  12.086 -0.2161 -0.4150 -0.3667
  294TMC3    H2 4437   2.037   2.981  11.978 -0.8846  0.8827 -0.5184
  294TMC3    C7 4438   2.129   3.193  11.894 -0.0857 -0.3150  0.0167
  294TMC3    C8 4439   1.961   2.891  12.231  0.3316 -1.0575 -0.7505
  294TMC3    O1 4440   2.170   3.091  11.839  0.4439 -0.4504  0.2324
  294TMC3    O2 4441   1.896   2.886  12.335 -0.0134 -0.4105 -0.1095
  295MPD2     C 4442   2.441   1.418   0.705  0.9322 -0.7982 -0.2946
  295MPD2    C1 4443   2.447   1.561   0.712  0.8683 -0.5662 -0.1684
  295MPD2    C2 4444   2.406   1.621   0.835 -0.6831 -0.1383 -0.1454
  295MPD2    C3 4445   2.372   1.545   0.945  0.6763 -0.1815 -0.3010
  295MPD2    C4 4446   2.392   1.410   0.936  0.1608  0.4658 -0.0960
  295MPD2    C5 4447   2.412   1.345   0.816 -0.3472  0.1756 -0.4892
  295MPD2     H 4448   2.416   1.727   0.851 -1.1819  0.0213 -0.8722
  295MPD2    H1 4449   2.374   1.339   1.016  0.6278  0.9432  0.4298
  295MPD2    H2 4450   2.479   1.357   0.624  0.4533 -1.8223  0.2529
  295MPD2    H3 4451   2.420   1.237   0.818 -2.0908  0.0751  1.8678
  295MPD2     N 4452   2.311   1.599   1.058 -0.7127  0.1133  0.5017
  295MPD2    H5 4453   2.292   1.538   1.137  3.1387 -2.8478 -0.9131
  295MPD2    N1 4454   2.477   1.643   0.596  0.1338  0.2179  0.4331
  295MPD2    H7 4455   2.477   1.744   0.605 -1.2818  0.1573  1.1463
  296TMC3    C1 4456   2.181   1.742   1.180  0.3848 -0.0639 -0.7318
  296TMC3    C2 4457   2.239   1.687   1.290  0.0649  0.9615  0.9861
  296TMC3    C3 4458   2.148   1.628   1.376  0.1737  0.4479 -0.1935
  296TMC3    C4 4459   2.044   1.732   1.157 -0.3075 -0.3294  0.8255
  296TMC3    C5 4460   1.963   1.669   1.237 -0.2106 -0.4113  0.0112
  296TMC3    C6 4461   2.015   1.618   1.356  0.0353 -0.0379 -0.1704
  296TMC3     C 4462   2.255   1.726   1.052 -0.1137  0.5547 -1.1240
  296TMC3     O 4463   2.230   1.800   0.956  0.5434  0.0318 -0.1495
  296TMC3     H 4464   2.343   1.697   1.317  1.4363 -1.5837 -3.3171
  296TMC3    H1 4465   2.005   1.762   1.060  0.6687 -1.5286  0.0481
  296TMC3    H2 4466   1.942   1.578   1.425  0.2083 -0.2834 -0.1315
  296TMC3    C7 4467   1.824   1.663   1.201  0.2648 -0.5695 -0.4606
  296TMC3    C8 4468   2.197   1.575   1.504 -0.9374 -0.1824 -0.7621
  296TMC3    O1 4469   1.792   1.741   1.112  0.0161  0.3794  0.3345
  296TMC3    O2 4470   2.303   1.626   1.538 -0.4648  0.3498  0.0597
  297MPD2     C 4471   4.530   4.159  15.657 -0.1150 -0.7348  0.0879
  297MPD2    C1 4472   4.477   4.246  15.752  0.6314  0.3728  0.2485
  297MPD2    C2 4473   4.560   4.302  15.839  0.6084  0.6449  0.2776
  297MPD2    C3 4474   4.693   4.270  15.841 -0.4109  0.0370  0.0072
  297MPD2    C4 4475   0.025   4.178  15.756  0.0591  0.1148 -0.9904
  297MPD2    C5 4476   4.664   4.137  15.650 -0.2325  0.3396  0.3891
  297MPD2     H 4477   4.532   4.369  15.919 -0.7748 -0.1290  0.4431
  297MPD2    H1 4478   0.131   4.158  15.748  0.1432  1.2639 -2.8344
  297MPD2    H2 4479   4.469   4.121  15.576 -0.7999 -0.4749  0.4817
  297MPD2    H3 4480   4.701   4.065  15.579  0.4269 -1.2299  2.3034
  297MPD2     N 4481   0.048   4.352  15.935  0.0773  0.0052 -0.3172
  297MPD2    H5 4482   4.716   4.403  16.004  1.3834  0.6021  0.2901
  297MPD2    N1 4483   4.351   4.294  15.718  0.1956 -0.0306 -0.0724
  297MPD2    H7 4484   4.303   4.259  15.636  0.4999 -1.2873  0.2821
  298TMC3    C1 4485   4.139   4.390  15.738 -0.0788  0.6497  0.0733
  298TMC3    C2 4486   4.112   4.354  15.604  0.0416 -0.2407  0.4963
  298TMC3    C3 4487   3.971   4.345  15.578  0.2583  0.2606  0.2748
  298TMC3    C4 4488   4.042   4.421  15.830 -0.5935 -0.8761  0.9425
  298TMC3    C5 4489   3.913   4.402  15.791 -0.3729 -0.2912 -0.9356
  298TMC3    C6 4490   3.877   4.367  15.671  0.0900  0.4115 -0.0538
  298TMC3     C 4491   4.276   4.383  15.790  0.2762  0.2931 -0.1278
  298TMC3     O 4492   4.306   4.436  15.900  0.2668 -0.0522 -0.0398
  298TMC3     H 4493   4.181   4.313  15.531 -0.9277 -1.4862  0.2848
  298TMC3    H1 4494   4.076   4.431  15.933 -0.2722  3.0488  0.4739
  298TMC3    H2 4495   3.777   4.347  15.633 -0.1454  0.8145  0.3614
  298TMC3    C7 4496   3.817   4.430  15.898 -0.7627 -0.5138 -0.0333
  298TMC3    C8 4497   3.928   4.271  15.456 -0.2165 -0.0271 -0.8748
  298TMC3    O1 4498   3.853   4.448  16.017 -0.0536  0.4861 -0.0739
  298TMC3    O2 4499   3.821   4.218  15.443 -0.6479  0.2338  0.5569
  299MPD2     C 4500   1.007   3.111  10.849 -0.2625 -0.0032  0.2360
  299MPD2    C1 4501   0.987   3.192  10.739 -0.0874  0.2103  0.9047
  299MPD2    C2 4502   0.860   3.187  10.673  0.0615 -0.1107  0.5325
  299MPD2    C3 4503   0.761   3.095  10.720 -0.2583  0.9593  0.6149
  299MPD2    C4 4504   0.791   3.009  10.823  0.3848 -1.0963  0.0887
  299MPD2    C5 4505   0.911   3.021  10.888  0.0695 -0.7921 -0.3761
  299MPD2     H 4506   0.835   3.257  10.594 -0.0650  0.9064  1.4768
  299MPD2    H1 4507   0.723   2.929  10.851 -1.1278  0.7891  1.9464
  299MPD2    H2 4508   1.102   3.105  10.901 -0.1184 -0.6216 -0.0975
  299MPD2    H3 4509   0.944   2.958  10.970  2.5369  4.0118  2.3044
  299MPD2     N 4510   0.628   3.090  10.667 -0.3823 -0.2510  0.3397
  299MPD2    H5 4511   0.566   3.021  10.710  1.6854 -2.8166 -0.8065
  299MPD2    N1 4512   1.089   3.289  10.712  0.4291 -0.3144 -0.2549
  299MPD2    H7 4513   1.180   3.257  10.744 -0.9682 -4.0196  0.0086
  300TMC3    C1 4514   0.441   3.164  10.539 -0.1228 -0.2403  0.1533
  300TMC3    C2 4515   0.400   3.226  10.418  0.2230  0.2411 -0.5293
  300TMC3    C3 4516   0.294   3.306  10.418 -0.2140  0.0598 -0.0002
  300TMC3    C4 4517   0.367   3.168  10.652  0.0217 -0.2581 -0.1579
  300TMC3    C5 4518   0.267   3.258  10.650  0.0611  0.5657 -0.5185
  300TMC3    C6 4519   0.233   3.327  10.534  0.6269  0.2447  0.2880
  300TMC3     C 4520   0.585   3.157  10.556  0.5182  0.5404 -0.0053
  300TMC3     O 4521   0.649   3.209  10.464 -0.3998  0.0762  0.0507
  300TMC3     H 4522   0.472   3.223  10.337 -0.2159  2.6064 -1.0008
  300TMC3    H1 4523   0.400   3.122  10.745 -0.5527  1.8713  1.1033
  300TMC3    H2 4524   0.151   3.398  10.532 -0.6481 -1.2655 -1.1247
  300TMC3    C7 4525   0.174   3.253  10.770 -0.4987 -0.1416 -0.2442
  300TMC3    C8 4526   0.305   3.417  10.331  0.5630 -0.3029 -0.0669
  300TMC3    O1 4527   0.196   3.177  10.863  0.0323  0.5569 -0.3352
  300TMC3    O2 4528   0.299   3.532  10.372  0.2259 -0.1577 -0.1973
  301MPD2     C 4529   1.049   4.547   1.743  0.2494 -0.0720 -0.2009
  301MPD2    C1 4530   1.006   4.550   1.616  0.1046  0.1749  0.0316
  301MPD2    C2 4531   1.012   4.429   1.542  0.1334  0.4478 -0.7883
  301MPD2    C3 4532   1.085   4.316   1.596 -0.0819  0.3436  0.2682
  301MPD2    C4 4533   1.132   4.327   1.722 -0.5723 -0.3444  0.3824
  301MPD2    C5 4534   1.110   4.440   1.799  0.0081 -0.2463  0.7276
  301MPD2     H 4535   0.973   4.433   1.441 -0.9373 -0.5812 -0.4063
  301MPD2    H1 4536   1.185   4.245   1.768 -1.1247 -0.6289  0.5025
  301MPD2    H2 4537   1.042   4.632   1.810  0.4181 -0.0219 -0.2459
  301MPD2    H3 4538   1.143   4.453   1.901 -0.5485 -0.1074  0.8925
  301MPD2     N 4539   1.116   4.200   1.514 -0.1442  0.2654 -0.0231
  301MPD2    H5 4540   1.167   4.127   1.563  0.2469 -0.5801 -1.6732
  301MPD2    N1 4541   0.941   4.666   1.565 -0.1173 -1.1384  0.0625
  301MPD2    H7 4542   0.915   4.657   1.468 -0.1490 -0.7770  0.0379
  302TMC3    C1 4543   1.115   4.048   1.343  0.5513 -0.2263 -0.6290
  302TMC3    C2 4544   1.233   4.003   1.381  0.8351 -0.3648  0.5722
  302TMC3    C3 4545   1.269   3.881   1.322  0.0631 -0.1009  0.3554
  302TMC3    C4 4546   1.037   3.999   1.237 -0.2381  0.0004 -0.1360
  302TMC3    C5 4547   1.082   3.882   1.179  0.0526  0.3413  0.6440
  302TMC3    C6 4548   1.192   3.814   1.233 -0.1837 -0.0007  0.0315
  302TMC3     C 4549   1.074   4.178   1.388  0.1041  0.2646  0.7420
  302TMC3     O 4550   0.995   4.243   1.320 -0.4708 -0.1544  0.4462
  302TMC3     H 4551   1.303   4.055   1.445 -0.2653 -0.2971  1.6989
  302TMC3    H1 4552   0.948   4.040   1.192 -0.4915  0.9305  1.2362
  302TMC3    H2 4553   1.233   3.739   1.167  2.8320  2.0178 -0.4080
  302TMC3    C7 4554   1.055   3.866   1.036  0.0286 -0.3411  0.3478
  302TMC3    C8 4555   1.407   3.829   1.355 -0.0194  0.7090  0.5223
  302TMC3    O1 4556   1.074   3.751   0.996  0.2520 -0.2106 -0.9047
  302TMC3    O2 4557   1.446   3.732   1.292  0.3684  0.4349 -0.6954
  303MPD2     C 4558   2.911   3.190  10.361  0.0078  0.5747  0.2014
  303MPD2    C1 4559   2.885   3.056  10.318  0.2427  0.3935 -0.5712
  303MPD2    C2 4560   2.810   3.026  10.206  0.8670  0.2014  0.1940
  303MPD2    C3 4561   2.754   3.139  10.135 -0.0821 -0.3129 -0.3532
  303MPD2    C4 4562   2.782   3.268  10.170  0.4860 -0.4136  0.0088
  303MPD2    C5 4563   2.857   3.294  10.284  0.1143  0.4780 -0.0297
  303MPD2     H 4564   2.777   2.924  10.191  0.5656  0.3626 -0.2517
  303MPD2    H1 4565   2.743   3.358  10.125  1.7322 -0.5520 -1.3372
  303MPD2    H2 4566   2.961   3.216  10.453 -1.0819 -0.0271  0.9557
  303MPD2    H3 4567   2.893   3.393  10.308  1.1531  0.7270 -2.6393
  303MPD2     N 4568   2.674   3.121  10.021  0.3656 -0.8398  0.7751
  303MPD2    H5 4569   2.656   3.203   9.964 -2.6637 -2.1095 -0.0754
  303MPD2    N1 4570   2.928   2.958  10.410 -0.0386 -0.1458  0.0465
  303MPD2    H7 4571   2.950   2.988  10.505  0.0749 -2.8419  0.8846
  304TMC3    C1 4572   2.977   2.739  10.485 -0.4132  0.3255 -0.5217
  304TMC3    C2 4573   2.961   2.778  10.610  0.0206 -0.3680 -0.3272
  304TMC3    C3 4574   2.947   2.682  10.712  0.4447  0.4862  0.7380
  304TMC3    C4 4575   2.993   2.607  10.454 -0.2975 -0.0119 -0.0024
  304TMC3    C5 4576   2.984   2.512  10.557  0.1417  0.4956  0.0932
  304TMC3    C6 4577   2.972   2.555  10.688 -0.0355  0.4643  0.4436
  304TMC3     C 4578   2.941   2.828  10.372  0.3910  0.2785 -0.6719
  304TMC3     O 4579   2.941   2.783  10.257 -0.3948  0.0108  0.1721
  304TMC3     H 4580   2.959   2.883  10.637 -0.7523 -1.8019  5.2606
  304TMC3    H1 4581   2.993   2.576  10.350 -1.1659  0.0064 -0.0030
  304TMC3    H2 4582   2.946   2.492  10.772 -0.1496 -1.8858 -1.3544
  304TMC3    C7 4583   2.907   2.386  10.519  0.5598  0.1398 -0.5515
  304TMC3    C8 4584   2.815   2.703  10.773 -0.5276  0.0382  1.2736
  304TMC3    O1 4585   2.842   2.334  10.611  0.1081  0.3151 -0.0960
  304TMC3    O2 4586   2.792   2.819  10.804  0.1250 -0.0831 -0.0458
  305MPD2     C 4587   1.040   0.813  14.155  0.5336 -0.0712 -0.4996
  305MPD2    C1 4588   0.912   0.792  14.178  0.4910 -0.2617  0.3792
  305MPD2    C2 4589   0.823   0.797  14.069 -0.5014  0.7933 -0.0977
  305MPD2    C3 4590   0.863   0.825  13.942 -0.1765 -0.5327 -0.2102
  305MPD2    C4 4591   0.994   0.854  13.922  0.3387 -0.2192 -0.4872
  305MPD2    C5 4592   1.078   0.851  14.025  0.1373 -0.4533  0.6584
  305MPD2     H 4593   0.717   0.787  14.093 -0.3935  1.2068  0.5499
  305MPD2    H1 4594   1.031   0.892  13.827 -1.6572  0.6864 -0.9041
  305MPD2    H2 4595   1.127   0.814  14.219 -0.1003 -0.2070  0.3671
  305MPD2    H3 4596   1.183   0.873  14.010 -0.7721  1.5277 -2.7782
  305MPD2     N 4597   0.775   0.817  13.825  0.6802  0.0121  1.0559
  305MPD2    H5 4598   0.819   0.825  13.734 -2.0613  1.3990 -0.1469
  305MPD2    N1 4599   0.865   0.769  14.307 -0.4988  0.7280 -0.6188
  305MPD2    H7 4600   0.764   0.765  14.301 -0.6011  0.5828  1.0827
  306TMC3    C1 4601   0.847   0.779  14.542 -0.1748 -0.2808  0.0080
  306TMC3    C2 4602   0.750   0.682  14.548  0.1514  0.4177  0.1721
  306TMC3    C3 4603   0.689   0.657  14.663  0.6252  0.0037 -0.1841
  306TMC3    C4 4604   0.875   0.859  14.652 -0.4305 -0.5328 -0.3793
  306TMC3    C5 4605   0.804   0.836  14.768 -0.3216 -0.2804  0.2789
  306TMC3    C6 4606   0.711   0.731  14.773  0.2853  1.0678  0.0679
  306TMC3     C 4607   0.931   0.791  14.424  0.0090 -0.5164  0.7524
  306TMC3     O 4608   1.049   0.822  14.444 -0.1915  0.3199  0.2330
  306TMC3     H 4609   0.737   0.621  14.459  1.8857 -0.4243  0.4940
  306TMC3    H1 4610   0.948   0.938  14.643  1.4471 -1.8193  3.2186
  306TMC3    H2 4611   0.667   0.704  14.868  1.3670 -2.3703 -0.3872
  306TMC3    C7 4612   0.804   0.927  14.878 -0.0947  0.6186  0.0851
  306TMC3    C8 4613   0.689   0.515  14.690  0.4710  0.1907  0.1133
  306TMC3    O1 4614   0.728   0.898  14.970  0.3118 -0.0443  0.2506
  306TMC3    O2 4615   0.788   0.469  14.753  0.2872  0.2264 -0.2272
  307MPD2     C 4616   3.139   2.585  17.592 -0.2497  0.0034  0.2783
  307MPD2    C1 4617   3.171   2.719  17.594 -0.4241  0.0960 -0.6775
  307MPD2    C2 4618   3.107   2.802  17.681  0.5522  0.2767  0.1142
  307MPD2    C3 4619   3.035   2.741   0.090 -0.3981  0.0179 -0.2593
  307MPD2    C4 4620   3.011   2.608   0.098 -0.4999 -0.1368  0.1915
  307MPD2    C5 4621   3.072   2.531   0.007 -0.0523 -0.1117  0.3324
  307MPD2     H 4622   3.119   2.909  17.679 -2.2467  0.5918  0.0178
  307MPD2    H1 4623   2.959   2.560   0.181 -1.2333 -0.5128 -0.4852
  307MPD2    H2 4624   3.174   2.525  17.509  0.5096  0.2198  0.4398
  307MPD2    H3 4625   3.050   2.425   0.005 -1.1223  0.1021  0.7020
  307MPD2     N 4626   2.993   2.837   0.191  0.5938  0.0987  0.1725
  307MPD2    H5 4627   3.008   2.936   0.173  2.0644  0.1781  1.8556
  307MPD2    N1 4628   3.232   2.794  17.493 -0.2493 -0.7571  0.2759
  307MPD2    H7 4629   3.230   2.896  17.498 -0.5670 -0.7905  0.8566
  308TMC3    C1 4630   2.888   3.024   0.599 -0.2579 -0.1896 -0.3527
  308TMC3    C2 4631   2.980   3.124   0.579 -0.1756  0.2129 -0.4621
  308TMC3    C3 4632   3.048   3.115   0.460 -0.0345  0.4772 -0.2587
  308TMC3    C4 4633   2.869   2.920   0.510 -0.3937 -0.3485  0.3298
  308TMC3    C5 4634   2.946   2.927   0.394 -0.8868  0.3293  0.1635
  308TMC3    C6 4635   3.041   3.019   0.371  0.0936  0.5252 -0.2781
  308TMC3     C 4636   2.820   3.001   0.728 -0.7928  0.4168 -0.6150
  308TMC3     O 4637   2.810   2.886   0.772 -0.2286 -0.1112  0.1634
  308TMC3     H 4638   2.988   3.194   0.661  1.6651  1.4468 -1.7159
  308TMC3    H1 4639   2.792   2.844   0.523 -0.0654 -1.0371 -1.7914
  308TMC3    H2 4640   3.099   3.023   0.279 -0.1523  1.3308 -0.3934
  308TMC3    C7 4641   2.935   2.809   0.311 -0.2755  0.6188 -0.5041
  308TMC3    C8 4642   3.069   3.250   0.403 -0.5110  0.6310 -0.7030
  308TMC3    O1 4643   2.914   2.703   0.364  0.4630 -0.1950 -0.1233
  308TMC3    O2 4644   3.046   3.253   0.285  0.1961 -0.1541  0.5977
  309MPD2     C 4645   2.470   3.492  16.764 -0.7850 -0.1013  0.0792
  309MPD2    C1 4646   2.500   3.603  16.839 -0.2089  0.2371  0.2493
  309MPD2    C2 4647   2.403   3.632  16.937 -0.0168 -0.0044 -0.1278
  309MPD2    C3 4648   2.291   3.558  16.969 -0.4620  0.7754  0.2190
  309MPD2    C4 4649   2.269   3.449  16.890  0.4942 -0.4706  0.1420
  309MPD2    C5 4650   2.358   3.418  16.788  0.4352  0.0772 -0.0945
  309MPD2     H 4651   2.427   3.718  16.998 -0.4923  0.2070 -0.2406
  309MPD2    H1 4652   2.178   3.394  16.909  0.2577 -0.8421 -2.0787
  309MPD2    H2 4653   2.532   3.465  16.680 -1.2297  1.4205 -0.7422
  309MPD2    H3 4654   2.333   3.343  16.713  2.1001  0.3159 -0.8991
  309MPD2     N 4655   2.207   3.585  17.078 -0.5042 -0.2583  0.4723
  309MPD2    H5 4656   2.135   3.515  17.091 -0.6353  0.1897  2.1960
  309MPD2    N1 4657   2.604   3.690  16.799 -0.5075 -0.5807 -0.0426
  309MPD2    H7 4658   2.607   3.783  16.839  1.6725 -0.3499 -0.7516
  310TMC3    C1 4659   2.774   3.761  16.648 -0.2393  0.2308 -0.3122
  310TMC3    C2 4660   2.690   3.842  16.571 -0.4042  0.5725  0.0675
  310TMC3    C3 4661   2.745   3.889  16.458  0.3839  0.2285 -0.3904
  310TMC3    C4 4662   2.903   3.730  16.613 -0.0653 -0.0092 -0.0623
  310TMC3    C5 4663   2.952   3.789  16.499  0.2766  0.0381  0.7305
  310TMC3    C6 4664   2.876   3.870  16.422 -0.2432 -0.9642 -0.0110
  310TMC3     C 4665   2.712   3.652  16.716 -0.4031  0.6210 -0.7088
  310TMC3     O 4666   2.742   3.541  16.670  1.0236  0.6110 -0.3845
  310TMC3     H 4667   2.585   3.849  16.593  0.0725 -0.9253  2.7788
  310TMC3    H1 4668   2.956   3.652  16.666 -0.1560 -0.2907 -0.3835
  310TMC3    H2 4669   2.899   3.896  16.320  0.4373  4.4078  1.5056
  310TMC3    C7 4670   3.095   3.773  16.471  0.0011 -0.5279 -0.7506
  310TMC3    C8 4671   2.652   3.952  16.363 -0.0311  0.0004 -0.8124
  310TMC3    O1 4672   3.148   3.689  16.542  0.2544 -0.2220 -0.3686
  310TMC3    O2 4673   2.531   3.944  16.374  0.9191  0.0566 -0.0746
  311MPD2     C 4674   4.331   0.300  12.904  0.4430  0.0878  0.2943
  311MPD2    C1 4675   4.303   0.434  12.926  0.1873 -0.9513  0.2364
  311MPD2    C2 4676   4.170   0.460  12.932  0.0566  0.0462 -0.1536
  311MPD2    C3 4677   4.067   0.375  12.904  0.0072  0.3292 -0.0237
  311MPD2    C4 4678   4.101   0.250  12.872  0.1277 -0.1777 -0.0653
  311MPD2    C5 4679   4.231   0.216  12.876  0.5108 -0.0187  0.6418
  311MPD2     H 4680   4.156   0.565  12.956 -0.6780 -0.4622  1.6130
  311MPD2    H1 4681   4.036   0.168  12.844  2.0834 -2.0402  0.8415
  311MPD2    H2 4682   4.430   0.256  12.903 -0.1594 -1.2127 -2.2192
  311MPD2    H3 4683   4.270   0.117  12.856 -2.5739 -1.0460 -0.2077
  311MPD2     N 4684   3.938   0.424  12.897  0.3243  0.3946  1.0775
  311MPD2    H5 4685   3.932   0.525  12.908  1.7586  0.5618  0.3017
  311MPD2    N1 4686   4.402   0.538  12.934  0.2840  0.2396 -0.9579
  311MPD2    H7 4687   4.377   0.632  12.963  1.0188  0.1362 -0.0082
  312TMC3    C1 4688   3.709   0.443  12.873  0.5214 -0.0406  0.2807
  312TMC3    C2 4689   3.630   0.425  12.761  0.0031 -0.4760 -0.2342
  312TMC3    C3 4690   3.537   0.526  12.735 -0.2367  0.4273 -0.3739
  312TMC3    C4 4691   3.708   0.560  12.943 -0.4670 -0.1105 -0.1764
  312TMC3    C5 4692   3.614   0.655  12.911  0.0031 -0.1103  0.2167
  312TMC3    C6 4693   3.522   0.637  12.814 -0.2256  0.3960 -0.7327
  312TMC3     C 4694   3.823   0.348  12.884  0.2888  0.0671 -0.6896
  312TMC3     O 4695   3.810   0.225  12.874 -0.4264 -0.5111 -0.0235
  312TMC3     H 4696   3.648   0.337  12.701 -0.4025 -0.2977 -0.6198
  312TMC3    H1 4697   3.781   0.570  13.023 -1.5161  0.7190  0.6830
  312TMC3    H2 4698   3.445   0.712  12.794 -0.1380  1.0761  1.5110
  312TMC3    C7 4699   3.577   0.753  13.012  0.2843 -0.4435 -0.1512
  312TMC3    C8 4700   3.417   0.473  12.676 -0.5700  0.8143 -0.2387
  312TMC3    O1 4701   3.514   0.854  12.982 -0.4749 -1.0726  0.1357
  312TMC3    O2 4702   3.401   0.356  12.699  0.2678  0.2877  0.4974
  313MPD2     C 4703   4.361   4.455   9.450  0.3650 -0.2137  0.2406
  313MPD2    C1 4704   4.295   4.443   9.576 -0.0477  0.6451 -0.4958
  313MPD2    C2 4705   4.226   4.327   9.600 -0.2378 -0.0786  0.2204
  313MPD2    C3 4706   4.213   4.228   9.500 -0.2929  0.1588 -0.2376
  313MPD2    C4 4707   4.261   4.249   9.373  0.7175 -0.6739 -0.8552
  313MPD2    C5 4708   4.332   4.368   9.348  0.2965  0.6245  0.4739
  313MPD2     H 4709   4.191   4.304   9.700  1.7847 -2.8168  0.2890
  313MPD2    H1 4710   4.251   4.183   9.288 -1.0581  0.0960 -1.2273
  313MPD2    H2 4711   4.427   4.541   9.441  1.6649 -1.4510 -2.0453
  313MPD2    H3 4712   4.370   4.393   9.249  1.1660  0.8263  0.8574
  313MPD2     N 4713   4.145   4.110   9.534  0.1642  0.4388 -0.2211
  313MPD2    H5 4714   4.118   4.103   9.632 -0.3111 -0.6661 -0.4231
  313MPD2    N1 4715   4.286   4.537   9.682 -0.4955  0.7030 -0.4672
  313MPD2    H7 4716   4.259   4.503   9.774 -1.1335 -0.6847 -1.1712
  314TMC3    C1 4717   4.284   0.012   9.800  0.0399  0.3005 -0.2301
  314TMC3    C2 4718   4.348   4.682   9.909 -0.2881  0.3649  0.5902
  314TMC3    C3 4719   4.346   0.034  10.026 -0.2470 -0.1308 -0.4073
  314TMC3    C4 4720   4.240   0.138   9.792 -0.8234  0.1992 -0.5686
  314TMC3    C5 4721   4.276   0.223   9.901  0.1451 -0.4576 -0.4222
  314TMC3    C6 4722   4.324   0.169  10.018  0.1615 -0.4064 -0.0414
  314TMC3     C 4723   4.313   4.671   9.669 -0.1077 -0.0144 -0.9627
  314TMC3     O 4724   4.330   0.021   9.569 -0.1182 -0.4366 -1.0581
  314TMC3     H 4725   4.391   4.583   9.905 -1.3440 -0.1142  1.0634
  314TMC3    H1 4726   4.197   0.180   9.702 -1.2134 -1.0897 -0.9833
  314TMC3    H2 4727   4.325   0.228  10.109 -1.3986  1.2213 -1.0984
  314TMC3    C7 4728   4.350   0.345   9.861 -0.0889  0.5024  0.2016
  314TMC3    C8 4729   4.420   4.716  10.148 -0.4792 -0.6165 -0.1647
  314TMC3    O1 4730   4.378   0.427   9.946  0.7904 -0.2986 -0.0269
  314TMC3    O2 4731   4.409   0.066  10.243 -0.5934  0.4714  0.4532
  315MPD2     C 4732   3.257   3.546   0.001 -0.9896 -0.5167 -0.2389
  315MPD2    C1 4733   3.348   3.494  17.602  0.7058  0.2835  0.3629
  315MPD2    C2 4734   3.411   3.581  17.520 -0.0416 -0.4614  0.0834
  315MPD2    C3 4735   3.401   3.721  17.533  0.2485  0.0202  0.2573
  315MPD2    C4 4736   3.315   3.765  17.621 -0.9295 -0.0976 -0.3386
  315MPD2    C5 4737   3.238   3.679   0.006 -0.2036  0.0711  0.5785
  315MPD2     H 4738   3.474   3.542  17.440 -1.1076 -0.6886 -0.6440
  315MPD2    H1 4739   3.317   3.869  17.651  0.5939 -0.0970 -0.4324
  315MPD2    H2 4740   3.213   3.490   0.083  0.0151  0.7699  1.1737
  315MPD2    H3 4741   3.187   3.724   0.090  1.0920 -0.7455  1.8199
  315MPD2     N 4742   3.487   3.805  17.456 -0.5294  0.0858 -0.7710
  315MPD2    H5 4743   3.565   3.760  17.409 -1.1249 -0.7573 -0.9421
  315MPD2    N1 4744   3.394   3.361  17.608  0.0582 -0.3556 -0.2317
  315MPD2    H7 4745   3.487   3.341  17.573 -0.5982 -1.2863 -1.4734
  316TMC3    C1 4746   3.601   3.991  17.384 -0.2666  0.5944 -0.1102
  316TMC3    C2 4747   3.724   3.931  17.426  0.7595  0.0539  0.6222
  316TMC3    C3 4748   3.838   3.997  17.424  0.1174 -0.4047  0.1733
  316TMC3    C4 4749   3.606   4.129  17.363  0.3073 -1.2960 -0.7974
  316TMC3    C5 4750   3.722   4.197  17.357 -0.0082 -0.8044 -0.3716
  316TMC3    C6 4751   3.841   4.129  17.387  0.4167  0.0866 -0.1461
  316TMC3     C 4752   3.487   3.940  17.454  0.0780 -0.1269 -0.0341
  316TMC3     O 4753   3.392   4.016  17.476 -0.1201  0.4848 -0.2645
  316TMC3     H 4754   3.729   3.828  17.461  1.0562  0.2114  1.0428
  316TMC3    H1 4755   3.516   4.188  17.354  0.6759 -1.0864 -3.1348
  316TMC3    H2 4756   3.939   4.170  17.368 -0.0949  1.0496 -0.6611
  316TMC3    C7 4757   3.747   4.331  17.301  0.1532  0.6447  0.1593
  316TMC3    C8 4758   3.966   3.944  17.479 -0.2155 -0.6289 -0.6376
  316TMC3    O1 4759   3.855   4.383  17.330 -0.0960 -0.2766 -0.3038
  316TMC3    O2 4760   4.059   4.026  17.490 -0.2076 -0.6915 -1.0748
  317MPD2     C 4761   0.614   2.408  13.031 -0.3203  0.2624  0.5770
  317MPD2    C1 4762   0.674   2.300  12.973 -0.0608 -0.4232  0.7287
  317MPD2    C2 4763   0.751   2.217  13.053  0.0193  0.2674  0.9254
  317MPD2    C3 4764   0.749   2.229  13.185  0.0608  0.4986 -0.1126
  317MPD2    C4 4765   0.667   2.323  13.244  0.0051 -0.2250 -0.2619
  317MPD2    C5 4766   0.602   2.419  13.167  0.5298  0.0590 -0.2537
  317MPD2     H 4767   0.809   2.135  13.013  1.2095  1.4180  0.3060
  317MPD2    H1 4768   0.661   2.348  13.350  1.0642  1.6769 -0.6578
  317MPD2    H2 4769   0.537   2.467  12.983 -0.1589 -0.1053 -0.1281
  317MPD2    H3 4770   0.551   2.501  13.216  1.4926  1.3898 -1.4519
  317MPD2     N 4771   0.850   2.156  13.260 -0.2578  0.2641 -0.1793
  317MPD2    H5 4772   0.917   2.100  13.208 -0.9564 -3.0483  2.4760
  317MPD2    N1 4773   0.671   2.278  12.834 -0.0221 -0.3743  0.2774
  317MPD2    H7 4774   0.717   2.194  12.800 -0.8356 -0.3199 -0.9862
  318TMC3    C1 4775   0.959   2.056  13.426  0.2196 -0.4591 -0.1890
  318TMC3    C2 4776   0.926   1.948  13.508 -0.5472 -0.4650 -0.6049
  318TMC3    C3 4777   1.015   1.844  13.505  0.1748 -0.7610  1.0788
  318TMC3    C4 4778   1.077   2.059  13.358  0.1814  0.2881 -0.4593
  318TMC3    C5 4779   1.167   1.956  13.372  0.1548 -0.2231  0.4336
  318TMC3    C6 4780   1.138   1.840  13.441 -0.0008 -0.0676 -0.1795
  318TMC3     C 4781   0.858   2.152  13.393  0.5491  0.1367 -0.1669
  318TMC3     O 4782   0.793   2.198  13.485 -0.1693  0.0584 -0.7299
  318TMC3     H 4783   0.831   1.951  13.558 -0.3384 -2.4799 -0.0656
  318TMC3    H1 4784   1.101   2.150  13.305 -0.3634 -0.0117 -1.2207
  318TMC3    H2 4785   1.212   1.760  13.441 -0.9195 -0.9130 -4.2338
  318TMC3    C7 4786   1.282   1.957  13.276 -0.5298  0.0936 -0.3971
  318TMC3    C8 4787   0.967   1.711  13.545  0.5434  0.0537  0.2698
  318TMC3    O1 4788   1.262   2.044  13.189 -0.3400  0.3179 -0.0248
  318TMC3    O2 4789   1.045   1.616  13.558 -0.0160  0.4230 -0.4926
  319MPD2     C 4790   1.781   3.058  17.091 -0.4786  0.2202 -0.1149
  319MPD2    C1 4791   1.670   3.139  17.108  0.4200 -0.6571 -0.2922
  319MPD2    C2 4792   1.564   3.140  17.014  0.1340  0.0670 -0.4743
  319MPD2    C3 4793   1.576   3.069  16.895 -0.0252 -0.3119  0.5017
  319MPD2    C4 4794   1.687   2.982  16.884  0.3619  0.7161 -0.5856
  319MPD2    C5 4795   1.784   2.979  16.979 -0.1909  0.5464 -0.1597
  319MPD2     H 4796   1.487   3.213  17.035  0.1977 -0.1476  0.5217
  319MPD2    H1 4797   1.694   2.910  16.803  0.3654  1.0965 -0.9268
  319MPD2    H2 4798   1.871   3.053  17.152  0.3387 -0.7814 -1.4044
  319MPD2    H3 4799   1.871   2.915  16.968 -0.2488  0.1990  1.3852
  319MPD2     N 4800   1.475   3.060  16.790  0.1941 -0.0427 -0.5110
  319MPD2    H5 4801   1.504   2.994  16.718  0.4374 -0.4999  0.0025
  319MPD2    N1 4802   1.663   3.218  17.227  0.6334  0.3047 -0.2006
  319MPD2    H7 4803   1.577   3.272  17.236  0.3352 -0.0692 -0.8714
  320TMC3    C1 4804   1.317   3.129  16.633 -0.0384  0.9187 -0.0390
  320TMC3    C2 4805   1.301   3.239  16.555  0.3596 -0.0555 -0.0777
  320TMC3    C3 4806   1.250   3.217  16.430  0.0009  0.5594  0.4073
  320TMC3    C4 4807   1.286   3.003  16.586  0.1223 -0.0733 -0.2745
  320TMC3    C5 4808   1.224   2.996  16.465  0.5066 -0.0642 -0.2004
  320TMC3    C6 4809   1.206   3.099  16.380 -0.6147 -0.1706 -0.0474
  320TMC3     C 4810   1.374   3.147  16.763 -0.4206  0.7026 -0.6815
  320TMC3     O 4811   1.365   3.260  16.813  0.5296  0.3348 -0.0527
  320TMC3     H 4812   1.333   3.334  16.596  0.1699  0.1204 -0.3446
  320TMC3    H1 4813   1.299   2.919  16.653 -1.3700  0.2413  0.4167
  320TMC3    H2 4814   1.160   3.083  16.283 -1.7298  2.1752  0.0973
  320TMC3    C7 4815   1.195   2.865  16.412  0.1882  0.1560 -0.0443
  320TMC3    C8 4816   1.239   3.340  16.355 -0.0203 -1.3192  0.3213
  320TMC3    O1 4817   1.127   2.864  16.308  0.1201  0.2246 -0.4119
  320TMC3    O2 4818   1.287   3.442  16.401 -0.0157  0.0692 -0.0280
  321TMC3    C1 4819   1.697   3.313  17.439  0.2297 -0.4330  0.0930
  321TMC3    C2 4820   1.573   3.274  17.473 -0.2836 -0.1194 -0.9547
  321TMC3    C3 4821   1.543   3.302  17.600 -1.1455  0.0896  0.2566
  321TMC3    C4 4822   1.784   3.376  17.520 -0.4405  0.3460  0.3188
  321TMC3    C5 4823   1.744   3.409  17.653 -0.0584 -0.1114 -0.6116
  321TMC3    C6 4824   1.613   3.381  17.688 -0.2054 -0.0972 -0.0245
  321TMC3     C 4825   1.761   3.247  17.326  0.0281  0.1688 -0.3674
  321TMC3     O 4826   1.881   3.239  17.317 -0.0261 -0.1377  0.3650
  321TMC3     H 4827   1.526   3.188  17.427 -0.6092 -1.2302  1.4559
  321TMC3    H1 4828   1.890   3.381  17.495 -0.1885 -2.8578  0.6798
  321TMC3    H2 4829   1.580   3.396   0.095  0.5934  0.6630  0.1293
  321TMC3    C7 4830   1.839   3.387   0.068  0.4153  0.3604 -0.3448
  321TMC3    C8 4831   1.492   3.185  17.676 -0.1242  0.1840 -0.6592
  321TMC3    O1 4832   1.791   3.347   0.173 -0.2297 -0.0613 -0.2999
  321TMC3    O2 4833   1.398   3.125  17.627  0.7635 -0.2651 -0.3899
  322MPD2     C 4834   0.532   0.095  13.576  0.3891 -0.0356  0.7491
  322MPD2    C1 4835   0.559   0.012  13.681 -0.3720  0.7430 -0.3063
  322MPD2    C2 4836   0.624   4.613  13.649 -0.4099 -0.2999 -0.8189
  322MPD2    C3 4837   0.662   4.581  13.518 -0.2358  0.4769 -0.4772
  322MPD2    C4 4838   0.618   4.657  13.414  1.0582 -0.0618 -0.3492
  322MPD2    C5 4839   0.553   0.050  13.447 -0.3483  0.6689 -0.5560
  322MPD2     H 4840   0.662   4.547  13.727  0.1994  0.5303 -0.4131
  322MPD2    H1 4841   0.633   4.622  13.312  0.6864  0.0051 -0.4259
  322MPD2    H2 4842   0.485   0.191  13.595 -0.7119 -0.5622  0.7005
  322MPD2    H3 4843   0.534   0.115  13.363  1.5690  2.2810  0.2805
  322MPD2     N 4844   0.730   4.463  13.498 -0.3784 -0.6323 -0.0478
  322MPD2    H5 4845   0.758   4.416  13.583 -2.3592 -1.4732  0.1317
  322MPD2    N1 4846   0.546   0.053  13.817 -0.4042  0.6084 -0.5028
  322MPD2    H7 4847   0.544   0.152  13.841  0.0086  0.4324  0.2557
  323TMC3    C1 4848   0.560   0.030  14.060 -1.1082 -0.8963 -0.2431
  323TMC3    C2 4849   0.617   0.161  14.066 -0.0520  0.4261  0.1222
  323TMC3    C3 4850   0.661   0.196  14.195  0.2242 -0.3078  0.0370
  323TMC3    C4 4851   0.550   4.674  14.173 -0.9316  0.6100  0.1947
  323TMC3    C5 4852   0.584   4.723  14.292 -0.5978  0.0904  0.5211
  323TMC3    C6 4853   0.642   0.120  14.309 -0.8952 -0.1463  0.1657
  323TMC3     C 4854   0.530   4.691  13.929 -0.1478 -0.3270 -0.8671
  323TMC3     O 4855   0.520   4.571  13.933  0.0289  0.5840 -0.1246
  323TMC3     H 4856   0.641   0.219  13.977  1.1542 -0.8301 -0.3802
  323TMC3    H1 4857   0.509   4.574  14.164  1.4951 -0.4057  0.5213
  323TMC3    H2 4858   0.655   0.154  14.411 -0.1595  0.1944 -0.0408
  323TMC3    C7 4859   0.658   4.632  14.372  0.0194 -0.3269 -0.5253
  323TMC3    C8 4860   0.784   0.273  14.211 -0.0642 -0.1044  0.2819
  323TMC3    O1 4861   0.609   4.520  14.384 -0.8210 -0.1443 -0.0901
  323TMC3    O2 4862   0.848   0.252  14.312  0.2823 -0.4322  0.5321
  324MPD2     C 4863   2.466   1.331  14.364 -0.2023 -0.7122  0.6816
  324MPD2    C1 4864   2.506   1.404  14.255 -0.1994  0.4498  0.2628
  324MPD2    C2 4865   2.411   1.432  14.157 -0.9713  0.4366  0.1319
  324MPD2    C3 4866   2.275   1.392  14.171  0.0687 -0.4265  0.1270
  324MPD2    C4 4867   2.247   1.318  14.281 -0.4949  0.3858  0.5246
  324MPD2    C5 4868   2.334   1.293  14.378 -0.1040  0.1095  0.6575
  324MPD2     H 4869   2.453   1.480  14.069  0.9643 -2.0340 -0.3137
  324MPD2    H1 4870   2.152   1.269  14.296 -1.2949  1.6862 -0.3277
  324MPD2    H2 4871   2.537   1.298  14.440  1.4504 -0.2039 -0.6298
  324MPD2    H3 4872   2.306   1.234  14.464 -0.1993  0.2766  0.7419
  324MPD2     N 4873   2.173   1.412  14.076 -0.5791 -0.4092 -0.5714
  324MPD2    H5 4874   2.079   1.390  14.107 -0.5019  0.4786  0.2972
  324MPD2    N1 4875   2.639   1.434  14.227 -0.2247  0.1519  0.3371
  324MPD2    H7 4876   2.661   1.463  14.132  2.2649 -2.2193  0.1885
  325TMC3    C1 4877   2.084   1.548  13.904  0.3992  0.6639 -0.3131
  325TMC3    C2 4878   1.965   1.492  13.947 -0.3230  0.2561 -0.4677
  325TMC3    C3 4879   1.855   1.541  13.875 -0.3196  0.1237 -0.3076
  325TMC3    C4 4880   2.097   1.629  13.800 -0.0658 -0.1881  0.6251
  325TMC3    C5 4881   1.989   1.695  13.749 -0.8180 -0.1440  0.5816
  325TMC3    C6 4882   1.862   1.646  13.784  0.4960 -0.2600  0.1936
  325TMC3     C 4883   2.199   1.488  13.965 -0.3249  1.1620 -0.3084
  325TMC3     O 4884   2.305   1.520  13.916  0.0949 -0.5214  0.3277
  325TMC3     H 4885   1.953   1.406  14.012 -0.4225 -0.4445 -1.4087
  325TMC3    H1 4886   2.197   1.664  13.779 -1.6532  3.3102 -1.1746
  325TMC3    H2 4887   1.773   1.682  13.732 -0.5005 -0.8487  1.4915
  325TMC3    C7 4888   2.003   1.836  13.759 -0.3191 -0.5612  0.1286
  325TMC3    C8 4889   1.731   1.458  13.878  0.1289  0.2740  0.3268
  325TMC3    O1 4890   2.073   1.898  13.681 -0.2137 -0.4312  0.1329
  325TMC3    O2 4891   1.670   1.443  13.773 -1.0649  0.3733  0.6676
  326MPD2     C 4892   3.734   1.996  11.307 -0.3517 -0.4022  0.2326
  326MPD2    C1 4893   3.769   2.082  11.208  0.8532 -0.7382  0.1857
  326MPD2    C2 4894   3.832   2.201  11.253 -0.3332  0.3317 -0.3472
  326MPD2    C3 4895   3.866   2.225  11.387  0.9984 -0.3627  0.2870
  326MPD2    C4 4896   3.838   2.125  11.479  0.0241  0.5843 -0.7920
  326MPD2    C5 4897   3.762   2.019  11.438  0.9656 -0.3845  0.5455
  326MPD2     H 4898   3.870   2.277  11.187 -1.1331 -0.4421 -1.7136
  326MPD2    H1 4899   3.861   2.140  11.584  4.4037 -1.8599 -1.3918
  326MPD2    H2 4900   3.684   1.903  11.285  0.6386 -1.1735  1.2161
  326MPD2    H3 4901   3.734   1.947  11.514 -1.3575 -0.9145 -0.8179
  326MPD2     N 4902   3.937   2.342  11.429  0.4013 -0.0334 -0.3671
  326MPD2    H5 4903   3.964   2.355  11.526 -1.5850 -2.4467  0.5107
  326MPD2    N1 4904   3.754   2.059  11.068 -0.1306  0.6652  0.2600
  326MPD2    H7 4905   3.785   2.134  11.007 -2.9498  1.3868 -0.2878
  327TMC3    C1 4906   3.743   1.939  10.886  0.4852 -0.3745  0.8286
  327TMC3    C2 4907   3.658   1.999  10.795 -0.6202  0.2298 -0.7716
  327TMC3    C3 4908   3.721   2.068  10.688 -0.4323  0.3201  0.6339
  327TMC3    C4 4909   3.881   1.959  10.880  0.0774  0.1904 -0.2680
  327TMC3    C5 4910   3.933   2.040  10.783  0.5221  0.0606 -0.2895
  327TMC3    C6 4911   3.857   2.097  10.687  0.7239  0.2273 -0.5583
  327TMC3     C 4912   3.703   1.945  11.021 -0.0618  0.0114 -0.1649
  327TMC3     O 4913   3.655   1.844  11.074 -0.0838  0.2726 -0.2125
  327TMC3     H 4914   3.551   2.006  10.811 -0.6978 -1.6187 -0.4708
  327TMC3    H1 4915   3.934   1.892  10.947  2.6387  0.4096 -2.0700
  327TMC3    H2 4916   3.908   2.147  10.606  2.7002  0.6082  0.9321
  327TMC3    C7 4917   4.058   2.106  10.813 -0.0114 -0.5613 -0.4011
  327TMC3    C8 4918   3.640   2.136  10.589  0.3457 -0.7426 -1.0691
  327TMC3    O1 4919   4.106   2.173  10.723  0.3481  0.4353 -0.4182
  327TMC3    O2 4920   3.702   2.207  10.511 -0.2075 -0.2873 -0.4031
  328MPD2     C 4921   1.307   1.223  17.350  0.1883  0.0031 -0.0419
  328MPD2    C1 4922   1.273   1.203  17.221  0.5571  0.5656  0.4957
  328MPD2    C2 4923   1.237   1.309  17.144 -0.1037 -0.0543 -0.0629
  328MPD2    C3 4924   1.223   1.438  17.202 -0.7667 -0.3273 -0.3958
  328MPD2    C4 4925   1.243   1.456  17.342  0.0847  0.1791  0.3736
  328MPD2    C5 4926   1.302   1.350  17.407  0.1972 -0.5267 -0.1526
  328MPD2     H 4927   1.195   1.287  17.047  2.1684 -1.5324 -0.7165
  328MPD2    H1 4928   1.246   1.559  17.377 -0.1693 -0.4967  2.3627
  328MPD2    H2 4929   1.348   1.144  17.412  0.1302 -0.0220 -0.0357
  328MPD2    H3 4930   1.339   1.354  17.509 -0.0987 -3.3072  0.0553
  328MPD2     N 4931   1.168   1.549  17.128 -0.0756  0.0762  0.0730
  328MPD2    H5 4932   1.166   1.628  17.192  1.2213 -0.6465  1.0074
  328MPD2    N1 4933   1.267   1.069  17.178 -0.5107  0.2341  0.4326
  328MPD2    H7 4934   1.282   0.998  17.249 -0.6715 -1.9593 -1.7191
  329TMC3    C1 4935   1.205   0.888  17.052  0.5045 -0.9692  0.2506
  329TMC3    C2 4936   1.164   0.816  17.166  0.7291  0.2022  0.2687
  329TMC3    C3 4937   1.117   0.688  17.148 -0.4730  0.9614  0.1539
  329TMC3    C4 4938   1.195   0.834  16.927 -0.3895 -0.1641  0.2976
  329TMC3    C5 4939   1.161   0.701  16.922 -0.2679  0.0466  0.0572
  329TMC3    C6 4940   1.117   0.627  17.027 -0.3707 -0.3872  0.6453
  329TMC3     C 4941   1.230   1.025  17.056  0.9432 -0.1431  0.2561
  329TMC3     O 4942   1.222   1.086  16.950 -0.7800  0.6840  0.1525
  329TMC3     H 4943   1.174   0.861  17.264 -0.1580  0.1624  0.3759
  329TMC3    H1 4944   1.241   0.879  16.840 -2.1287  3.2040  1.1316
  329TMC3    H2 4945   1.080   0.525  17.022  0.1917 -0.5342 -0.5484
  329TMC3    C7 4946   1.153   0.629  16.796  0.1162  0.0992  0.2660
  329TMC3    C8 4947   1.063   0.615  17.260 -0.6582  0.0641 -0.1993
  329TMC3    O1 4948   1.158   0.510  16.808 -0.2459  0.4679  0.5812
  329TMC3    O2 4949   1.059   0.492  17.262 -0.1441  0.0597 -0.0917
  330TMC3    C1 4950   4.213   1.054   9.463  0.3440  0.4452  0.2943
  330TMC3    C2 4951   4.193   1.004   9.586 -0.6461  0.2325 -0.0344
  330TMC3    C3 4952   4.205   0.872   9.598  0.6407 -0.4957 -0.3773
  330TMC3    C4 4953   4.248   0.976   9.354 -0.5570 -0.8859  0.4576
  330TMC3    C5 4954   4.253   0.841   9.374 -0.6866  0.1169 -0.0938
  330TMC3    C6 4955   4.233   0.784   9.497  0.7157 -0.0407  0.3166
  330TMC3     C 4956   4.194   1.198   9.454 -0.6251 -0.2389 -0.0382
  330TMC3     O 4957   4.221   1.265   9.556 -0.1446  0.0495  0.4079
  330TMC3     H 4958   4.160   1.060   9.673  1.7208  0.6313  0.6021
  330TMC3    H1 4959   4.266   1.020   9.256 -0.9767 -0.3581  0.6182
  330TMC3    H2 4960   4.239   0.677   9.515 -3.5442 -0.4876 -0.8687
  330TMC3    C7 4961   4.313   0.767   9.271  0.2119 -0.1620  0.6651
  330TMC3    C8 4962   4.179   0.820   9.734 -0.5946  0.4115  0.1433
  330TMC3    O1 4963   4.400   0.824   9.198  0.4401  0.3216 -0.0887
  330TMC3    O2 4964   4.217   0.883   9.831  0.2538 -0.2239 -0.2415
  331MPD2     C 4965   1.133   0.235  11.825 -0.4368  0.5743 -0.1156
  331MPD2    C1 4966   1.235   0.323  11.841  0.4050  0.1681 -0.1386
  331MPD2    C2 4967   1.355   0.271  11.880  0.2643 -0.1918 -0.0225
  331MPD2    C3 4968   1.385   0.137  11.902  0.6665 -0.4217 -0.3704
  331MPD2    C4 4969   1.277   0.047  11.889  0.3720  0.5645 -0.1070
  331MPD2    C5 4970   1.152   0.102  11.854  0.0478  0.7620 -0.9024
  331MPD2     H 4971   1.444   0.333  11.892  0.0900  0.0765 -0.1232
  331MPD2    H1 4972   1.277   4.664  11.911 -0.5656  0.7711  0.8553
  331MPD2    H2 4973   1.034   0.270  11.798 -1.1938 -1.0011  0.5957
  331MPD2    H3 4974   1.064   0.043  11.874  0.1899 -0.0899 -2.8058
  331MPD2     N 4975   1.517   0.092  11.922  0.5786  0.2499 -0.0022
  331MPD2    H5 4976   1.594   0.154  11.946  0.6609 -0.0658  0.5534
  331MPD2    N1 4977   1.209   0.463  11.814  0.1794  0.1778  0.1835
  331MPD2    H7 4978   1.114   0.480  11.785 -0.0494  1.4940  1.7020
  332TMC3    C1 4979   1.692   4.672  11.974  0.3807 -0.5338  0.4162
  332TMC3    C2 4980   1.782   0.022  11.898  0.1974  0.0473  0.1317
  332TMC3    C3 4981   1.912   4.718  11.904 -0.3154  0.2402  0.1219
  332TMC3    C4 4982   1.741   4.558  12.040 -1.0515  0.3454  0.0603
  332TMC3    C5 4983   1.877   4.545  12.052  0.3619 -0.7269 -0.3101
  332TMC3    C6 4984   1.962   4.633  11.993  0.6227  0.0483  0.1355
  332TMC3     C 4985   1.548   4.681  11.953 -0.1245 -0.3395 -0.3717
  332TMC3     O 4986   1.473   4.579  11.963 -0.1289 -0.4041  0.2744
  332TMC3     H 4987   1.756   0.109  11.839 -2.1801 -1.7003 -1.3619
  332TMC3    H1 4988   1.673   4.500  12.101 -1.5283  1.1664  0.3085
  332TMC3    H2 4989   2.062   4.599  11.965  0.9380 -0.2664  1.6338
  332TMC3    C7 4990   1.933   4.494  12.183 -1.1323  1.1961 -0.4052
  332TMC3    C8 4991   2.001   0.108  11.889  0.6784 -0.0056  0.0222
  332TMC3    O1 4992   1.844   4.455  12.259 -0.0703  0.0737 -0.1019
  332TMC3    O2 4993   2.062   0.142  11.987 -0.2520  0.2474  0.6741
  333MPD2     C 4994   2.645   0.071  10.793  0.6129 -0.2567  0.0939
  333MPD2    C1 4995   2.636   0.003  10.665 -0.0520  0.2974 -0.0414
  333MPD2    C2 4996   2.600   4.592  10.659  0.5502  0.1040 -0.4142
  333MPD2    C3 4997   2.564   4.523  10.775  0.1213 -0.3893 -0.1840
  333MPD2    C4 4998   2.576   4.593  10.897 -0.7067 -0.2965 -0.2219
  333MPD2    C5 4999   2.613   4.722  10.905  0.4694 -0.3036 -0.2696
  333MPD2     H 5000   2.588   4.534  10.569  2.3329  0.4431 -0.8665
  333MPD2    H1 5001   2.568   4.543  10.993 -3.5959 -3.2159 -1.9933
  333MPD2    H2 5002   2.687   0.171  10.801 -1.6916  0.6013  1.4288
  333MPD2    H3 5003   2.620   0.046  11.002 -2.5727 -1.0299  0.2950
  333MPD2     N 5004   2.522   4.390  10.778  0.1277 -0.2015 -0.5739
  333MPD2    H5 5005   2.514   4.342  10.688  4.1857 -1.7039 -0.1752
  333MPD2    N1 5006   2.664   0.079  10.548 -0.1660  0.3830 -0.1684
  333MPD2    H7 5007   2.688   0.175  10.573  2.4395  0.1658 -1.8687
  334TMC3    C1 5008   2.701   0.140  10.330  0.1586  0.3382  1.4192
  334TMC3    C2 5009   2.803   0.126  10.238 -0.5939 -1.0872 -0.2985
  334TMC3    C3 5010   2.846   0.241  10.182  0.0946 -0.4840  0.8892
  334TMC3    C4 5011   2.641   0.257  10.355 -0.0843  0.0444 -0.4451
  334TMC3    C5 5012   2.691   0.369  10.297  0.2546 -0.2160 -0.4981
  334TMC3    C6 5013   2.807   0.367  10.218  0.2035 -0.0303  0.3219
  334TMC3     C 5014   2.679   0.031  10.422  0.3189  0.1128 -0.2596
  334TMC3     O 5015   2.671   4.641  10.381 -0.0593 -0.1693  0.1265
  334TMC3     H 5016   2.844   0.026  10.229  1.5843 -0.1148 -1.1735
  334TMC3    H1 5017   2.554   0.266  10.420  0.5506 -2.4599  0.7503
  334TMC3    H2 5018   2.836   0.456  10.163 -0.3057  0.5065  0.9116
  334TMC3    C7 5019   2.654   0.502  10.328  0.4003 -0.2021  0.7319
  334TMC3    C8 5020   2.973   0.218  10.117  0.9410  0.1102 -0.0055
  334TMC3    O1 5021   2.737   0.588  10.329 -0.0355 -0.2658 -0.2114
  334TMC3    O2 5022   2.979   0.115  10.052 -0.3757 -0.3140 -0.3839
  335TMC3    C1 5023   1.877   2.121  17.471 -0.7361 -0.2405  1.1349
  335TMC3    C2 5024   1.815   2.032  17.380 -0.5395  0.3667 -0.8053
  335TMC3    C3 5025   1.819   2.065  17.249 -0.2152  0.3745  0.3834
  335TMC3    C4 5026   1.959   2.217  17.425  0.4812 -0.0257 -0.0705
  335TMC3    C5 5027   1.962   2.247  17.287 -0.8351 -1.2284  0.2948
  335TMC3    C6 5028   1.883   2.175  17.200 -0.2749  0.5855 -0.2215
  335TMC3     C 5029   1.857   2.117  17.614 -0.3742  0.0429 -0.5928
  335TMC3     O 5030   1.808   2.013  17.656  0.0112 -0.0974 -0.3014
  335TMC3     H 5031   1.732   1.970  17.414 -0.5712  1.4198  1.0248
  335TMC3    H1 5032   2.038   2.257  17.488 -1.6300 -0.6489  2.9796
  335TMC3    H2 5033   1.902   2.193  17.095  2.9644  0.7414  0.3774
  335TMC3    C7 5034   2.082   2.297  17.222 -0.4266 -0.1135 -0.5325
  335TMC3    C8 5035   1.715   2.010  17.171  0.4045  0.9332  0.1060
  335TMC3    O1 5036   2.114   2.254  17.109 -0.6215  0.0831  0.3296
  335TMC3    O2 5037   1.648   2.092  17.107  0.0300  0.3050 -0.5393
  336MPD2     C 5038   1.749   4.352  16.248  0.4926  0.1829  0.5193
  336MPD2    C1 5039   1.743   4.289  16.121  0.6720 -0.5985  0.0811
  336MPD2    C2 5040   1.783   4.157  16.112 -0.9198  0.1827 -0.0525
  336MPD2    C3 5041   1.817   4.091  16.227 -0.6043 -0.1721  0.2722
  336MPD2    C4 5042   1.805   4.149  16.350  0.2272  0.2088 -0.5802
  336MPD2    C5 5043   1.780   4.277  16.353 -0.3740 -0.4804 -0.2442
  336MPD2     H 5044   1.806   4.105  16.020 -0.7851  1.1283 -0.5558
  336MPD2    H1 5045   1.842   4.101  16.440 -1.6290 -3.0018 -1.5386
  336MPD2    H2 5046   1.739   4.459  16.264 -2.0821  0.3850 -2.4627
  336MPD2    H3 5047   1.773   4.331  16.447 -0.0440  1.5195 -1.3519
  336MPD2     N 5048   1.878   3.959  16.230 -0.1323  0.3326 -0.2487
  336MPD2    H5 5049   1.921   3.925  16.316 -2.5902 -1.2893  0.3237
  336MPD2    N1 5050   1.707   4.366  16.005  0.3105 -0.5497  0.0422
  336MPD2    H7 5051   1.756   4.326  15.925  1.5190 -1.3141  1.1581
  337TMC3    C1 5052   1.588   4.530  15.884 -0.0435 -0.7359  0.7054
  337TMC3    C2 5053   1.473   4.604  15.895  0.6316 -0.0542 -0.0875
  337TMC3    C3 5054   1.384   4.603  15.784  0.1732 -1.0381 -0.7201
  337TMC3    C4 5055   1.620   4.460  15.771  0.4597  0.2352  0.2988
  337TMC3    C5 5056   1.529   4.455  15.665 -1.0843  0.2495 -0.1084
  337TMC3    C6 5057   1.413   4.528  15.669 -0.8235 -0.4474 -0.3195
  337TMC3     C 5058   1.631   4.483  16.007 -0.5036 -0.0314 -0.2669
  337TMC3     O 5059   1.585   4.546  16.101 -0.1356  0.2436  0.3043
  337TMC3     H 5060   1.453   4.666  15.982 -3.0156 -0.4996 -0.5791
  337TMC3    H1 5061   1.709   4.399  15.767  0.5413  0.3492  0.3490
  337TMC3    H2 5062   1.344   4.519  15.585 -1.4360 -0.8927  0.2226
  337TMC3    C7 5063   1.560   4.389  15.537  0.6054 -0.2610 -0.1090
  337TMC3    C8 5064   1.257   4.669  15.800  0.0670 -0.1605  0.3794
  337TMC3    O1 5065   1.465   4.347  15.472 -0.2615  0.0373  0.1836
  337TMC3    O2 5066   1.249   0.045  15.872  0.5432 -1.1128  0.3118
  338MPD2     C 5067   1.450   3.577   0.833 -0.5767 -0.2481 -0.5364
  338MPD2    C1 5068   1.517   3.577   0.707  0.3366 -0.6498 -0.1356
  338MPD2    C2 5069   1.445   3.610   0.592 -0.1789 -0.4123 -0.0965
  338MPD2    C3 5070   1.313   3.628   0.587 -0.6337  0.3327  1.5166
  338MPD2    C4 5071   1.247   3.627   0.716 -0.0352  0.8427  0.0806
  338MPD2    C5 5072   1.317   3.609   0.833  0.5497 -0.1994  0.3319
  338MPD2     H 5073   1.488   3.611   0.492  1.0674  1.0079  0.4497
  338MPD2    H1 5074   1.141   3.640   0.727  0.0883  2.3434 -0.4979
  338MPD2    H2 5075   1.495   3.539   0.924 -1.5897  0.4569  0.2621
  338MPD2    H3 5076   1.269   3.611   0.930  0.8614 -0.5382  0.4938
  338MPD2     N 5077   1.246   3.647   0.465  0.0957 -0.4514  0.0944
  338MPD2    H5 5078   1.308   3.650   0.384  1.4826 -1.4816  1.0949
  338MPD2    N1 5079   1.654   3.541   0.691  0.3490  0.1259 -0.1959
  338MPD2    H7 5080   1.695   3.533   0.598 -0.0523 -1.3794 -0.2467
  339TMC3    C1 5081   1.079   3.676   0.301 -0.1705 -0.0657  0.1791
  339TMC3    C2 5082   0.978   3.596   0.251  0.1633 -0.5202 -1.1196
  339TMC3    C3 5083   0.934   3.620   0.121  0.2812 -0.0341 -0.1037
  339TMC3    C4 5084   1.123   3.783   0.233  0.3414  0.1342  0.2726
  339TMC3    C5 5085   1.084   3.807   0.104  0.4246 -0.1627 -0.3798
  339TMC3    C6 5086   0.991   3.722   0.046 -0.3028 -0.4917  0.5175
  339TMC3     C 5087   1.116   3.655   0.444  0.2085  0.7147  0.2238
  339TMC3     O 5088   1.024   3.618   0.522 -0.3608 -0.5628 -0.2314
  339TMC3     H 5089   0.937   3.524   0.320  0.8181  0.6494  0.4731
  339TMC3    H1 5090   1.189   3.853   0.282 -0.1079  1.8694 -1.6114
  339TMC3    H2 5091   0.943   3.748  17.647 -0.7157 -1.8718  0.3342
  339TMC3    C7 5092   1.116   3.939   0.052 -0.7073 -0.6404  0.1725
  339TMC3    C8 5093   0.873   3.507   0.053 -0.2499  0.4099  0.2885
  339TMC3    O1 5094   1.166   4.019   0.124 -0.3067  0.5944  0.4055
  339TMC3    O2 5095   0.912   3.470  17.636 -0.2626  0.0486 -0.0610
  340MPD2     C 5096   2.666   1.623  10.381 -0.5142  0.0392  0.3302
  340MPD2    C1 5097   2.680   1.486  10.387  0.1891 -0.1366  0.0097
  340MPD2    C2 5098   2.756   1.430  10.494 -0.1429  0.4242 -0.6146
  340MPD2    C3 5099   2.831   1.506  10.579  0.3041 -0.2851 -0.4470
  340MPD2    C4 5100   2.829   1.648  10.567  0.7005 -0.3467  0.5464
  340MPD2    C5 5101   2.739   1.700  10.467  0.0329 -0.5351  0.5158
  340MPD2     H 5102   2.752   1.323  10.511 -0.4574  0.4002 -0.8357
  340MPD2    H1 5103   2.884   1.714  10.633  0.0363 -1.2874  2.0223
  340MPD2    H2 5104   2.592   1.664  10.313  0.3564  0.1406 -0.5521
  340MPD2    H3 5105   2.721   1.807  10.470  2.7326 -0.0920  0.5575
  340MPD2     N 5106   2.933   1.451  10.663 -0.6372  0.2633  0.4655
  340MPD2    H5 5107   2.986   1.523  10.710  0.4453  0.6884 -1.4092
  340MPD2    N1 5108   2.604   1.415  10.294 -0.4847  0.2716  1.1148
  340MPD2    H7 5109   2.546   1.469  10.231 -0.9302 -2.2211 -0.5898
  341TMC3    C1 5110   2.556   1.245  10.147 -0.0056 -0.6655  0.3708
  341TMC3    C2 5111   2.509   1.113  10.132  0.6134  0.3421 -0.0836
  341TMC3    C3 5112   2.510   1.047  10.004 -0.1640 -0.7794  0.5704
  341TMC3    C4 5113   2.601   1.314  10.042  0.7407 -0.2606 -0.0165
  341TMC3    C5 5114   2.592   1.245   9.919 -0.0977 -0.0803 -0.2111
  341TMC3    C6 5115   2.554   1.117   9.890  0.2320 -0.7047 -0.1736
  341TMC3     C 5116   2.604   1.279  10.275  0.6899 -0.4969 -0.5704
  341TMC3     O 5117   2.653   1.188  10.342  0.5764 -0.5360 -0.3007
  341TMC3     H 5118   2.486   1.062  10.225 -0.8166 -0.8109 -1.0782
  341TMC3    H1 5119   2.660   1.406  10.039  1.2012 -0.5781 -0.6372
  341TMC3    H2 5120   2.544   1.068   9.794  2.3483  2.8299 -2.2092
  341TMC3    C7 5121   2.663   1.297   9.812 -0.3444  0.7807  0.7274
  341TMC3    C8 5122   2.471   0.908   9.996  0.1836  0.0219  0.6609
  341TMC3    O1 5123   2.715   1.213   9.731  0.4154  0.0212  0.0304
  341TMC3    O2 5124   2.368   0.869  10.056 -0.2043  0.2638  0.7844
  342MPD2     C 5125   4.424   4.354  17.138  0.1069 -0.2207 -0.5627
  342MPD2    C1 5126   4.518   4.437  17.080 -0.4051  0.3038  0.0033
  342MPD2    C2 5127   4.556   4.558  17.144 -0.1383 -0.0219 -0.2255
  342MPD2    C3 5128   4.496   4.593  17.263  0.2702 -1.1156 -0.4614
  342MPD2    C4 5129   4.395   4.512  17.315 -0.4315  0.1866  0.3522
  342MPD2    C5 5130   4.369   4.393  17.254 -0.6843  0.6852  0.2301
  342MPD2     H 5131   4.626   4.625  17.095  0.5841 -1.1405 -0.7436
  342MPD2    H1 5132   4.337   4.540  17.401  1.7892 -0.2814  2.0112
  342MPD2    H2 5133   4.389   4.258  17.101  2.1553 -1.5631  1.0355
  342MPD2    H3 5134   4.297   4.333  17.308 -0.4527  0.2373  0.0353
  342MPD2     N 5135   4.537   4.704  17.341 -0.1360 -0.2591 -0.3475
  342MPD2    H5 5136   4.487   4.715  17.429 -0.1732  0.2726 -0.4360
  342MPD2    N1 5137   4.587   4.392  16.959 -1.0839 -0.8374 -0.6784
  342MPD2    H7 5138   4.664   4.443  16.917  0.7696 -0.0926  3.6877
  343TMC3    C1 5139   4.646   4.226  16.799  0.1780 -0.6577 -0.3550
  343TMC3    C2 5140   0.051   4.256  16.822  0.2477  0.2846  0.9089
  343TMC3    C3 5141   0.140   4.173  16.747 -0.6153 -0.1478  0.2218
  343TMC3    C4 5142   4.604   4.126  16.718  0.0414  0.0964 -0.8780
  343TMC3    C5 5143   4.689   4.046  16.653 -0.3594 -0.2822  0.4150
  343TMC3    C6 5144   0.102   4.069  16.665  0.7814  0.2444  0.9799
  343TMC3     C 5145   4.541   4.286  16.883  0.0603 -0.1493  0.1204
  343TMC3     O 5146   4.429   4.234  16.881 -0.4456  0.7505  0.3043
  343TMC3     H 5147   0.092   4.331  16.889  1.4621  0.6056 -0.1817
  343TMC3    H1 5148   4.498   4.113  16.703 -0.3131  0.3196  1.4118
  343TMC3    H2 5149   0.182   4.013  16.617  0.5273  0.6033  0.1384
  343TMC3    C7 5150   4.651   3.903  16.643  0.0659  0.0363 -0.4241
  343TMC3    C8 5151   0.280   4.202  16.753  0.2634 -0.3924  1.2714
  343TMC3    O1 5152   4.533   3.877  16.670  0.1465 -0.0778 -0.1137
  343TMC3    O2 5153   0.303   4.317  16.777 -0.2919 -0.3261  0.0671
  344MPD2     C 5154   1.378   3.872  10.140  0.1225 -0.3692 -0.0264
  344MPD2    C1 5155   1.432   3.892  10.272 -0.1950  0.1192 -0.4628
  344MPD2    C2 5156   1.507   4.010  10.293  0.2483  0.3385  0.0657
  344MPD2    C3 5157   1.524   4.094  10.183  0.1448 -0.0140 -0.5519
  344MPD2    C4 5158   1.469   4.066  10.056 -0.7589  0.2734 -0.4529
  344MPD2    C5 5159   1.393   3.957  10.039  0.1651  0.3931 -0.0688
  344MPD2     H 5160   1.526   4.039  10.396 -2.1790 -1.5896  1.0702
  344MPD2    H1 5161   1.470   4.137   9.974 -0.1236  1.2659  0.4076
  344MPD2    H2 5162   1.334   3.777  10.111 -0.8949 -0.7120  2.6667
  344MPD2    H3 5163   1.364   3.931   9.938  1.0143 -1.5157  0.1920
  344MPD2     N 5164   1.592   4.221  10.185  0.5123 -0.2276  0.4207
  344MPD2    H5 5165   1.578   4.271  10.098  0.4785 -0.7536  0.1202
  344MPD2    N1 5166   1.389   3.819  10.379  0.0280 -0.0174  0.6934
  344MPD2    H7 5167   1.428   3.850  10.467  1.6213  0.5226 -0.2214
  345TMC3    C1 5168   1.696   4.428  10.259  0.8048  0.7119  0.3963
  345TMC3    C2 5169   1.734   4.506  10.365 -0.7245 -0.3224 -0.0520
  345TMC3    C3 5170   1.819   4.615  10.346 -0.2613 -0.4840  0.5492
  345TMC3    C4 5171   1.713   4.467  10.131 -0.1523 -0.3782  0.1276
  345TMC3    C5 5172   1.780   4.592  10.114  0.1241  0.0773 -0.4844
  345TMC3    C6 5173   1.839   4.665  10.219  0.3422  0.0418 -1.2372
  345TMC3     C 5174   1.635   4.300  10.291  0.2125  0.0908  0.0296
  345TMC3     O 5175   1.636   4.275  10.410  0.4627 -0.4857 -0.3039
  345TMC3     H 5176   1.717   4.468  10.465 -1.1535 -3.5882 -1.3705
  345TMC3    H1 5177   1.683   4.408  10.045 -2.2025  2.5888 -1.2108
  345TMC3    H2 5178   1.862   0.048  10.218 -1.2063  0.3857 -0.9645
  345TMC3    C7 5179   1.757   4.679   9.999 -0.1844 -0.2177 -0.5681
  345TMC3    C8 5180   1.782   0.006  10.433 -0.1886 -0.1129 -0.0117
  345TMC3    O1 5181   1.816   0.060   9.996  0.0389 -0.1610 -0.0365
  345TMC3    O2 5182   1.664   0.030  10.455 -0.3386 -0.3194  0.1477
  346MPD2     C 5183   1.363   1.352  14.507  0.0970  0.0067 -0.0465
  346MPD2    C1 5184   1.351   1.449  14.409 -0.3165 -1.0312  0.0524
  346MPD2    C2 5185   1.398   1.579  14.431 -0.4362 -0.4236  0.2930
  346MPD2    C3 5186   1.470   1.612  14.549 -0.0401  0.6694 -1.2253
  346MPD2    C4 5187   1.487   1.511  14.642 -0.4830  0.0760  0.1673
  346MPD2    C5 5188   1.430   1.389  14.623 -0.0553 -0.2971  0.4077
  346MPD2     H 5189   1.380   1.647  14.349  1.9372  1.6581  1.5242
  346MPD2    H1 5190   1.552   1.525  14.728 -0.9898 -1.6704  0.8315
  346MPD2    H2 5191   1.323   1.251  14.508  2.7807 -1.0308  3.7726
  346MPD2    H3 5192   1.446   1.313  14.699  0.6156 -0.7273 -0.1634
  346MPD2     N 5193   1.532   1.740  14.562 -0.2976 -0.4346 -0.2576
  346MPD2    H5 5194   1.521   1.800  14.482  1.2843  0.1637 -0.0392
  346MPD2    N1 5195   1.288   1.432  14.287 -0.2400  0.8015 -0.2622
  346MPD2    H7 5196   1.294   1.505  14.217  0.2741 -0.1571 -1.2194
  347TMC3    C1 5197   1.675   1.922  14.642 -0.3995 -0.4978 -0.3034
  347TMC3    C2 5198   1.644   1.992  14.530  0.0860  0.0837  0.2717
  347TMC3    C3 5199   1.735   2.084  14.480  0.0860  0.0154  0.7692
  347TMC3    C4 5200   1.796   1.935  14.708  0.1406 -1.1262 -0.2870
  347TMC3    C5 5201   1.883   2.013  14.657  0.0886  0.6623  0.6330
  347TMC3    C6 5202   1.854   2.093  14.548 -0.4230 -0.3738 -0.3139
  347TMC3     C 5203   1.615   1.790  14.664  0.0386 -0.0562 -0.0771
  347TMC3     O 5204   1.612   1.751  14.781 -0.6136  0.1008  0.3371
  347TMC3     H 5205   1.556   1.978  14.469  1.2237  2.2775 -1.8611
  347TMC3    H1 5206   1.815   1.871  14.793  2.3157  0.2224  0.2263
  347TMC3    H2 5207   1.928   2.157  14.501  0.8003 -1.1489  0.5635
  347TMC3    C7 5208   2.024   2.001  14.701  0.0452  0.8986 -0.4352
  347TMC3    C8 5209   1.761   2.049  14.340 -0.2495  0.0417 -0.4103
  347TMC3    O1 5210   2.035   1.918  14.789  0.7265  0.5189 -0.3539
  347TMC3    O2 5211   1.707   1.950  14.292 -0.6906 -0.4646 -0.3439
  348MPD2     C 5212   4.586   1.056  12.207  0.5462 -0.3560  0.3924
  348MPD2    C1 5213   4.720   1.085  12.165 -0.1159  0.0950 -0.3783
  348MPD2    C2 5214   0.012   1.161  12.052 -0.3317  0.3947  0.5077
  348MPD2    C3 5215   4.639   1.196  11.970  0.2833  0.1288 -0.0690
  348MPD2    C4 5216   4.516   1.146  12.005  0.1077 -0.1672 -0.7496
  348MPD2    C5 5217   4.484   1.078  12.123 -0.1205  0.8147 -0.1136
  348MPD2     H 5218   0.112   1.194  12.026 -0.1149  0.8217  1.8753
  348MPD2    H1 5219   4.432   1.158  11.937  0.5592  1.2287 -1.0632
  348MPD2    H2 5220   4.568   0.991  12.291  0.1131 -0.3439  0.3111
  348MPD2    H3 5221   4.382   1.049  12.149  0.6305 -1.1875  0.5639
  348MPD2     N 5222   4.665   1.266  11.847 -0.1866 -0.2821  0.5578
  348MPD2    H5 5223   0.037   1.299  11.835 -0.0677 -0.9423 -0.2645
  348MPD2    N1 5224   0.115   1.037  12.236  0.1161  0.4290 -0.0875
  348MPD2    H7 5225   0.208   1.052  12.198  0.9257 -0.0190  1.7066
  349TMC3    C1 5226   0.198   0.852  12.358  0.3307 -0.0929 -0.2120
  349TMC3    C2 5227   0.148   0.740  12.422  0.3645 -0.3153  0.3355
  349TMC3    C3 5228   0.200   0.621  12.404 -0.5334  0.0245 -0.0420
  349TMC3    C4 5229   0.303   0.837  12.269  0.3277  0.0176  0.8303
  349TMC3    C5 5230   0.361   0.715  12.256  0.6591 -0.1944 -0.4932
  349TMC3    C6 5231   0.300   0.601  12.314 -0.4427  0.6086 -0.3192
  349TMC3     C 5232   0.099   0.963  12.347  0.0133 -0.6064 -0.3883
  349TMC3     O 5233   0.010   0.964  12.432 -0.5557 -0.1560 -0.2033
  349TMC3     H 5234   0.069   0.754  12.495  1.3756  0.2663  1.3214
  349TMC3    H1 5235   0.342   0.918  12.208  0.3329 -0.7969 -0.2455
  349TMC3    H2 5236   0.329   0.503  12.279  1.8230  0.7094  1.2245
  349TMC3    C7 5237   0.391   0.691  12.111  0.3152  0.0037 -0.2579
  349TMC3    C8 5238   0.167   0.519  12.499  0.5377 -0.6151  0.3678
  349TMC3    O1 5239   0.366   0.784  12.035 -0.0773  0.5640 -0.1857
  349TMC3    O2 5240   0.054   0.517  12.545  0.1795 -0.5819 -0.1208
  350MPD2     C 5241   3.182   3.677   9.406  0.1998 -0.4473 -0.1420
  350MPD2    C1 5242   3.264   3.578   9.473  0.0691 -0.0633 -0.0794
  350MPD2    C2 5243   3.394   3.611   9.499  0.0856 -0.1122 -0.5960
  350MPD2    C3 5244   3.449   3.720   9.434 -0.7269 -0.3265  0.2202
  350MPD2    C4 5245   3.367   3.816   9.373  0.6260  0.0828  0.0611
  350MPD2    C5 5246   3.233   3.803   9.381  0.1936 -0.1115  0.2137
  350MPD2     H 5247   3.456   3.550   9.564  0.5839 -1.3395 -2.2299
  350MPD2    H1 5248   3.403   3.907   9.328  1.2066 -0.3329 -0.3280
  350MPD2    H2 5249   3.074   3.673   9.415  0.0598  1.5583 -0.9462
  350MPD2    H3 5250   3.161   3.880   9.355  0.0600 -0.7292 -1.2360
  350MPD2     N 5251   3.588   3.744   9.451 -0.3526 -0.0129 -0.0908
  350MPD2    H5 5252   3.644   3.665   9.481  0.4766  0.8186  0.5427
  350MPD2    N1 5253   3.219   3.454   9.524 -0.4122  0.2222  0.0047
  350MPD2    H7 5254   3.271   3.406   9.596 -1.8831  0.9562  1.5757
  351TMC3    C1 5255   3.076   3.277   9.590  0.5206 -0.2644 -0.4609
  351TMC3    C2 5256   3.190   3.208   9.637  0.4067  0.1203 -0.6063
  351TMC3    C3 5257   3.167   3.094   9.699  0.4238  0.6301  0.6081
  351TMC3    C4 5258   2.949   3.230   9.602  0.4527 -0.1289  0.2934
  351TMC3    C5 5259   2.938   3.100   9.647 -0.7420 -0.5196  0.5143
  351TMC3    C6 5260   3.047   3.030   9.693 -0.0811 -0.6589  0.7531
  351TMC3     C 5261   3.093   3.400   9.514  0.2807 -0.2620 -0.0746
  351TMC3     O 5262   2.989   3.448   9.472  0.1641  0.1609  0.4320
  351TMC3     H 5263   3.292   3.239   9.622  1.0442 -1.8184 -0.2573
  351TMC3    H1 5264   2.864   3.293   9.578 -0.3596 -0.7255  1.6010
  351TMC3    H2 5265   3.036   2.935   9.744  1.9588  0.8427  3.9763
  351TMC3    C7 5266   2.804   3.046   9.631  0.4347 -0.0650  0.0600
  351TMC3    C8 5267   3.275   3.031   9.777  0.1418  0.2726  0.3520
  351TMC3    O1 5268   2.728   3.107   9.562 -0.3209 -0.1417  0.4675
  351TMC3    O2 5269   3.266   2.911   9.796 -0.4884  0.1137 -0.3687
  352MPD2     C 5270   1.414   0.728   1.314  0.3389 -0.4170 -0.1425
  352MPD2    C1 5271   1.283   0.762   1.275 -0.5989 -0.2157 -0.0385
  352MPD2    C2 5272   1.182   0.693   1.326 -0.1141  0.0144 -0.5123
  352MPD2    C3 5273   1.202   0.591   1.420  0.6598  0.2017 -0.5785
  352MPD2    C4 5274   1.326   0.549   1.449 -0.7004  0.4039 -0.1414
  352MPD2    C5 5275   1.427   0.626   1.407  0.0143  0.0867 -0.1742
  352MPD2     H 5276   1.079   0.708   1.295  0.1850  1.2467 -0.8661
  352MPD2    H1 5277   1.331   0.460   1.510 -1.0226  0.1729 -0.4508
  352MPD2    H2 5278   1.499   0.790   1.287 -0.3351  1.4954  2.1512
  352MPD2    H3 5279   1.529   0.606   1.437  0.2143  1.6184  0.1641
  352MPD2     N 5280   1.099   0.508   1.479  0.0541  0.1047 -0.3549
  352MPD2    H5 5281   1.136   0.418   1.508 -0.9165  0.6226  2.4874
  352MPD2    N1 5282   1.266   0.867   1.177  0.6270 -0.1695 -0.0036
  352MPD2    H7 5283   1.350   0.897   1.129  0.3277 -1.2447 -1.2203
  353TMC3    C1 5284   0.883   0.399   1.480 -0.0908 -0.1291 -0.5932
  353TMC3    C2 5285   0.923   0.299   1.559  0.1770 -0.0618  0.6548
  353TMC3    C3 5286   0.863   0.174   1.551  0.1507 -0.3296 -0.5941
  353TMC3    C4 5287   0.780   0.386   1.394 -0.5846  0.0280  0.1403
  353TMC3    C5 5288   0.730   0.259   1.380 -0.7461 -0.1771 -0.0768
  353TMC3    C6 5289   0.759   0.154   1.464  0.8284 -0.2382 -0.0787
  353TMC3     C 5290   0.963   0.520   1.443  0.2413 -0.0476  0.3380
  353TMC3     O 5291   0.907   0.615   1.387  0.0408  0.5471 -0.1574
  353TMC3     H 5292   1.005   0.319   1.627  0.6856  2.3265 -0.6804
  353TMC3    H1 5293   0.751   0.459   1.319  2.0640  0.1142 -0.8357
  353TMC3    H2 5294   0.731   0.050   1.451 -0.7670  0.1550  0.2760
  353TMC3    C7 5295   0.688   0.228   1.245 -0.1281 -0.5632 -0.2518
  353TMC3    C8 5296   0.933   0.064   1.618 -0.6420 -0.0452 -0.4509
  353TMC3    O1 5297   0.734   0.290   1.152  0.0521 -0.2013 -0.2550
  353TMC3    O2 5298   1.003   0.105   1.706  0.3115  0.3388  0.5273
  354TMC3    C1 5299   3.862   2.539  13.484  0.5981  0.2325 -0.1345
  354TMC3    C2 5300   3.835   2.667  13.453 -0.0037 -0.6277  0.3645
  354TMC3    C3 5301   3.845   2.699  13.319 -0.2177  0.0343 -0.0760
  354TMC3    C4 5302   3.896   2.443  13.391 -0.1165 -0.6607 -1.3894
  354TMC3    C5 5303   3.919   2.482  13.261 -0.1049 -0.0394  0.3175
  354TMC3    C6 5304   3.888   2.608  13.225  0.6458 -0.0219  0.4708
  354TMC3     C 5305   3.846   2.499  13.621  0.0516 -0.6113  0.0965
  354TMC3     O 5306   3.790   2.389  13.642  0.4030  0.0589 -0.2649
  354TMC3     H 5307   3.800   2.733  13.532  0.5827 -1.7100  1.5274
  354TMC3    H1 5308   3.943   2.353  13.431 -0.8657 -1.8375 -3.1483
  354TMC3    H2 5309   3.865   2.626  13.121 -0.6464  0.9682  0.9292
  354TMC3    C7 5310   3.959   2.391  13.163 -0.3774  0.0208  0.3614
  354TMC3    C8 5311   3.808   2.834  13.278 -0.5527 -0.7598  0.4213
  354TMC3    O1 5312   3.920   2.277  13.187 -0.0957  0.1907  0.4941
  354TMC3    O2 5313   3.817   2.853  13.158  0.0439  0.0946 -0.6846
  355MPD2     C 5314   4.376   3.547  11.865 -0.2540  0.4508 -0.1882
  355MPD2    C1 5315   4.433   3.536  11.743 -0.3305  0.9561  0.1019
  355MPD2    C2 5316   4.557   3.478  11.737 -0.2812 -0.0924  0.7755
  355MPD2    C3 5317   4.621   3.416  11.844 -0.5884  0.0328  0.5641
  355MPD2    C4 5318   4.554   3.418  11.964 -0.3610 -0.9682  0.6161
  355MPD2    C5 5319   4.429   3.483  11.974 -0.1639  0.2165 -0.4596
  355MPD2     H 5320   4.611   3.483  11.643 -0.3434  1.5575  0.8301
  355MPD2    H1 5321   4.581   3.362  12.052  1.1782  2.6118  2.4405
  355MPD2    H2 5322   4.277   3.591  11.870  0.0611  0.9970  1.2874
  355MPD2    H3 5323   4.373   3.480  12.067  0.8599  1.7673  0.1962
  355MPD2     N 5324   0.029   3.359  11.827 -0.0121 -0.9241 -0.3957
  355MPD2    H5 5325   0.080   3.334  11.911 -0.8378  2.6129  1.1250
  355MPD2    N1 5326   4.364   3.594  11.635  0.5847  0.4597  0.2470
  355MPD2    H7 5327   4.268   3.622  11.651 -0.3122 -3.6742  1.8208
  356TMC3    C1 5328   0.210   3.292  11.714  0.2066  0.0569 -0.2238
  356TMC3    C2 5329   0.271   3.212  11.622 -0.1547 -0.3057  0.1830
  356TMC3    C3 5330   0.407   3.217  11.590  0.8124 -0.5340 -0.8606
  356TMC3    C4 5331   0.288   3.372  11.788 -0.2758  0.1919  0.1432
  356TMC3    C5 5332   0.421   3.390  11.751  0.1854  0.2387 -0.0653
  356TMC3    C6 5333   0.479   3.315  11.650 -0.4490  0.2164 -0.5603
  356TMC3     C 5334   0.074   3.320  11.709  0.3021 -0.7325  0.8556
  356TMC3     O 5335   0.015   3.287  11.608  0.3560  0.3004  0.0264
  356TMC3     H 5336   0.209   3.147  11.561  0.8011 -1.4560  0.4409
  356TMC3    H1 5337   0.237   3.445  11.850 -1.1643 -0.2237 -0.1047
  356TMC3    H2 5338   0.583   3.327  11.623 -0.0426 -0.6304  0.6278
  356TMC3    C7 5339   0.501   3.513  11.780  0.2120  0.1877  0.3400
  356TMC3    C8 5340   0.443   3.164  11.464 -0.0299 -0.7550 -0.6787
  356TMC3    O1 5341   0.603   3.528  11.713  0.2413  0.0308  0.2998
  356TMC3    O2 5342   0.375   3.070  11.419 -0.2088  0.5800 -0.2508
  357MPD2     C 5343   3.057   2.396   0.562 -0.3356 -0.4965 -0.8741
  357MPD2    C1 5344   3.017   2.275   0.599  0.2189  0.4286  0.2038
  357MPD2    C2 5345   2.905   2.270   0.684  0.0723  0.3716 -0.5534
  357MPD2    C3 5346   2.843   2.391   0.720  0.0447 -0.3432  0.2370
  357MPD2    C4 5347   2.898   2.517   0.682  0.2349  0.5867 -0.3453
  357MPD2    C5 5348   3.000   2.511   0.591 -0.1633 -0.4686  0.5331
  357MPD2     H 5349   2.874   2.179   0.734 -0.4647  2.1990  2.4362
  357MPD2    H1 5350   2.860   2.612   0.715 -0.2092  0.7236 -1.2617
  357MPD2    H2 5351   3.148   2.412   0.506  0.5777  2.3204  1.4460
  357MPD2    H3 5352   3.035   2.604   0.548 -0.6663 -1.2422 -1.5459
  357MPD2     N 5353   2.742   2.395   0.813  0.1022 -0.3788 -0.8564
  357MPD2    H5 5354   2.729   2.480   0.867 -1.2651  0.5561 -2.6592
  357MPD2    N1 5355   3.102   2.165   0.563 -0.3143 -0.1662  0.0708
  357MPD2    H7 5356   3.178   2.184   0.498 -1.0383  1.4441 -0.3193
  358TMC3    C1 5357   3.180   1.940   0.525 -0.0946  0.7371  0.0022
  358TMC3    C2 5358   3.195   1.955   0.389 -0.3092  0.2436 -0.4144
  358TMC3    C3 5359   3.210   1.837   0.312 -0.3679 -0.3142 -0.0207
  358TMC3    C4 5360   3.183   1.818   0.583  0.0623  0.0243  0.7369
  358TMC3    C5 5361   3.197   1.707   0.501  0.1536 -0.6218  0.4489
  358TMC3    C6 5362   3.207   1.712   0.365 -0.0941  0.3209 -0.1253
  358TMC3     C 5363   3.088   2.033   0.602  0.8413  0.3505 -0.2906
  358TMC3     O 5364   3.027   1.987   0.697 -0.1825  0.4291  0.3344
  358TMC3     H 5365   3.162   2.047   0.341  1.1140  3.1611  4.1510
  358TMC3    H1 5366   3.192   1.811   0.691  1.7069  2.8100  0.7770
  358TMC3    H2 5367   3.205   1.627   0.297 -0.3634  1.2936 -1.3322
  358TMC3    C7 5368   3.193   1.577   0.559  0.5707  0.1511  0.2200
  358TMC3    C8 5369   3.196   1.861   0.167  0.3207 -0.1234 -0.1331
  358TMC3    O1 5370   3.176   1.478   0.485  0.3283 -0.3585 -0.4181
  358TMC3    O2 5371   3.238   1.965   0.120 -0.0776 -0.2075 -0.4112
  359MPD2     C 5372   4.169   1.703  12.804 -0.5076  0.3386  0.5586
  359MPD2    C1 5373   4.144   1.682  12.669 -0.1739  0.3648  0.8467
  359MPD2    C2 5374   4.035   1.748  12.614  0.5779  0.4745 -0.2210
  359MPD2    C3 5375   3.943   1.811  12.701  0.5524 -0.9925 -0.2955
  359MPD2    C4 5376   3.960   1.812  12.836 -0.1426 -0.1992  0.7569
  359MPD2    C5 5377   4.072   1.758  12.886  0.3840  0.4286 -1.0278
  359MPD2     H 5378   4.028   1.745  12.506  0.3882  1.1150 -0.2243
  359MPD2    H1 5379   3.894   1.873  12.897 -0.9702  0.0500 -0.3776
  359MPD2    H2 5380   4.261   1.677  12.856 -0.2041  1.6290  0.6642
  359MPD2    H3 5381   4.091   1.771  12.992  0.8251  1.4242 -1.2255
  359MPD2     N 5382   3.833   1.886  12.658  0.3031  0.1585 -0.4454
  359MPD2    H5 5383   3.758   1.889  12.726  1.2538 -0.5659  0.6251
  359MPD2    N1 5384   4.235   1.621  12.581 -0.2819 -0.5314 -0.5610
  359MPD2    H7 5385   4.209   1.620  12.483 -1.0757  2.1613 -0.3748
  360TMC3    C1 5386   4.423   1.523  12.490  0.1850 -0.9406 -0.5408
  360TMC3    C2 5387   4.556   1.508  12.485 -0.3843  0.3190 -0.5211
  360TMC3    C3 5388   4.614   1.472  12.368 -0.1719 -0.3163 -0.1098
  360TMC3    C4 5389   4.339   1.481  12.389  0.4469 -0.3429 -1.3666
  360TMC3    C5 5390   4.406   1.437  12.271 -0.0398  0.2370  0.3993
  360TMC3    C6 5391   4.544   1.436  12.258 -0.1370 -0.2027  0.0865
  360TMC3     C 5392   4.358   1.578  12.613  0.1934  0.8628  0.6294
  360TMC3     O 5393   4.417   1.577  12.721  0.2631  0.4525 -0.5132
  360TMC3     H 5394   4.616   1.563  12.557 -0.0910  1.7895 -1.8840
  360TMC3    H1 5395   4.231   1.496  12.389  0.7363  1.7717  0.5406
  360TMC3    H2 5396   4.596   1.395  12.171 -2.4177 -1.6170 -0.6125
  360TMC3    C7 5397   4.336   1.458  12.150 -0.4752  0.5140 -0.2573
  360TMC3    C8 5398   0.039   1.477  12.355  0.1327  0.2062  0.4274
  360TMC3    O1 5399   4.408   1.480  12.052  0.4363 -0.3963 -0.3539
  360TMC3    O2 5400   0.096   1.454  12.461 -0.0376 -0.0194 -0.1107
  361MPD2     C 5401   1.002   0.198  16.597 -0.1182  0.8976  0.0859
  361MPD2    C1 5402   0.990   0.252  16.727 -0.8052  0.0736  0.2138
  361MPD2    C2 5403   1.065   0.196  16.832  0.3080 -0.0826 -0.8481
  361MPD2    C3 5404   1.152   0.083  16.800 -0.4995 -0.0107 -0.9817
  361MPD2    C4 5405   1.154   0.031  16.670  0.0490  0.3896 -0.6697
  361MPD2    C5 5406   1.079   0.088  16.569  0.3487  0.1589  0.5325
  361MPD2     H 5407   1.054   0.236  16.932 -0.9180  0.4495 -1.1998
  361MPD2    H1 5408   1.221   4.672  16.651  0.9612  0.8784  0.4202
  361MPD2    H2 5409   0.942   0.237  16.516 -0.5421  2.0801  0.9790
  361MPD2    H3 5410   1.091   0.057  16.466 -1.8046 -0.1945  0.4038
  361MPD2     N 5411   1.231   0.019  16.888 -0.3742 -0.4958  0.3412
  361MPD2    H5 5412   1.287   4.667  16.849  0.4490  2.1551 -3.5513
  361MPD2    N1 5413   0.886   0.347  16.745  0.1228 -0.1923  0.4657
  361MPD2    H7 5414   0.837   0.373  16.660 -0.0427 -0.1514  0.5734
  362TMC3    C1 5415   0.716   0.460  16.839  0.2813  0.4997  0.1388
  362TMC3    C2 5416   0.605   0.417  16.909 -0.3521  0.0640  0.2470
  362TMC3    C3 5417   0.486   0.460  16.861  0.2591  0.7246 -0.1455
  362TMC3    C4 5418   0.694   0.540  16.726  0.1608  0.4962 -0.1829
  362TMC3    C5 5419   0.574   0.577  16.681 -0.4400 -1.0235 -0.4540
  362TMC3    C6 5420   0.465   0.545  16.747  0.3673 -0.8249  1.0357
  362TMC3     C 5421   0.835   0.390  16.858  0.2562 -0.5378  0.6424
  362TMC3     O 5422   0.860   0.361  16.975 -0.1138  0.0897  0.0531
  362TMC3     H 5423   0.617   0.348  16.993  1.5856 -0.6648 -0.6381
  362TMC3    H1 5424   0.782   0.566  16.668  1.3482 -4.5532 -0.7028
  362TMC3    H2 5425   0.365   0.572  16.717  0.9664  1.0833  0.7236
  362TMC3    C7 5426   0.557   0.700  16.600  0.0086 -0.3639  0.3500
  362TMC3    C8 5427   0.375   0.433  16.958 -0.3387  0.0696  0.6336
  362TMC3    O1 5428   0.457   0.764  16.622  0.4151 -0.2146 -0.0085
  362TMC3    O2 5429   0.370   0.324  17.011 -0.1332 -0.2364  0.2646
  363TMC3    C1 5430   4.381   2.950   9.897 -0.7699 -0.1794  0.2199
  363TMC3    C2 5431   4.459   2.863   9.967  0.2863 -0.0583  0.1213
  363TMC3    C3 5432   4.511   2.898  10.085  0.9727 -0.6402  0.2985
  363TMC3    C4 5433   4.359   3.080   9.937 -0.2372  0.2524  0.0760
  363TMC3    C5 5434   4.416   3.116  10.056 -0.3715  0.5652  0.3201
  363TMC3    C6 5435   4.494   3.034  10.130  0.1431 -0.1576 -0.0951
  363TMC3     C 5436   4.300   2.891   9.789  0.6252  0.2632 -0.3160
  363TMC3     O 5437   4.354   2.812   9.711  0.1971  0.6009 -0.4132
  363TMC3     H 5438   4.451   2.758   9.941 -1.0173  0.2735 -0.8201
  363TMC3    H1 5439   4.302   3.139   9.867  0.3828  3.2297  2.1121
  363TMC3    H2 5440   4.563   3.070  10.205 -0.2090 -2.3754  1.2854
  363TMC3    C7 5441   4.455   3.263  10.051 -0.4154  0.5558 -0.1879
  363TMC3    C8 5442   4.637   2.833  10.123 -0.1281 -0.4398 -0.1661
  363TMC3    O1 5443   4.461   3.317   9.939 -0.1362  0.1929  0.7010
  363TMC3    O2 5444   4.709   2.895  10.198  0.1220  0.1220  0.3192
  364MPD2     C 5445   3.249   2.268  10.317  0.4358  0.2377 -0.0398
  364MPD2    C1 5446   3.355   2.336  10.361 -0.4937  0.2283 -0.8418
  364MPD2    C2 5447   3.433   2.280  10.461 -0.0738  0.2983 -0.0035
  364MPD2    C3 5448   3.407   2.158  10.520  0.0416  0.0379  0.2849
  364MPD2    C4 5449   3.302   2.088  10.475  0.1791 -0.3887 -0.2344
  364MPD2    C5 5450   3.226   2.146  10.376  0.8564 -0.1507  1.6516
  364MPD2     H 5451   3.515   2.343  10.493  0.8550 -0.3586 -1.0725
  364MPD2    H1 5452   3.283   1.985  10.501  1.4765 -0.9814 -1.6122
  364MPD2    H2 5453   3.181   2.307  10.243 -0.5101  0.3677  0.9069
  364MPD2    H3 5454   3.138   2.092  10.343  1.6651 -1.3410  1.4561
  364MPD2     N 5455   3.510   2.096  10.591 -0.3896  0.5890  0.0091
  364MPD2    H5 5456   3.491   2.000  10.619 -0.1974 -0.4820 -3.5427
  364MPD2    N1 5457   3.383   2.468  10.316  0.0189  0.1264 -0.0248
  364MPD2    H7 5458   3.471   2.498  10.356  0.3478  0.0387 -0.6893
  365TMC3    C1 5459   3.367   2.687  10.234  0.0066 -0.3612 -0.0689
  365TMC3    C2 5460   3.502   2.683  10.226 -0.2753  0.3357 -0.0675
  365TMC3    C3 5461   3.568   2.793  10.239  0.2590  0.0188  0.7051
  365TMC3    C4 5462   3.297   2.804  10.263  0.1005 -0.4357 -0.3296
  365TMC3    C5 5463   3.370   2.918  10.285  0.1565 -0.3413  0.7204
  365TMC3    C6 5464   3.508   2.918  10.259  0.6607  0.0812  0.0077
  365TMC3     C 5465   3.305   2.559  10.252 -0.1409  0.0106 -0.7080
  365TMC3     O 5466   3.189   2.549  10.216 -0.0043 -0.1102 -0.9417
  365TMC3     H 5467   3.551   2.593  10.190  1.1672  1.4732 -0.9224
  365TMC3    H1 5468   3.189   2.801  10.258 -0.0995 -0.6041  3.8421
  365TMC3    H2 5469   3.556   3.014  10.262  0.4539  0.1880 -0.1539
  365TMC3    C7 5470   3.327   3.003  10.393 -0.4542  0.7420  0.0343
  365TMC3    C8 5471   3.699   2.779  10.295 -0.3982  0.5354 -0.0726
  365TMC3    O1 5472   3.360   3.120  10.395  0.5601 -0.0984 -0.2307
  365TMC3    O2 5473   3.740   2.873  10.365  0.3896  0.2106  0.0875
  366MPD2     C 5474   1.449   3.105  15.209 -0.2727 -0.4464  0.9268
  366MPD2    C1 5475   1.449   3.242  15.181  0.3226  1.0400 -0.3748
  366MPD2    C2 5476   1.559   3.291  15.117 -0.5049 -0.3699  0.0464
  366MPD2    C3 5477   1.667   3.213  15.075 -0.1206 -0.3170 -0.4534
  366MPD2    C4 5478   1.665   3.079  15.092  1.0860 -0.5919 -0.2714
  366MPD2    C5 5479   1.556   3.028  15.160 -0.6045  0.5008  0.6330
  366MPD2     H 5480   1.564   3.394  15.086  1.3512 -0.5414 -0.2553
  366MPD2    H1 5481   1.745   3.013  15.062 -0.2388 -2.0387 -0.6043
  366MPD2    H2 5482   1.360   3.056  15.247 -1.2825 -1.0968 -2.2637
  366MPD2    H3 5483   1.545   2.921  15.169  2.2336  0.1396 -0.1230
  366MPD2     N 5484   1.778   3.283  15.026 -0.5207  0.0344 -0.4600
  366MPD2    H5 5485   1.766   3.378  14.991  1.8791  0.2456 -0.7238
  366MPD2    N1 5486   1.356   3.330  15.241  0.0185 -0.5325  0.2914
  366MPD2    H7 5487   1.372   3.428  15.218 -1.8852  0.0069  1.2489
  367TMC3    C1 5488   1.212   3.435  15.390  0.5452 -0.0679  0.1648
  367TMC3    C2 5489   1.314   3.517  15.427 -0.2720  0.3275 -0.2188
  367TMC3    C3 5490   1.285   3.619  15.507  0.2052  0.1458 -0.2968
  367TMC3    C4 5491   1.073   3.454  15.415  0.2991  0.2784 -0.6392
  367TMC3    C5 5492   1.050   3.562  15.496 -0.8526 -0.4519 -0.0032
  367TMC3    C6 5493   1.150   3.641  15.540 -0.7496  0.6864  0.6714
  367TMC3     C 5494   1.259   3.310  15.336 -0.0510  0.1579 -0.1780
  367TMC3     O 5495   1.248   3.212  15.408  0.4172  0.6045  0.4679
  367TMC3     H 5496   1.416   3.486  15.405  0.1428 -0.8744  3.4031
  367TMC3    H1 5497   0.999   3.383  15.380 -2.0810  2.5215 -0.1415
  367TMC3    H2 5498   1.126   3.729  15.599 -2.8301 -0.4374  1.4990
  367TMC3    C7 5499   0.919   3.627  15.501  0.3094 -0.9873 -0.2110
  367TMC3    C8 5500   1.389   3.715  15.523 -0.6519  0.3424  0.5851
  367TMC3    O1 5501   0.893   3.707  15.588  0.3064  0.7567  0.2471
  367TMC3    O2 5502   1.504   3.681  15.498  0.4172 -0.0347 -0.1397
  368MPD2     C 5503   2.739   0.808  13.020 -0.7307  0.4454  0.5042
  368MPD2    C1 5504   2.691   0.867  12.909 -0.3887  0.0174  0.4340
  368MPD2    C2 5505   2.772   0.931  12.822 -0.0025  0.0113  0.4447
  368MPD2    C3 5506   2.906   0.921  12.836 -0.5809 -0.6188 -0.0222
  368MPD2    C4 5507   2.962   0.852  12.944  0.5936  0.1965  0.0660
  368MPD2    C5 5508   2.876   0.807  13.045  0.2439  0.1199 -0.3707
  368MPD2     H 5509   2.731   0.988  12.740  2.8586  2.1194  0.4520
  368MPD2    H1 5510   3.069   0.853  12.962  0.3015 -1.0012  1.8727
  368MPD2    H2 5511   2.671   0.753  13.084 -1.2220  0.7424  0.2430
  368MPD2    H3 5512   2.910   0.760  13.136 -0.1834 -0.9498 -0.7690
  368MPD2     N 5513   2.997   0.986  12.747 -0.0443  0.0135 -0.0025
  368MPD2    H5 5514   3.095   0.982  12.770 -0.0122 -1.7941 -0.4999
  368MPD2    N1 5515   2.551   0.893  12.889  0.1520  0.3461 -0.1039
  368MPD2    H7 5516   2.537   0.944  12.803  0.1096  0.1234 -0.2293
  369TMC3    C1 5517   2.323   0.914  12.920  0.1837 -0.0388 -0.4467
  369TMC3    C2 5518   2.307   1.037  12.856  0.6332 -0.2797  0.7240
  369TMC3    C3 5519   2.190   1.091  12.831 -0.3114 -0.2983 -0.4285
  369TMC3    C4 5520   2.212   0.845  12.966 -0.0156  0.8860  0.9576
  369TMC3    C5 5521   2.098   0.915  12.946  0.1632 -0.6802  0.2515
  369TMC3    C6 5522   2.075   1.035  12.885 -0.7368  0.3821  0.2847
  369TMC3     C 5523   2.447   0.861  12.968  0.3568 -0.1187  0.6171
  369TMC3     O 5524   2.445   0.808  13.079 -0.2299 -0.2850  0.0910
  369TMC3     H 5525   2.390   1.099  12.823 -0.4564  0.7483 -0.1175
  369TMC3    H1 5526   2.221   0.765  13.038 -1.2767 -1.4472 -1.5001
  369TMC3    H2 5527   1.983   1.091  12.889 -1.5300 -0.8971 -0.0509
  369TMC3    C7 5528   1.992   0.873  13.036  0.3244 -0.6112 -0.5672
  369TMC3    C8 5529   2.192   1.219  12.752  0.4751 -0.1295  0.1012
  369TMC3    O1 5530   2.021   0.779  13.111  0.3227  0.2950  0.6644
  369TMC3    O2 5531   2.300   1.278  12.729  0.0212 -0.1284 -0.2567
  370TMC3    C1 5532   2.243   1.424  16.324  0.6866 -0.6797  0.7338
  370TMC3    C2 5533   2.165   1.345  16.405 -0.4179  0.0885 -0.5323
  370TMC3    C3 5534   2.083   1.256  16.342 -0.4753 -0.2022  0.0437
  370TMC3    C4 5535   2.235   1.407  16.187 -0.0671  0.5621  0.3309
  370TMC3    C5 5536   2.150   1.323  16.133  0.1979  1.3211  0.9349
  370TMC3    C6 5537   2.070   1.248  16.207  0.6667  0.7257  0.1507
  370TMC3     C 5538   2.358   1.490  16.372  0.2618 -0.4298  0.1615
  370TMC3     O 5539   2.431   1.431  16.450  0.3339 -0.1141  0.2313
  370TMC3     H 5540   2.190   1.356  16.510 -2.0697 -1.7139  0.0461
  370TMC3    H1 5541   2.298   1.460  16.117  1.9159 -1.0884  0.8771
  370TMC3    H2 5542   1.997   1.184  16.159  1.1292  0.8186 -0.6812
  370TMC3    C7 5543   2.176   1.289  15.991 -0.8620 -0.1739  0.2399
  370TMC3    C8 5544   2.019   1.159  16.416  0.2640 -0.1641 -0.3430
  370TMC3    O1 5545   2.228   1.372  15.914  0.1934 -0.1878  0.1499
  370TMC3    O2 5546   1.978   1.058  16.354  0.3795  0.4781 -0.2507
  371TMC3    C1 5547   3.230   4.288  15.527 -0.0268 -0.2132 -0.4513
  371TMC3    C2 5548   3.114   4.293  15.599 -0.7152 -0.5145 -0.8170
  371TMC3    C3 5549   3.050   4.413  15.607 -0.0691 -0.3943  0.0641
  371TMC3    C4 5550   3.288   4.402  15.465 -0.1257  0.0505 -0.4017
  371TMC3    C5 5551   3.222   4.519  15.467 -0.0881  0.6021  0.7301
  371TMC3    C6 5552   3.108   4.529  15.547  0.1227 -0.1922 -0.3233
  371TMC3     C 5553   3.311   4.161  15.519  0.8648 -0.2031  0.2753
  371TMC3     O 5554   3.421   4.163  15.453  0.2014  0.0470  0.2345
  371TMC3     H 5555   3.062   4.204  15.633 -0.3057 -0.8402 -1.0385
  371TMC3    H1 5556   3.391   4.403  15.429 -0.2224 -0.1732 -0.6873
  371TMC3    H2 5557   3.055   4.623  15.545  0.8400  0.2464  1.1273
  371TMC3    C7 5558   3.232   4.622  15.359 -0.0016 -0.4053 -0.3495
  371TMC3    C8 5559   2.911   4.400  15.644 -0.0586  0.0426 -0.6422
  371TMC3    O1 5560   3.200   0.013  15.383 -0.0670  0.1985  0.0025
  371TMC3    O2 5561   2.857   4.290  15.661 -0.4694  0.8439  0.0226
  372MPD2     C 5562   2.212   1.166  13.203 -0.0882 -0.0691 -0.7394
  372MPD2    C1 5563   2.318   1.092  13.249  0.0523  0.0380 -0.5642
  372MPD2    C2 5564   2.297   0.989  13.338 -0.7786  0.2202 -0.2742
  372MPD2    C3 5565   2.171   0.951  13.373  0.2557 -0.1306 -0.1351
  372MPD2    C4 5566   2.066   1.027  13.320 -0.6117  0.1174 -0.8447
  372MPD2    C5 5567   2.085   1.139  13.247 -0.0424 -0.0182 -0.5512
  372MPD2     H 5568   2.379   0.926  13.371  0.8164  1.8990 -1.0595
  372MPD2    H1 5569   1.966   1.011  13.358 -0.1361  0.0834  0.3968
  372MPD2    H2 5570   2.223   1.260  13.150  2.7103  1.7204  3.0114
  372MPD2    H3 5571   2.006   1.201  13.205 -0.3663  0.3949  0.6627
  372MPD2     N 5572   2.148   0.838  13.446  0.2676  1.0976  0.6907
  372MPD2    H5 5573   2.229   0.783  13.474 -0.0838  0.7301  0.9925
  372MPD2    N1 5574   2.454   1.123  13.215  0.4016 -0.5135  0.6268
  372MPD2    H7 5575   2.523   1.065  13.262  2.0962 -0.2269 -1.5006
  373TMC3    C1 5576   2.058   0.666  13.573  0.1832  1.4660  0.3087
  373TMC3    C2 5577   2.067   0.689  13.703  0.3523 -0.0963  0.2796
  373TMC3    C3 5578   2.135   0.591  13.777  0.0986 -0.2460 -0.0819
  373TMC3    C4 5579   2.128   0.566  13.514  0.1010 -0.1029  0.5040
  373TMC3    C5 5580   2.196   0.477  13.586 -0.2471 -0.3753  0.2799
  373TMC3    C6 5581   2.194   0.486  13.719 -0.7274  0.0217  0.4780
  373TMC3     C 5582   2.026   0.787  13.494 -0.0341 -0.8685 -0.3220
  373TMC3     O 5583   1.911   0.817  13.476 -0.6441  0.2618  0.6551
  373TMC3     H 5584   2.029   0.779  13.749  0.3091  0.3571 -0.6416
  373TMC3    H1 5585   2.128   0.553  13.406  0.2010  0.0419  0.4846
  373TMC3    H2 5586   2.255   0.423  13.783  1.1249  0.6726 -0.6598
  373TMC3    C7 5587   2.290   0.390  13.522  0.4872 -0.3102  0.1723
  373TMC3    C8 5588   2.221   0.652  13.879  0.4770 -0.1508 -0.0988
  373TMC3    O1 5589   2.262   0.337  13.415 -0.3387  0.1792  0.2094
  373TMC3    O2 5590   2.341   0.625  13.871 -0.0427  0.0000 -0.2969
  374TMC3    C1 5591   3.827   1.293   9.580 -0.3947 -0.5415 -0.1877
  374TMC3    C2 5592   3.900   1.398   9.635 -0.0777  0.6848  0.3716
  374TMC3    C3 5593   3.863   1.521   9.606  0.6035 -0.2209 -0.7468
  374TMC3    C4 5594   3.712   1.313   9.508  0.1299 -0.3337  0.2571
  374TMC3    C5 5595   3.677   1.445   9.490  0.2342 -0.0745 -0.0874
  374TMC3    C6 5596   3.746   1.544   9.539 -0.3585 -0.3845 -0.7647
  374TMC3     C 5597   3.839   1.169   9.658  0.1323 -0.2286 -0.5962
  374TMC3     O 5598   3.899   1.169   9.764  0.6736  0.5722 -0.5071
  374TMC3     H 5599   3.992   1.382   9.691 -1.3453 -0.9329  2.0222
  374TMC3    H1 5600   3.661   1.231   9.459  1.8837 -1.8335  0.9608
  374TMC3    H2 5601   3.696   1.638   9.520 -1.8718 -1.1662 -0.6454
  374TMC3    C7 5602   3.568   1.458   9.391 -0.0921 -0.0014 -0.7333
  374TMC3    C8 5603   3.926   1.635   9.664  0.2162 -0.1022  0.2025
  374TMC3    O1 5604   3.497   1.359   9.369  0.0015 -0.0393 -0.5415
  374TMC3    O2 5605   3.908   1.735   9.590 -0.0482  0.2206 -0.2248
  375MPD2     C 5606   3.310   2.428  16.661  0.2813  0.6203  0.3721
  375MPD2    C1 5607   3.233   2.317  16.672 -0.2593 -0.2609  0.0262
  375MPD2    C2 5608   3.276   2.195  16.627 -0.0630 -0.8852 -0.4700
  375MPD2    C3 5609   3.398   2.178  16.563 -0.2380 -0.0097  0.7403
  375MPD2    C4 5610   3.471   2.286  16.548 -0.8145 -0.4032 -0.0035
  375MPD2    C5 5611   3.424   2.412  16.587 -0.3290 -0.7453 -0.7042
  375MPD2     H 5612   3.207   2.114  16.647  0.7538 -1.3980  0.2510
  375MPD2    H1 5613   3.572   2.283  16.507 -0.8662 -1.1463 -0.0744
  375MPD2    H2 5614   3.300   2.527  16.703 -0.3776 -0.0518  1.7929
  375MPD2    H3 5615   3.500   2.489  16.581 -0.2897 -0.7339 -0.1201
  375MPD2     N 5616   3.440   2.059  16.504  0.0643  0.3395  0.0216
  375MPD2    H5 5617   3.526   2.059  16.451  0.3182 -0.7641  0.4119
  375MPD2    N1 5618   3.102   2.325  16.729  0.0455 -0.2522  0.4666
  375MPD2    H7 5619   3.037   2.251  16.703  0.8162 -0.3607 -1.1890
  376TMC3    C1 5620   3.444   1.845  16.418  0.3663  0.5858 -0.1731
  376TMC3    C2 5621   3.575   1.845  16.445  0.1699 -0.5480 -0.5273
  376TMC3    C3 5622   3.660   1.774  16.365 -0.3051 -0.1734  0.3795
  376TMC3    C4 5623   3.397   1.775  16.306 -0.1228  0.0264  0.2919
  376TMC3    C5 5624   3.483   1.701  16.226  0.0689  0.3668  0.4618
  376TMC3    C6 5625   3.622   1.712  16.252  0.1155  0.1249 -0.2894
  376TMC3     C 5626   3.366   1.943  16.483  0.3080 -0.0615  0.6617
  376TMC3     O 5627   3.251   1.915  16.509  0.0751  0.1090  0.3734
  376TMC3     H 5628   3.598   1.895  16.538  0.4849  2.7080 -2.3482
  376TMC3    H1 5629   3.293   1.794  16.281  0.2548 -0.2444 -1.5079
  376TMC3    H2 5630   3.693   1.673  16.180  1.3252  1.0681  0.3942
  376TMC3    C7 5631   3.428   1.636  16.107  0.5022 -0.2688  0.4221
  376TMC3    C8 5632   3.803   1.777  16.390  0.2387  0.5707  0.2248
  376TMC3    O1 5633   3.338   1.696  16.049  0.0845  0.2864  0.4887
  376TMC3    O2 5634   3.886   1.752  16.306  0.6067 -0.2906  0.2441
  377MPD2     C 5635   1.132   1.594  12.057  0.3505  0.2275  0.7142
  377MPD2    C1 5636   1.184   1.486  12.129 -0.0589  0.0845 -0.2855
  377MPD2    C2 5637   1.109   1.417  12.220 -0.4943  0.4659  0.4149
  377MPD2    C3 5638   0.987   1.467  12.256 -0.2318  0.9883 -0.4194
  377MPD2    C4 5639   0.943   1.588  12.196  0.0682 -0.2782  0.0549
  377MPD2    C5 5640   1.013   1.644  12.092  0.2180  0.6800 -0.3258
  377MPD2     H 5641   1.149   1.326  12.263  0.0924  0.2333 -0.6277
  377MPD2    H1 5642   0.842   1.622  12.215  0.1640  0.5324 -0.8471
  377MPD2    H2 5643   1.188   1.637  11.974  0.8724  0.7256  1.3268
  377MPD2    H3 5644   0.978   1.736  12.045 -0.6193  0.2430 -0.5622
  377MPD2     N 5645   0.893   1.403  12.342  0.0640 -0.3265  0.3026
  377MPD2    H5 5646   0.804   1.444  12.366  1.2738  2.3126  0.2559
  377MPD2    N1 5647   1.320   1.451  12.095 -0.3098 -0.1169 -0.0038
  377MPD2    H7 5648   1.363   1.502  12.018  0.5465 -0.2297  0.3927
  378TMC3    C1 5649   1.651   1.381  11.930 -0.0310 -0.4046 -0.5837
  378TMC3    C2 5650   1.525   1.350  11.977 -0.1543 -0.3092  0.4878
  378TMC3    C3 5651   1.509   1.308  12.107  0.3769  0.0546 -0.2665
  378TMC3    C4 5652   1.761   1.366  12.011 -0.6743  0.0752 -0.4435
  378TMC3    C5 5653   1.740   1.322  12.140 -0.5705  0.0849  1.0135
  378TMC3    C6 5654   1.620   1.290  12.188  1.2502  0.3459 -0.4843
  378TMC3     C 5655   1.654   1.412  11.786  0.1445 -0.8578  0.0163
  378TMC3     O 5656   1.547   1.406  11.724  0.7612  0.0214 -0.3694
  378TMC3     H 5657   1.446   1.319  11.910 -1.9109  2.3704  1.3135
  378TMC3    H1 5658   1.851   1.421  11.988  1.2736 -2.1786  1.8151
  378TMC3    H2 5659   1.606   1.255  12.289  0.5463  0.7116 -0.4544
  378TMC3    C7 5660   1.848   1.280  12.226 -0.1572  0.8545  0.4181
  378TMC3    C8 5661   1.394   1.365  12.175 -0.4256  0.0560  0.1568
  378TMC3    O1 5662   1.834   1.283  12.348  0.0096 -0.3974 -0.6556
  378TMC3    O2 5663   1.378   1.340  12.297  0.5220 -0.0716 -0.3330
  379MPD2     C 5664   2.549   4.219  15.935 -0.8721 -0.0716 -0.8859
  379MPD2    C1 5665   2.475   4.120  16.004 -0.0088  0.8188  0.1052
  379MPD2    C2 5666   2.524   4.058  16.112  0.4646 -0.1598 -0.2012
  379MPD2    C3 5667   2.648   4.099  16.161 -0.0889 -0.6417 -0.1836
  379MPD2    C4 5668   2.721   4.188  16.087  0.1673  0.4057  0.2743
  379MPD2    C5 5669   2.676   4.244  15.973 -0.7952  0.2989 -0.5639
  379MPD2     H 5670   2.477   3.968  16.150 -0.6099 -0.1205 -1.4680
  379MPD2    H1 5671   2.821   4.209  16.121  0.5867  0.0450 -0.7277
  379MPD2    H2 5672   2.508   4.265  15.845 -1.1206 -2.7258 -2.1361
  379MPD2    H3 5673   2.736   4.304  15.905  2.5760  0.6087  2.6761
  379MPD2     N 5674   2.716   4.041  16.274 -0.2510  0.5141 -0.1909
  379MPD2    H5 5675   2.816   4.052  16.291 -0.2655  0.5569 -0.1338
  379MPD2    N1 5676   2.346   4.088  15.953  0.2088 -0.2309 -0.1185
  379MPD2    H7 5677   2.321   4.130  15.865 -1.3432  1.2513  1.0289
  380TMC3    C1 5678   2.155   3.967  15.913  0.4420  0.4861 -0.0352
  380TMC3    C2 5679   2.180   3.858  15.834  0.1356  0.6207 -0.0315
  380TMC3    C3 5680   2.124   3.852  15.710 -0.1266 -0.8120 -0.5571
  380TMC3    C4 5681   2.077   4.069  15.878  0.0494 -0.5242 -0.2979
  380TMC3    C5 5682   2.001   4.047  15.769 -0.3793 -0.2943  0.8629
  380TMC3    C6 5683   2.031   3.949  15.681 -0.1020 -0.5099  0.0477
  380TMC3     C 5684   2.262   3.994  16.007  0.4416 -0.6315  0.2613
  380TMC3     O 5685   2.253   3.944  16.115 -0.2221  0.2075  0.1878
  380TMC3     H 5686   2.217   3.761  15.867 -4.6781 -1.8444 -1.8137
  380TMC3    H1 5687   2.069   4.164  15.930  4.0889 -0.4133  0.1288
  380TMC3    H2 5688   1.980   3.944  15.586 -0.7012  0.2071  0.3274
  380TMC3    C7 5689   1.872   4.104  15.760 -0.4970 -0.2074 -0.4061
  380TMC3    C8 5690   2.237   3.871  15.620 -0.1248  0.8550 -0.2960
  380TMC3    O1 5691   1.855   4.214  15.810 -0.8273 -0.7622  0.6688
  380TMC3    O2 5692   2.213   3.919  15.508  0.7476 -0.4172 -0.0498
  381TMC3    C1 5693   1.873   0.442  16.019  0.2964 -0.1876  0.3044
  381TMC3    C2 5694   1.999   0.497  16.038 -0.6908  0.3808  0.1645
  381TMC3    C3 5695   2.008   0.587  16.146 -0.8484  0.3015 -0.5160
  381TMC3    C4 5696   1.763   0.484  16.095 -0.7936 -0.1085  0.0410
  381TMC3    C5 5697   1.781   0.558  16.203 -0.1725 -0.1465  0.6111
  381TMC3    C6 5698   1.901   0.614  16.235  0.0450  0.3256  0.0890
  381TMC3     C 5699   1.844   0.367  15.895 -0.2253 -0.2875 -0.3866
  381TMC3     O 5700   1.934   0.331  15.823  0.0669 -0.4668 -0.2355
  381TMC3     H 5701   2.086   0.474  15.978 -2.9278 -1.5096 -2.3603
  381TMC3    H1 5702   1.670   0.429  16.087  0.1021 -1.4359 -1.1716
  381TMC3    H2 5703   1.902   0.691  16.311  0.2361  0.3581  0.0524
  381TMC3    C7 5704   1.693   0.520  16.309  0.1637 -0.4695 -0.0334
  381TMC3    C8 5705   2.135   0.666  16.145 -0.3209  0.3792  0.2902
  381TMC3    O1 5706   1.665   0.399  16.309 -0.3718  0.7545 -0.4051
  381TMC3    O2 5707   2.182   0.675  16.033 -0.1425  0.1351  0.5044
  382MPD2     C 5708   1.097   2.959  17.633  0.0673 -0.0200  0.1192
  382MPD2    C1 5709   1.027   2.932  17.516  0.2395 -0.1273  0.3463
  382MPD2    C2 5710   1.008   2.805  17.474  0.7055  0.3163  0.3452
  382MPD2    C3 5711   1.062   2.701  17.548 -0.2352  0.1967 -0.1891
  382MPD2    C4 5712   1.122   2.724  17.668 -0.3955 -1.3859  0.0059
  382MPD2    C5 5713   1.138   2.854   0.017  0.0536 -0.5483  0.4370
  382MPD2     H 5714   0.950   2.792  17.383  2.5019 -0.8347 -0.6408
  382MPD2    H1 5715   1.167   2.646   0.033  0.6643  1.6230  3.1423
  382MPD2    H2 5716   1.112   3.054  17.683  0.3968  0.5497 -1.0661
  382MPD2    H3 5717   1.166   2.881   0.118 -1.2709  0.3570  0.5733
  382MPD2     N 5718   1.047   2.566  17.506  0.2005 -0.4775  0.2349
  382MPD2    H5 5719   1.082   2.493  17.567  0.1912 -1.4449 -0.9228
  382MPD2    N1 5720   0.986   3.032  17.428  0.1998  0.5257 -0.4058
  382MPD2    H7 5721   0.924   3.012  17.350  1.8413 -2.1671 -1.0165
  383TMC3    C1 5722   1.001   2.393  17.364 -0.2593 -0.3634 -0.0674
  383TMC3    C2 5723   0.910   2.345  17.276  0.0146 -0.4933 -0.5205
  383TMC3    C3 5724   0.905   2.210  17.257 -0.1796 -0.0345 -0.1245
  383TMC3    C4 5725   1.108   2.320  17.411 -0.7835  0.0103 -0.9680
  383TMC3    C5 5726   1.112   2.184  17.370  0.5084 -0.4787 -0.3598
  383TMC3    C6 5727   1.008   2.123  17.302  0.5711  0.6536  0.2573
  383TMC3     C 5728   0.999   2.533  17.381 -0.3212  0.1557  0.6678
  383TMC3     O 5729   0.942   2.595  17.291 -0.2126  0.5707 -0.3403
  383TMC3     H 5730   0.833   2.406  17.230 -0.5764  0.9050  2.3275
  383TMC3    H1 5731   1.178   2.362  17.482 -2.6190  0.1927  0.7297
  383TMC3    H2 5732   0.998   2.015  17.303  0.9900  0.5714 -3.7151
  383TMC3    C7 5733   1.213   2.101  17.444  0.4226  0.7605 -0.9413
  383TMC3    C8 5734   0.781   2.152  17.223 -0.3536  0.1094 -0.0660
  383TMC3    O1 5735   1.266   2.143  17.547 -0.5605 -0.2611  0.2696
  383TMC3    O2 5736   0.703   2.225  17.170  0.0664  0.1395  0.1561
  384MPD2     C 5737   3.007   4.104  11.749 -0.6465 -0.0077 -0.5134
  384MPD2    C1 5738   2.957   4.049  11.867 -0.0627 -0.0880 -0.4602
  384MPD2    C2 5739   2.996   3.929  11.916  0.0385  0.3536 -0.4318
  384MPD2    C3 5740   3.071   3.844  11.846 -0.7601  0.0006 -0.3824
  384MPD2    C4 5741   3.113   3.887  11.723  0.3846 -0.4225  0.3184
  384MPD2    C5 5742   3.084   4.015  11.679  0.4855 -0.0666 -0.0798
  384MPD2     H 5743   2.947   3.891  12.005  0.6357  0.5070 -0.0341
  384MPD2    H1 5744   3.168   3.820  11.659  0.0701 -0.0345 -0.3625
  384MPD2    H2 5745   2.987   4.202  11.709  1.3440  1.1335  1.2995
  384MPD2    H3 5746   3.120   4.051  11.584 -0.4910  0.5492 -0.2136
  384MPD2     N 5747   3.090   3.714  11.901 -0.0035 -0.3558 -0.4634
  384MPD2    H5 5748   3.065   3.706  11.999 -1.5555  1.5396 -0.7038
  384MPD2    N1 5749   2.867   4.125  11.947  0.7218 -0.0857 -0.4428
  384MPD2    H7 5750   2.848   4.084  12.037  0.6355  0.0435 -0.4022
  385TMC3    C1 5751   3.136   3.494  11.945 -0.7593  0.3280  0.5717
  385TMC3    C2 5752   3.061   3.393  11.903 -0.4214  0.0865 -0.3044
  385TMC3    C3 5753   2.955   3.349  11.977  0.2462  0.0969 -0.2496
  385TMC3    C4 5754   3.107   3.550  12.063 -0.2456  0.0209  0.3154
  385TMC3    C5 5755   3.002   3.507  12.138 -0.3470  0.0382 -0.1874
  385TMC3    C6 5756   2.922   3.409  12.096  0.3504  0.3136 -0.3416
  385TMC3     C 5757   3.147   3.600  11.847  0.3140  0.3149  0.0482
  385TMC3     O 5758   3.195   3.598  11.733  0.1674 -0.2961 -0.1167
  385TMC3     H 5759   3.060   3.369  11.797  0.5012  0.9270 -0.4983
  385TMC3    H1 5760   3.180   3.616  12.109  0.7812 -0.3535 -0.7932
  385TMC3    H2 5761   2.842   3.375  12.161 -0.1417  0.2448 -0.9858
  385TMC3    C7 5762   2.932   3.619  12.195  0.2608  0.9065 -0.1880
  385TMC3    C8 5763   2.879   3.233  11.934 -0.4996  0.2723 -0.1771
  385TMC3    O1 5764   2.977   3.726  12.158  0.0020  0.1588  0.1097
  385TMC3    O2 5765   2.771   3.212  11.983  0.3058 -0.1153  0.1517
  386TMC3    C1 5766   3.220   1.349  11.802  0.2179 -0.1592  0.2284
  386TMC3    C2 5767   3.256   1.280  11.686 -0.9619 -0.4402 -0.4343
  386TMC3    C3 5768   3.152   1.260  11.592 -0.8612  0.4171  0.5021
  386TMC3    C4 5769   3.093   1.399  11.825 -0.0957 -0.2604  0.3979
  386TMC3    C5 5770   2.994   1.372  11.737 -0.1450  0.4969 -0.2289
  386TMC3    C6 5771   3.023   1.301  11.620 -0.2877 -0.6248  0.1163
  386TMC3     C 5772   3.325   1.367  11.902 -0.3744 -0.3448 -0.4599
  386TMC3     O 5773   3.322   1.470  11.969  0.5015 -0.1602 -0.4711
  386TMC3     H 5774   3.360   1.258  11.664 -0.4850  1.1700  0.1941
  386TMC3    H1 5775   3.074   1.454  11.917 -0.3670 -0.6686  0.5870
  386TMC3    H2 5776   2.937   1.256  11.572  0.9381 -4.3971  1.4801
  386TMC3    C7 5777   2.860   1.414  11.768  0.6379 -0.2758 -0.0847
  386TMC3    C8 5778   3.178   1.209  11.463  0.4628 -0.3536 -0.1244
  386TMC3    O1 5779   2.842   1.469  11.876 -0.1713 -0.4498  0.4093
  386TMC3    O2 5780   3.293   1.185  11.434  0.2511  0.3809  0.6525
  387MPD2     C 5781   1.180   1.351   9.691  0.4306  0.6718 -0.1093
  387MPD2    C1 5782   1.318   1.335   9.687  0.9447  0.0002 -0.3710
  387MPD2    C2 5783   1.376   1.219   9.656  0.2787  0.3440 -0.9579
  387MPD2    C3 5784   1.299   1.101   9.652 -0.9311  0.3788 -0.3907
  387MPD2    C4 5785   1.160   1.113   9.658 -0.3099  0.5116 -0.6959
  387MPD2    C5 5786   1.106   1.237   9.667 -0.5513  0.2304 -0.5893
  387MPD2     H 5787   1.483   1.204   9.643  0.3969  1.8953 -1.6663
  387MPD2    H1 5788   1.092   1.031   9.638  0.5706 -0.3629 -0.1031
  387MPD2    H2 5789   1.136   1.447   9.712 -0.5573  0.0050  0.8700
  387MPD2    H3 5790   0.998   1.243   9.670 -0.5321 -1.5402  2.9123
  387MPD2     N 5791   1.368   0.978   9.630 -0.3560 -0.0871 -0.4112
  387MPD2    H5 5792   1.468   0.990   9.617 -0.4259 -0.1671 -1.0078
  387MPD2    N1 5793   1.408   1.438   9.688 -0.3730 -0.3833  0.1385
  387MPD2    H7 5794   1.503   1.407   9.706 -0.1277  0.0018 -0.4977
  388TMC3    C1 5795   1.529   1.630   9.658  0.2340 -0.9074 -0.1818
  388TMC3    C2 5796   1.558   1.748   9.717 -0.8321 -0.2106 -0.4440
  388TMC3    C3 5797   1.685   1.784   9.710  0.3216 -0.8598  0.3412
  388TMC3    C4 5798   1.630   1.535   9.614 -0.6350 -0.0951  0.1731
  388TMC3    C5 5799   1.755   1.571   9.639  0.5830  0.2070  0.2978
  388TMC3    C6 5800   1.789   1.699   9.674 -0.0349 -0.3304 -0.7712
  388TMC3     C 5801   1.397   1.574   9.670  0.5549  0.2922 -0.3039
  388TMC3     O 5802   1.304   1.646   9.670 -0.4749 -0.4360  0.2471
  388TMC3     H 5803   1.485   1.824   9.740  1.1581  1.4000  0.5838
  388TMC3    H1 5804   1.603   1.449   9.553 -0.0983  0.5925 -1.0553
  388TMC3    H2 5805   1.891   1.734   9.683 -0.1264  0.3048 -2.1961
  388TMC3    C7 5806   1.852   1.480   9.594  0.0849  0.5722 -0.0623
  388TMC3    C8 5807   1.729   1.905   9.772  0.8182  0.4352  0.0769
  388TMC3    O1 5808   1.946   1.518   9.527 -0.1956 -0.2484  0.1539
  388TMC3    O2 5809   1.826   1.888   9.843 -0.4243 -0.0745  0.1164
  389MPD2     C 5810   0.973   4.351  10.531  0.2742 -0.4439 -0.7565
  389MPD2    C1 5811   0.862   4.268  10.512  0.5635  0.2353 -0.2872
  389MPD2    C2 5812   0.764   4.263  10.602 -0.2259 -0.5218 -0.0174
  389MPD2    C3 5813   0.783   4.330  10.723 -0.1000 -0.1346  0.3813
  389MPD2    C4 5814   0.904   4.397  10.751  0.4136 -0.1199  0.5993
  389MPD2    C5 5815   0.993   4.420  10.650 -0.0712 -0.5407 -0.7830
  389MPD2     H 5816   0.667   4.221  10.578 -0.7295  0.6769 -0.1020
  389MPD2    H1 5817   0.919   4.446  10.846  2.4842  1.3847 -0.5301
  389MPD2    H2 5818   1.038   4.351  10.444  1.8429  0.9392  0.4424
  389MPD2    H3 5819   1.081   4.482  10.659  1.9811 -3.2392 -2.3558
  389MPD2     N 5820   0.679   4.354  10.819 -0.1592 -0.5647  0.3474
  389MPD2    H5 5821   0.697   4.403  10.906 -1.6775 -0.1999  0.4518
  389MPD2    N1 5822   0.860   4.213  10.382 -0.3448 -1.3571  0.8919
  389MPD2    H7 5823   0.943   4.228  10.325 -0.3625 -0.6188  1.0558
  390TMC3    C1 5824   0.464   4.347  10.934  0.1764 -0.3699  0.5557
  390TMC3    C2 5825   0.349   4.272  10.950 -0.1537  0.4161 -0.7503
  390TMC3    C3 5826   0.269   4.287  11.058 -0.1621  0.7151 -0.7321
  390TMC3    C4 5827   0.492   4.444  11.029  0.3754  0.6304 -0.8416
  390TMC3    C5 5828   0.406   4.460  11.136  1.0123 -0.0031 -0.2118
  390TMC3    C6 5829   0.303   4.381  11.154  0.5426  0.0982 -0.1629
  390TMC3     C 5830   0.540   4.323  10.811  0.3919 -0.3114  0.1824
  390TMC3     O 5831   0.483   4.255  10.726  0.4275  0.1985 -0.1994
  390TMC3     H 5832   0.321   4.203  10.871 -0.3458  0.1407 -0.4433
  390TMC3    H1 5833   0.570   4.519  11.015 -0.0068  1.4700  1.5997
  390TMC3    H2 5834   0.236   4.398  11.237  1.5785 -2.8457  1.2553
  390TMC3    C7 5835   0.428   4.573  11.225 -0.8047 -0.4671  0.0411
  390TMC3    C8 5836   0.133   4.237  11.059 -0.1399 -0.7905 -0.5808
  390TMC3    O1 5837   0.499   4.664  11.187 -0.3406 -0.1977  0.5479
  390TMC3    O2 5838   0.084   4.220  11.168  0.5303  0.1618  0.2169
  391MPD2     C 5839   4.241   1.328  11.170  0.5533 -0.8758 -0.5527
  391MPD2    C1 5840   4.360   1.390  11.152 -0.5404 -0.1691 -0.0794
  391MPD2    C2 5841   4.392   1.450  11.038 -0.3059 -0.2253  0.1338
  391MPD2    C3 5842   4.316   1.427  10.926 -0.7271 -0.0388 -0.2701
  391MPD2    C4 5843   4.200   1.364  10.944  0.8984 -1.3288 -0.1117
  391MPD2    C5 5844   4.160   1.315  11.062  0.2773 -0.0964  0.7377
  391MPD2     H 5845   4.495   1.477  11.023 -0.3455  0.5148  1.2452
  391MPD2    H1 5846   4.132   1.333  10.865 -1.4570 -1.7692  2.1094
  391MPD2    H2 5847   4.218   1.272  11.260 -0.5659  1.2772  0.4976
  391MPD2    H3 5848   4.071   1.253  11.066  0.5173 -0.5626 -1.3442
  391MPD2     N 5849   4.357   1.469  10.797  0.0572 -0.4192  0.3018
  391MPD2    H5 5850   4.443   1.522  10.790 -1.2450  1.6038 -0.2531
  391MPD2    N1 5851   4.439   1.393  11.267  0.3090  0.8400 -0.6788
  391MPD2    H7 5852   4.402   1.359  11.356  2.5573  2.9765  1.0485
  392TMC3    C1 5853   4.351   1.536  10.569 -1.2038 -0.2995  0.0604
  392TMC3    C2 5854   4.284   1.547  10.447 -0.2180 -0.1742  0.2609
  392TMC3    C3 5855   4.341   1.611  10.338  0.1212  0.3546  0.0309
  392TMC3    C4 5856   4.471   1.602  10.586 -0.1833 -0.7038  1.0025
  392TMC3    C5 5857   4.525   1.668  10.483  0.7192 -0.1099  0.4012
  392TMC3    C6 5858   4.470   1.665  10.359 -0.0575  0.4525 -0.2302
  392TMC3     C 5859   4.284   1.462  10.682 -0.2157  0.1561 -0.4922
  392TMC3     O 5860   4.173   1.420  10.662 -0.1279  0.0021  0.0513
  392TMC3     H 5861   4.190   1.492  10.441  0.0139 -0.4038 -1.2567
  392TMC3    H1 5862   4.530   1.612  10.677  1.7467  0.6439 -0.3842
  392TMC3    H2 5863   4.525   1.710  10.277 -1.5734  2.5860 -0.0780
  392TMC3    C7 5864   4.653   1.729  10.512  0.4865 -0.3339 -0.2737
  392TMC3    C8 5865   4.273   1.610  10.210 -0.3323  0.1727  0.0788
  392TMC3    O1 5866   4.644   1.834  10.575 -0.4330  0.1213  0.3380
  392TMC3    O2 5867   4.197   1.518  10.184  0.1900  0.1806 -0.4298
  393TMC3    C1 5868   3.489   3.409  10.360 -0.1873  1.2335  0.0619
  393TMC3    C2 5869   3.411   3.418  10.471 -0.2462 -0.0759  0.7792
  393TMC3    C3 5870   3.457   3.500  10.566  0.0179 -0.2104 -0.3192
  393TMC3    C4 5871   3.611   3.469  10.352 -0.0998  0.8774 -0.1476
  393TMC3    C5 5872   3.651   3.548  10.458  0.3010 -0.6390 -0.2305
  393TMC3    C6 5873   3.576   3.561  10.565 -0.9340 -0.2319 -0.6790
  393TMC3     C 5874   3.417   3.415  10.233  0.2996 -0.0805  0.4078
  393TMC3     O 5875   3.450   3.511  10.167 -0.4639 -0.1378 -0.1044
  393TMC3     H 5876   3.315   3.369  10.469  0.7214 -1.9673  0.0521
  393TMC3    H1 5877   3.677   3.455  10.267 -0.3621 -0.2078 -0.1837
  393TMC3    H2 5878   3.612   3.624  10.646 -1.7067 -0.3085 -0.2823
  393TMC3    C7 5879   3.759   3.647  10.445  0.6981 -0.0046  0.3057
  393TMC3    C8 5880   3.357   3.563  10.658 -0.5231  0.2251 -0.3672
  393TMC3    O1 5881   3.782   3.719  10.539  0.2003 -0.2003  0.0035
  393TMC3    O2 5882   3.245   3.516  10.652  0.4555  0.5966 -0.1107
  394TMC3    C1 5883   0.789   4.091  10.189  0.1963 -0.3930  0.6686
  394TMC3    C2 5884   0.728   3.977  10.152  0.1088  0.1683 -0.1369
  394TMC3    C3 5885   0.765   3.916  10.035 -0.4265  0.9971 -0.7975
  394TMC3    C4 5886   0.883   4.154  10.112  0.7430 -0.2373 -0.5438
  394TMC3    C5 5887   0.911   4.096   9.990  0.1892 -0.2856 -0.0133
  394TMC3    C6 5888   0.860   3.976   9.953  0.8652 -0.2056 -1.1275
  394TMC3     C 5889   0.764   4.127  10.330  0.7224  0.2132 -0.1552
  394TMC3     O 5890   0.662   4.084  10.385 -0.1856  0.4428  0.2005
  394TMC3     H 5891   0.649   3.938  10.215  1.4131  0.3231  1.5928
  394TMC3    H1 5892   0.930   4.248  10.138  2.2208 -0.6318 -1.7515
  394TMC3    H2 5893   0.892   3.919   9.866  2.1316 -1.8929  0.4549
  394TMC3    C7 5894   0.991   4.174   9.896 -0.3122 -0.4980 -0.1732
  394TMC3    C8 5895   0.680   3.818   9.960 -0.3624  0.1599 -0.5588
  394TMC3    O1 5896   0.982   4.298   9.919  0.6595  0.0969 -0.0223
  394TMC3    O2 5897   0.698   3.807   9.837  0.0900  0.7503 -0.2792
  395TMC3    C1 5898   4.002   2.080  14.403 -0.8835  0.1637  0.0479
  395TMC3    C2 5899   3.889   2.042  14.471  0.2707 -0.2390  0.6813
  395TMC3    C3 5900   3.898   2.018  14.608 -0.3290  0.1818 -0.7085
  395TMC3    C4 5901   4.120   2.106  14.466  0.0517  0.4640 -0.3294
  395TMC3    C5 5902   4.128   2.077  14.599 -0.2652 -0.1906 -0.9017
  395TMC3    C6 5903   4.023   2.039  14.669 -0.1907 -0.4270 -0.6544
  395TMC3     C 5904   4.000   2.093  14.258  0.6865 -0.2530 -0.2893
  395TMC3     O 5905   4.034   2.209  14.221  0.5989 -0.1129 -0.0507
  395TMC3     H 5906   3.802   2.020  14.409  1.2392 -1.0109 -0.4167
  395TMC3    H1 5907   4.205   2.115  14.399 -0.0594  0.2602 -0.4985
  395TMC3    H2 5908   4.032   2.016  14.775  0.8705  1.0462 -0.4171
  395TMC3    C7 5909   4.261   2.098  14.668  0.2316  0.1982  0.7160
  395TMC3    C8 5910   3.823   1.903  14.634  0.3985 -0.0029 -0.3658
  395TMC3    O1 5911   4.339   2.147  14.594 -0.6253 -0.5953 -0.8507
  395TMC3    O2 5912   3.765   1.844  14.539 -0.1956 -0.7558 -0.7585
  396MPD2     C 5913   4.006   2.814  16.587  0.0834 -0.3314 -0.1728
  396MPD2    C1 5914   4.126   2.769  16.634 -0.1300  0.1052  0.5015
  396MPD2    C2 5915   4.243   2.811  16.572 -0.7558  0.7291 -0.2271
  396MPD2    C3 5916   4.236   2.905  16.471 -0.7792 -0.2874  0.2969
  396MPD2    C4 5917   4.113   2.952  16.424 -0.1184 -0.1845 -0.5032
  396MPD2    C5 5918   3.999   2.897  16.477  0.3146  0.3378 -0.0219
  396MPD2     H 5919   4.337   2.761  16.589 -0.2326  1.1606 -1.8776
  396MPD2    H1 5920   4.094   3.034  16.356  1.2887  2.0522  1.8105
  396MPD2    H2 5921   3.915   2.778  16.635  1.4399  0.3433  2.9077
  396MPD2    H3 5922   3.899   2.930  16.450 -1.4177 -1.1551  4.5668
  396MPD2     N 5923   4.354   2.945  16.410  0.1789 -0.6742  0.2339
  396MPD2    H5 5924   4.439   2.905  16.449  0.9801 -0.4669 -1.2596
  396MPD2    N1 5925   4.125   2.683  16.743  0.0297  0.2801 -0.0582
  396MPD2    H7 5926   4.031   2.677  16.782 -0.8211  0.2579 -2.0629
  397TMC3    C1 5927   4.164   2.485  16.856 -0.7104  0.1552  0.4369
  397TMC3    C2 5928   4.245   2.381  16.899 -0.5558 -0.0029 -0.4332
  397TMC3    C3 5929   4.218   2.251  16.850 -0.6939 -0.2946 -0.0071
  397TMC3    C4 5930   4.031   2.457  16.827 -0.4328 -0.1367 -0.2002
  397TMC3    C5 5931   4.002   2.320  16.822  0.3151  0.0553 -0.8887
  397TMC3    C6 5932   4.088   2.220  16.833  0.4721  0.7877 -0.7219
  397TMC3     C 5933   4.221   2.591  16.785 -0.5516 -0.7997  0.1110
  397TMC3     O 5934   4.343   2.590  16.762 -0.1798 -0.8683  0.2224
  397TMC3     H 5935   4.351   2.404  16.907 -0.2937 -1.0089 -1.1100
  397TMC3    H1 5936   3.944   2.518  16.806 -0.7088 -0.7231 -0.7765
  397TMC3    H2 5937   4.067   2.116  16.813 -1.8691  1.3052 -0.9664
  397TMC3    C7 5938   3.863   2.280  16.829 -0.2274  0.3230 -0.2051
  397TMC3    C8 5939   4.316   2.145  16.875  0.3598  0.5327  0.3187
  397TMC3    O1 5940   3.781   2.349  16.766 -0.1143 -0.3331 -0.2505
  397TMC3    O2 5941   4.272   2.055  16.944  0.7296 -0.5787 -0.7141
  398MPD2     C 5942   2.599   2.954  17.461 -0.7161  0.0412  0.1416
  398MPD2    C1 5943   2.613   2.980  17.594 -0.0680  1.0328 -0.2161
  398MPD2    C2 5944   2.635   3.112  17.628 -0.4150 -0.7195  0.3194
  398MPD2    C3 5945   2.640   3.214  17.535  0.3959 -0.3804 -0.4570
  398MPD2    C4 5946   2.638   3.177  17.400 -0.4119  0.3146 -0.0908
  398MPD2    C5 5947   2.618   3.048  17.361 -0.2871 -0.5747  0.0619
  398MPD2     H 5948   2.640   3.139   0.038  0.1124 -0.7977  0.3156
  398MPD2    H1 5949   2.668   3.250  17.326 -1.7218  0.9828  0.0328
  398MPD2    H2 5950   2.593   2.853  17.424 -0.4675  0.1561 -0.2222
  398MPD2    H3 5951   2.618   3.026  17.254  0.6428  1.2206 -0.2954
  398MPD2     N 5952   2.657   3.344  17.582  0.1256 -0.8553  0.3243
  398MPD2    H5 5953   2.686   3.368  17.676 -1.7710  0.9860  0.4628
  398MPD2    N1 5954   2.602   2.877  17.693 -0.3782 -0.1096 -0.1166
  398MPD2    H7 5955   2.590   2.783  17.655  0.5476 -0.3839  0.2672
  399TMC3    C1 5956   2.598   2.771   0.205  0.4230  0.3849 -0.4578
  399TMC3    C2 5957   2.640   2.648   0.158  0.5530  0.2021  0.2272
  399TMC3    C3 5958   2.645   2.549   0.254 -0.3062 -0.0939  0.0555
  399TMC3    C4 5959   2.560   2.788   0.336  0.3932 -0.4811  0.1865
  399TMC3    C5 5960   2.569   2.691   0.428  0.1710 -0.0062 -0.2992
  399TMC3    C6 5961   2.624   2.568   0.398 -0.5397 -0.0275  0.3131
  399TMC3     C 5962   2.610   2.892   0.136 -0.2979  0.1712 -0.2062
  399TMC3     O 5963   2.604   2.992   0.204  0.1927  0.1223  0.0148
  399TMC3     H 5964   2.674   2.633   0.057  0.1465  0.4564  0.0525
  399TMC3    H1 5965   2.521   2.881   0.373 -0.1312  0.5355 -2.8969
  399TMC3    H2 5966   2.636   2.495   0.477 -1.3716  0.4227  0.8536
  399TMC3    C7 5967   2.507   2.722   0.555  0.1633  0.1049  0.2223
  399TMC3    C8 5968   2.691   2.419   0.210  0.4059  0.0048  0.2398
  399TMC3    O1 5969   2.506   2.839   0.587 -0.1875 -0.3184  0.3195
  399TMC3    O2 5970   2.750   2.419   0.105 -0.9264  0.0400  1.2468
  400TMC3    C1 5971   1.028   1.673  16.978 -0.2753 -0.1377 -0.4405
  400TMC3    C2 5972   0.939   1.677  16.867 -0.1258  0.1841 -0.2872
  400TMC3    C3 5973   0.880   1.797  16.841 -0.3059 -0.6883 -0.0911
  400TMC3    C4 5974   1.075   1.788  17.026 -0.4792 -0.6178  0.5923
  400TMC3    C5 5975   1.027   1.906  16.984 -0.0582 -0.0895  0.2911
  400TMC3    C6 5976   0.924   1.920  16.896 -0.2425 -0.0643 -0.1166
  400TMC3     C 5977   1.086   1.544  17.007 -0.0319  0.0442  0.0345
  400TMC3     O 5978   1.055   1.454  16.938  0.1583  0.6541 -0.5068
  400TMC3     H 5979   0.905   1.585  16.821  1.2414 -0.1741 -0.5926
  400TMC3    H1 5980   1.142   1.787  17.111  1.5636  3.2416 -0.9717
  400TMC3    H2 5981   0.872   2.014  16.882  0.8655  0.5975  0.1739
  400TMC3    C7 5982   1.106   2.027  17.017 -0.5411 -0.0047 -0.8028
  400TMC3    C8 5983   0.812   1.817  16.720 -0.4363  0.4162  0.4998
  400TMC3    O1 5984   1.196   2.008  17.092 -0.5707 -0.0288 -0.5140
  400TMC3    O2 5985   0.839   1.914  16.653 -0.5127  0.1415 -0.2966
  401MPD2     C 5986   3.200   0.525   0.451  0.2153  0.8547  0.3018
  401MPD2    C1 5987   3.325   0.479   0.500  0.1215  0.0179  0.3443
  401MPD2    C2 5988   3.353   0.344   0.496  0.0214 -0.4016  1.0166
  401MPD2    C3 5989   3.262   0.249   0.455  0.0530 -1.2363  0.2738
  401MPD2    C4 5990   3.140   0.289   0.410  0.0826  0.3147 -0.0222
  401MPD2    C5 5991   3.114   0.427   0.397 -0.1196  0.0367 -0.4623
  401MPD2     H 5992   3.452   0.312   0.527  0.2670 -0.1110  0.5402
  401MPD2    H1 5993   3.062   0.221   0.377  0.7766  0.6401 -2.3392
  401MPD2    H2 5994   3.170   0.628   0.437 -0.2311  0.6339 -0.3846
  401MPD2    H3 5995   3.020   0.459   0.355 -0.4969 -0.5163 -0.0389
  401MPD2     N 5996   3.304   0.119   0.483 -0.1583 -0.4524 -0.2845
  401MPD2    H5 5997   3.403   0.101   0.493  0.0935  1.1666  0.2254
  401MPD2    N1 5998   3.431   0.560   0.546  0.3386 -0.0177  0.5097
  401MPD2    H7 5999   3.519   0.513   0.566  0.3409 -0.4609 -0.5419
  402TMC3    C1 6000   3.298   4.610   0.533  0.5293 -0.2690  0.0805
  402TMC3    C2 6001   3.236   4.516   0.613 -0.9594  1.2272 -0.0911
  402TMC3    C3 6002   3.320   4.423   0.652 -0.5190  0.2162 -0.7074
  402TMC3    C4 6003   3.429   4.603   0.482  0.4634 -0.1443 -0.3637
  402TMC3    C5 6004   3.500   4.490   0.520  0.4888 -0.0326 -0.3468
  402TMC3    C6 6005   3.447   4.401   0.604  0.1696 -0.1076  0.1256
  402TMC3     C 6006   3.224   0.004   0.501 -0.5969  0.4958  0.1886
  402TMC3     O 6007   3.103   0.001   0.505  0.0562  0.3786  0.2695
  402TMC3     H 6008   3.146   4.535   0.669 -1.5187 -0.1988 -0.5133
  402TMC3    H1 6009   3.470   4.665   0.403 -2.8094  0.3957 -1.6256
  402TMC3    H2 6010   3.500   4.309   0.624  0.4018  0.0170  0.0818
  402TMC3    C7 6011   3.619   4.446   0.451  0.0867 -0.3033  0.2733
  402TMC3    C8 6012   3.302   4.355   0.779 -0.4489  0.0919 -0.2696
  402TMC3    O1 6013   3.631   4.323   0.450  0.3048 -0.2466  1.1858
  402TMC3    O2 6014   3.406   4.337   0.846  0.2094  0.0465 -0.2846
  403MPD2     C 6015   2.167   4.243  13.306  0.5874 -0.3016 -0.2328
  403MPD2    C1 6016   2.250   4.136  13.341  0.4793 -0.6546 -0.3312
  403MPD2    C2 6017   2.329   4.152  13.460 -0.1440  0.2982  0.3069
  403MPD2    C3 6018   2.306   4.248  13.551 -0.2954  0.4946  0.7233
  403MPD2    C4 6019   2.213   4.345  13.520 -0.2791  0.1924  0.5514
  403MPD2    C5 6020   2.144   4.332  13.401  0.5482 -0.0342  0.0038
  403MPD2     H 6021   2.389   4.068  13.493  1.5958  1.3406 -0.2131
  403MPD2    H1 6022   2.199   4.432  13.583 -0.7298  1.0569 -0.7518
  403MPD2    H2 6023   2.131   4.251  13.204 -0.1862  0.4237  0.0959
  403MPD2    H3 6024   2.075   4.410  13.372  0.2179 -0.1786  0.4129
  403MPD2     N 6025   2.373   4.240  13.674  0.2936  0.2735 -0.3471
  403MPD2    H5 6026   2.424   4.154  13.690  1.2396  0.8332 -0.3386
  403MPD2    N1 6027   2.251   4.024  13.257 -0.2074  0.7011 -0.4682
  403MPD2    H7 6028   2.204   4.035  13.168 -0.9986  0.5956 -0.0584
  404TMC3    C1 6029   2.254   3.794  13.197 -0.1790 -0.2199  1.2527
  404TMC3    C2 6030   2.198   3.680  13.249 -0.3301  0.1624  0.2186
  404TMC3    C3 6031   2.161   3.584  13.154  0.7285 -0.0637  0.0131
  404TMC3    C4 6032   2.276   3.814  13.066  0.1007  0.2192  0.2501
  404TMC3    C5 6033   2.255   3.710  12.982  0.6790 -0.3703 -0.1229
  404TMC3    C6 6034   2.190   3.596  13.021 -0.6057  0.0051  0.3506
  404TMC3     C 6035   2.279   3.897  13.299  0.0664  0.6872  0.7940
  404TMC3     O 6036   2.301   3.860  13.414 -0.2140  0.5907  0.1352
  404TMC3     H 6037   2.176   3.679  13.355  0.1012  0.5905  0.3108
  404TMC3    H1 6038   2.332   3.902  13.040  0.2262  0.4854  1.4194
  404TMC3    H2 6039   2.160   3.519  12.950 -1.4732  1.0300 -0.3934
  404TMC3    C7 6040   2.279   3.740  12.845 -0.0361 -0.7431 -0.1837
  404TMC3    C8 6041   2.123   3.455  13.203 -0.5222 -0.0430 -0.6783
  404TMC3    O1 6042   2.310   3.855  12.824 -0.4721 -0.5357  0.6583
  404TMC3    O2 6043   2.111   3.368  13.119 -0.0543 -0.0097 -0.5725
  405MPD2     C 6044   2.560   4.526  14.685  0.0217  0.7096  0.2000
  405MPD2    C1 6045   2.502   4.458  14.580  0.5447 -0.5547 -0.5401
  405MPD2    C2 6046   2.389   4.509  14.523 -0.7165  0.0564 -0.1362
  405MPD2    C3 6047   2.333   4.620  14.582 -0.2690  0.1708  0.3267
  405MPD2    C4 6048   2.397   4.692  14.684  0.5087 -0.1198  0.0231
  405MPD2    C5 6049   2.507   4.638  14.736  0.3164 -0.2545 -0.0776
  405MPD2     H 6050   2.334   4.471  14.437  0.8450 -2.4733 -0.0078
  405MPD2    H1 6051   2.370   0.062  14.733 -0.7860  0.1306 -1.2000
  405MPD2    H2 6052   2.658   4.497  14.722 -0.8529 -0.7720  1.3299
  405MPD2    H3 6053   2.555   4.709  14.802  1.0689 -0.6910 -0.1588
  405MPD2     N 6054   2.206   4.646  14.536  0.2448  0.3802 -0.4209
  405MPD2    H5 6055   2.177   4.591  14.456  3.4915  0.3929 -1.5873
  405MPD2    N1 6056   2.554   4.330  14.549 -0.1860  0.1504 -0.0095
  405MPD2    H7 6057   2.638   4.308  14.602 -0.3974 -2.3590 -0.7031
  406TMC3    C1 6058   1.752   0.022  14.590  0.0554 -0.0412  0.3205
  406TMC3    C2 6059   1.719   4.627  14.525  0.4627 -0.2815  0.4027
  406TMC3    C3 6060   1.816   4.551  14.466 -0.2984  0.3395  0.3622
  406TMC3    C4 6061   1.876   0.066  14.586  0.6428  0.5005 -0.3303
  406TMC3    C5 6062   1.978   4.706  14.532 -0.5873  0.1006 -0.1295
  406TMC3    C6 6063   1.945   4.595  14.465 -0.0151  0.3714 -0.0579
  406TMC3     C 6064   1.646   0.104  14.623 -0.0989  0.2850  0.2324
  406TMC3     O 6065   1.671   0.221  14.640  0.3400  0.1051  0.1198
  406TMC3     H 6066   1.618   4.587  14.521 -0.1948  1.3297  0.7205
  406TMC3    H1 6067   1.895   0.157  14.641  0.0194 -0.1935  1.0555
  406TMC3    H2 6068   2.019   4.539  14.409  1.0848  0.2815  1.4835
  406TMC3    C7 6069   2.111   0.009  14.587  0.0491 -0.0201 -0.5943
  406TMC3    C8 6070   1.793   4.407  14.460  0.0381  0.0756  0.2163
  406TMC3    O1 6071   2.125   0.088  14.679 -0.1011 -0.2070  0.1782
  406TMC3    O2 6072   1.706   4.362  14.535 -0.4582  0.3410 -0.8472
  407MPD2     C 6073   0.753   0.716   9.401 -0.0646 -0.1621 -0.4600
  407MPD2    C1 6074   0.853   0.760   9.489  0.1302 -0.0931 -0.0044
  407MPD2    C2 6075   0.815   0.814   9.607 -0.1328 -0.1677  0.5797
  407MPD2    C3 6076   0.680   0.843   9.636  0.4139 -0.1212  0.6073
  407MPD2    C4 6077   0.584   0.800   9.547  0.5321 -0.2330 -0.1343
  407MPD2    C5 6078   0.624   0.745   9.431  0.1822  0.0413 -0.2896
  407MPD2     H 6079   0.890   0.838   9.681 -0.3970 -2.8568  1.7234
  407MPD2    H1 6080   0.479   0.823   9.562  1.0130  0.3623  2.2120
  407MPD2    H2 6081   0.771   0.670   9.305  0.2213  1.7677 -1.3247
  407MPD2    H3 6082   0.550   0.716   9.357  0.3363 -3.9534  1.1719
  407MPD2     N 6083   0.633   0.896   9.758 -0.3928  0.3531  0.8227
  407MPD2    H5 6084   0.533   0.902   9.772 -0.1124  2.4321  1.9784
  407MPD2    N1 6085   0.990   0.744   9.465 -0.0342  0.4019  0.7735
  407MPD2    H7 6086   1.059   0.780   9.531  0.8220 -1.4678  0.9113
  408TMC3    C1 6087   1.170   0.694   9.329 -0.1436 -0.6429 -0.2753
  408TMC3    C2 6088   1.240   0.600   9.257  0.1417 -0.7334  0.5036
  408TMC3    C3 6089   1.360   0.644   9.213 -0.4017  0.0986 -0.4308
  408TMC3    C4 6090   1.211   0.831   9.332  0.1686 -0.6557 -0.1610
  408TMC3    C5 6091   1.332   0.867   9.287 -0.1261 -0.7530 -0.0317
  408TMC3    C6 6092   1.414   0.772   9.221  0.3057 -0.3562 -0.3065
  408TMC3     C 6093   1.038   0.655   9.371 -0.4799  0.5101 -0.2153
  408TMC3     O 6094   0.980   0.562   9.322  0.3280  0.6226  0.1175
  408TMC3     H 6095   1.218   0.494   9.261  0.3591 -0.8192 -0.5553
  408TMC3    H1 6096   1.143   0.900   9.382 -0.4733 -0.5876 -1.1433
  408TMC3    H2 6097   1.511   0.798   9.181  0.5432  1.3005  1.3071
  408TMC3    C7 6098   1.374   1.003   9.269 -0.1979  0.3251 -0.3324
  408TMC3    C8 6099   1.453   0.542   9.163 -0.5471 -0.0900  0.1026
  408TMC3    O1 6100   1.495   1.027   9.263 -0.2691 -0.2333 -0.0933
  408TMC3    O2 6101   1.410   0.434   9.123 -0.5848  0.4973 -0.1457
  409MPD2     C 6102   4.454   1.329  16.690 -0.2385 -0.1467  0.2302
  409MPD2    C1 6103   4.523   1.380  16.802 -0.3121  0.2003  0.2265
  409MPD2    C2 6104   4.611   1.485  16.780  0.5673  0.2190  0.2276
  409MPD2    C3 6105   4.636   1.537  16.654  0.1008  0.1718  0.0652
  409MPD2    C4 6106   4.565   1.486  16.552  0.2717  0.5242  0.4572
  409MPD2    C5 6107   4.477   1.381  16.562 -0.1597  0.3011  0.4345
  409MPD2     H 6108   4.673   1.520  16.862 -1.3261 -0.5191  1.9992
  409MPD2    H1 6109   4.589   1.527  16.455  2.4785 -0.0729  0.7616
  409MPD2    H2 6110   4.378   1.252  16.693 -1.3487  0.9177 -0.5246
  409MPD2    H3 6111   4.429   1.345  16.472 -0.7114  2.3308 -0.0742
  409MPD2     N 6112   4.714   1.653  16.632  0.0126 -0.1221  0.1725
  409MPD2    H5 6113   4.692   1.700  16.545 -0.8092 -0.1599  0.3602
  409MPD2    N1 6114   4.520   1.324  16.932 -0.1775  0.4309 -0.0949
  409MPD2    H7 6115   4.568   1.373  17.008  0.7236  0.7643 -0.8789
  410TMC3    C1 6116   0.139   1.834  16.698  0.1628 -0.0684  0.0017
  410TMC3    C2 6117   0.221   1.891  16.792  0.0445 -0.1600 -0.4823
  410TMC3    C3 6118   0.293   2.004  16.751 -0.5949  0.0426  1.0588
  410TMC3    C4 6119   0.130   1.887  16.569 -0.1157  0.1364  0.3237
  410TMC3    C5 6120   0.203   1.998  16.538  0.5808  0.0877 -0.4881
  410TMC3    C6 6121   0.281   2.057  16.629 -0.6798 -0.0386 -0.1128
  410TMC3     C 6122   0.077   1.707  16.725 -0.3226  0.0835 -0.3725
  410TMC3     O 6123   0.119   1.663  16.829 -0.3557 -0.0889 -0.2115
  410TMC3     H 6124   0.239   1.839  16.885 -1.1929  1.4599  0.6644
  410TMC3    H1 6125   0.058   1.845  16.500 -0.7488  2.2748 -0.3177
  410TMC3    H2 6126   0.351   2.139  16.617  1.5176 -2.0928 -1.5774
  410TMC3    C7 6127   0.171   2.079  16.416  0.0955 -0.2216 -0.1612
  410TMC3    C8 6128   0.419   2.015  16.817 -0.4651 -0.2177  0.1077
  410TMC3    O1 6129   0.089   2.017  16.349 -0.0599 -0.1567 -0.4707
  410TMC3    O2 6130   0.477   2.124  16.816  0.2602 -0.3635 -0.4752
  411MPD2     C 6131   0.385   2.471  14.658  0.8777 -0.4389 -0.2496
  411MPD2    C1 6132   0.261   2.479  14.597  0.4764 -0.3023 -0.3000
  411MPD2    C2 6133   0.186   2.365  14.582 -0.6347  0.5022  0.1827
  411MPD2    C3 6134   0.234   2.246  14.636  0.0278 -0.6256  0.2674
  411MPD2    C4 6135   0.353   2.239  14.703 -0.1678 -0.1314  0.6040
  411MPD2    C5 6136   0.426   2.354  14.712 -0.4702  0.6337  0.2423
  411MPD2     H 6137   0.093   2.370  14.526 -0.5224  1.8204  0.0956
  411MPD2    H1 6138   0.390   2.146  14.746 -0.1378 -0.7431 -0.7335
  411MPD2    H2 6139   0.459   2.547  14.681  1.8705 -0.6608 -2.7607
  411MPD2    H3 6140   0.524   2.358  14.759 -1.4802  2.7775  2.1754
  411MPD2     N 6141   0.159   2.128  14.617  0.7340 -0.3391 -0.0893
  411MPD2    H5 6142   0.202   2.047  14.660  1.1088  0.8800  1.8765
  411MPD2    N1 6143   0.228   2.600  14.540 -0.2462 -0.1464  0.3098
  411MPD2    H7 6144   0.307   2.662  14.525 -0.3252 -0.4826 -1.5211
  412TMC3    C1 6145   4.717   1.986  14.535 -0.5364  0.1292 -0.4172
  412TMC3    C2 6146   4.586   1.972  14.501 -0.9798  0.2963  0.6080
  412TMC3    C3 6147   4.556   1.895  14.386  0.6852 -0.3266  0.3342
  412TMC3    C4 6148   0.088   1.917  14.466 -0.2358 -0.2641  0.8410
  412TMC3    C5 6149   0.060   1.846  14.349 -0.5143 -0.3874  0.4489
  412TMC3    C6 6150   4.654   1.829  14.313  0.7139  0.1150 -0.5003
  412TMC3     C 6151   0.028   2.120  14.571 -0.4232  0.3743 -0.1306
  412TMC3     O 6152   4.676   2.210  14.538  0.1518 -0.4596 -0.6073
  412TMC3     H 6153   4.515   2.042  14.543 -1.4951 -1.6222  2.9937
  412TMC3    H1 6154   0.190   1.946  14.484 -0.4361  2.9770 -3.4052
  412TMC3    H2 6155   4.642   1.780  14.217  1.5553 -3.6597  1.3190
  412TMC3    C7 6156   0.136   1.902  14.248  1.0870 -1.0892  0.2660
  412TMC3    C8 6157   4.471   1.964  14.294 -0.1613 -0.7832 -0.5540
  412TMC3    O1 6158   0.256   1.872  14.252  0.8169 -0.0203  0.7498
  412TMC3    O2 6159   4.480   2.087  14.284 -0.2148  0.7494 -0.3262
  413MPD2     C 6160   2.049   1.440  15.244  0.2756  0.6820  0.0665
  413MPD2    C1 6161   1.945   1.367  15.187 -0.7176 -0.0784 -0.4583
  413MPD2    C2 6162   1.949   1.224  15.167  0.3313  0.3672  1.3503
  413MPD2    C3 6163   2.062   1.164  15.204 -0.1249  0.7194  0.1373
  413MPD2    C4 6164   2.170   1.233  15.257 -0.8289 -0.1374 -0.2733
  413MPD2    C5 6165   2.167   1.373  15.265  0.6183  0.0303  0.4433
  413MPD2     H 6166   1.858   1.171  15.139  0.9457  1.5215 -2.7325
  413MPD2    H1 6167   2.256   1.175  15.288  1.4568  3.3949  0.0778
  413MPD2    H2 6168   2.041   1.548  15.255  1.1661  0.6013  1.4914
  413MPD2    H3 6169   2.262   1.414  15.299 -0.3249 -0.0047  3.1158
  413MPD2     N 6170   2.070   1.026  15.184 -0.1775 -0.8346 -0.0927
  413MPD2    H5 6171   1.981   0.989  15.152 -0.1202  1.8034 -3.2391
  413MPD2    N1 6172   1.832   1.435  15.154  0.0193 -0.0171  0.3658
  413MPD2    H7 6173   1.820   1.526  15.196  0.3367 -0.4910  1.4937
  414TMC3    C1 6174   2.139   0.806  15.161  0.1436 -0.5395 -0.8858
  414TMC3    C2 6175   2.215   0.709  15.215  1.3566 -0.5986 -0.6877
  414TMC3    C3 6176   2.188   0.579  15.182  0.5989  0.0826  0.0482
  414TMC3    C4 6177   2.045   0.787  15.063 -0.7741  0.3582  0.7911
  414TMC3    C5 6178   2.033   0.658  15.029  0.1204 -0.6038 -0.6749
  414TMC3    C6 6179   2.101   0.552  15.084  0.1355 -0.5371  0.5420
  414TMC3     C 6180   2.176   0.941  15.198  0.0297 -0.8785  0.2044
  414TMC3     O 6181   2.287   0.961  15.240  0.2879 -0.3712 -0.3794
  414TMC3     H 6182   2.283   0.745  15.292  0.3336  1.3660 -0.7174
  414TMC3    H1 6183   1.998   0.867  15.008  0.0291  0.9420  0.9583
  414TMC3    H2 6184   2.090   0.452  15.042  0.7966 -0.6396  0.6016
  414TMC3    C7 6185   1.939   0.628  14.920 -0.5033 -0.7051  0.5127
  414TMC3    C8 6186   2.271   0.468  15.219  0.0355  0.2042 -0.7122
  414TMC3    O1 6187   1.827   0.671  14.941 -0.3786 -0.6387  0.2343
  414TMC3    O2 6188   2.225   0.359  15.197  0.1630  0.0505 -0.3492
  415TMC3    C1 6189   2.492   3.016   9.890 -0.9478  0.1094 -0.6786
  415TMC3    C2 6190   2.480   3.117   9.793 -1.1539  0.7133  0.1157
  415TMC3    C3 6191   2.368   3.123   9.717 -0.6376 -0.1281  0.0566
  415TMC3    C4 6192   2.381   2.937   9.919  0.0546 -0.8694 -0.4628
  415TMC3    C5 6193   2.264   2.954   9.846  0.1650  0.2269 -0.3327
  415TMC3    C6 6194   2.253   3.052   9.753  0.2577  0.8398  0.5625
  415TMC3     C 6195   2.601   3.007   9.991  0.2954 -1.2081  0.1492
  415TMC3     O 6196   2.607   2.897  10.048 -0.1793 -0.4212 -0.4322
  415TMC3     H 6197   2.570   3.173   9.774  1.2502 -2.4975  2.0862
  415TMC3    H1 6198   2.391   2.872  10.005 -1.0632 -1.5177 -0.8257
  415TMC3    H2 6199   2.160   3.067   9.701  0.0097  0.7901  0.9892
  415TMC3    C7 6200   2.160   2.854   9.854  0.3345  0.9345 -0.0793
  415TMC3    C8 6201   2.346   3.226   9.617  0.2983 -0.0932  0.3577
  415TMC3    O1 6202   2.077   2.859   9.762 -0.0794  0.2174 -0.1917
  415TMC3    O2 6203   2.243   3.220   9.549 -0.5548  0.3598  0.1894
  416MPD2     C 6204   4.441   2.816  11.809 -0.6388 -0.6503  0.5692
  416MPD2    C1 6205   4.334   2.737  11.859 -0.3846  0.1519  0.6991
  416MPD2    C2 6206   4.343   2.600  11.852  0.7899 -0.2951 -0.4928
  416MPD2    C3 6207   4.454   2.544  11.801 -0.0792 -0.1391  0.7022
  416MPD2    C4 6208   4.560   2.616  11.758  0.0831  0.1635  0.0066
  416MPD2    C5 6209   4.547   2.750  11.759  0.5578  0.1423 -0.2274
  416MPD2     H 6210   4.256   2.538  11.868  1.6029 -1.3885 -0.2936
  416MPD2    H1 6211   4.637   2.568  11.699 -0.5247 -0.1646 -0.5129
  416MPD2    H2 6212   4.441   2.924  11.806  1.9711 -0.5719  2.6529
  416MPD2    H3 6213   4.633   2.806  11.724 -0.4962  1.6661 -0.3666
  416MPD2     N 6214   4.456   2.401  11.777 -0.1791 -0.0482 -0.4507
  416MPD2    H5 6215   4.512   2.370  11.698  0.0273 -1.7555  0.3679
  416MPD2    N1 6216   4.205   2.804  11.860  0.8983  0.3517  0.2062
  416MPD2    H7 6217   4.190   2.904  11.847 -0.7060  0.0841 -0.0119
  417TMC3    C1 6218   3.966   2.826  11.818 -0.3856  0.0000 -0.7750
  417TMC3    C2 6219   3.960   2.948  11.886 -0.2406  0.3810  0.2210
  417TMC3    C3 6220   3.836   3.015  11.880 -0.0271  0.7770  0.5800
  417TMC3    C4 6221   3.864   2.778  11.744 -0.0535 -0.3444  0.1821
  417TMC3    C5 6222   3.745   2.842  11.743  0.4002 -0.2784  0.1760
  417TMC3    C6 6223   3.731   2.964  11.809 -0.0179 -0.1626  0.2740
  417TMC3     C 6224   4.083   2.738  11.832 -0.0625  0.1630  0.3756
  417TMC3     O 6225   4.073   2.624  11.791 -0.4953  0.2004 -0.4938
  417TMC3     H 6226   4.030   2.978  11.963  0.5160 -0.9591  0.0412
  417TMC3    H1 6227   3.887   2.689  11.686  1.6181  0.3330 -0.1816
  417TMC3    H2 6228   3.632   3.007  11.811 -0.4350 -1.1142 -0.0696
  417TMC3    C7 6229   3.668   2.830  11.624  0.3722 -0.0012 -0.2631
  417TMC3    C8 6230   3.825   3.119  11.976  0.4267 -0.3183  0.3069
  417TMC3    O1 6231   3.648   2.933  11.559 -0.1799 -0.2217 -0.7554
  417TMC3    O2 6232   3.885   3.103  12.082  0.4776 -0.4863  0.3541
  418TMC3    C1 6233   2.890   3.710  17.511  0.1948  0.5279  0.2315
  418TMC3    C2 6234   2.798   3.624  17.464 -0.6395  0.2406 -0.4441
  418TMC3    C3 6235   2.716   3.566  17.553  0.1797 -0.1688  0.0116
  418TMC3    C4 6236   2.914   3.736  17.646  0.1919 -0.1255 -0.0825
  418TMC3    C5 6237   2.823   3.682   0.039 -0.5134 -1.3167  0.0079
  418TMC3    C6 6238   2.719   3.598  17.686 -0.4491  0.5978  0.7656
  418TMC3     C 6239   3.002   3.739  17.421  0.0682  0.4763 -1.3249
  418TMC3     O 6240   3.047   3.852  17.408 -0.0909 -0.2000 -0.1158
  418TMC3     H 6241   2.792   3.601  17.359 -1.1542 -1.4264 -0.0361
  418TMC3    H1 6242   2.996   3.800  17.676  2.1323 -1.9446 -1.5331
  418TMC3    H2 6243   2.639   3.552   0.049  1.2972 -1.3749  1.6275
  418TMC3    C7 6244   2.860   3.652   0.172  0.4099  1.2311 -0.1982
  418TMC3    C8 6245   2.649   3.451  17.500 -0.5164 -0.4149 -0.0033
  418TMC3    O1 6246   2.785   3.578   0.234 -0.0400 -0.1181  0.0874
  418TMC3    O2 6247   2.604   3.459  17.388  0.3879  0.0241 -0.8078
  419MPD2     C 6248   1.769   1.720  12.097 -1.1448  0.4116  0.2311
  419MPD2    C1 6249   1.733   1.848  12.059 -0.9630 -0.3881 -0.1769
  419MPD2    C2 6250   1.657   1.929  12.139 -0.3216 -0.1739 -0.1778
  419MPD2    C3 6251   1.615   1.877  12.261 -0.3787  0.2222  0.0051
  419MPD2    C4 6252   1.650   1.748  12.299 -1.1735  0.6239  0.2163
  419MPD2    C5 6253   1.735   1.669  12.223 -0.1444  0.3682 -0.2556
  419MPD2     H 6254   1.633   2.028  12.100  0.4964  0.1041  0.0180
  419MPD2    H1 6255   1.628   1.710  12.398 -1.6394  0.2279 -0.0373
  419MPD2    H2 6256   1.827   1.662  12.027 -1.2486  2.8780 -1.9164
  419MPD2    H3 6257   1.764   1.567  12.244 -2.4184 -0.1682  0.2620
  419MPD2     N 6258   1.543   1.961  12.356  0.1157 -0.1910 -0.0790
  419MPD2    H5 6259   1.502   2.047  12.324  0.7719  0.0388 -0.2906
  419MPD2    N1 6260   1.771   1.921  11.943  0.0913 -0.1369  0.5462
  419MPD2    H7 6261   1.738   2.016  11.935 -1.7021 -0.7379  0.7464
  420TMC3    C1 6262   1.509   2.062  12.550 -0.8091 -0.0503 -0.7148
  420TMC3    C2 6263   1.393   2.115  12.498  0.8008  0.1714 -0.3526
  420TMC3    C3 6264   1.329   2.217  12.559 -0.6144  0.2595 -1.1659
  420TMC3    C4 6265   1.548   2.088  12.681  0.3764 -0.0189 -0.2300
  420TMC3    C5 6266   1.476   2.187  12.744  0.3009 -0.6054 -0.4599
  420TMC3    C6 6267   1.372   2.256  12.684 -0.1278 -0.7569 -0.6891
  420TMC3     C 6268   1.550   1.944  12.494 -0.1101 -0.4272  0.1370
  420TMC3     O 6269   1.608   1.856  12.556 -0.0551 -0.0371 -0.2964
  420TMC3     H 6270   1.348   2.086  12.404 -0.0405  0.9181 -0.1886
  420TMC3    H1 6271   1.636   2.050  12.733 -1.2136  0.5280  2.8623
  420TMC3    H2 6272   1.323   2.339  12.733  0.9378 -0.5962  0.1154
  420TMC3    C7 6273   1.539   2.254  12.847 -0.6217 -0.4276 -0.3496
  420TMC3    C8 6274   1.235   2.297  12.485 -0.0534 -0.4699 -0.4344
  420TMC3    O1 6275   1.463   2.311  12.924  0.4847 -0.0316 -0.0716
  420TMC3    O2 6276   1.223   2.290  12.364 -0.0597  0.6299  0.0357
  421TMC3    C1 6277   2.467   4.326  13.875  0.3750  0.7041 -0.1465
  421TMC3    C2 6278   2.452   4.411  13.982  0.7489 -0.7960  0.0996
  421TMC3    C3 6279   2.554   4.415  14.070  0.6129 -0.4431  0.4037
  421TMC3    C4 6280   2.577   4.241  13.862  0.6712  0.2155  0.3705
  421TMC3    C5 6281   2.669   4.242  13.957 -0.3627  0.1723  0.4093
  421TMC3    C6 6282   2.664   4.333  14.063 -0.2787 -0.2448  0.3366
  421TMC3     C 6283   2.377   4.343  13.767 -0.8917 -0.1577  0.0410
  421TMC3     O 6284   2.305   4.442  13.764 -0.2538 -0.2334  0.4024
  421TMC3     H 6285   2.368   4.480  13.974  0.0938 -1.7130 -0.9730
  421TMC3    H1 6286   2.585   4.164  13.786 -1.0115 -0.6952  1.1346
  421TMC3    H2 6287   2.735   4.342  14.143 -2.5337  1.1930  2.1673
  421TMC3    C7 6288   2.767   4.141  13.971 -0.8838 -0.3015 -0.9890
  421TMC3    C8 6289   2.547   4.526  14.166  0.0358 -0.2971  0.7052
  421TMC3    O1 6290   2.835   4.158  14.073  0.5290 -0.0543  0.2534
  421TMC3    O2 6291   2.442   4.580  14.203 -0.4839 -0.2278 -0.0712
  422TMC3    C1 6292   0.059   0.782  12.837 -0.3795  0.4654  0.0309
  422TMC3    C2 6293   0.013   0.885  12.916  0.6196  0.5115  0.2148
  422TMC3    C3 6294   4.622   0.874  12.981 -0.1737  0.5080 -0.1029
  422TMC3    C4 6295   4.721   0.662  12.835  0.6410 -0.2557 -0.6833
  422TMC3    C5 6296   4.611   0.651  12.910  0.7352 -0.0968 -0.0998
  422TMC3    C6 6297   4.559   0.759  12.983  0.5471 -0.1667  0.1112
  422TMC3     C 6298   0.196   0.792  12.790 -0.1865 -0.5103 -1.0364
  422TMC3     O 6299   0.230   0.906  12.750  1.2561 -0.6968 -0.4720
  422TMC3     H 6300   0.078   0.971  12.926 -1.0945  1.7537  0.4930
  422TMC3    H1 6301   0.035   0.577  12.779  0.7010  1.0876 -2.6858
  422TMC3    H2 6302   4.470   0.752  13.046 -0.0067  0.4025 -0.6166
  422TMC3    C7 6303   4.537   0.521  12.895 -0.6858  0.3443 -0.1405
  422TMC3    C8 6304   4.584   0.992  13.053 -0.1206 -0.4580 -0.1072
  422TMC3    O1 6305   4.590   0.422  12.844 -0.4409  0.3668  0.4003
  422TMC3    O2 6306   4.657   1.091  13.042  0.6169 -0.2599  0.1603
  423MPD2     C 6307   1.577   1.313   0.613 -0.3115  0.1342 -0.7844
  423MPD2    C1 6308   1.515   1.189   0.618 -0.4554  0.3983 -0.6755
  423MPD2    C2 6309   1.548   1.093   0.523 -0.0238  0.4258 -0.4172
  423MPD2    C3 6310   1.644   1.124   0.429  0.0618  0.8761 -0.0643
  423MPD2    C4 6311   1.704   1.246   0.427 -1.0232 -0.5246 -0.1500
  423MPD2    C5 6312   1.669   1.347   0.517 -0.4534  0.4850  0.1836
  423MPD2     H 6313   1.492   1.002   0.507  1.6083 -0.7874  0.7130
  423MPD2    H1 6314   1.772   1.281   0.351  1.5738 -0.4834  2.1935
  423MPD2    H2 6315   1.556   1.395   0.681  3.2796 -0.1496  0.7027
  423MPD2    H3 6316   1.720   1.442   0.514  0.1688  0.1840  0.8741
  423MPD2     N 6317   1.689   1.037   0.326  0.7415  0.0901  0.2433
  423MPD2    H5 6318   1.755   1.071   0.257 -0.2245  0.9033 -0.2847
  423MPD2    N1 6319   1.406   1.187   0.714 -0.0138  0.1694  0.3378
  423MPD2    H7 6320   1.389   1.273   0.764 -1.4656 -0.0029  0.1373
  424TMC3    C1 6321   1.237   1.109   0.849  0.6474 -0.8641 -0.6595
  424TMC3    C2 6322   1.223   1.011   0.936  0.3238 -0.1403 -0.0885
  424TMC3    C3 6323   1.149   1.032   1.050  0.4701  0.1630  0.5584
  424TMC3    C4 6324   1.183   1.238   0.867  0.3470 -0.1580 -0.3719
  424TMC3    C5 6325   1.108   1.251   0.981 -0.4702  0.1740  0.3257
  424TMC3    C6 6326   1.080   1.149   1.068  0.3970  0.7136 -0.2583
  424TMC3     C 6327   1.332   1.078   0.743  0.0911 -0.4348 -0.5675
  424TMC3     O 6328   1.346   0.966   0.695  0.3088  0.0837 -0.1496
  424TMC3     H 6329   1.282   0.920   0.926  1.1142  0.5165 -1.3862
  424TMC3    H1 6330   1.201   1.321   0.800 -1.5708  3.5892  3.7293
  424TMC3    H2 6331   1.028   1.159   1.163  1.4256  1.0769  0.2582
  424TMC3    C7 6332   1.046   1.378   0.988  0.9127 -0.5502 -0.4125
  424TMC3    C8 6333   1.149   0.934   1.161  0.3903  0.1136 -0.6393
  424TMC3    O1 6334   1.111   1.475   0.944  0.5239  0.3453 -0.0210
  424TMC3    O2 6335   1.050   0.945   1.232 -0.8777  0.0889 -0.3049
  425MPD2     C 6336   0.662   0.511  17.229 -0.2460  1.1572  0.9102
  425MPD2    C1 6337   0.658   0.385  17.277 -0.5668  0.5324 -0.1259
  425MPD2    C2 6338   0.547   0.342  17.347  0.4464 -0.5794  0.0274
  425MPD2    C3 6339   0.437   0.424  17.363  0.3772 -0.5327 -0.9790
  425MPD2    C4 6340   0.447   0.552  17.320 -0.0244 -0.1239 -0.4504
  425MPD2    C5 6341   0.558   0.597  17.250  0.1954 -0.2534  0.4353
  425MPD2     H 6342   0.546   0.238  17.376 -0.6348 -0.6024 -0.1295
  425MPD2    H1 6343   0.366   0.624  17.321  0.5815  0.5596 -1.0428
  425MPD2    H2 6344   0.745   0.549  17.170 -0.1874 -1.3059 -0.6055
  425MPD2    H3 6345   0.561   0.695  17.204 -0.4700  0.1175  1.1846
  425MPD2     N 6346   0.313   0.362  17.401  1.0855 -0.2169  0.5168
  425MPD2    H5 6347   0.325   0.261  17.406 -1.9400 -0.4881  2.4925
  425MPD2    N1 6348   0.755   0.298  17.226  0.3587  0.2763 -0.0506
  425MPD2    H7 6349   0.801   0.323  17.139 -3.6066  0.2693 -2.1415
  426TMC3    C1 6350   0.865   0.102  17.175 -0.9149  0.6655  0.4263
  426TMC3    C2 6351   0.791   0.080  17.061  0.5118  0.6086 -0.0308
  426TMC3    C3 6352   0.810   4.685  16.998 -0.2121 -0.7998 -0.2277
  426TMC3    C4 6353   0.935   0.001  17.226 -0.0571 -0.0019  0.3148
  426TMC3    C5 6354   0.937   4.601  17.171 -0.2101  0.2218 -0.1300
  426TMC3    C6 6355   0.887   4.584  17.044 -0.0911 -0.3643 -0.0693
  426TMC3     C 6356   0.790   0.175  17.269  0.0483 -0.3695  0.7121
  426TMC3     O 6357   0.750   0.106  17.363 -0.0737  0.2447 -0.6524
  426TMC3     H 6358   0.735   0.160  17.014  0.5661  2.0619  2.4027
  426TMC3    H1 6359   0.978   0.017  17.325 -1.0868  3.5427  0.1958
  426TMC3    H2 6360   0.889   4.484  17.002  0.1105  0.2290 -1.4796
  426TMC3    C7 6361   0.888   4.501  17.256  0.6426  0.3749  0.1475
  426TMC3    C8 6362   0.749   4.657  16.865 -0.3228  0.1399 -1.1960
  426TMC3    O1 6363   0.897   4.385  17.218  1.1958  0.0076 -0.0357
  426TMC3    O2 6364   0.821   4.592  16.787 -1.0521  0.0982 -0.0280
  427MPD2     C 6365   3.938   2.663  14.691  0.2361  0.4078  0.4925
  427MPD2    C1 6366   3.939   2.663  14.834  0.0516 -0.7345  0.4275
  427MPD2    C2 6367   3.816   2.673  14.900  0.1279  0.2245 -0.1542
  427MPD2    C3 6368   3.695   2.690  14.831  0.5553  0.4555 -0.0462
  427MPD2    C4 6369   3.696   2.688  14.695 -0.4068  0.2723  0.8294
  427MPD2    C5 6370   3.817   2.682  14.629 -1.3202  0.2418  0.2255
  427MPD2     H 6371   3.812   2.683  15.008  3.1933 -0.5109  0.0335
  427MPD2    H1 6372   3.603   2.710  14.645  0.8511 -0.1822 -1.7346
  427MPD2    H2 6373   4.022   2.654  14.624 -1.0172 -0.7084 -0.9102
  427MPD2    H3 6374   3.824   2.694  14.522  1.5650  2.0123  0.6063
  427MPD2     N 6375   3.581   2.739  14.896  0.1894  0.3731  0.1323
  427MPD2    H5 6376   3.501   2.753  14.835 -0.0269 -1.0369  0.0884
  427MPD2    N1 6377   4.042   2.618  14.919  0.3066  0.1819 -0.1545
  427MPD2    H7 6378   4.010   2.593  15.011  0.8381  0.7768  0.1953
  428TMC3    C1 6379   4.245   2.525  14.966 -0.1283  0.7112  0.3936
  428TMC3    C2 6380   4.198   2.399  15.013 -0.0556 -0.3170  0.2676
  428TMC3    C3 6381   4.281   2.317  15.089 -0.0296  0.1618 -0.7602
  428TMC3    C4 6382   4.373   2.568  14.988 -0.2828 -0.5378  0.6532
  428TMC3    C5 6383   4.445   2.479  15.065 -0.5470 -0.0453 -0.4696
  428TMC3    C6 6384   4.396   2.368  15.126  0.3249  0.4976 -0.2667
  428TMC3     C 6385   4.172   2.605  14.872  0.4272  0.0592 -0.6775
  428TMC3     O 6386   4.227   2.657  14.777 -0.2033  0.5478 -0.0649
  428TMC3     H 6387   4.095   2.369  14.997  0.1777 -0.9780  0.0214
  428TMC3    H1 6388   4.418   2.656  14.942 -1.6132  0.0974  0.5420
  428TMC3    H2 6389   4.469   2.309  15.181  0.9192 -0.3635 -1.9863
  428TMC3    C7 6390   4.571   2.521  15.115 -0.3606 -0.1673 -0.0529
  428TMC3    C8 6391   4.240   2.177  15.097  0.4100 -0.5401  0.4675
  428TMC3    O1 6392   4.610   2.494  15.227 -0.3130 -0.2873  0.7802
  428TMC3    O2 6393   4.148   2.139  15.028 -0.3306  0.1259  0.0063
  429MPD2     C 6394   0.247   2.423  16.903  0.1141  0.2437 -0.5160
  429MPD2    C1 6395   0.356   2.410  16.991 -0.3725  0.1345  0.0051
  429MPD2    C2 6396   0.451   2.511  16.990  0.1225 -0.8637 -0.3938
  429MPD2    C3 6397   0.450   2.610  16.895  0.0506  0.1467  0.0615
  429MPD2    C4 6398   0.337   2.619  16.808 -0.4230 -0.1913 -0.2068
  429MPD2    C5 6399   0.232   2.530  16.818 -0.9304 -0.7630 -0.0697
  429MPD2     H 6400   0.538   2.491  17.052  0.2047 -1.8117 -0.8200
  429MPD2    H1 6401   0.321   2.702  16.739  1.2526  0.0364 -0.3178
  429MPD2    H2 6402   0.166   2.352  16.911  1.3690 -1.1691 -0.2266
  429MPD2    H3 6403   0.155   2.545  16.743 -0.1786  0.4325 -0.6126
  429MPD2     N 6404   0.556   2.702  16.895 -0.1809  0.4461 -0.5308
  429MPD2    H5 6405   0.625   2.699  16.969 -0.4267  0.9788 -0.2820
  429MPD2    N1 6406   0.370   2.305  17.084 -0.1340  0.8402  0.4012
  429MPD2    H7 6407   0.457   2.300  17.135 -1.2413  1.8722  2.4087
  430TMC3    C1 6408   0.702   2.859  16.801 -0.0027 -0.7674  1.2456
  430TMC3    C2 6409   0.730   2.977  16.726 -0.0717  0.2652 -0.2967
  430TMC3    C3 6410   0.859   3.010  16.704  0.0601  0.1874 -0.0481
  430TMC3    C4 6411   0.809   2.789  16.851  0.2991 -0.4723  0.7650
  430TMC3    C5 6412   0.938   2.824  16.820 -0.0635 -0.4021 -0.2535
  430TMC3    C6 6413   0.958   2.927  16.735 -0.3378  0.2518  0.2224
  430TMC3     C 6414   0.578   2.793  16.793 -0.3079  0.5217  0.2637
  430TMC3     O 6415   0.509   2.817  16.695 -1.0642 -0.3954  0.1461
  430TMC3     H 6416   0.652   3.045  16.694  0.8906  2.6515  2.3805
  430TMC3    H1 6417   0.793   2.701  16.913 -2.6360  0.1927  0.9223
  430TMC3    H2 6418   1.059   2.954  16.705 -1.1240  1.3518 -1.4542
  430TMC3    C7 6419   1.055   2.744  16.850 -0.0325  0.4077  0.5778
  430TMC3    C8 6420   0.878   3.099  16.597 -0.1702  0.0862 -0.3419
  430TMC3    O1 6421   1.166   2.786  16.832  0.2717 -0.4377 -0.0895
  430TMC3    O2 6422   0.963   3.183  16.603 -0.0779 -0.0401  0.1546
  431MPD2     C 6423   1.977   2.608  12.307 -0.0115  0.3299  0.0376
  431MPD2    C1 6424   1.980   2.657  12.173  0.2118 -0.2182  0.1986
  431MPD2    C2 6425   1.986   2.573  12.063 -0.0360 -0.3362  0.3540
  431MPD2    C3 6426   1.998   2.437  12.088  0.6513  0.1425  0.4982
  431MPD2    C4 6427   2.005   2.386  12.214  0.2126 -0.1507  0.7997
  431MPD2    C5 6428   1.991   2.471  12.322  0.1311  0.5201 -0.1734
  431MPD2     H 6429   1.963   2.610  11.964 -0.9184 -0.6962  0.4282
  431MPD2    H1 6430   2.027   2.284  12.241  2.9756 -0.0444 -0.9916
  431MPD2    H2 6431   1.961   2.671  12.394 -0.3697  2.8105 -1.8221
  431MPD2    H3 6432   2.004   2.423  12.418 -2.9703 -0.7144 -0.3536
  431MPD2     N 6433   2.009   2.337  11.993  0.2928 -0.0783  0.1440
  431MPD2    H5 6434   2.028   2.243  12.027  1.2906 -0.4846 -1.5094
  431MPD2    N1 6435   1.988   2.791  12.144  0.6253 -0.1630 -0.0601
  431MPD2    H7 6436   2.006   2.815  12.047  0.6837 -0.0682 -0.0265
  432TMC3    C1 6437   1.988   2.226  11.792 -0.0759 -0.1852 -0.2558
  432TMC3    C2 6438   2.062   2.214  11.673 -0.3427  0.2423  0.5902
  432TMC3    C3 6439   2.073   2.088  11.627 -0.5956 -0.4937  0.4447
  432TMC3    C4 6440   1.915   2.123  11.845 -0.3066  0.0805  0.0779
  432TMC3    C5 6441   1.922   2.002  11.784 -0.3246  0.7217  0.6847
  432TMC3    C6 6442   2.006   1.981  11.674 -0.6644  0.3472  0.4418
  432TMC3     C 6443   1.994   2.353  11.860 -0.5056 -0.2463 -0.0314
  432TMC3     O 6444   1.984   2.452  11.790  0.1193  0.5339 -0.5957
  432TMC3     H 6445   2.115   2.296  11.626  1.4076 -1.0539  0.3174
  432TMC3    H1 6446   1.872   2.133  11.944 -2.7275  0.9652 -1.0863
  432TMC3    H2 6447   2.005   1.880  11.634 -0.7632  0.7647 -0.6160
  432TMC3    C7 6448   1.869   1.882  11.851 -0.0215  0.3168 -0.5314
  432TMC3    C8 6449   2.196   2.068  11.547  0.4685  0.0120 -0.3237
  432TMC3    O1 6450   1.920   1.770  11.824  0.0386  0.2552  0.2083
  432TMC3    O2 6451   2.206   1.965  11.485  0.1915  0.0074 -0.2688
  433MPD2     C 6452   0.149   1.184  10.890 -0.9215 -0.0345  0.1203
  433MPD2    C1 6453   0.282   1.149  10.900 -0.5686  0.6899 -0.2091
  433MPD2    C2 6454   0.349   1.196  11.007  0.7704  0.1956 -0.0451
  433MPD2    C3 6455   0.290   1.264  11.110  0.0694 -0.8751 -0.3052
  433MPD2    C4 6456   0.153   1.284  11.103 -0.0458  0.0702 -0.1946
  433MPD2    C5 6457   0.085   1.249  10.992 -0.1869  0.4685 -0.3665
  433MPD2     H 6458   0.454   1.173  11.001  0.6488  0.6919 -4.1789
  433MPD2    H1 6459   0.096   1.333  11.181  0.7896  1.0169 -0.1633
  433MPD2    H2 6460   0.094   1.165  10.798 -0.0406 -1.6509 -0.0813
  433MPD2    H3 6461   4.703   1.271  10.975  0.1071  0.0119 -2.8641
  433MPD2     N 6462   0.367   1.290  11.224 -0.1890  0.0691  0.2605
  433MPD2    H5 6463   0.467   1.272  11.223 -0.3494 -0.6583 -1.5374
  433MPD2    N1 6464   0.358   1.076  10.804 -0.1408 -0.0946  0.4779
  433MPD2    H7 6465   0.458   1.088  10.814 -0.0499  0.2371 -0.8412
  434TMC3    C1 6466   0.412   0.947  10.597  0.0690 -0.2109 -0.0342
  434TMC3    C2 6467   0.533   0.897  10.653 -0.0373 -0.0380  0.1630
  434TMC3    C3 6468   0.620   0.828  10.567  0.3231  0.1712 -0.0631
  434TMC3    C4 6469   0.381   0.923  10.463  0.1021  0.1205  0.2221
  434TMC3    C5 6470   0.469   0.856  10.386  0.5473 -0.0492 -0.0566
  434TMC3    C6 6471   0.592   0.815  10.430 -0.3646  0.1306  0.3369
  434TMC3     C 6472   0.313   1.023  10.680  0.8155 -0.2099  0.4816
  434TMC3     O 6473   0.203   1.042  10.630 -0.8660 -0.0162 -0.0396
  434TMC3     H 6474   0.558   0.918  10.757  0.4825 -1.0162  0.2286
  434TMC3    H1 6475   0.286   0.955  10.422  0.8268  1.9792 -0.0497
  434TMC3    H2 6476   0.661   0.758  10.368  1.3682  0.2951  2.1155
  434TMC3    C7 6477   0.422   0.814  10.249 -0.3789 -0.1541  0.4645
  434TMC3    C8 6478   0.759   0.819  10.592 -0.2370 -0.2063  0.6632
  434TMC3    O1 6479   0.318   0.865  10.209 -0.1709 -0.3792  0.0739
  434TMC3    O2 6480   0.831   0.841  10.494 -0.0498 -0.7463 -0.3356
  435MPD2     C 6481   2.319   1.653  15.454  0.6506 -0.5369  0.2593
  435MPD2    C1 6482   2.268   1.596  15.570  0.0466  0.0531  0.5294
  435MPD2    C2 6483   2.357   1.528  15.661  0.5927 -0.3746  0.7677
  435MPD2    C3 6484   2.486   1.507  15.628 -0.0028 -0.6596  0.1797
  435MPD2    C4 6485   2.532   1.555  15.510 -0.0793  0.3432  0.2433
  435MPD2    C5 6486   2.451   1.621  15.420 -0.1293  0.1087  0.0752
  435MPD2     H 6487   2.308   1.473  15.740 -0.2301  1.3927  1.4768
  435MPD2    H1 6488   2.639   1.557  15.493 -0.0565 -0.4008  0.2765
  435MPD2    H2 6489   2.262   1.708  15.380  0.8440 -0.2903  0.2977
  435MPD2    H3 6490   2.484   1.643  15.319 -1.4252 -2.6561 -0.9418
  435MPD2     N 6491   2.563   1.432  15.727 -0.0792 -0.3011  0.5214
  435MPD2    H5 6492   2.516   1.418  15.816 -0.9843  1.4822  0.3262
  435MPD2    N1 6493   2.137   1.623  15.620  0.3165 -0.0555  0.3911
  435MPD2    H7 6494   2.109   1.571  15.702 -0.7467  0.7424  0.5357
  436TMC3    C1 6495   1.760   1.590  15.792 -0.7928  0.3933 -0.5308
  436TMC3    C2 6496   1.883   1.599  15.731 -0.3431 -0.4033 -0.2269
  436TMC3    C3 6497   1.906   1.683  15.621  0.0348 -0.4464  0.0390
  436TMC3    C4 6498   1.662   1.674  15.750 -0.0750 -0.7463  0.1109
  436TMC3    C5 6499   1.684   1.750  15.632 -0.2316  0.3829 -0.1624
  436TMC3    C6 6500   1.806   1.758  15.566  0.9829 -1.1592 -0.4095
  436TMC3     C 6501   1.767   1.515  15.911 -0.5612  0.8418 -1.2666
  436TMC3     O 6502   1.862   1.443  15.935  0.0380 -0.0577  0.0219
  436TMC3     H 6503   1.967   1.567  15.791  0.6619  1.4287 -0.6689
  436TMC3    H1 6504   1.565   1.679  15.798 -0.5940  2.9993 -1.3089
  436TMC3    H2 6505   1.838   1.831  15.493  1.7300 -1.4426 -0.3742
  436TMC3    C7 6506   1.576   1.833  15.589 -1.1534  0.3598  0.9685
  436TMC3    C8 6507   2.040   1.687  15.552  0.0948  0.2893  0.6069
  436TMC3    O1 6508   1.502   1.866  15.683 -0.1229 -0.1809  0.6283
  436TMC3    O2 6509   2.050   1.758  15.453  0.1717  0.2799  0.5827
  437TMC3    C1 6510   0.691   3.789  12.249 -0.3319  0.1747 -0.1562
  437TMC3    C2 6511   0.628   3.891  12.307 -0.2007  0.7508 -0.2369
  437TMC3    C3 6512   0.671   4.017  12.278  0.3354  0.0800 -0.2452
  437TMC3    C4 6513   0.792   3.800  12.165  0.5989  0.5345 -0.8355
  437TMC3    C5 6514   0.819   3.921  12.117  0.4651  0.3272 -0.3450
  437TMC3    C6 6515   0.761   4.035  12.173  0.2604 -0.2351  0.4572
  437TMC3     C 6516   0.669   3.661  12.297  0.2525  0.4632  0.5814
  437TMC3     O 6517   0.770   3.592  12.308  0.0119 -0.5560 -0.9247
  437TMC3     H 6518   0.558   3.888  12.389  0.2233  0.1450  0.1052
  437TMC3    H1 6519   0.849   3.719  12.121  1.2229 -0.4117  1.7245
  437TMC3    H2 6520   0.784   4.135  12.140  1.3648 -0.3469  0.8877
  437TMC3    C7 6521   0.930   3.941  12.027 -0.0979 -0.2456 -0.0155
  437TMC3    C8 6522   0.600   4.130  12.323  0.1593  0.0700 -0.7343
  437TMC3    O1 6523   0.931   4.038  11.955 -0.3192  0.7304 -0.2214
  437TMC3    O2 6524   0.580   4.226  12.251  0.0486  0.5563 -0.1450
  438MPD2     C 6525   3.203   4.243  16.461  0.4668  0.3432  0.5361
  438MPD2    C1 6526   3.305   4.258  16.554 -0.2246 -0.5662  0.7153
  438MPD2    C2 6527   3.275   4.277  16.685 -0.1654  0.1750 -1.1131
  438MPD2    C3 6528   3.144   4.283  16.728  0.8073  0.0327  0.1065
  438MPD2    C4 6529   3.046   4.266  16.632 -0.9185 -0.9140 -0.6383
  438MPD2    C5 6530   3.073   4.248  16.498 -0.6536 -0.3247  0.2192
  438MPD2     H 6531   3.355   4.285  16.757 -1.4055  0.8708  0.1953
  438MPD2    H1 6532   2.944   4.275  16.668 -0.8169  0.1025 -0.6143
  438MPD2    H2 6533   3.228   4.221  16.358 -0.0128  0.7369  0.3441
  438MPD2    H3 6534   2.993   4.232  16.427 -0.5052  1.3797 -0.3536
  438MPD2     N 6535   3.101   4.309  16.857 -0.1844  0.1141  0.3715
  438MPD2    H5 6536   3.003   4.299  16.879 -0.2941 -1.4420 -0.8017
  438MPD2    N1 6537   3.443   4.248  16.517  0.3576 -0.1099  0.1205
  438MPD2    H7 6538   3.509   4.249  16.594  1.9039  1.3927 -1.2132
  439TMC3    C1 6539   3.645   4.192  16.397 -0.2896  0.2398  0.1778
  439TMC3    C2 6540   3.707   4.213  16.277 -0.5134 -0.1817  0.7010
  439TMC3    C3 6541   3.829   4.151  16.258 -1.1999  0.1691  0.1303
  439TMC3    C4 6542   3.685   4.101  16.496 -0.5267  0.5141  0.3914
  439TMC3    C5 6543   3.809   4.050  16.472  0.1816  0.8723  0.5298
  439TMC3    C6 6544   3.881   4.070  16.357  1.1725 -0.1656  0.3391
  439TMC3     C 6545   3.501   4.231  16.395 -0.4241 -0.3198 -0.2879
  439TMC3     O 6546   3.450   4.254  16.287 -0.0512 -0.2346 -0.4701
  439TMC3     H 6547   3.670   4.285  16.206  1.8409  0.3413  0.0239
  439TMC3    H1 6548   3.620   4.068  16.576  0.6991 -1.6017  0.4959
  439TMC3    H2 6549   3.973   4.017  16.337 -0.4466 -2.9530  0.3705
  439TMC3    C7 6550   3.863   3.961  16.569 -0.3183 -0.1121 -0.5942
  439TMC3    C8 6551   3.883   4.137  16.127 -0.2741 -0.6511  0.4915
  439TMC3    O1 6552   3.955   3.881  16.539 -0.2416  0.0965 -0.1169
  439TMC3    O2 6553   4.006   4.124  16.118 -0.2396 -0.2733 -0.3213
  440MPD2     C 6554   1.937   4.437  14.780 -0.8958 -0.4401 -0.6082
  440MPD2    C1 6555   1.987   4.538  14.863 -0.3376 -0.1233 -0.5622
  440MPD2    C2 6556   2.117   4.538  14.910  0.0296  1.0054  0.5027
  440MPD2    C3 6557   2.202   4.436  14.885  0.3082 -0.4770 -0.1533
  440MPD2    C4 6558   2.159   4.338  14.796 -0.0537 -0.4888  0.8005
  440MPD2    C5 6559   2.034   4.343  14.740  0.5656  0.0923 -0.1178
  440MPD2     H 6560   2.153   4.620  14.973  1.0596  0.4647  0.6209
  440MPD2    H1 6561   2.228   4.258  14.772 -0.5890 -0.4666 -0.7651
  440MPD2    H2 6562   1.836   4.421  14.744 -1.5580 -1.8188  1.9209
  440MPD2    H3 6563   2.003   4.261  14.677  1.7814  0.2132 -0.8716
  440MPD2     N 6564   2.334   4.424  14.937 -0.2846  0.5636  0.0130
  440MPD2    H5 6565   2.385   4.337  14.926  0.8588  1.1686  0.5439
  440MPD2    N1 6566   1.901   4.635  14.932 -0.0424 -0.7580 -0.8948
  440MPD2    H7 6567   1.945   4.714  14.977 -0.2313 -2.1580  1.7302
  441TMC3    C1 6568   2.516   4.483  15.083  0.0296  0.6329 -0.1785
  441TMC3    C2 6569   2.574   4.588  15.140  0.2093 -0.2558  0.1411
  441TMC3    C3 6570   2.634   4.571  15.263 -0.1688  0.6911  0.1040
  441TMC3    C4 6571   2.505   4.362  15.139 -0.1571  0.2009  0.1940
  441TMC3    C5 6572   2.567   4.347  15.263  0.8032  0.7707  0.5636
  441TMC3    C6 6573   2.642   4.450  15.323 -0.1890 -0.4198  0.3458
  441TMC3     C 6574   2.405   4.528  15.002  0.5731  0.9779  0.7704
  441TMC3     O 6575   2.367   4.635  15.041 -0.2193  0.1067  0.3589
  441TMC3     H 6576   2.600   4.673  15.079 -3.3418  0.7002 -0.0824
  441TMC3    H1 6577   2.461   4.277  15.087  2.5695  0.0507 -1.8562
  441TMC3    H2 6578   2.685   4.443  15.423  4.3415 -2.3201 -1.7702
  441TMC3    C7 6579   2.530   4.230  15.346  0.0537  0.0721  1.1613
  441TMC3    C8 6580   2.681   4.696  15.326 -0.2907  0.0717  0.1534
  441TMC3    O1 6581   2.432   4.179  15.296 -0.5912  0.6134  0.2636
  441TMC3    O2 6582   2.786   4.694  15.387 -0.0833  0.0926  0.2997
  442MPD2     C 6583   0.251   0.470  16.478 -0.0274  0.7865 -0.2299
  442MPD2    C1 6584   0.162   0.370  16.505  0.3165  0.3491 -0.7985
  442MPD2    C2 6585   0.167   0.252  16.428  0.3513 -0.0267 -0.1885
  442MPD2    C3 6586   0.275   0.235  16.338 -0.1620 -0.7984  0.3894
  442MPD2    C4 6587   0.368   0.331  16.324 -0.0683  0.3193 -0.5339
  442MPD2    C5 6588   0.360   0.448  16.398  0.1468  0.3381 -0.4713
  442MPD2     H 6589   0.100   0.168  16.439 -2.1742  1.8465 -1.1459
  442MPD2    H1 6590   0.458   0.334  16.265 -1.1105  1.1246 -2.0807
  442MPD2    H2 6591   0.259   0.564  16.532  0.3473  1.4715 -1.4768
  442MPD2    H3 6592   0.440   0.518  16.379 -2.7656  3.1563 -2.3124
  442MPD2     N 6593   0.304   0.123  16.263  0.1208 -0.3853  0.3920
  442MPD2    H5 6594   0.389   0.122  16.206 -0.4343 -3.0095 -0.4233
  442MPD2    N1 6595   0.054   0.392  16.599  0.6446  0.7722 -0.2272
  442MPD2    H7 6596   4.708   0.319  16.614  0.5522  1.5915  3.4547
  443TMC3    C1 6597   4.636   0.498  16.751  0.3202  0.0965 -0.3941
  443TMC3    C2 6598   4.590   0.623  16.788  0.7812  0.8690  0.2326
  443TMC3    C3 6599   4.469   0.627  16.845  0.8990  0.4278  0.6487
  443TMC3    C4 6600   4.582   0.378  16.795 -0.0361 -0.1305 -0.0483
  443TMC3    C5 6601   4.478   0.397  16.879  0.5982 -0.2447 -0.3900
  443TMC3    C6 6602   4.411   0.515  16.902 -0.2866  0.3509  0.3179
  443TMC3     C 6603   0.036   0.508  16.665  0.4794  0.0789 -0.3543
  443TMC3     O 6604   0.092   0.617  16.663 -0.0583 -0.0021  0.0480
  443TMC3     H 6605   4.637   0.714  16.753  2.0977  0.7521  1.6410
  443TMC3    H1 6606   4.611   0.279  16.763 -1.6206 -0.7292  0.3651
  443TMC3    H2 6607   4.313   0.525  16.947  0.1183  1.4583  0.9687
  443TMC3    C7 6608   4.436   0.288  16.962 -0.7681 -0.2293 -0.0274
  443TMC3    C8 6609   4.408   0.746  16.885  0.2209  0.4407 -0.6768
  443TMC3    O1 6610   4.485   0.177  16.933  0.8293 -0.0696  0.2110
  443TMC3    O2 6611   4.370   0.752  17.001  0.3717  0.0526 -0.2356
  444MPD2     C 6612   0.584   4.228  16.729 -0.6787 -0.8703 -0.0682
  444MPD2    C1 6613   0.522   4.108  16.726  0.6056 -0.4135  0.4852
  444MPD2    C2 6614   0.601   4.002  16.708 -0.3589  0.6158  0.1129
  444MPD2    C3 6615   0.736   4.004  16.736 -0.0414 -0.5749 -0.1833
  444MPD2    C4 6616   0.794   4.133  16.751 -0.7626  0.4948  0.3112
  444MPD2    C5 6617   0.719   4.243  16.745 -0.1515 -0.3861  0.3366
  444MPD2     H 6618   0.550   3.907  16.695 -0.8540  1.2383 -2.5248
  444MPD2    H1 6619   0.892   4.146  16.796 -0.2222  1.5151 -1.1555
  444MPD2    H2 6620   0.516   4.312  16.727  0.9348  0.4582  0.9203
  444MPD2    H3 6621   0.764   4.337  16.774 -3.3485  1.4080 -0.5503
  444MPD2     N 6622   0.816   3.886  16.757 -0.3678 -0.0777 -0.3996
  444MPD2    H5 6623   0.772   3.795  16.758 -0.8132  0.1498  2.4039
  444MPD2    N1 6624   0.380   4.099  16.725  0.4185  0.1906  0.0968
  444MPD2    H7 6625   0.351   4.002  16.722  1.0440 -0.0149  0.7147
  445TMC3    C1 6626   1.021   3.756  16.780  0.3121  0.0521  0.7879
  445TMC3    C2 6627   0.958   3.641  16.813 -0.0427 -1.0057 -0.4143
  445TMC3    C3 6628   1.031   3.527  16.819 -0.0185  0.1484  0.6001
  445TMC3    C4 6629   1.157   3.757  16.764 -0.0007 -0.2158  0.2722
  445TMC3    C5 6630   1.228   3.641  16.753  0.1927 -0.8290  0.2140
  445TMC3    C6 6631   1.165   3.521  16.793  0.3345 -0.0376  0.2998
  445TMC3     C 6632   0.953   3.883  16.753 -0.0192  0.2678 -0.1840
  445TMC3     O 6633   1.025   3.978  16.724  0.6773  0.4993  0.0979
  445TMC3     H 6634   0.854   3.643  16.845  0.4474  2.1065  0.9555
  445TMC3    H1 6635   1.207   3.853  16.756 -1.9394  0.6086 -2.0583
  445TMC3    H2 6636   1.208   3.430  16.752 -1.6098 -1.1428  0.7090
  445TMC3    C7 6637   1.369   3.657  16.737 -0.2727  0.1695  0.1335
  445TMC3    C8 6638   0.975   3.415  16.888  0.5885  0.9240  0.9411
  445TMC3    O1 6639   1.409   3.744  16.657  0.4243 -0.0245 -0.4514
  445TMC3    O2 6640   0.854   3.408  16.883  0.0253  0.6817 -0.5361
  446MPD2     C 6641   0.577   0.313  11.001  0.1007 -0.3066 -0.2546
  446MPD2    C1 6642   0.505   0.413  10.939  0.0169  0.4298 -0.4083
  446MPD2    C2 6643   0.516   0.546  10.983  0.0378 -0.6815 -0.9469
  446MPD2    C3 6644   0.613   0.584  11.069  0.4059  0.0657  0.2138
  446MPD2    C4 6645   0.686   0.484  11.134 -0.0971  0.0256  0.0989
  446MPD2    C5 6646   0.666   0.351  11.097  0.5645 -0.4050  0.1279
  446MPD2     H 6647   0.459   0.626  10.935 -1.0858 -1.0337 -0.2118
  446MPD2    H1 6648   0.762   0.498  11.209 -0.7368  0.8164  0.5997
  446MPD2    H2 6649   0.560   0.206  10.997  0.9492 -0.4011 -1.0663
  446MPD2    H3 6650   0.733   0.272  11.126 -0.6219 -1.2739  0.4943
  446MPD2     N 6651   0.633   0.724  11.095  0.5154  0.5731 -0.8762
  446MPD2    H5 6652   0.562   0.789  11.063  1.1842  2.1501  0.8819
  446MPD2    N1 6653   0.406   0.387  10.839 -0.1632  0.0070 -0.1532
  446MPD2    H7 6654   0.364   0.470  10.799 -1.9378 -1.2284 -0.8769
  447TMC3    C1 6655   0.754   0.918  11.123  0.1706  0.2054  0.2761
  447TMC3    C2 6656   0.698   0.988  11.014 -0.1015 -0.5830 -0.4484
  447TMC3    C3 6657   0.741   1.112  10.980 -0.1608  0.8035 -0.4565
  447TMC3    C4 6658   0.842   0.985  11.208 -0.2740  0.5618 -0.2507
  447TMC3    C5 6659   0.887   1.111  11.169 -0.5815  0.7713  0.2449
  447TMC3    C6 6660   0.838   1.169  11.058  0.5666 -0.1856  0.6604
  447TMC3     C 6661   0.738   0.782  11.151  0.4739  0.5957  0.0519
  447TMC3     O 6662   0.830   0.729  11.214  0.1517 -0.1868  0.6425
  447TMC3     H 6663   0.633   0.932  10.947  1.0739 -1.3751 -0.9269
  447TMC3    H1 6664   0.885   0.935  11.294  0.7905  0.7701 -0.6608
  447TMC3    H2 6665   0.875   1.265  11.025 -1.5035 -0.7425 -3.2835
  447TMC3    C7 6666   0.971   1.193  11.255  0.8724 -0.7360 -0.0365
  447TMC3    C8 6667   0.736   1.144  10.841  0.2174 -0.5027  0.2034
  447TMC3    O1 6668   1.021   1.288  11.198  0.2989 -0.2631  0.4707
  447TMC3    O2 6669   0.625   1.128  10.789  0.4672 -0.1425  0.2176
  448TMC3    C1 6670   3.487   1.062  16.982 -0.0536 -0.1799  0.1317
  448TMC3    C2 6671   3.414   0.997  16.891  0.0669  0.1508  0.0887
  448TMC3    C3 6672   3.324   0.907  16.943  0.5250  0.0928  0.4778
  448TMC3    C4 6673   3.485   1.033  17.111  0.4750 -0.6173 -0.3869
  448TMC3    C5 6674   3.402   0.940  17.160  0.5883 -0.3612 -1.1033
  448TMC3    C6 6675   3.313   0.882  17.078 -0.2037 -0.1279  0.3476
  448TMC3     C 6676   3.575   1.161  16.932 -0.4364  0.4237 -0.1884
  448TMC3     O 6677   3.627   1.132  16.826 -0.2638  0.1478 -0.1430
  448TMC3     H 6678   3.433   1.019  16.786  1.0736  0.1936  0.2861
  448TMC3    H1 6679   3.558   1.080  17.176  0.4205 -1.8500  0.5659
  448TMC3    H2 6680   3.228   0.825  17.114  1.3719 -1.7147  1.5330
  448TMC3    C7 6681   3.403   0.914  17.302  0.2086 -0.0464  0.1183
  448TMC3    C8 6682   3.283   0.796  16.864 -0.4213  0.7138  0.1196
  448TMC3    O1 6683   3.480   0.985  17.372  0.0269 -0.4792 -0.9410
  448TMC3    O2 6684   3.256   0.693  16.923  0.1098 -0.2029  0.2908
  449MPD2     C 6685   0.231   0.216  14.013  0.0970  0.2067 -0.4787
  449MPD2    C1 6686   0.178   0.112  13.934 -0.1764 -0.9460 -0.0881
  449MPD2    C2 6687   0.167   4.711  13.988 -0.7184  0.3497  0.6948
  449MPD2    C3 6688   0.185   4.682  14.119  0.2273 -0.0160 -0.3071
  449MPD2    C4 6689   0.241   0.058  14.196 -0.1918  0.0635  0.1771
  449MPD2    C5 6690   0.265   0.180  14.141  0.7719  0.4617 -0.3586
  449MPD2     H 6691   0.144   4.632  13.917  1.4728  2.8082 -2.7626
  449MPD2    H1 6692   0.268   0.042  14.300 -2.8315  3.6622  1.4190
  449MPD2    H2 6693   0.222   0.321  13.984 -1.6641  0.4347  0.8879
  449MPD2    H3 6694   0.274   0.264  14.209 -1.3610 -0.6161  1.2847
  449MPD2     N 6695   0.172   4.548  14.163  0.0021 -0.3932 -0.1590
  449MPD2    H5 6696   0.148   4.488  14.085  1.6822 -1.3208  0.0342
  449MPD2    N1 6697   0.141   0.126  13.800  0.6966  0.6198 -0.0703
  449MPD2    H7 6698   0.114   0.041  13.750  2.2030  1.0870 -1.6785
  450TMC3    C1 6699   0.090   0.214  13.590 -0.1129 -0.2431  0.2384
  450TMC3    C2 6700   0.173   0.231  13.488 -0.4194  0.5537 -0.3168
  450TMC3    C3 6701   0.177   0.134  13.385  0.0615  0.1066 -0.5264
  450TMC3    C4 6702   4.718   0.113  13.577  0.3808 -0.0962  0.6748
  450TMC3    C5 6703   4.722   0.014  13.486 -0.2880  0.0094 -0.6333
  450TMC3    C6 6704   0.098   0.025  13.387  0.9017 -0.2970  0.2896
  450TMC3     C 6705   0.143   0.243  13.716  1.4072 -0.0518 -0.0407
  450TMC3     O 6706   0.205   0.347  13.732 -0.0573 -0.0445  0.5534
  450TMC3     H 6707   0.229   0.324  13.488  2.6392 -1.2821 -2.0966
  450TMC3    H1 6708   4.659   0.093  13.666  0.6207  0.2037  0.9050
  450TMC3    H2 6709   0.119   4.668  13.317  2.5171  1.0933 -0.8207
  450TMC3    C7 6710   4.721   4.613  13.554 -0.2004 -0.6020  0.1930
  450TMC3    C8 6711   0.265   0.161  13.277  0.0196 -0.2673  0.2522
  450TMC3    O1 6712   0.107   4.580  13.603  0.4618 -0.0119  0.4878
  450TMC3    O2 6713   0.300   0.278  13.263  0.0526  0.2428  0.0462
  451MPD2     C 6714   0.494   1.866   1.512  0.1718 -0.5812  0.2610
  451MPD2    C1 6715   0.590   1.922   1.426  0.6013  0.2086  0.1137
  451MPD2    C2 6716   0.716   1.878   1.435 -0.4500  0.0816  1.0100
  451MPD2    C3 6717   0.744   1.766   1.516  0.1452  0.5306  0.4791
  451MPD2    C4 6718   0.650   1.709   1.599  0.5027  0.6355  0.4933
  451MPD2    C5 6719   0.524   1.763   1.597 -0.4836  0.1611  0.0310
  451MPD2     H 6720   0.794   1.902   1.364 -0.2598  2.0370  1.8734
  451MPD2    H1 6721   0.677   1.631   1.669  2.9699  2.3923  1.4894
  451MPD2    H2 6722   0.392   1.903   1.515  0.4596  0.1873  0.7348
  451MPD2    H3 6723   0.457   1.733   1.677 -1.9805 -0.2609 -1.3768
  451MPD2     N 6724   0.875   1.708   1.521  0.1954 -0.3178 -0.2885
  451MPD2    H5 6725   0.881   1.629   1.584  1.7301  2.8436  3.5167
  451MPD2    N1 6726   0.543   2.027   1.341 -0.1444 -0.1229 -0.2873
  451MPD2    H7 6727   0.447   2.059   1.348 -1.1056 -2.9259 -0.5474
  452TMC3    C1 6728   1.115   1.701   1.531 -0.4119 -0.4273 -0.1500
  452TMC3    C2 6729   1.108   1.599   1.625 -0.0421  0.1860 -0.3116
  452TMC3    C3 6730   1.226   1.553   1.676  0.1683  0.3748  0.5709
  452TMC3    C4 6731   1.236   1.756   1.497 -0.0363 -0.1961  0.6970
  452TMC3    C5 6732   1.353   1.709   1.558 -0.2156 -0.9833 -0.5647
  452TMC3    C6 6733   1.351   1.603   1.643 -1.0195 -0.0274  0.5036
  452TMC3     C 6734   0.994   1.763   1.474  0.3127  0.7992 -0.2091
  452TMC3     O 6735   1.009   1.855   1.397 -0.4478 -0.6528 -0.3054
  452TMC3     H 6736   1.012   1.556   1.652  0.2318 -0.0712  0.2589
  452TMC3    H1 6737   1.245   1.846   1.438  0.4860 -0.9236 -0.3390
  452TMC3    H2 6738   1.442   1.544   1.652 -0.0551  1.0847 -1.9092
  452TMC3    C7 6739   1.479   1.765   1.516  0.2426  1.1018 -0.2380
  452TMC3    C8 6740   1.211   1.446   1.775  0.2299  0.3066 -0.5130
  452TMC3    O1 6741   1.465   1.839   1.419  0.4834  0.3087 -0.0337
  452TMC3    O2 6742   1.097   1.410   1.793 -0.2012  0.6604 -0.2734
  453TMC3    C1 6743   2.791   4.625  11.611 -0.3222  0.1382 -0.1595
  453TMC3    C2 6744   2.715   4.505  11.625 -0.6432  0.5532 -0.0839
  453TMC3    C3 6745   2.661   4.448  11.512  0.2451 -0.0850 -0.4154
  453TMC3    C4 6746   2.820   4.678  11.490  0.5884 -0.1677 -0.1147
  453TMC3    C5 6747   2.774   4.616  11.377 -0.0118  0.3544 -0.5249
  453TMC3    C6 6748   2.689   4.504  11.391  0.3977  0.7645 -0.1153
  453TMC3     C 6749   2.847   4.693  11.728  0.1911 -0.4735  0.3135
  453TMC3     O 6750   2.888   0.084  11.707 -0.3921  0.8074 -0.2744
  453TMC3     H 6751   2.677   4.475  11.722  0.9938 -0.0986  0.3550
  453TMC3    H1 6752   2.871   0.051  11.484 -0.6411  0.4279 -1.1849
  453TMC3    H2 6753   2.641   4.461  11.304  1.1871 -1.7535  0.7170
  453TMC3    C7 6754   2.835   4.636  11.244  0.2675  0.1000  0.7862
  453TMC3    C8 6755   2.535   4.363  11.521  0.4905  0.8870 -0.3326
  453TMC3    O1 6756   2.799   4.549  11.168  0.1987  0.7552 -0.0365
  453TMC3    O2 6757   2.457   4.373  11.428 -1.0279  0.6875  0.4548
  454MPD2     C 6758   1.147   3.781  16.418 -0.5118 -0.8673  0.9508
  454MPD2    C1 6759   1.148   3.910  16.377 -0.0195  0.7063 -0.0195
  454MPD2    C2 6760   1.023   3.973  16.342 -0.3886 -0.2005 -0.6794
  454MPD2    C3 6761   0.907   3.899  16.351  0.1753  0.8177 -0.7533
  454MPD2    C4 6762   0.907   3.771  16.389  0.4118  0.7135  0.6425
  454MPD2    C5 6763   1.027   3.711  16.423  0.7669 -0.1602 -0.3522
  454MPD2     H 6764   1.020   4.078  16.317  0.1796 -0.2837 -1.0856
  454MPD2    H1 6765   0.812   3.719  16.390  0.5527  0.4813  1.7958
  454MPD2    H2 6766   1.238   3.729  16.447  0.8222  0.8010 -0.1582
  454MPD2    H3 6767   1.032   3.604  16.437  0.7761 -0.1666 -0.4044
  454MPD2     N 6768   0.785   3.965  16.323  0.2650 -0.1447 -0.1372
  454MPD2    H5 6769   0.706   3.905  16.300  0.2865 -1.2940  2.8033
  454MPD2    N1 6770   1.262   3.989  16.351  0.4488 -0.3421  0.3741
  454MPD2    H7 6771   1.251   4.085  16.321 -1.4529 -0.4696  0.6997
  455TMC3    C1 6772   0.639   4.146  16.270  0.4533  0.3885 -0.1693
  455TMC3    C2 6773   0.586   4.255  16.341 -0.6415  0.5228  0.1821
  455TMC3    C3 6774   0.458   4.273  16.328  0.2026  0.4266 -0.3003
  455TMC3    C4 6775   0.563   4.057  16.192 -0.0512  0.2057  0.4862
  455TMC3    C5 6776   0.428   4.074  16.200  0.1836  0.1053  0.3739
  455TMC3    C6 6777   0.370   4.183  16.263  0.2214  0.2505  0.0892
  455TMC3     C 6778   0.765   4.100  16.323  0.7346  0.1471  0.3969
  455TMC3     O 6779   0.840   4.186  16.367 -0.2581  0.0140  1.0943
  455TMC3     H 6780   0.651   4.319  16.400 -0.1355 -2.4601  2.8939
  455TMC3    H1 6781   0.611   3.977  16.137  0.0755  0.0691  0.7967
  455TMC3    H2 6782   0.265   4.209  16.271  0.2331  0.5055 -0.5385
  455TMC3    C7 6783   0.338   4.009  16.104  0.5273  0.1812 -0.1181
  455TMC3    C8 6784   0.402   4.386  16.398 -0.5053  0.2623 -0.5173
  455TMC3    O1 6785   0.218   4.018  16.132 -0.1362 -0.2160  0.1568
  455TMC3    O2 6786   0.282   4.397  16.386 -0.2370 -0.4394 -0.5398
  456MPD2     C 6787   3.457   4.497  15.835 -0.0106 -0.5622 -0.2514
  456MPD2    C1 6788   3.575   4.488  15.913 -0.6680 -0.2992 -0.1372
  456MPD2    C2 6789   3.558   4.515  16.050 -0.3064  0.4758 -1.1124
  456MPD2    C3 6790   3.433   4.552  16.100 -0.0924  0.5345  0.1918
  456MPD2    C4 6791   3.318   4.550  16.021 -0.4486 -0.8435 -0.9932
  456MPD2    C5 6792   3.331   4.517  15.888 -0.0282 -0.4694 -0.3530
  456MPD2     H 6793   3.646   4.501  16.112 -2.4641 -1.9165  1.3992
  456MPD2    H1 6794   3.220   4.584  16.053  0.2211 -0.0244  0.1609
  456MPD2    H2 6795   3.470   4.474  15.730  0.1665 -2.9032  0.2988
  456MPD2    H3 6796   3.251   4.520  15.815  1.1922 -1.1417 -1.7276
  456MPD2     N 6797   3.417   4.581  16.241  0.3860  0.2588 -0.3845
  456MPD2    H5 6798   3.493   4.559  16.304 -1.0285  0.3468  1.3556
  456MPD2    N1 6799   3.692   4.448  15.846 -0.1443 -0.2265 -0.2255
  456MPD2    H7 6800   3.680   4.440  15.745  1.3331 -0.2882 -0.3983
  457TMC3    C1 6801   3.328   4.690  16.433  0.2199 -0.3085  0.4417
  457TMC3    C2 6802   3.286   0.099  16.465 -0.2257  1.1802 -0.1607
  457TMC3    C3 6803   3.341   0.152  16.580  0.5470 -0.0039 -0.3136
  457TMC3    C4 6804   3.416   4.616  16.513  0.5251 -0.8075  0.1566
  457TMC3    C5 6805   3.450   4.673  16.628 -0.4664  0.1604  0.3701
  457TMC3    C6 6806   3.412   0.076  16.667  0.3503 -0.3176  0.0348
  457TMC3     C 6807   3.320   4.665  16.289 -0.3376  0.7452  0.1000
  457TMC3     O 6808   3.227   4.719  16.228 -0.2072 -0.0301 -0.3215
  457TMC3     H 6809   3.216   0.159  16.408 -2.3776  0.5953  1.8431
  457TMC3    H1 6810   3.429   4.511  16.491 -0.1566 -0.8346 -0.1302
  457TMC3    H2 6811   3.450   0.122  16.757 -1.3750 -0.0962  0.6369
  457TMC3    C7 6812   3.519   4.590  16.729 -0.3198  0.9224 -0.0908
  457TMC3    C8 6813   3.316   0.292  16.618 -0.5827 -0.1456 -0.2536
  457TMC3    O1 6814   3.519   4.469  16.723 -0.0339  0.0189 -0.5398
  457TMC3    O2 6815   3.343   0.325  16.733 -0.0854  0.1534 -0.3185
  458MPD2     C 6816   1.410   3.831  11.871  0.0375 -0.2522  0.2903
  458MPD2    C1 6817   1.395   3.802  12.005 -0.7292 -0.3484 -0.3014
  458MPD2    C2 6818   1.272   3.806  12.065  0.1663 -0.1996  0.2825
  458MPD2    C3 6819   1.164   3.854  11.994 -0.1693  0.0657  0.7970
  458MPD2    C4 6820   1.177   3.895  11.867 -0.1361  0.3402 -0.1899
  458MPD2    C5 6821   1.299   3.886  11.809 -0.2752 -0.4310  0.5334
  458MPD2     H 6822   1.267   3.757  12.162  1.0875  0.7004  0.7909
  458MPD2    H1 6823   1.090   3.925  11.810 -0.8363 -0.7694  0.3010
  458MPD2    H2 6824   1.507   3.828  11.822  0.5293  1.6135  1.1383
  458MPD2    H3 6825   1.305   3.917  11.705  2.8882 -0.2559  0.7725
  458MPD2     N 6826   1.041   3.862  12.063 -0.3478 -0.4729 -0.1303
  458MPD2    H5 6827   1.030   3.810  12.149 -1.8482  0.6038  0.3158
  458MPD2    N1 6828   1.516   3.769  12.071 -0.3055  1.1744 -0.0535
  458MPD2    H7 6829   1.602   3.774  12.017  0.2174  0.1288  0.6707
  459TMC3    C1 6830   1.671   3.724  12.244  0.6140 -0.6101 -0.8884
  459TMC3    C2 6831   1.754   3.818  12.196  0.0435 -0.5834  0.2358
  459TMC3    C3 6832   1.867   3.852  12.265  0.4183  0.1704  0.8349
  459TMC3    C4 6833   1.698   3.652  12.358  0.1316 -0.0095 -0.7920
  459TMC3    C5 6834   1.812   3.690  12.430 -0.6063 -0.5120  0.3914
  459TMC3    C6 6835   1.888   3.795  12.388 -1.0113  0.3794 -0.2877
  459TMC3     C 6836   1.531   3.739  12.209 -0.4087  0.0148 -0.5443
  459TMC3     O 6837   1.446   3.703  12.289  0.0131  0.5582 -0.4102
  459TMC3     H 6838   1.717   3.882  12.117 -0.4191  1.0717  1.7900
  459TMC3    H1 6839   1.614   3.595  12.395  0.2277  0.2468 -0.1736
  459TMC3    H2 6840   1.973   3.821  12.451 -0.6130 -1.6522  0.0038
  459TMC3    C7 6841   1.825   3.647  12.574  0.0989  0.2814 -0.8181
  459TMC3    C8 6842   1.950   3.966  12.232  0.4326 -0.4184 -0.0938
  459TMC3    O1 6843   1.747   3.559  12.598  0.0491 -0.0331 -0.2497
  459TMC3    O2 6844   2.019   4.011  12.325 -0.0922 -0.1639 -0.5270
  460MPD2     C 6845   1.043   1.171  10.637  0.2566 -0.5872 -0.0799
  460MPD2    C1 6846   0.913   1.164  10.661 -0.0757  0.4234  0.0244
  460MPD2    C2 6847   0.826   1.155  10.560 -0.8679 -0.2912  0.2906
  460MPD2    C3 6848   0.869   1.158  10.426 -0.0588 -0.1204 -0.4959
  460MPD2    C4 6849   1.005   1.163  10.403  0.1161  0.1076  0.5175
  460MPD2    C5 6850   1.084   1.170  10.508  0.6142 -0.6788  0.2187
  460MPD2     H 6851   0.721   1.160  10.587 -0.4260 -0.1824  2.0021
  460MPD2    H1 6852   1.053   1.180  10.308  0.7869 -0.8236  0.6931
  460MPD2    H2 6853   1.117   1.189  10.715 -2.3783  1.9036  1.8384
  460MPD2    H3 6854   1.190   1.185  10.494  0.0077  0.1706 -3.6317
  460MPD2     N 6855   0.784   1.141  10.316 -0.1834  0.3197 -0.0742
  460MPD2    H5 6856   0.830   1.105  10.233  3.4212  1.3178  1.4878
  460MPD2    N1 6857   0.869   1.154  10.796  0.6223  0.4477  0.0095
  460MPD2    H7 6858   0.948   1.152  10.860 -0.3572  0.2746  1.2059
  461TMC3    C1 6859   0.601   1.124  10.176  0.1523  0.7702 -0.2032
  461TMC3    C2 6860   0.669   1.035  10.091 -0.1067 -0.1188 -0.5546
  461TMC3    C3 6861   0.624   1.034   9.960 -0.0177 -0.2319  0.7348
  461TMC3    C4 6862   0.479   1.182  10.134 -0.0786  0.6396 -0.6640
  461TMC3    C5 6863   0.441   1.166  10.006 -0.0966  0.2742  0.1018
  461TMC3    C6 6864   0.512   1.089   9.911  0.3976 -0.3753 -0.1670
  461TMC3     C 6865   0.651   1.171  10.301 -0.0130  0.4097  0.1352
  461TMC3     O 6866   0.574   1.223  10.384 -0.1778  0.0852  0.2177
  461TMC3     H 6867   0.764   0.988  10.114 -0.8830 -2.2481 -1.6657
  461TMC3    H1 6868   0.443   1.263  10.197 -1.3724 -0.6657  0.2814
  461TMC3    H2 6869   0.497   1.094   9.803 -1.6104 -1.8900  0.0281
  461TMC3    C7 6870   0.334   1.250   9.959 -0.1558  0.0164 -0.3830
  461TMC3    C8 6871   0.701   0.955   9.864  0.4878 -0.2408  0.2709
  461TMC3    O1 6872   0.309   1.348  10.026  0.1059  0.4869  0.3619
  461TMC3    O2 6873   0.818   0.947   9.899  0.2089  0.4271 -0.2442
  462TMC3    C1 6874   0.793   1.187   0.184 -0.4977 -0.5576  0.1305
  462TMC3    C2 6875   0.806   1.048   0.198  0.0907 -0.0350 -0.1163
  462TMC3    C3 6876   0.693   0.975   0.204 -0.7606 -0.3221  0.2579
  462TMC3    C4 6877   0.670   1.248   0.178  0.1200 -0.4662 -1.0260
  462TMC3    C5 6878   0.555   1.167   0.167 -0.1021 -0.1747  0.0670
  462TMC3    C6 6879   0.572   1.036   0.192 -0.3102  0.2190  0.0893
  462TMC3     C 6880   0.920   1.265   0.184  0.3130 -0.0804  0.1303
  462TMC3     O 6881   1.018   1.213   0.146  0.2456  0.1943  0.2980
  462TMC3     H 6882   0.899   0.991   0.194 -1.5960 -2.8554  0.6284
  462TMC3    H1 6883   0.665   1.356   0.167 -0.7607 -0.6613 -2.4348
  462TMC3    H2 6884   0.491   0.969   0.167 -0.7314  0.6390  0.3314
  462TMC3    C7 6885   0.439   1.210   0.088  0.2420 -0.3803  0.4654
  462TMC3    C8 6886   0.702   0.842   0.142 -0.0749 -0.6100  0.8218
  462TMC3    O1 6887   0.352   1.128   0.063  0.2084 -0.5759  0.1013
  462TMC3    O2 6888   0.616   0.764   0.178 -0.1590  0.3875  0.1321
  463MPD2     C 6889   0.682   0.524   1.756 -0.1242 -0.2328  0.3682
  463MPD2    C1 6890   0.658   0.634   1.676  0.7423  0.0154  0.8841
  463MPD2    C2 6891   0.767   0.711   1.642  0.4750 -0.6537 -0.2981
  463MPD2    C3 6892   0.888   0.697   1.707 -0.6266 -1.3254  0.8320
  463MPD2    C4 6893   0.909   0.588   1.790  0.0083  1.2540 -0.0076
  463MPD2    C5 6894   0.803   0.507   1.807  0.0447  0.5223 -0.3935
  463MPD2     H 6895   0.759   0.789   1.567  1.3842  0.4410  0.7419
  463MPD2    H1 6896   1.000   0.578   1.848 -0.2406 -1.0475 -0.0211
  463MPD2    H2 6897   0.611   0.451   1.796 -0.0225 -1.1165 -1.0668
  463MPD2    H3 6898   0.802   0.423   1.876 -0.7750 -0.3194 -1.4309
  463MPD2     N 6899   1.006   0.772   1.683  0.2651 -0.3691 -0.0245
  463MPD2    H5 6900   1.092   0.743   1.729 -0.8218 -1.9184  1.0432
  463MPD2    N1 6901   0.531   0.671   1.622 -0.6910 -0.1695 -0.1755
  463MPD2    H7 6902   0.534   0.759   1.572 -0.6587  0.4273  0.8956
  464TMC3    C1 6903   0.307   0.662   1.565  0.2255  0.0680  0.3195
  464TMC3    C2 6904   0.316   0.768   1.476  0.1815 -0.0090  0.3754
  464TMC3    C3 6905   0.207   0.849   1.464 -0.2406  0.2107 -0.6749
  464TMC3    C4 6906   0.184   0.628   1.624 -1.0768  0.1851 -0.0570
  464TMC3    C5 6907   0.076   0.701   1.602 -0.5757 -0.6790  0.9783
  464TMC3    C6 6908   0.089   0.819   1.532  0.3452  0.3647 -0.3080
  464TMC3     C 6909   0.421   0.590   1.620  0.7956 -0.3130  0.0195
  464TMC3     O 6910   0.401   0.485   1.681  0.3847 -0.1003 -0.1250
  464TMC3     H 6911   0.402   0.778   1.411 -0.8303  2.2184 -0.6202
  464TMC3    H1 6912   0.187   0.544   1.692  0.3189 -0.5905 -1.0528
  464TMC3    H2 6913   4.720   0.870   1.507  1.5389  2.9453  0.5322
  464TMC3    C7 6914   4.673   0.663   1.662  0.0733  0.2111  0.3268
  464TMC3    C8 6915   0.207   0.935   1.347  0.0426 -0.0129 -0.4158
  464TMC3    O1 6916   4.585   0.748   1.681 -0.0139  0.0723  0.0571
  464TMC3    O2 6917   0.317   0.954   1.301  0.0913 -0.4234 -0.6008
  465MPD2     C 6918   2.936   4.638  16.583  0.5802 -0.2095 -1.0906
  465MPD2    C1 6919   2.850   4.551  16.652  0.0294  0.0933 -0.3481
  465MPD2    C2 6920   2.756   4.474  16.586 -0.0590 -0.1877 -0.1351
  465MPD2    C3 6921   2.752   4.480  16.451  0.7652 -0.5259 -0.0580
  465MPD2    C4 6922   2.840   4.561  16.380  0.3286  0.1246 -0.1863
  465MPD2    C5 6923   2.935   4.638  16.448 -0.6144  0.0818  0.6325
  465MPD2     H 6924   2.670   4.434  16.637 -0.9363  1.0274 -0.6627
  465MPD2    H1 6925   2.837   4.562  16.271  2.4473 -2.7301 -0.2719
  465MPD2    H2 6926   3.012   4.701  16.628  1.9714 -1.0675 -2.2289
  465MPD2    H3 6927   3.014   4.690  16.395  0.0897 -1.9954 -0.3600
  465MPD2     N 6928   2.637   4.415  16.395 -0.1976  0.9107  0.2173
  465MPD2    H5 6929   2.575   4.366  16.459  0.4538  0.5475  0.5707
  465MPD2    N1 6930   2.854   4.540  16.793 -0.1773 -0.2144 -0.2632
  465MPD2    H7 6931   2.812   4.458  16.835 -0.1515  0.1231  0.4325
  466TMC3    C1 6932   2.290   4.236  16.302  0.0926 -0.7083 -0.1317
  466TMC3    C2 6933   2.210   4.291  16.213  0.0219 -0.0699  0.2064
  466TMC3    C3 6934   2.262   4.385  16.130 -0.4979  0.9052 -0.6384
  466TMC3    C4 6935   2.417   4.267  16.325 -0.1403 -0.1906  0.6073
  466TMC3    C5 6936   2.466   4.373  16.247 -0.0038  0.1038 -0.1580
  466TMC3    C6 6937   2.394   4.427  16.142  0.5535 -0.7772  0.1145
  466TMC3     C 6938   2.224   4.163  16.412  0.1210  0.0245 -0.1779
  466TMC3     O 6939   2.110   4.198  16.439  0.1203 -0.1859 -0.3081
  466TMC3     H 6940   2.106   4.260  16.205  0.4236 -1.0809 -1.0262
  466TMC3    H1 6941   2.472   4.215  16.402  4.0764  3.2770 -0.0836
  466TMC3    H2 6942   2.439   4.508  16.087 -1.9504  0.9764  0.6469
  466TMC3    C7 6943   2.594   4.431  16.270 -0.3641  0.0715 -0.1680
  466TMC3    C8 6944   2.170   4.480  16.079 -0.0869  0.2735 -0.0735
  466TMC3    O1 6945   2.646   4.495  16.180  0.2965 -0.1973 -0.4025
  466TMC3    O2 6946   2.175   4.498  15.957 -0.7758 -0.3900  0.2811
  467TMC3    C1 6947   3.430   3.359  14.019 -0.3684  0.5633  0.0233
  467TMC3    C2 6948   3.375   3.451  13.938 -0.2609 -0.8744 -0.7070
  467TMC3    C3 6949   3.263   3.414  13.866 -0.5481 -0.9261 -0.1970
  467TMC3    C4 6950   3.367   3.244  14.059  0.2497 -0.4408 -0.2358
  467TMC3    C5 6951   3.254   3.210  13.994  0.0745  0.3252  0.5538
  467TMC3    C6 6952   3.205   3.286  13.886 -0.0396 -0.5797  0.5390
  467TMC3     C 6953   3.566   3.385  14.051 -0.5808 -0.9763  0.1960
  467TMC3     O 6954   3.598   3.500  14.080  0.1417 -0.1441  0.2887
  467TMC3     H 6955   3.420   3.547  13.919  0.0462 -1.0304 -0.7637
  467TMC3    H1 6956   3.389   3.195  14.154 -0.6591  0.0227  0.2127
  467TMC3    H2 6957   3.127   3.249  13.821  2.7356  0.2373 -3.2955
  467TMC3    C7 6958   3.221   3.069  14.004 -0.6351  0.4270 -0.0907
  467TMC3    C8 6959   3.262   3.472  13.734 -0.6207 -0.0854  0.0985
  467TMC3    O1 6960   3.319   3.000  14.028  0.2043 -0.2388  0.1053
  467TMC3    O2 6961   3.304   3.586  13.723 -0.0158 -0.9659  0.1955
  468MPD2     C 6962   2.280   0.825  10.447 -0.0767 -0.1155  0.0309
  468MPD2    C1 6963   2.419   0.839  10.463  0.0532 -0.4591  0.4001
  468MPD2    C2 6964   2.497   0.735  10.412  0.0343  0.5656  0.0216
  468MPD2    C3 6965   2.436   0.616  10.369 -0.4525  0.0255  0.5157
  468MPD2    C4 6966   2.299   0.601  10.360 -0.1936 -0.1851  0.6232
  468MPD2    C5 6967   2.222   0.712  10.403  0.2174  0.1217  0.3691
  468MPD2     H 6968   2.606   0.735  10.412  0.0284  0.7504 -0.8459
  468MPD2    H1 6969   2.246   0.512  10.330  1.1955 -0.7963 -0.0433
  468MPD2    H2 6970   2.217   0.900  10.493  1.3485  1.0408  0.1093
  468MPD2    H3 6971   2.114   0.715  10.402  0.2492  1.1043 -0.5743
  468MPD2     N 6972   2.519   0.503  10.345  0.2360  0.2526  0.0243
  468MPD2    H5 6973   2.466   0.421  10.319  2.7051 -0.8763 -1.4813
  468MPD2    N1 6974   2.486   0.949  10.516  0.4192 -0.2203  0.3095
  468MPD2    H7 6975   2.588   0.945  10.510  0.3284 -0.5747 -1.1394
  469TMC3    C1 6976   2.505   1.136  10.647  0.8380  0.9328 -0.2680
  469TMC3    C2 6977   2.622   1.088  10.691  0.9052  0.0585  0.1459
  469TMC3    C3 6978   2.658   1.137  10.815 -0.6125 -0.1653 -0.0489
  469TMC3    C4 6979   2.439   1.245  10.705 -0.0791  0.8495 -0.4019
  469TMC3    C5 6980   2.486   1.290  10.821 -0.1464  0.4054  0.4402
  469TMC3    C6 6981   2.598   1.234  10.886 -1.1409 -0.3696 -0.0938
  469TMC3     C 6982   2.421   1.057  10.565 -0.4315  0.4214 -0.3408
  469TMC3     O 6983   2.306   1.096  10.543  0.0350  0.1403 -0.0624
  469TMC3     H 6984   2.684   1.011  10.646  0.1571 -0.5345  0.1192
  469TMC3    H1 6985   2.347   1.288  10.666 -0.1094  0.1908 -1.0562
  469TMC3    H2 6986   2.607   1.248  10.993  1.3821 -0.6913 -0.2537
  469TMC3    C7 6987   2.392   1.380  10.896  0.6457 -0.0093 -0.1668
  469TMC3    C8 6988   2.780   1.080  10.867 -0.3185  0.2456  0.3245
  469TMC3    O1 6989   2.279   1.389  10.856 -0.2424 -0.1490 -0.1974
  469TMC3    O2 6990   2.827   0.983  10.814 -0.4506  0.3033  0.6078
  470TMC3    C1 6991   3.363   1.230   0.516  0.0056 -0.4216  0.7905
  470TMC3    C2 6992   3.433   1.340   0.478  0.2172 -0.5194 -0.5506
  470TMC3    C3 6993   3.507   1.407   0.573  0.3076  0.1136  0.0173
  470TMC3    C4 6994   3.374   1.188   0.644 -0.3576  0.2177  0.7418
  470TMC3    C5 6995   3.465   1.251   0.727  0.0904  0.2369 -0.8018
  470TMC3    C6 6996   3.532   1.359   0.694 -0.2857 -0.5086  0.8328
  470TMC3     C 6997   3.255   1.185   0.430  0.2642  0.0566  0.3084
  470TMC3     O 6998   3.158   1.135   0.486 -0.6434  0.8952  0.0426
  470TMC3     H 6999   3.402   1.398   0.392 -1.7082  0.6812  0.9651
  470TMC3    H1 7000   3.328   1.095   0.676 -1.1837  0.0337 -0.9992
  470TMC3    H2 7001   3.605   1.414   0.753  2.0509  0.0750 -2.5651
  470TMC3    C7 7002   3.528   1.187   0.842 -0.2205 -0.3081  0.9549
  470TMC3    C8 7003   3.590   1.514   0.529  0.3614 -0.1922 -0.5632
  470TMC3    O1 7004   3.648   1.198   0.855 -0.7699 -0.2844  0.2658
  470TMC3    O2 7005   3.625   1.597   0.612  0.5075 -0.6012  0.3105
  471MPD2     C 7006   0.760   3.169  16.102 -0.1230 -0.2685 -0.1756
  471MPD2    C1 7007   0.723   3.044  16.147 -0.3145 -0.4552 -0.2949
  471MPD2    C2 7008   0.736   3.003  16.275  0.3524 -0.3863  0.2361
  471MPD2    C3 7009   0.802   3.085  16.358 -0.7102 -0.2159  1.8997
  471MPD2    C4 7010   0.840   3.216  16.325  0.5622  0.6033 -0.1755
  471MPD2    C5 7011   0.812   3.259  16.198 -0.2217 -0.0084  0.3659
  471MPD2     H 7012   0.691   2.915  16.319 -0.0775  0.5597  1.7039
  471MPD2    H1 7013   0.878   3.288  16.396 -0.4949  1.7903 -0.8013
  471MPD2    H2 7014   0.754   3.194  15.997 -1.8680 -0.9461 -0.2350
  471MPD2    H3 7015   0.843   3.360  16.173  2.0859 -0.6143  0.7582
  471MPD2     N 7016   0.819   3.037  16.488  0.2959 -0.5955  0.6548
  471MPD2    H5 7017   0.797   2.939  16.503 -1.2254  0.0008  2.2288
  471MPD2    N1 7018   0.662   2.948  16.065  0.1107  0.6945  0.6108
  471MPD2    H7 7019   0.664   2.857  16.111 -0.9782  0.6601  0.5895
  472TMC3    C1 7020   0.540   2.844  15.884 -0.8375  0.5778 -0.4273
  472TMC3    C2 7021   0.429   2.877  15.805 -0.4704 -0.9319  0.6916
  472TMC3    C3 7022   0.345   2.784  15.766  0.0432  0.1075 -0.6758
  472TMC3    C4 7023   0.562   2.724  15.942 -0.0395 -0.0325  0.0689
  472TMC3    C5 7024   0.469   2.630  15.911 -0.2394 -0.6628 -0.9558
  472TMC3    C6 7025   0.376   2.655  15.812  0.4165 -0.1040 -0.6083
  472TMC3     C 7026   0.603   2.963  15.941 -0.2569 -0.3983  0.0220
  472TMC3     O 7027   0.581   3.061  15.874 -0.3270 -0.1997 -0.5646
  472TMC3     H 7028   0.404   2.975  15.766  0.9952 -2.1431 -3.3212
  472TMC3    H1 7029   0.637   2.711  16.019 -0.2100  0.2214  0.2777
  472TMC3    H2 7030   0.316   2.576  15.768 -2.3858  0.4784  2.1248
  472TMC3    C7 7031   0.425   2.544  16.021  0.0167  0.0951 -0.4072
  472TMC3    C8 7032   0.212   2.804  15.812  0.0347 -0.3926  0.2128
  472TMC3    O1 7033   0.515   2.523  16.104 -0.3228  0.1315  0.0888
  472TMC3    O2 7034   0.172   2.709  15.874  0.4323  0.3196  0.0111
  473MPD2     C 7035   4.236   0.816  14.020 -0.0736 -0.1253  0.4029
  473MPD2    C1 7036   4.352   0.832  13.951 -0.6172 -0.0093 -0.0837
  473MPD2    C2 7037   4.474   0.850  14.019 -0.1969 -0.3462 -0.4006
  473MPD2    C3 7038   4.479   0.857  14.156 -0.2733  0.0976 -0.2818
  473MPD2    C4 7039   4.357   0.853  14.216  0.5600 -0.6673  0.0888
  473MPD2    C5 7040   4.239   0.826  14.158 -0.0023 -0.1413 -1.4477
  473MPD2     H 7041   4.557   0.861  13.949 -0.6731 -2.6116 -1.3263
  473MPD2    H1 7042   4.355   0.879  14.321 -0.1223  0.5020 -0.2110
  473MPD2    H2 7043   4.141   0.787  13.977 -1.4621 -0.1333  3.5122
  473MPD2    H3 7044   4.146   0.802  14.209  0.5401  0.3322 -0.2179
  473MPD2     N 7045   4.591   0.895  14.228  0.0740 -0.1837 -0.0641
  473MPD2    H5 7046   4.578   0.903  14.329 -0.3161  1.9190 -0.2868
  473MPD2    N1 7047   4.354   0.839  13.810  0.2553  0.9635 -0.0117
  473MPD2    H7 7048   4.442   0.858  13.762  0.9265 -1.1613  0.3680
  474TMC3    C1 7049   0.089   0.968  14.250 -1.1129 -0.2034  0.1958
  474TMC3    C2 7050   0.042   1.080  14.320  0.0471 -0.8711 -0.3069
  474TMC3    C3 7051   0.125   1.193  14.312 -0.3151  0.2263  0.0982
  474TMC3    C4 7052   0.212   0.983  14.184 -0.3400 -0.5297 -0.1302
  474TMC3    C5 7053   0.287   1.090  14.177 -0.1293  0.1003  0.1720
  474TMC3    C6 7054   0.241   1.202  14.243  0.2757  0.2341 -0.3179
  474TMC3     C 7055   4.714   0.890  14.173  0.1082  0.2947  0.1155
  474TMC3     O 7056   0.026   0.842  14.066 -0.0011  0.3754 -0.2781
  474TMC3     H 7057   4.674   1.082  14.378  1.0157  0.5068  1.1729
  474TMC3    H1 7058   0.242   0.901  14.119 -0.0164 -0.5213  0.0057
  474TMC3    H2 7059   0.308   1.287  14.240 -0.2458  0.7063  1.8166
  474TMC3    C7 7060   0.434   1.059  14.197 -0.4310 -0.2539 -0.5370
  474TMC3    C8 7061   0.139   1.271  14.432  0.1642  0.7240 -0.1300
  474TMC3    O1 7062   0.486   0.962  14.146  0.0694  0.3973  0.6636
  474TMC3    O2 7063   0.105   1.226  14.540  0.2179 -0.4822  0.6841
  475MPD2     C 7064   4.020   3.953  10.120 -0.1996  0.1634  0.2456
  475MPD2    C1 7065   3.968   3.846  10.057 -0.6089 -0.4353  0.0527
  475MPD2    C2 7066   3.915   3.739  10.125 -0.1866  0.1972  0.3558
  475MPD2    C3 7067   3.893   3.753  10.260  0.2415  0.3626 -1.1529
  475MPD2    C4 7068   3.929   3.867  10.326  0.5653  0.8049 -0.1723
  475MPD2    C5 7069   3.999   3.960  10.256  0.1844 -0.3825  0.3132
  475MPD2     H 7070   3.893   3.644  10.076 -0.0201  1.1986 -1.6747
  475MPD2    H1 7071   3.912   3.883  10.432 -0.8999  3.0209 -0.7275
  475MPD2    H2 7072   4.086   4.024  10.072 -0.7254  0.4915  0.0158
  475MPD2    H3 7073   4.034   4.045  10.315  0.0786 -0.1625  0.0588
  475MPD2     N 7074   3.814   3.651  10.319 -0.6952  0.6858 -0.5118
  475MPD2    H5 7075   3.780   3.587  10.248 -1.9120 -1.6802  2.2131
  475MPD2    N1 7076   3.981   3.847   9.911  0.3398 -0.1712  0.4025
  475MPD2    H7 7077   4.024   3.924   9.861 -1.7562  0.1234 -0.9240
  476TMC3    C1 7078   3.904   3.814   9.686  1.3854  0.2386 -0.6633
  476TMC3    C2 7079   3.797   3.787   9.608 -0.0512  0.1869 -0.6655
  476TMC3    C3 7080   3.796   3.847   9.478 -0.0710  0.2033 -0.1202
  476TMC3    C4 7081   4.012   3.877   9.634 -0.5956  0.5189  0.4748
  476TMC3    C5 7082   4.008   3.925   9.502 -0.4794 -0.4838 -0.7065
  476TMC3    C6 7083   3.895   3.918   9.426 -0.2711 -0.0534  0.2200
  476TMC3     C 7084   3.914   3.765   9.823  0.5561  0.6737 -0.3892
  476TMC3     O 7085   3.847   3.665   9.842 -0.1999 -0.3400 -0.1951
  476TMC3     H 7086   3.711   3.738   9.652  1.5107 -1.0564  1.0428
  476TMC3    H1 7087   4.107   3.874   9.685 -0.0460  0.8533 -0.5325
  476TMC3    H2 7088   3.890   3.949   9.322 -0.3122  0.7451  0.4636
  476TMC3    C7 7089   4.112   4.009   9.443  0.1989  0.1529 -0.4844
  476TMC3    C8 7090   3.667   3.845   9.405  0.0520  0.0361  0.4559
  476TMC3    O1 7091   4.129   4.001   9.326 -0.3986 -0.0568  0.5481
  476TMC3    O2 7092   3.636   3.935   9.330  0.0719 -0.3241  0.5147
  477MPD2     C 7093   1.676   0.225  11.469  0.0467 -0.0225  0.3836
  477MPD2    C1 7094   1.547   0.176  11.487  0.3136  0.0999 -0.3112
  477MPD2    C2 7095   1.535   0.052  11.547  0.2012  0.3422  0.2960
  477MPD2    C3 7096   1.652   4.700  11.564  0.3100 -1.1311 -0.0440
  477MPD2    C4 7097   1.783   0.027  11.534  0.1608 -0.7678  0.0251
  477MPD2    C5 7098   1.786   0.150  11.492  0.0215  0.1636  0.2985
  477MPD2     H 7099   1.437   0.007  11.556 -0.5606  1.7454 -0.9329
  477MPD2    H1 7100   1.879   4.700  11.526  0.1324 -0.8737  0.3403
  477MPD2    H2 7101   1.695   0.329  11.442  0.1544 -0.0984  0.1650
  477MPD2    H3 7102   1.879   0.196  11.462  0.7749 -1.9756 -0.6131
  477MPD2     N 7103   1.640   4.569  11.606 -0.5485  0.4243 -0.4036
  477MPD2    H5 7104   1.548   4.527  11.608 -0.3852  0.1085  0.4412
  477MPD2    N1 7105   1.440   0.249  11.428 -0.0952 -0.1202 -0.4162
  477MPD2    H7 7106   1.465   0.339  11.388 -0.5260  0.5542  0.8317
  478TMC3    C1 7107   1.216   0.321  11.384  0.1105  0.5018 -0.2274
  478TMC3    C2 7108   1.106   0.343  11.464  0.2859  0.0043 -0.3572
  478TMC3    C3 7109   1.022   0.444  11.430  0.3127  0.2156 -0.5540
  478TMC3    C4 7110   1.249   0.396  11.271  0.1533 -0.3003  0.1339
  478TMC3    C5 7111   1.174   0.504  11.252  0.2676  1.2540 -0.3374
  478TMC3    C6 7112   1.063   0.530  11.332  0.1863 -0.9822  0.3037
  478TMC3     C 7113   1.307   0.221  11.436 -0.2118  0.3591 -0.7572
  478TMC3     O 7114   1.246   0.138  11.499 -0.2842  0.5916  0.6604
  478TMC3     H 7115   1.081   0.274  11.544 -1.1546 -1.3494 -1.9568
  478TMC3    H1 7116   1.333   0.374  11.206  0.2255 -0.6575  0.3519
  478TMC3    H2 7117   1.024   0.629  11.309  0.0663 -0.5788  2.2528
  478TMC3    C7 7118   1.201   0.565  11.121  0.5940  0.7260 -0.2272
  478TMC3    C8 7119   0.949   0.499  11.537  0.0269  0.3644 -0.2148
  478TMC3    O1 7120   1.315   0.564  11.080  0.1219 -0.6861 -0.3569
  478TMC3    O2 7121   0.935   0.428  11.637 -0.4727  0.0799 -0.6014
  479MPD2     C 7122   0.116   2.646  14.897  0.9253  0.0709  0.1250
  479MPD2    C1 7123   0.059   2.603  15.015  0.2059 -0.0455 -0.0493
  479MPD2    C2 7124   0.138   2.609  15.132  0.1821  0.4087 -0.0767
  479MPD2    C3 7125   0.270   2.649  15.128  0.2612  0.6195  0.3966
  479MPD2    C4 7126   0.322   2.689  15.004  0.5437 -0.3436  0.5924
  479MPD2    C5 7127   0.245   2.686  14.889  0.5151  0.1270 -0.3315
  479MPD2     H 7128   0.097   2.573  15.225  0.8105 -0.4472 -0.1301
  479MPD2    H1 7129   0.422   2.730  15.002 -1.7239  5.1573  0.8901
  479MPD2    H2 7130   0.054   2.650  14.807  1.5993 -0.0195 -0.3435
  479MPD2    H3 7131   0.289   2.717  14.795 -1.8078 -0.8341 -1.7275
  479MPD2     N 7132   0.358   2.662  15.239 -0.4705 -0.0369 -0.4965
  479MPD2    H5 7133   0.456   2.670  15.217 -0.1132 -1.4977  0.5655
  479MPD2    N1 7134   4.648   2.562  15.010  0.6779  0.8937 -0.2574
  479MPD2    H7 7135   4.608   2.564  14.917  0.9767 -1.2266 -0.4186
  480TMC3    C1 7136   0.027   2.634  15.579  0.5647 -0.6148 -0.2503
  480TMC3    C2 7137   4.682   2.746  15.535 -0.1413 -0.1079  0.6115
  480TMC3    C3 7138   0.017   2.820  15.437 -0.0429 -0.6493  0.2029
  480TMC3    C4 7139   0.145   2.593  15.522  0.1346  0.3580  0.6478
  480TMC3    C5 7140   0.198   2.671  15.419 -0.1341 -0.3619  0.1673
  480TMC3    C6 7141   0.135   2.784  15.381 -0.7133  0.3938 -0.4318
  480TMC3     C 7142   4.690   2.545  15.674  0.7210  0.1519 -0.0616
  480TMC3     O 7143   0.029   2.447  15.703  0.1656 -0.5593  0.4683
  480TMC3     H 7144   4.583   2.777  15.567  0.2550  1.6024  0.1576
  480TMC3    H1 7145   0.208   2.517  15.567  0.0615 -0.4483 -0.6327
  480TMC3    H2 7146   0.186   2.856  15.319 -1.3669  0.1110 -1.2948
  480TMC3    C7 7147   0.332   2.638  15.372 -0.3575  0.4190  0.1216
  480TMC3    C8 7148   4.638   2.887  15.353 -0.9407 -0.0949 -0.6407
  480TMC3    O1 7149   0.412   2.609  15.461  0.0830  0.2519  0.2250
  480TMC3    O2 7150   4.534   2.923  15.407  0.5246 -0.0377 -0.4090
  481MPD2     C 7151   1.904   2.628  14.104  0.2775  0.7948  0.1710
  481MPD2    C1 7152   1.784   2.562  14.080 -0.5306 -0.2112 -0.7288
  481MPD2    C2 7153   1.713   2.523  14.194  0.1912  0.0764 -0.3489
  481MPD2    C3 7154   1.754   2.546  14.325 -0.0948  0.4496 -0.3199
  481MPD2    C4 7155   1.873   2.611  14.340  0.4726 -0.8454 -0.1159
  481MPD2    C5 7156   1.950   2.653  14.237 -0.5528  0.1767  0.0096
  481MPD2     H 7157   1.626   2.459  14.182  0.7257 -1.1667  2.3417
  481MPD2    H1 7158   1.921   2.619  14.437  0.8930  2.9053 -0.6258
  481MPD2    H2 7159   1.962   2.679  14.028  2.7363 -1.8869  0.2893
  481MPD2    H3 7160   2.038   2.715  14.247  0.9967 -1.7692 -1.6229
  481MPD2     N 7161   1.691   2.498  14.438 -0.2282 -0.0840 -0.1062
  481MPD2    H5 7162   1.733   2.519  14.528  1.3140  2.8880 -1.5575
  481MPD2    N1 7163   1.745   2.519  13.948  0.2619 -0.3916 -0.6343
  481MPD2    H7 7164   1.819   2.525  13.879  0.3059  0.6192 -0.5104
  482TMC3    C1 7165   1.631   2.384  13.785 -0.2899 -0.7370  0.1837
  482TMC3    C2 7166   1.524   2.292  13.773 -0.1446  0.4582 -0.1771
  482TMC3    C3 7167   1.498   2.238  13.655  0.0814 -0.2040 -0.2475
  482TMC3    C4 7168   1.712   2.422  13.679 -0.4590  0.0100 -0.8925
  482TMC3    C5 7169   1.692   2.348  13.562  0.0893 -0.5350  0.7737
  482TMC3    C6 7170   1.589   2.256  13.551  0.4212  0.7059 -0.6017
  482TMC3     C 7171   1.634   2.440  13.918 -0.3052 -0.6762  0.0334
  482TMC3     O 7172   1.524   2.436  13.977 -0.7558 -0.1139  0.0721
  482TMC3     H 7173   1.467   2.264  13.861 -0.3164 -0.3916 -0.5604
  482TMC3    H1 7174   1.782   2.504  13.694  0.6233 -1.1189  0.2353
  482TMC3    H2 7175   1.580   2.202  13.458 -0.8169 -0.7352  0.3623
  482TMC3    C7 7176   1.772   2.382  13.449 -0.8429 -0.0195 -0.2473
  482TMC3    C8 7177   1.409   2.125  13.651 -1.0134  0.2079 -0.5562
  482TMC3    O1 7178   1.882   2.428  13.475 -0.4647 -0.7270  0.6855
  482TMC3    O2 7179   1.442   2.029  13.580 -0.1191 -0.3956  0.2892
  483TMC3    C1 7180   3.550   0.769   0.602 -0.3108 -0.7891  0.7163
  483TMC3    C2 7181   3.571   0.899   0.552  0.1197  0.7365  0.6949
  483TMC3    C3 7182   3.677   0.975   0.597 -0.2151  0.3457 -0.1739
  483TMC3    C4 7183   3.647   0.703   0.673  0.0377 -0.3121 -0.1956
  483TMC3    C5 7184   3.756   0.773   0.703  0.3565  0.6551 -0.3852
  483TMC3    C6 7185   3.779   0.903   0.657 -0.5111 -0.0051  0.6730
  483TMC3     C 7186   3.429   0.701   0.547  0.2602  0.6137 -0.5438
  483TMC3     O 7187   3.341   0.772   0.499 -0.1572  0.7136  0.2819
  483TMC3     H 7188   3.498   0.947   0.488 -1.0547 -0.4892  1.1220
  483TMC3    H1 7189   3.644   0.598   0.697  0.0463 -0.2980 -0.1344
  483TMC3    H2 7190   3.875   0.955   0.658 -0.3218 -0.4048  2.2532
  483TMC3    C7 7191   3.857   0.696   0.781  0.0231 -0.5774  0.1215
  483TMC3    C8 7192   3.725   1.085   0.504  0.0196 -0.1631  0.1315
  483TMC3    O1 7193   3.840   0.575   0.788  0.4404 -0.6779 -0.1859
  483TMC3    O2 7194   3.696   1.076   0.387 -0.0072  0.2847 -0.3015
  484MPD2     C 7195   1.942   4.191  11.943  0.1473 -0.5856 -0.0177
  484MPD2    C1 7196   1.994   4.137  12.056 -0.0271 -0.6296  0.1840
  484MPD2    C2 7197   2.118   4.176  12.096  0.5592 -0.3238 -0.3415
  484MPD2    C3 7198   2.186   4.276  12.023  1.0037  0.8644 -0.0981
  484MPD2    C4 7199   2.129   4.340  11.916 -0.3103  0.3658 -0.2880
  484MPD2    C5 7200   2.009   4.288  11.879  0.1713 -0.1361 -0.3729
  484MPD2     H 7201   2.165   4.105  12.163 -2.0851 -0.1404  1.7120
  484MPD2    H1 7202   2.172   4.416  11.853 -0.1370 -0.1518 -0.7913
  484MPD2    H2 7203   1.842   4.170  11.906  0.5125 -0.8026 -0.8860
  484MPD2    H3 7204   1.974   4.335  11.787  1.1566 -0.4107 -0.8830
  484MPD2     N 7205   2.317   4.315  12.049 -0.2759 -0.3483  0.0465
  484MPD2    H5 7206   2.360   4.384  11.987  1.4800  0.5286  2.2578
  484MPD2    N1 7207   1.928   4.021  12.110 -0.2249  0.6986 -0.2551
  484MPD2    H7 7208   1.856   3.981  12.051 -1.5243  2.5587  0.0796
  485TMC3    C1 7209   2.534   4.291  12.154  0.5616  0.3398 -0.1666
  485TMC3    C2 7210   2.592   4.258  12.274 -0.4301 -0.2718 -0.0636
  485TMC3    C3 7211   2.728   4.229  12.268 -0.1870  0.1412  0.1810
  485TMC3    C4 7212   2.600   4.310  12.036  0.3755  0.0317  0.4769
  485TMC3    C5 7213   2.736   4.291  12.038  0.0756  1.0616 -0.5841
  485TMC3    C6 7214   2.792   4.270  12.159  0.5016 -0.2794  0.0052
  485TMC3     C 7215   2.390   4.259  12.151  0.4792 -0.1315  0.2776
  485TMC3     O 7216   2.361   4.192  12.248  0.5330 -0.1909 -0.0530
  485TMC3     H 7217   2.538   4.247  12.367 -1.4834 -0.5424 -0.7046
  485TMC3    H1 7218   2.557   4.345  11.942 -1.2911 -0.0561  1.2098
  485TMC3    H2 7219   2.900   4.279  12.167  0.4303  1.7248 -1.1858
  485TMC3    C7 7220   2.801   4.245  11.919 -0.0593  0.7964 -0.1512
  485TMC3    C8 7221   2.772   4.098  12.315 -0.0556 -0.0056 -0.4047
  485TMC3    O1 7222   2.789   4.313  11.817 -0.5398 -0.4909 -0.2327
  485TMC3    O2 7223   2.869   4.056  12.253 -0.3020  0.1297  0.2074
  486MPD2     C 7224   4.079   2.974  12.711 -0.0265  0.2109  0.4068
  486MPD2    C1 7225   4.204   3.021  12.683 -0.1443 -0.1361 -0.4528
  486MPD2    C2 7226   4.228   3.153  12.668 -0.0974 -0.1935 -0.3187
  486MPD2    C3 7227   4.127   3.244  12.679 -0.4795  0.2163 -0.2745
  486MPD2    C4 7228   4.001   3.197  12.699  0.5267 -0.7131 -0.7140
  486MPD2    C5 7229   3.976   3.067  12.718  0.0951  0.7768  0.3111
  486MPD2     H 7230   4.331   3.180  12.647  0.0853 -0.3091  0.4236
  486MPD2    H1 7231   3.911   3.256  12.695  0.1369 -1.4634 -2.7657
  486MPD2    H2 7232   4.057   2.868  12.721 -1.4122  0.5547  1.0596
  486MPD2    H3 7233   3.874   3.035  12.731 -0.5836  2.4426 -0.8648
  486MPD2     N 7234   4.160   3.376  12.645  0.0307  0.0949 -0.9189
  486MPD2    H5 7235   4.246   3.392  12.593  0.2871  2.7621  0.3187
  486MPD2    N1 7236   4.296   2.920  12.661  0.0877  0.6615  0.3438
  486MPD2    H7 7237   4.257   2.826  12.657  1.9417 -0.1737  1.9131
  487TMC3    C1 7238   4.485   2.797  12.623 -0.1228 -0.2709  0.5352
  487TMC3    C2 7239   4.407   2.712  12.550  0.0582  0.0425 -0.0254
  487TMC3    C3 7240   4.421   2.572  12.570 -0.0513  0.4199 -0.0451
  487TMC3    C4 7241   4.574   2.752  12.715 -0.1626 -1.2645  0.2682
  487TMC3    C5 7242   4.588   2.618  12.734 -0.3191  0.3074 -0.3887
  487TMC3    C6 7243   4.520   2.526  12.655 -0.7111  0.0754 -0.2582
  487TMC3     C 7244   4.433   2.925  12.648 -0.2096 -0.4448 -0.0029
  487TMC3     O 7245   4.520   3.006  12.682  0.4152 -0.0433  0.1687
  487TMC3     H 7246   4.330   2.759  12.488  0.9517 -0.7322 -1.7289
  487TMC3    H1 7247   4.640   2.818  12.771  1.3762 -1.7378 -0.9925
  487TMC3    H2 7248   4.530   2.423  12.690  0.3526  0.8837  1.8425
  487TMC3    C7 7249   4.552   2.583  12.870  0.1872  0.4199  0.4509
  487TMC3    C8 7250   4.293   2.548  12.634 -0.4914 -0.6578  0.3425
  487TMC3    O1 7251   4.563   2.469  12.903 -0.1126 -0.5242  0.3131
  487TMC3    O2 7252   4.242   2.650  12.677  0.4298  0.2317 -0.3793
  488MPD2     C 7253   4.256   4.551  16.219  0.4389  0.3285  0.3323
  488MPD2    C1 7254   4.281   4.628  16.332  0.7806  0.0127  0.6564
  488MPD2    C2 7255   4.246   4.578  16.458  0.1541  0.0328 -0.6326
  488MPD2    C3 7256   4.176   4.459  16.475 -0.2897  0.3211 -0.8078
  488MPD2    C4 7257   4.155   4.380  16.363 -0.7011 -0.0363  0.1331
  488MPD2    C5 7258   4.203   4.425  16.240  0.2437  0.6360  0.0615
  488MPD2     H 7259   4.268   4.632  16.549 -0.2412 -1.2066  0.1970
  488MPD2    H1 7260   4.103   4.285  16.365  1.4877 -1.2283 -0.9174
  488MPD2    H2 7261   4.303   4.573  16.124  0.3010 -0.4861  0.0666
  488MPD2    H3 7262   4.205   4.360  16.153  0.2033  1.9603 -0.9259
  488MPD2     N 7263   4.136   4.418  16.601  0.4042  0.3226  0.1505
  488MPD2    H5 7264   4.163   4.475  16.681 -0.4095  0.8455  0.0452
  488MPD2    N1 7265   4.366   0.020  16.327  0.4397  0.3114 -0.0910
  488MPD2    H7 7266   4.379   0.070  16.414  0.8793  0.9775 -0.5442
  489TMC3    C1 7267   4.020   4.310  16.769 -0.5688  0.0653 -0.0604
  489TMC3    C2 7268   4.014   4.435  16.827  0.0141  0.3541 -0.9643
  489TMC3    C3 7269   4.048   4.456  16.952  1.1576  0.2384  0.2540
  489TMC3    C4 7270   4.069   4.204  16.844 -0.5466  0.2068  0.1175
  489TMC3    C5 7271   4.088   4.229  16.979  0.1107  0.0443  0.0384
  489TMC3    C6 7272   4.071   4.350  17.033  0.1313 -0.0594 -0.0617
  489TMC3     C 7273   4.078   4.297  16.637 -0.0417 -0.1029 -0.4005
  489TMC3     O 7274   4.057   4.198  16.567  0.4139 -0.3732 -0.9217
  489TMC3     H 7275   3.990   4.520  16.765  2.3425 -0.5693 -3.1502
  489TMC3    H1 7276   4.085   4.107  16.799  0.0126  0.7914 -0.9424
  489TMC3    H2 7277   4.077   4.364  17.140 -0.1378  3.9232 -0.5573
  489TMC3    C7 7278   4.132   4.113  17.059 -0.2357  0.0819  0.3544
  489TMC3    C8 7279   4.107   4.587  16.976  0.2474 -0.0933  0.5371
  489TMC3    O1 7280   4.095   4.103  17.179  0.2308 -0.0901  0.1143
  489TMC3    O2 7281   4.147   4.652  16.877  0.2130  0.1853  0.0138
  490MPD2     C 7282   4.656   3.776  17.340 -0.0058  0.3084  0.3307
  490MPD2    C1 7283   0.055   3.762  17.286  0.2153  0.1230 -0.2308
  490MPD2    C2 7284   0.119   3.873  17.234  0.0009 -0.1185  0.0216
  490MPD2    C3 7285   0.053   3.997  17.229 -0.6572  0.0454  0.1852
  490MPD2    C4 7286   4.650   4.006  17.281 -0.1280  0.0215  0.1845
  490MPD2    C5 7287   4.590   3.899  17.341  1.0657  0.2906 -0.2802
  490MPD2     H 7288   0.221   3.867  17.198 -0.6681  2.1419 -2.2836
  490MPD2    H1 7289   4.595   4.099  17.272 -0.9592 -0.6128 -1.2998
  490MPD2    H2 7290   4.600   3.693  17.381 -0.9255  0.2424 -1.0809
  490MPD2    H3 7291   4.490   3.908  17.383  0.8098  0.2188 -0.8745
  490MPD2     N 7292   0.113   4.120  17.182 -0.0248 -0.4199 -0.1525
  490MPD2    H5 7293   0.073   4.210  17.209 -0.5634 -0.1262 -1.9511
  490MPD2    N1 7294   0.111   3.631  17.284 -0.1750  0.5716  0.2352
  490MPD2    H7 7295   0.063   3.554  17.329 -0.9520  0.7198 -0.3307
  491TMC3    C1 7296   0.261   3.456  17.216  0.3311 -0.5628 -0.3156
  491TMC3    C2 7297   0.216   3.384  17.322  0.2330 -0.2557 -0.2204
  491TMC3    C3 7298   0.230   3.252  17.313 -0.6074 -0.1039  0.4716
  491TMC3    C4 7299   0.317   3.400  17.106 -0.2477  0.0522 -0.3602
  491TMC3    C5 7300   0.310   3.263  17.094 -0.1692  0.0765 -0.2987
  491TMC3    C6 7301   0.269   3.190  17.199 -0.2677  0.0826  0.4830
  491TMC3     C 7302   0.223   3.601  17.212  0.6845  0.2425 -0.1866
  491TMC3     O 7303   0.292   3.669  17.140  0.6046  0.2636  0.2437
  491TMC3     H 7304   0.187   3.427  17.417 -0.2282  2.3550 -1.5345
  491TMC3    H1 7305   0.335   3.459  17.017 -1.6997  2.6005  1.0092
  491TMC3    H2 7306   0.284   3.084  17.184  1.4371  0.3620  0.0976
  491TMC3    C7 7307   0.296   3.211  16.962  0.0942  0.1451  0.6022
  491TMC3    C8 7308   0.147   3.176  17.402 -0.0848  0.2719 -0.1571
  491TMC3    O1 7309   0.199   3.144  16.937 -0.6776  0.4010 -0.0148
  491TMC3    O2 7310   0.056   3.229  17.469 -0.5707  0.4527 -0.0369
  492MPD2     C 7311   1.222   3.886  10.971  0.3419 -0.4904 -0.3481
  492MPD2    C1 7312   1.286   3.763  10.977  0.0509 -0.5234  0.7115
  492MPD2    C2 7313   1.311   3.697  11.094 -0.3872  0.2792  0.4520
  492MPD2    C3 7314   1.252   3.760  11.205 -0.6048  1.0084  0.3060
  492MPD2    C4 7315   1.188   3.887  11.204 -0.0829 -0.5842  0.3081
  492MPD2    C5 7316   1.177   3.948  11.082 -0.3046  0.0650  0.1580
  492MPD2     H 7317   1.364   3.603  11.099 -0.5139  0.1747 -0.2006
  492MPD2    H1 7318   1.140   3.936  11.288 -1.3018 -0.0345 -0.7028
  492MPD2    H2 7319   1.208   3.938  10.877  1.7825  1.7167  0.6650
  492MPD2    H3 7320   1.127   4.045  11.080  1.1219  0.8446  2.2331
  492MPD2     N 7321   1.258   3.688  11.324  0.3562 -0.1048 -0.2791
  492MPD2    H5 7322   1.298   3.595  11.326  1.3436  0.3305  0.2670
  492MPD2    N1 7323   1.338   3.713  10.852 -0.4255 -0.3042 -0.1247
  492MPD2    H7 7324   1.317   3.765  10.768 -2.1033  1.6831  1.5215
  493TMC3    C1 7325   1.389   3.555  10.700  0.4102 -0.3015 -0.6863
  493TMC3    C2 7326   1.394   3.648  10.599 -0.8117 -0.1078  1.1178
  493TMC3    C3 7327   1.295   3.647  10.504 -0.2918 -0.0067  0.0587
  493TMC3    C4 7328   1.295   3.455  10.695 -0.0049 -0.0549  0.5363
  493TMC3    C5 7329   1.191   3.463  10.602 -0.5326 -0.1219  0.4394
  493TMC3    C6 7330   1.189   3.556  10.512 -0.0080 -0.2210 -0.0103
  493TMC3     C 7331   1.412   3.598  10.836 -0.6692  0.4290  0.2995
  493TMC3     O 7332   1.464   3.525  10.922  0.0451  0.6254 -0.0613
  493TMC3     H 7333   1.471   3.724  10.602  0.1058 -1.0215  0.8629
  493TMC3    H1 7334   1.293   3.385  10.778 -1.4928  1.8526  2.0986
  493TMC3    H2 7335   1.107   3.586  10.448  0.4692  0.1966 -0.4307
  493TMC3    C7 7336   1.070   3.397  10.632  0.7218 -0.4060 -0.4101
  493TMC3    C8 7337   1.312   3.707  10.371 -0.8105 -0.3060 -0.6808
  493TMC3    O1 7338   0.970   3.437  10.575  0.4962  0.5749 -0.6759
  493TMC3    O2 7339   1.248   3.656  10.281 -0.4764  0.3114 -0.2031
  494TMC3    C1 7340   1.133   1.041   0.412  0.1110  0.5090 -0.2480
  494TMC3    C2 7341   1.131   0.914   0.448 -0.0811 -0.0958 -0.3473
  494TMC3    C3 7342   1.225   0.836   0.390  0.2799 -0.5690  0.8930
  494TMC3    C4 7343   1.223   1.096   0.321  0.6480  0.3841  0.4889
  494TMC3    C5 7344   1.288   1.007   0.247 -0.2385 -0.3124 -0.0815
  494TMC3    C6 7345   1.296   0.877   0.281 -0.2032  1.1789  0.3220
  494TMC3     C 7346   1.066   1.132   0.507  0.4729  0.5630  0.0873
  494TMC3     O 7347   0.966   1.085   0.563 -0.0448 -0.1541 -0.1775
  494TMC3     H 7348   1.080   0.883   0.539  1.3699  0.0431  0.5289
  494TMC3    H1 7349   1.206   1.194   0.277 -0.3721  0.3375  0.7781
  494TMC3    H2 7350   1.365   0.819   0.221 -0.0367  0.0849  1.5986
  494TMC3    C7 7351   1.348   1.046   0.117 -0.0325 -0.1172 -0.5577
  494TMC3    C8 7352   1.242   0.708   0.449 -0.5878  0.6334  0.4015
  494TMC3    O1 7353   1.361   0.956   0.034 -0.0019 -0.9067 -0.1125
  494TMC3    O2 7354   1.141   0.654   0.493  0.4627 -0.0898  0.2864
  495TMC3    C1 7355   0.098   2.778  14.453 -0.0088 -1.0464 -0.1636
  495TMC3    C2 7356   0.013   2.831  14.362  1.1856 -0.0123  0.0891
  495TMC3    C3 7357   4.705   2.960  14.371  0.2593 -0.4500 -0.5833
  495TMC3    C4 7358   0.140   2.847  14.560  0.8442  0.2155  0.1066
  495TMC3    C5 7359   0.088   2.971  14.583 -0.4500 -0.2764  0.1097
  495TMC3    C6 7360   0.007   3.028  14.489  0.0418  0.4345 -0.3685
  495TMC3     C 7361   0.115   2.632  14.469 -0.4102 -0.5836  0.1426
  495TMC3     O 7362   0.014   2.566  14.437 -1.0557  0.4773  0.2824
  495TMC3     H 7363   4.703   2.762  14.285  1.3693 -2.1782  1.9363
  495TMC3    H1 7364   0.191   2.801  14.644  1.1087  0.4236  0.0583
  495TMC3    H2 7365   4.688   3.125  14.513  0.6525 -0.0639  2.6849
  495TMC3    C7 7366   0.065   2.991  14.727 -0.8274  0.5317  0.3506
  495TMC3    C8 7367   4.592   3.001  14.292  0.1775 -0.1639 -0.3201
  495TMC3    O1 7368   0.162   2.979  14.799  0.1994 -0.1227 -0.4525
  495TMC3    O2 7369   4.518   2.905  14.276 -0.7015 -0.0282 -0.1550
  496MPD2     C 7370   1.799   3.299  15.385  0.0010  0.1141  0.3556
  496MPD2    C1 7371   1.858   3.214  15.472 -0.0993 -0.7374 -0.1932
  496MPD2    C2 7372   1.827   3.228  15.609 -0.7901 -0.3703  0.5984
  496MPD2    C3 7373   1.753   3.334  15.647  0.0746  0.0061 -0.2449
  496MPD2    C4 7374   1.690   3.419  15.562 -0.2346  0.1900 -0.3528
  496MPD2    C5 7375   1.717   3.406  15.427  0.2513 -0.2149 -0.3838
  496MPD2     H 7376   1.864   3.156  15.682 -1.3524 -1.1225  0.1477
  496MPD2    H1 7377   1.630   3.507  15.583 -0.2124  0.0308  0.3501
  496MPD2    H2 7378   1.806   3.281  15.278 -0.4671 -0.8988  0.5042
  496MPD2    H3 7379   1.664   3.462  15.351 -0.8515 -0.5813  0.1206
  496MPD2     N 7380   1.715   3.353  15.778  0.0232 -0.1822 -0.4976
  496MPD2    H5 7381   1.645   3.423  15.801 -1.9476 -2.2713 -0.1866
  496MPD2    N1 7382   1.933   3.107  15.418 -0.3413  0.3804  0.4293
  496MPD2    H7 7383   1.943   3.096  15.317  1.2484 -0.3353  0.6607
  497TMC3    C1 7384   1.714   3.307  16.013 -0.0382 -0.6266  0.1112
  497TMC3    C2 7385   1.578   3.293  16.002  0.7848 -0.2785 -0.1421
  497TMC3    C3 7386   1.517   3.219  16.099  0.0543  0.6607 -0.2074
  497TMC3    C4 7387   1.788   3.273  16.124  0.1120 -0.0169  0.3790
  497TMC3    C5 7388   1.711   3.226  16.230 -0.1893  0.0278 -0.2527
  497TMC3    C6 7389   1.577   3.194  16.218  0.0767 -0.8272 -0.3762
  497TMC3     C 7390   1.782   3.298  15.886  0.8178 -0.3101 -0.7152
  497TMC3     O 7391   1.884   3.235  15.896  0.2455 -0.5028 -0.0538
  497TMC3     H 7392   1.529   3.307  15.906  1.6986 -0.1463 -0.5824
  497TMC3    H1 7393   1.896   3.271  16.120  0.0777  3.3065 -2.2479
  497TMC3    H2 7394   1.529   3.154  16.307 -2.0934  1.0231 -0.7112
  497TMC3    C7 7395   1.765   3.216  16.365  0.2473  0.5681 -0.6344
  497TMC3    C8 7396   1.397   3.144  16.067 -0.2239  0.1898  0.9848
  497TMC3    O1 7397   1.681   3.232  16.448  0.7696 -0.5251  0.5829
  497TMC3    O2 7398   1.368   3.047  16.140  0.1244  0.1231  0.3196
  498MPD2     C 7399   2.534   3.542   9.254  0.0672  0.1469 -0.0800
  498MPD2    C1 7400   2.639   3.508   9.336  0.2917 -0.0125 -0.0197
  498MPD2    C2 7401   2.611   3.424   9.448  0.7086 -0.0099  0.7024
  498MPD2    C3 7402   2.486   3.374   9.476  0.0452 -0.1367  0.0063
  498MPD2    C4 7403   2.387   3.423   9.392  0.0152 -0.3506  0.1458
  498MPD2    C5 7404   2.410   3.511   9.292 -0.3853 -0.3326  0.0540
  498MPD2     H 7405   2.694   3.378   9.501  0.3235 -0.3356  1.0201
  498MPD2    H1 7406   2.285   3.389   9.409 -0.9233  2.3978  0.0393
  498MPD2    H2 7407   2.539   3.594   9.159 -2.2154  1.6446  0.6097
  498MPD2    H3 7408   2.333   3.544   9.223  2.0403  2.2789 -1.4353
  498MPD2     N 7409   2.464   3.286   9.583 -0.7227 -0.2882 -0.0955
  498MPD2    H5 7410   2.545   3.254   9.635 -0.6179 -0.7380 -0.5405
  498MPD2    N1 7411   2.773   3.513   9.294 -0.2544 -0.3794  0.2628
  498MPD2    H7 7412   2.852   3.468   9.339  0.6951 -0.8256 -1.8060
  499TMC3    C1 7413   2.953   3.600   9.173 -0.3077 -0.4060  0.0076
  499TMC3    C2 7414   3.011   3.478   9.172  0.1061  0.4318 -0.0654
  499TMC3    C3 7415   3.136   3.463   9.128  0.5993  0.1959 -0.5547
  499TMC3    C4 7416   3.009   3.711   9.118 -0.3278  0.1341 -0.0043
  499TMC3    C5 7417   3.137   3.693   9.076  0.4744 -0.5287  0.5094
  499TMC3    C6 7418   3.201   3.571   9.083 -0.3400  0.6336 -0.9475
  499TMC3     C 7419   2.812   3.607   9.196 -0.4140 -0.3775  0.9717
  499TMC3     O 7420   2.750   3.670   9.118 -0.3845 -0.5036  0.3394
  499TMC3     H 7421   2.961   3.393   9.216 -0.7348  1.2702  0.6010
  499TMC3    H1 7422   2.959   3.807   9.110 -1.8026 -0.6821 -0.5453
  499TMC3    H2 7423   3.304   3.558   9.053 -0.6598 -4.3425  0.2132
  499TMC3    C7 7424   3.217   3.811   9.036 -0.1179 -0.3864  0.3913
  499TMC3    C8 7425   3.213   3.346   9.175  0.3816 -0.2484 -0.6122
  499TMC3    O1 7426   3.339   3.803   9.019  0.2285  0.4516 -0.2096
  499TMC3    O2 7427   3.335   3.359   9.169  0.5389 -0.4114  0.6066
  500MPD2     C 7428   0.748   4.668   9.286  0.8083 -0.3992 -0.4291
  500MPD2    C1 7429   0.679   0.045   9.352 -0.4878  1.1312 -0.0938
  500MPD2    C2 7430   0.589   0.122   9.285 -0.2059  0.4082  0.6087
  500MPD2    C3 7431   0.551   0.102   9.156  0.4963 -0.1523 -0.3201
  500MPD2    C4 7432   0.614   4.723   9.089  0.4220 -0.0071 -0.7706
  500MPD2    C5 7433   0.705   4.648   9.155 -0.1998 -0.2346  0.3683
  500MPD2     H 7434   0.547   0.199   9.348 -1.6638 -0.2701  0.4544
  500MPD2    H1 7435   0.590   4.692   8.988  0.3158  0.9773 -1.0466
  500MPD2    H2 7436   0.826   4.607   9.329 -0.8877 -0.0262  3.1483
  500MPD2    H3 7437   0.741   4.561   9.101 -2.1586  0.2875 -1.7622
  500MPD2     N 7438   0.449   0.182   9.098 -0.0916 -0.7281  0.4403
  500MPD2    H5 7439   0.434   0.177   8.998  2.2694 -2.5313  0.1740
  500MPD2    N1 7440   0.704   0.073   9.495  0.3974  0.7723 -0.1853
  500MPD2    H7 7441   0.650   0.139   9.549 -0.6733 -0.8231  0.6804
  501TMC3    C1 7442   0.796   0.034   9.708 -0.6811  0.7414 -0.3958
  501TMC3    C2 7443   0.757   0.158   9.757  0.3568 -0.5462  0.5217
  501TMC3    C3 7444   0.791   0.200   9.886 -0.1834  0.1064 -0.0759
  501TMC3    C4 7445   0.879   4.686   9.789  0.0867 -0.4881 -0.4433
  501TMC3    C5 7446   0.922   0.015   9.910  0.4963  0.1515  0.6882
  501TMC3    C6 7447   0.885   0.137   9.958 -0.4637 -0.2714  0.0151
  501TMC3     C 7448   0.770   4.710   9.575 -0.5888 -0.7621 -0.2497
  501TMC3     O 7449   0.816   4.600   9.544  0.1139 -0.3799 -0.2044
  501TMC3     H 7450   0.693   0.216   9.692  2.4750  3.2020  1.7812
  501TMC3    H1 7451   0.917   4.587   9.767 -1.2575 -1.3750  1.1616
  501TMC3    H2 7452   0.915   0.169  10.057 -0.6466 -1.1640  0.3638
  501TMC3    C7 7453   1.041   4.681   9.974  0.3472 -0.3704 -0.1968
  501TMC3    C8 7454   0.727   0.317   9.943  1.0441  0.3680  0.2940
  501TMC3    O1 7455   1.031   4.603  10.066  0.5647 -0.1099  0.2405
  501TMC3    O2 7456   0.753   0.336  10.061  0.5186  0.4962 -0.2358
  502TMC3    C1 7457   3.850   3.746  14.721 -0.9193  0.4664 -0.6154
  502TMC3    C2 7458   3.839   3.885  14.721  0.2271 -0.2083 -0.3809
  502TMC3    C3 7459   3.715   3.935  14.760  0.1338 -0.2335 -0.6257
  502TMC3    C4 7460   3.742   3.667  14.734  0.0570 -0.3116 -0.1953
  502TMC3    C5 7461   3.620   3.725  14.770  0.0315  0.0917 -0.4391
  502TMC3    C6 7462   3.605   3.864  14.783 -0.6328  0.2685 -0.2918
  502TMC3     C 7463   3.957   3.703  14.806  0.1375 -0.0708 -0.1234
  502TMC3     O 7464   4.023   3.791  14.859 -0.2497 -0.2452 -0.0798
  502TMC3     H 7465   3.931   3.943  14.722  0.1531 -0.0524 -3.0363
  502TMC3    H1 7466   3.748   3.559  14.740 -3.4902 -0.3447  2.4794
  502TMC3    H2 7467   3.507   3.909  14.798  0.1439  1.6034  0.7352
  502TMC3    C7 7468   3.540   3.640  14.861 -0.2589  0.2605  0.1015
  502TMC3    C8 7469   3.727   4.071  14.790  0.3208 -0.4855 -0.0123
  502TMC3    O1 7470   3.575   3.523  14.871 -0.4613 -0.2855  0.0335
  502TMC3    O2 7471   3.801   4.136  14.722 -0.6990 -0.5600 -0.0497
  503MPD2     C 7472   1.446   4.024  17.011  0.6222  0.0256  0.2364
  503MPD2    C1 7473   1.501   4.098  17.113 -0.6781  0.2263  0.2884
  503MPD2    C2 7474   1.571   4.030  17.215  0.0439 -0.5093  0.2216
  503MPD2    C3 7475   1.591   3.893  17.200  0.4709 -0.2016 -0.2621
  503MPD2    C4 7476   1.520   3.824  17.106 -0.0861  0.0534  0.7964
  503MPD2    C5 7477   1.447   3.894  17.015  0.3098  0.2923  0.4671
  503MPD2     H 7478   1.623   4.089  17.289 -0.3731  0.7626 -0.5056
  503MPD2    H1 7479   1.526   3.717  17.087  0.2878  0.5876 -2.1749
  503MPD2    H2 7480   1.385   4.067  16.932 -0.6326 -1.7301  0.2282
  503MPD2    H3 7481   1.388   3.844  16.938  0.1903 -2.5151  2.3695
  503MPD2     N 7482   1.686   3.821  17.285 -0.4685  0.4145 -0.6750
  503MPD2    H5 7483   1.744   3.879  17.345 -1.5674  2.5385 -1.7059
  503MPD2    N1 7484   1.486   4.238  17.141 -0.0260 -0.2717 -0.0227
  503MPD2    H7 7485   1.520   4.269  17.231 -0.1820 -1.2547  0.3773
  504TMC3    C1 7486   1.877   3.683  17.325 -0.0806 -0.3228  0.0158
  504TMC3    C2 7487   1.905   3.740  17.448 -0.0496  0.1099 -0.4313
  504TMC3    C3 7488   2.033   3.772  17.484  0.1100 -0.0078 -0.3060
  504TMC3    C4 7489   1.977   3.666  17.234 -0.1128  1.1394 -0.4625
  504TMC3    C5 7490   2.108   3.703  17.265  0.7545 -0.2724  0.4286
  504TMC3    C6 7491   2.137   3.750  17.392 -0.1243  0.1749  0.6857
  504TMC3     C 7492   1.742   3.696  17.263  0.0772 -0.2874  0.6245
  504TMC3     O 7493   1.726   3.623  17.167  0.7516 -0.6159  0.0400
  504TMC3     H 7494   1.827   3.755  17.522  0.8694 -0.0226  0.5543
  504TMC3    H1 7495   1.949   3.625  17.137 -1.8354  0.4469  0.3374
  504TMC3    H2 7496   2.241   3.772  17.412  0.0046  0.9926 -0.9017
  504TMC3    C7 7497   2.218   3.692  17.167 -0.5479  0.2402  0.8201
  504TMC3    C8 7498   2.063   3.761  17.629  0.2166 -0.0427 -0.1672
  504TMC3    O1 7499   2.297   3.784  17.167  0.6094  0.1116  0.2057
  504TMC3    O2 7500   1.988   3.704   0.011 -0.7185  0.0724  0.0374
  505MPD2     C 7501   2.316   2.547  10.791 -0.2207 -0.0835 -0.2055
  505MPD2    C1 7502   2.394   2.460  10.718  0.0398 -0.5279  0.2795
  505MPD2    C2 7503   2.532   2.473  10.712  0.2555 -0.3744  0.7094
  505MPD2    C3 7504   2.595   2.581  10.765  0.1796  0.0650  0.0939
  505MPD2    C4 7505   2.514   2.675  10.836  0.4843 -0.5679  0.2743
  505MPD2    C5 7506   2.376   2.654  10.848 -0.0723 -0.8115 -0.4720
  505MPD2     H 7507   2.596   2.408  10.654  1.4532 -0.4137  2.0636
  505MPD2    H1 7508   2.552   2.769  10.876  4.0129 -0.8169 -2.5274
  505MPD2    H2 7509   2.210   2.526  10.800  0.0344 -2.0947 -1.9502
  505MPD2    H3 7510   2.315   2.729  10.897 -0.1486 -2.2122  1.5786
  505MPD2     N 7511   2.734   2.595  10.755 -0.0803  0.5207 -0.4403
  505MPD2    H5 7512   2.772   2.509  10.717  1.2975  0.6183  0.7323
  505MPD2    N1 7513   2.332   2.351  10.655  0.4546  0.2390 -0.7819
  505MPD2    H7 7514   2.231   2.348  10.644  0.0691  2.9442  2.3886
  506TMC3    C1 7515   2.313   2.154  10.516 -1.0637  0.5071  0.6139
  506TMC3    C2 7516   2.245   2.206  10.411  0.5752 -0.0144 -0.6020
  506TMC3    C3 7517   2.209   2.132  10.305  0.2570  0.6715 -0.0742
  506TMC3    C4 7518   2.361   2.024  10.503 -0.1119  0.3074  0.0729
  506TMC3    C5 7519   2.348   1.961  10.377 -0.0138 -0.6451 -0.2544
  506TMC3    C6 7520   2.255   2.001  10.283  0.3954  0.7575 -0.4437
  506TMC3     C 7521   2.397   2.241  10.604  0.0827 -0.5560  0.2983
  506TMC3     O 7522   2.504   2.194  10.639  0.3743  0.1515 -0.4215
  506TMC3     H 7523   2.242   2.314  10.402 -1.0487 -0.1482 -1.6820
  506TMC3    H1 7524   2.425   1.971  10.572  1.7852 -0.3434 -2.1978
  506TMC3    H2 7525   2.259   1.968  10.180 -0.1166  2.3012 -0.9672
  506TMC3    C7 7526   2.479   1.935  10.309  0.1461 -1.1029 -0.5098
  506TMC3    C8 7527   2.142   2.199  10.188  0.1240  0.0705 -0.2862
  506TMC3    O1 7528   2.472   1.879  10.203 -0.1803  0.2418  0.4694
  506TMC3    O2 7529   2.062   2.133  10.127 -0.0447 -0.0549  0.1917
  507TMC3    C1 7530   2.570   3.973  14.681  0.1480  0.1272 -0.2113
  507TMC3    C2 7531   2.491   3.877  14.618  0.2258  0.2605  0.4691
  507TMC3    C3 7532   2.438   3.902  14.494 -0.5212  0.0267 -0.1315
  507TMC3    C4 7533   2.607   4.089  14.613  0.2248  0.2782 -0.1726
  507TMC3    C5 7534   2.557   4.105  14.488  0.4984  0.3030 -0.3919
  507TMC3    C6 7535   2.473   4.013  14.428  0.2727 -0.0602  0.8830
  507TMC3     C 7536   2.492   4.023  14.796 -0.0505 -0.0968  0.5008
  507TMC3     O 7537   2.534   4.115  14.865  0.5491  0.0409  0.4560
  507TMC3     H 7538   2.469   3.779  14.660 -1.1815  0.3887  0.0546
  507TMC3    H1 7539   2.651   4.166  14.675 -1.0384 -1.2779  2.6291
  507TMC3    H2 7540   2.439   4.040  14.329  0.3168 -0.4011  0.7753
  507TMC3    C7 7541   2.506   4.241  14.458 -0.5164  0.0957  0.4912
  507TMC3    C8 7542   2.293   3.888  14.492  0.3095  0.1145  0.2766
  507TMC3    O1 7543   2.404   4.255  14.389 -0.5716  0.1408  0.1812
  507TMC3    O2 7544   2.243   3.783  14.527  0.3659 -0.5726 -0.7565
  508MPD2     C 7545   3.572   1.343  15.926  0.2447  0.0982 -0.5625
  508MPD2    C1 7546   3.494   1.457  15.937 -0.2135 -0.4107 -0.3162
  508MPD2    C2 7547   3.431   1.511  15.828  0.1706 -0.0192 -0.1384
  508MPD2    C3 7548   3.466   1.471  15.702  0.1229  0.9405 -0.5131
  508MPD2    C4 7549   3.543   1.358  15.692  0.3348  0.4335  0.4671
  508MPD2    C5 7550   3.586   1.285  15.801  0.1540  0.1456  0.6199
  508MPD2     H 7551   3.378   1.606  15.831  0.2028  0.0265 -1.2288
  508MPD2    H1 7552   3.563   1.314  15.594 -1.0365  2.1737 -0.5983
  508MPD2    H2 7553   3.625   1.299  16.010 -1.6269  0.0920  0.6302
  508MPD2    H3 7554   3.656   1.204  15.786  0.0720  0.5219 -1.7682
  508MPD2     N 7555   3.444   1.546  15.589 -0.1796  0.0028  0.0953
  508MPD2    H5 7556   3.501   1.520  15.509  2.0294 -0.3410  1.7651
  508MPD2    N1 7557   3.499   1.524  16.064  0.3893  0.3863 -0.7746
  508MPD2    H7 7558   3.568   1.489  16.130 -0.4765 -1.0275 -0.6254
  509TMC3    C1 7559   3.277   1.916  15.345 -0.1637  0.4874  0.1993
  509TMC3    C2 7560   3.404   1.959  15.301  0.6877  0.3161 -0.2886
  509TMC3    C3 7561   3.512   1.885  15.330  0.1989  0.7464 -0.5803
  509TMC3    C4 7562   3.265   1.806  15.425 -0.5603  0.0027 -0.3928
  509TMC3    C5 7563   3.379   1.733  15.452 -0.4677  0.2772  0.1701
  509TMC3    C6 7564   3.502   1.765  15.401 -0.2473 -0.4095 -0.7252
  509TMC3     C 7565   3.156   2.000  15.322 -0.0430 -0.5722 -0.3902
  509TMC3     O 7566   3.052   1.937  15.329 -0.4687  0.4411 -0.1098
  509TMC3     H 7567   3.423   2.046  15.239  0.7284 -0.2189 -1.0278
  509TMC3    H1 7568   3.171   1.805  15.478  1.1981  0.0370  2.7250
  509TMC3    H2 7569   3.595   1.729  15.443 -0.3695 -0.9282 -0.8922
  509TMC3    C7 7570   3.371   1.666  15.577 -0.6572  0.2322 -0.4922
  509TMC3    C8 7571   3.643   1.946  15.322  0.4833  0.3107  0.5435
  509TMC3    O1 7572   3.292   1.723  15.657 -0.0995  0.3804 -0.1824
  509TMC3    O2 7573   3.728   1.868  15.291 -0.1399 -0.0338  0.0917
  510MPD2     C 7574   1.572   3.425  14.574 -0.0743  1.0894  0.3567
  510MPD2    C1 7575   1.611   3.292  14.567  0.6939 -0.5617 -0.0437
  510MPD2    C2 7576   1.719   3.249  14.492 -1.2887  0.1371  0.3723
  510MPD2    C3 7577   1.781   3.338  14.412 -0.2642  0.2322  0.0023
  510MPD2    C4 7578   1.742   3.470  14.406 -0.0420 -0.8517  0.3169
  510MPD2    C5 7579   1.637   3.507  14.486 -0.1100  0.7183  0.8610
  510MPD2     H 7580   1.743   3.143  14.490  1.9658  0.8842 -1.0561
  510MPD2    H1 7581   1.807   3.538  14.351 -1.2947 -0.4739 -0.6879
  510MPD2    H2 7582   1.492   3.473  14.630 -0.4969  4.7666 -3.3809
  510MPD2    H3 7583   1.608   3.611  14.488 -0.9747  0.4694  1.1535
  510MPD2     N 7584   1.899   3.283  14.346  0.0155 -0.4116 -0.1350
  510MPD2    H5 7585   1.940   3.193  14.369  1.0557 -0.2333 -1.3164
  510MPD2    N1 7586   1.546   3.200  14.657  0.7951 -0.2665  0.4142
  510MPD2    H7 7587   1.562   3.102  14.635  1.2605  0.0364 -0.5648
  511TMC3    C1 7588   1.383   3.108  14.799  1.2717 -0.0721 -0.6288
  511TMC3    C2 7589   1.289   3.134  14.894  0.2014 -0.3571 -0.3209
  511TMC3    C3 7590   1.226   3.023  14.936  0.1211 -0.1405 -0.0226
  511TMC3    C4 7591   1.408   2.980  14.749 -0.7440 -0.2844 -0.2533
  511TMC3    C5 7592   1.338   2.869  14.805 -0.5230 -0.2558  0.0081
  511TMC3    C6 7593   1.249   2.897  14.895 -0.4502 -0.6200 -0.4762
  511TMC3     C 7594   1.443   3.226  14.749 -0.4741  0.2443 -0.4709
  511TMC3     O 7595   1.402   3.338  14.782  0.1329  0.0495  0.2660
  511TMC3     H 7596   1.250   3.231  14.921  0.5495 -0.5779  1.0056
  511TMC3    H1 7597   1.480   2.963  14.671  2.0351  0.8931  2.0627
  511TMC3    H2 7598   1.185   2.819  14.936  0.4426 -1.1131 -0.0272
  511TMC3    C7 7599   1.327   2.748  14.732  0.3106 -0.2873  0.4857
  511TMC3    C8 7600   1.113   3.047  15.021 -0.1100  0.2503  0.3938
  511TMC3    O1 7601   1.381   2.738  14.623  0.0878 -0.4494 -0.4221
  511TMC3    O2 7602   1.082   3.164  15.041 -0.3290 -0.2942  0.3744
  512TMC3    C1 7603   4.668   2.752  13.584 -0.2157  0.0553  0.2384
  512TMC3    C2 7604   0.046   2.752  13.675  0.1137 -1.2257  0.2572
  512TMC3    C3 7605   0.159   2.693  13.633 -0.1422 -0.5904 -0.7451
  512TMC3    C4 7606   4.680   2.680  13.468  0.1155 -0.9613  0.7298
  512TMC3    C5 7607   0.072   2.611  13.432 -0.0118 -0.2076 -0.1373
  512TMC3    C6 7608   0.173   2.615  13.519  0.0635 -0.3104  0.0643
  512TMC3     C 7609   4.533   2.785  13.635 -0.2852 -0.7127 -0.0532
  512TMC3     O 7610   4.518   2.789  13.756  0.3113  0.1952 -0.8207
  512TMC3     H 7611   0.043   2.803  13.771 -0.0631  0.6861 -0.7759
  512TMC3    H1 7612   4.594   2.675  13.402 -0.3734  1.3149  1.2052
  512TMC3    H2 7613   0.271   2.579  13.490 -0.2016  0.2625 -1.5460
  512TMC3    C7 7614   0.057   2.509  13.334 -0.3797 -0.1210 -0.1306
  512TMC3    C8 7615   0.277   2.714  13.714 -0.1088  0.9678 -0.0117
  512TMC3    O1 7616   4.703   2.539  13.249  0.3652  0.8145  0.4154
  512TMC3    O2 7617   0.330   2.615  13.755  0.3377  0.4135 -0.1647
  513MPD2     C 7618   2.409   2.511  13.353  0.2009 -1.2831 -0.3165
  513MPD2    C1 7619   2.522   2.546  13.275 -0.4926  0.6926 -0.0467
  513MPD2    C2 7620   2.647   2.556  13.345 -0.3748  0.0022 -0.0049
  513MPD2    C3 7621   2.652   2.535  13.482  0.9938  0.2478 -0.0905
  513MPD2    C4 7622   2.543   2.495  13.551 -0.1562 -0.0108  0.6282
  513MPD2    C5 7623   2.419   2.485  13.487  0.0598  0.2799  0.5171
  513MPD2     H 7624   2.737   2.585  13.291 -1.3628  1.4823 -0.8240
  513MPD2    H1 7625   2.544   2.470  13.656  1.2628 -0.5723  0.4728
  513MPD2    H2 7626   2.311   2.497  13.309  0.5005 -0.7763 -1.1410
  513MPD2    H3 7627   2.329   2.456  13.541  0.7906 -2.2630  0.3555
  513MPD2     N 7628   2.783   2.543  13.532 -0.1664 -0.4297  0.3404
  513MPD2    H5 7629   2.852   2.560  13.460 -0.5307 -1.0693 -0.1654
  513MPD2    N1 7630   2.519   2.573  13.138 -0.2586  0.7620 -0.3054
  513MPD2    H7 7631   2.607   2.607  13.100 -0.2567  1.9075  0.7255
  514TMC3    C1 7632   2.455   2.588  12.912  0.4121 -0.6463 -0.2312
  514TMC3    C2 7633   2.421   2.488  12.831  0.2156  0.1270  0.6709
  514TMC3    C3 7634   2.510   2.447  12.735  0.2775  0.0803  0.4230
  514TMC3    C4 7635   2.576   2.643  12.905  0.7364  0.0416  0.3219
  514TMC3    C5 7636   2.671   2.588  12.830 -0.0401 -0.9091 -0.4919
  514TMC3    C6 7637   2.638   2.490  12.738 -0.3703 -0.3362 -0.2662
  514TMC3     C 7638   2.414   2.559  13.051 -0.0520 -0.4169 -0.0522
  514TMC3     O 7639   2.301   2.518  13.069  0.3061  1.3341  0.0674
  514TMC3     H 7640   2.329   2.431  12.833 -0.1928  0.7185 -0.7982
  514TMC3    H1 7641   2.597   2.731  12.965  2.5133  0.8950 -1.5592
  514TMC3    H2 7642   2.704   2.448  12.662  1.3953 -1.3985  1.8426
  514TMC3    C7 7643   2.792   2.568  12.912  0.1995 -0.5066  0.1572
  514TMC3    C8 7644   2.441   2.458  12.612 -0.4354 -0.2069  0.0721
  514TMC3    O1 7645   2.819   2.662  12.989 -0.3654 -0.3035 -0.1068
  514TMC3    O2 7646   2.322   2.475  12.608 -0.3119  0.3455  0.5836
  515MPD2     C 7647   4.507   4.560  15.241 -0.1920  0.2601 -0.1297
  515MPD2    C1 7648   4.579   4.460  15.178  0.1286 -0.4581 -0.4677
  515MPD2    C2 7649   4.694   4.425  15.245  0.2054  0.1727  0.3285
  515MPD2    C3 7650   0.001   4.461  15.373  0.2464 -0.2822  0.1870
  515MPD2    C4 7651   4.646   4.555  15.436  0.0398 -0.0415 -0.1310
  515MPD2    C5 7652   4.539   4.608  15.362  0.2832 -0.2992  0.6562
  515MPD2     H 7653   0.035   4.350  15.200  1.5299  0.8354  1.1150
  515MPD2    H1 7654   4.670   4.590  15.535  2.2133  0.4447 -0.8089
  515MPD2    H2 7655   4.415   4.594  15.196  1.4043  1.9640 -2.1359
  515MPD2    H3 7656   4.483   4.687  15.409  0.9544 -0.2632  1.3964
  515MPD2     N 7657   0.122   4.423  15.432 -0.0393 -0.1273 -0.0887
  515MPD2    H5 7658   0.153   4.474  15.514  1.5167 -0.1006 -0.6863
  515MPD2    N1 7659   4.544   4.406  15.058  0.0136  0.2341 -0.2856
  515MPD2    H7 7660   4.604   4.330  15.028 -1.2833 -1.2996  1.0108
  516TMC3    C1 7661   4.433   4.358  14.853 -0.3214  0.0385 -0.0733
  516TMC3    C2 7662   4.416   4.406  14.723 -0.6489  0.2448 -0.0439
  516TMC3    C3 7663   4.399   4.324  14.623 -0.3482  0.2163 -0.3293
  516TMC3    C4 7664   4.447   4.219  14.874 -0.7103  0.1199  0.4401
  516TMC3    C5 7665   4.432   4.138  14.766  0.1005 -0.6376  0.0308
  516TMC3    C6 7666   4.407   4.186  14.640  0.1576 -0.5621  0.0251
  516TMC3     C 7667   4.450   4.448  14.967  0.8350  0.4540  0.0621
  516TMC3     O 7668   4.371   4.544  14.976 -0.0615  0.3105  0.5454
  516TMC3     H 7669   4.413   4.513  14.706 -0.9159  0.6015  2.2477
  516TMC3    H1 7670   4.446   4.182  14.976  4.6048 -0.7006  0.2084
  516TMC3    H2 7671   4.379   4.124  14.555 -0.9563  2.5886 -1.9074
  516TMC3    C7 7672   4.483   4.004  14.788 -0.6837 -0.8361  0.2860
  516TMC3    C8 7673   4.411   4.375  14.486 -0.1493 -0.2067  0.4978
  516TMC3    O1 7674   4.498   3.966  14.905 -0.3812 -0.1467  0.2025
  516TMC3    O2 7675   4.368   4.304  14.395  0.2101  0.0037 -0.3354
  517MPD2     C 7676   4.363   0.554   0.150 -1.0552  0.5632 -0.0212
  517MPD2    C1 7677   4.417   0.604   0.036 -0.2762 -0.4491 -0.3257
  517MPD2    C2 7678   4.413   0.743   0.008 -0.1630  1.1675 -0.1062
  517MPD2    C3 7679   4.337   0.824   0.089  0.4243 -0.2116  0.2778
  517MPD2    C4 7680   4.271   0.767   0.195 -0.2048  0.0221 -0.5583
  517MPD2    C5 7681   4.285   0.633   0.224 -0.8550  0.4870 -0.8858
  517MPD2     H 7682   4.461   0.777  17.612  0.9258 -0.5798 -0.1895
  517MPD2    H1 7683   4.211   0.832   0.257  1.0011  0.1864  0.4251
  517MPD2    H2 7684   4.372   0.453   0.190 -3.8057 -0.1301 -1.2014
  517MPD2    H3 7685   4.249   0.594   0.319 -0.0426  0.4138 -0.6040
  517MPD2     N 7686   4.323   0.960   0.073  0.2781  0.7036  0.4825
  517MPD2    H5 7687   4.275   1.012   0.147 -0.0358 -1.0977  1.5568
  517MPD2    N1 7688   4.498   0.525  17.644 -0.0604  0.3106  0.2464
  517MPD2    H7 7689   4.558   0.567  17.573  0.1764  1.6001  1.2125
  518TMC3    C1 7690   4.599   0.328  17.560  0.3719 -0.1772  0.6419
  518TMC3    C2 7691   4.570   0.214  17.487 -0.2544  0.1448 -0.0050
  518TMC3    C3 7692   4.672   0.153  17.415  0.1386 -0.7556  0.5918
  518TMC3    C4 7693   4.711   0.404  17.535 -0.5010 -0.5094  0.3182
  518TMC3    C5 7694   0.087   0.341  17.461 -0.4481 -0.4049 -0.3546
  518TMC3    C6 7695   0.072   0.216  17.405 -0.5098  0.2899 -0.1217
  518TMC3     C 7696   4.502   0.385  17.650  0.2969 -0.4708  0.9668
  518TMC3     O 7697   4.429   0.311   0.017  0.3538  0.5383 -0.1230
  518TMC3     H 7698   4.473   0.168  17.497  0.1914 -0.9334 -0.6401
  518TMC3    H1 7699   0.016   0.485  17.602  1.1188 -0.2624 -0.6591
  518TMC3    H2 7700   0.142   0.170  17.337  0.4992 -2.3812  2.7248
  518TMC3    C7 7701   0.198   0.429  17.430 -0.4688  0.5009  0.0074
  518TMC3    C8 7702   4.650   0.055  17.317  0.8215 -0.4489 -0.7524
  518TMC3    O1 7703   0.181   0.548  17.441 -0.5043 -0.0351 -0.3660
  518TMC3    O2 7704   0.009   0.049  17.228  0.4697  0.0989  0.3766
  519MPD2     C 7705   1.746   3.850  14.247 -0.4133  0.1761  0.8288
  519MPD2    C1 7706   1.691   3.957  14.183 -0.0765 -0.1338 -0.4108
  519MPD2    C2 7707   1.751   4.018  14.077 -0.0363  0.4155  0.9450
  519MPD2    C3 7708   1.874   3.978  14.038 -0.2826  0.3546 -0.4648
  519MPD2    C4 7709   1.937   3.879  14.108  0.7043  0.0588 -0.1390
  519MPD2    C5 7710   1.871   3.816  14.211  0.0443  0.0799  0.2711
  519MPD2     H 7711   1.710   4.103  14.025  0.3832 -0.2993 -0.5711
  519MPD2    H1 7712   2.035   3.842  14.080  1.7879  1.2943  1.9950
  519MPD2    H2 7713   1.700   3.800  14.332  0.0593 -1.2623  0.2343
  519MPD2    H3 7714   1.912   3.738  14.274  0.4553 -0.8276 -1.1369
  519MPD2     N 7715   1.950   4.039  13.942  0.1980 -0.6689  0.3007
  519MPD2    H5 7716   2.040   3.995  13.926  0.2907 -0.2795 -0.2466
  519MPD2    N1 7717   1.573   4.008  14.250 -0.5588 -0.2043 -0.9051
  519MPD2    H7 7718   1.533   3.948  14.321 -0.9592 -1.0683 -1.8655
  520TMC3    C1 7719   2.004   4.157  13.753 -0.4985 -0.8006  0.0680
  520TMC3    C2 7720   1.944   4.143  13.630 -0.5673 -0.3493 -0.6913
  520TMC3    C3 7721   1.980   4.044  13.548 -0.0264  0.4654 -0.3959
  520TMC3    C4 7722   2.117   4.094  13.776 -0.0038 -0.6162  0.3739
  520TMC3    C5 7723   2.152   3.985  13.700  0.3075  0.2976  0.2972
  520TMC3    C6 7724   2.078   3.954  13.582  0.9942 -0.0830 -0.3085
  520TMC3     C 7725   1.907   4.140  13.863  0.2343  0.8600  0.3018
  520TMC3     O 7726   1.807   4.201  13.848  0.3027 -0.1927  0.0690
  520TMC3     H 7727   1.854   4.204  13.630 -1.1882 -1.2296  0.9995
  520TMC3    H1 7728   2.176   4.109  13.865  0.0287  0.0455  0.2362
  520TMC3    H2 7729   2.084   3.868  13.516  0.2627 -1.7153  1.7873
  520TMC3    C7 7730   2.228   3.882  13.778  0.2289 -0.0311  0.1932
  520TMC3    C8 7731   1.892   4.015  13.432  0.4748 -0.6999 -0.5341
  520TMC3    O1 7732   2.245   3.908  13.896  0.4259  0.0318 -0.3465
  520TMC3    O2 7733   1.942   3.951  13.335  0.4280 -0.1264  0.4496
  521MPD2     C 7734   2.256   2.615  17.324 -0.0525 -0.0681  0.2642
  521MPD2    C1 7735   2.232   2.495  17.255  0.2222 -0.0073  0.5775
  521MPD2    C2 7736   2.324   2.458  17.150  0.4016  0.4696 -0.3242
  521MPD2    C3 7737   2.426   2.544  17.125 -0.1621  0.1820  0.5459
  521MPD2    C4 7738   2.445   2.662  17.187 -0.1092 -0.5052  0.6781
  521MPD2    C5 7739   2.361   2.700  17.286  0.3867 -0.2443  0.5038
  521MPD2     H 7740   2.321   2.361  17.100 -0.2447  0.3673 -0.0912
  521MPD2    H1 7741   2.519   2.734  17.156  1.2789 -2.8309 -1.4377
  521MPD2    H2 7742   2.184   2.646  17.399  0.3581 -0.5391  0.8511
  521MPD2    H3 7743   2.375   2.797  17.334 -1.0758  0.3717 -0.2948
  521MPD2     N 7744   2.518   2.494  17.031  0.3026  0.3203 -0.0377
  521MPD2    H5 7745   2.513   2.395  17.008  1.8556  0.5153 -1.1956
  521MPD2    N1 7746   2.133   2.404  17.300  0.1138 -0.4013 -1.0160
  521MPD2    H7 7747   2.081   2.429  17.383  1.6712 -1.4707  0.2956
  522TMC3    C1 7748   2.708   2.436  16.924 -0.5187  0.1200  0.0011
  522TMC3    C2 7749   2.837   2.473  16.901  0.6057 -0.6721  0.1529
  522TMC3    C3 7750   2.928   2.381  16.866 -0.2782  0.3620  0.0409
  522TMC3    C4 7751   2.663   2.310  16.919 -0.2168 -0.3529 -0.4535
  522TMC3    C5 7752   2.757   2.217  16.875 -0.7330 -0.0268 -0.1040
  522TMC3    C6 7753   2.890   2.251  16.850 -0.1988 -1.0329 -0.2212
  522TMC3     C 7754   2.635   2.542  16.985 -0.4307 -0.2638  0.2183
  522TMC3     O 7755   2.676   2.657  16.987  0.8929  0.1022  0.0096
  522TMC3     H 7756   2.872   2.576  16.903 -3.5173  0.7113  0.8667
  522TMC3    H1 7757   2.560   2.276  16.923 -0.4131  0.2003 -0.8067
  522TMC3    H2 7758   2.967   2.175  16.844 -0.7359 -1.6275  0.5288
  522TMC3    C7 7759   2.726   2.081  16.839 -0.3962 -0.4928 -0.2774
  522TMC3    C8 7760   3.049   2.423  16.801 -0.8363 -0.4445 -0.8041
  522TMC3    O1 7761   2.820   2.008  16.831  0.1171 -0.2808  0.1058
  522TMC3    O2 7762   3.093   2.532  16.833  0.1788 -0.3693 -0.0822
  523MPD2     C 7763   0.178   1.244   9.619 -0.0064  0.1551 -0.5881
  523MPD2    C1 7764   0.211   1.296   9.743  0.1320  0.1178  0.3800
  523MPD2    C2 7765   0.193   1.432   9.759 -0.0880 -0.2235  0.0149
  523MPD2    C3 7766   0.148   1.510   9.650 -0.4346 -0.5148  0.1351
  523MPD2    C4 7767   0.111   1.449   9.531 -0.3758 -0.1592  0.1595
  523MPD2    C5 7768   0.125   1.319   9.518  0.1548 -0.4176  1.2876
  523MPD2     H 7769   0.212   1.479   9.854  0.9395 -0.9769  0.1792
  523MPD2    H1 7770   0.083   1.507   9.444  0.6795  1.1852  0.7134
  523MPD2    H2 7771   0.190   1.139   9.596  0.9273  0.0356  0.4424
  523MPD2    H3 7772   0.113   1.275   9.419 -0.3259 -1.5583  1.8561
  523MPD2     N 7773   0.143   1.654   9.655 -0.4176 -0.2627 -0.2919
  523MPD2    H5 7774   0.088   1.689   9.578  0.2113  1.2894 -0.0357
  523MPD2    N1 7775   0.289   1.216   9.836 -0.4202 -0.1046  0.1036
  523MPD2    H7 7776   0.307   1.119   9.812  0.0987  0.3591 -1.3793
  524TMC3    C1 7777   0.120   1.871   9.752 -0.5093  0.0019  0.0084
  524TMC3    C2 7778   0.057   1.903   9.639 -0.5115  0.5407  0.1324
  524TMC3    C3 7779   0.043   2.042   9.618  0.7261  0.5612 -0.5646
  524TMC3    C4 7780   0.162   1.960   9.852 -0.2344 -0.2182 -0.2992
  524TMC3    C5 7781   0.145   2.093   9.823  0.6047 -0.0387  0.0245
  524TMC3    C6 7782   0.095   2.138   9.704 -0.4501  0.2899 -0.3455
  524TMC3     C 7783   0.179   1.741   9.760 -0.1462  0.1527  0.2570
  524TMC3     O 7784   0.243   1.714   9.861 -0.7175  0.6310 -0.2299
  524TMC3     H 7785   0.010   1.834   9.570 -0.3998 -0.9992  1.5973
  524TMC3    H1 7786   0.226   1.924   9.931  0.0579  1.6412  0.2923
  524TMC3    H2 7787   0.093   2.244   9.682 -0.3892  0.6771  1.4583
  524TMC3    C7 7788   0.184   2.180   9.931  0.3319  0.2659 -0.4542
  524TMC3    C8 7789   4.710   2.079   9.484 -0.3160 -0.4171 -0.4342
  524TMC3    O1 7790   0.264   2.139  10.017 -0.1643  0.2954  0.1956
  524TMC3    O2 7791   0.002   1.997   9.393 -0.4067  0.1531  0.5974
  525MPD2     C 7792   2.800   3.721  14.436 -0.3655 -0.0973 -0.5747
  525MPD2    C1 7793   2.917   3.764  14.497 -0.0462  0.1959  0.3154
  525MPD2    C2 7794   2.980   3.882  14.451  0.5571  0.0635  0.1776
  525MPD2    C3 7795   2.928   3.965  14.349  0.2540 -0.1912 -0.6794
  525MPD2    C4 7796   2.810   3.924  14.299  0.1395  0.8399 -0.0853
  525MPD2    C5 7797   2.749   3.806  14.338 -0.2398 -0.8465  0.5802
  525MPD2     H 7798   3.079   3.898  14.492  0.8713 -0.4613 -0.3845
  525MPD2    H1 7799   2.752   3.987  14.232  1.3614  2.2272  0.1614
  525MPD2    H2 7800   2.743   3.638  14.476  1.2562 -0.2593  1.3819
  525MPD2    H3 7801   2.654   3.780  14.292  1.1154 -2.5531 -1.2529
  525MPD2     N 7802   2.978   4.089  14.301 -0.3813  0.0610 -0.3568
  525MPD2    H5 7803   2.920   4.132  14.230 -1.5294 -0.4913  0.2443
  525MPD2    N1 7804   2.973   3.697  14.606  0.3303 -0.3852 -0.5239
  525MPD2    H7 7805   3.067   3.723  14.633 -0.2721 -0.1774  1.3948
  526TMC3    C1 7806   2.972   3.520  14.767 -0.3457 -0.1283  0.0553
  526TMC3    C2 7807   2.899   3.465  14.867  0.1626 -0.1170 -0.0815
  526TMC3    C3 7808   2.970   3.370  14.938 -0.7109  0.0211  0.8788
  526TMC3    C4 7809   3.092   3.483  14.727  0.5402  0.3458 -0.5236
  526TMC3    C5 7810   3.163   3.399  14.813  0.5364 -0.8884 -0.2815
  526TMC3    C6 7811   3.097   3.330  14.915  0.1443  0.4461 -0.4327
  526TMC3     C 7812   2.904   3.591  14.674 -0.6059  0.0190 -0.6131
  526TMC3     O 7813   2.784   3.572  14.675  0.2579 -0.7441 -0.6094
  526TMC3     H 7814   2.808   3.513  14.901 -0.4094 -0.2361 -1.4698
  526TMC3    H1 7815   3.146   3.513  14.638  0.3791  2.6429  0.1718
  526TMC3    H2 7816   3.140   3.248  14.971  0.4367  1.2354  0.5028
  526TMC3    C7 7817   3.282   3.335  14.753 -0.4159  0.4547 -0.2312
  526TMC3    C8 7818   2.909   3.327  15.065 -0.4021 -0.1664 -0.3492
  526TMC3    O1 7819   3.312   3.370  14.637 -0.0081 -0.5442 -0.0525
  526TMC3    O2 7820   2.971   3.258  15.141  0.0443  0.3395  0.8617
  527MPD2     C 7821   0.676   1.667   1.188 -0.4171  0.1521 -0.2550
  527MPD2    C1 7822   0.642   1.536   1.205 -0.2569 -0.1989 -0.5694
  527MPD2    C2 7823   0.733   1.440   1.179 -0.3411 -0.2942  0.1152
  527MPD2    C3 7824   0.845   1.474   1.112  0.0160 -0.1414 -0.7489
  527MPD2    C4 7825   0.886   1.604   1.098  0.4809 -0.3366  0.6708
  527MPD2    C5 7826   0.793   1.707   1.128 -0.4034 -0.2144  0.0957
  527MPD2     H 7827   0.706   1.335   1.189 -2.8627  0.3402 -0.1602
  527MPD2    H1 7828   0.974   1.650   1.054 -0.0690 -2.2191 -2.3988
  527MPD2    H2 7829   0.618   1.749   1.229 -1.4566 -0.6119 -0.1718
  527MPD2    H3 7830   0.810   1.813   1.130 -1.0454 -0.1033 -0.1708
  527MPD2     N 7831   0.930   1.369   1.067 -0.1029 -0.4504 -0.7041
  527MPD2    H5 7832   0.899   1.273   1.079  0.0645 -0.5657 -1.1851
  527MPD2    N1 7833   0.525   1.497   1.263 -0.5983 -0.5815 -0.0120
  527MPD2    H7 7834   0.506   1.400   1.288 -0.8239 -0.8913 -1.3970
  528TMC3    C1 7835   0.310   1.501   1.338  0.3958 -0.2315 -0.0123
  528TMC3    C2 7836   0.357   1.407   1.427 -0.2709 -0.2601 -0.6282
  528TMC3    C3 7837   0.260   1.311   1.473  0.0925 -0.1819  0.3089
  528TMC3    C4 7838   0.185   1.510   1.290 -0.0559 -1.1365 -0.0682
  528TMC3    C5 7839   0.097   1.410   1.334  0.1900 -0.3562 -0.0745
  528TMC3    C6 7840   0.131   1.322   1.431 -0.1486  0.2356  0.4374
  528TMC3     C 7841   0.415   1.575   1.272 -0.7157 -0.0952 -0.7140
  528TMC3     O 7842   0.388   1.684   1.224 -0.5471  0.2783 -0.5087
  528TMC3     H 7843   0.458   1.402   1.466 -0.7173  0.7487  0.6614
  528TMC3    H1 7844   0.154   1.580   1.213  0.7317  1.3920  1.9195
  528TMC3    H2 7845   0.059   1.249   1.466  0.5866  0.3448  2.1905
  528TMC3    C7 7846   4.678   1.412   1.305 -0.8015  0.5933 -0.3053
  528TMC3    C8 7847   0.310   1.226   1.579 -0.1921 -0.1124 -0.2818
  528TMC3    O1 7848   4.600   1.355   1.381 -0.5081 -0.1581  0.1952
  528TMC3    O2 7849   0.429   1.220   1.599 -0.6511 -0.5747 -0.2535
  529MPD2     C 7850   3.279   4.261   0.331 -0.1399  0.2352  0.1456
  529MPD2    C1 7851   3.162   4.303   0.381  0.0862 -0.1983  0.3976
  529MPD2    C2 7852   3.106   4.420   0.340  0.0159 -0.6527 -0.1839
  529MPD2    C3 7853   3.173   4.501   0.247  0.6203  0.0340 -0.2113
  529MPD2    C4 7854   3.300   4.465   0.207 -0.2982 -0.2488  0.0348
  529MPD2    C5 7855   3.348   4.343   0.248 -0.0903 -0.5493  0.1402
  529MPD2     H 7856   3.005   4.443   0.373  0.1931  0.9939 -0.8184
  529MPD2    H1 7857   3.346   4.520   0.126 -0.4635 -0.7246 -0.3773
  529MPD2    H2 7858   3.330   4.173   0.369 -0.8866  0.4856  1.7628
  529MPD2    H3 7859   3.442   4.308   0.207  0.4278  0.3506  0.5510
  529MPD2     N 7860   3.127   4.619   0.185  0.3638 -0.3083  0.0296
  529MPD2    H5 7861   3.193   4.670   0.126 -0.7352  1.7765  0.5877
  529MPD2    N1 7862   3.097   4.219   0.477 -0.5966  0.2201 -0.0598
  529MPD2    H7 7863   3.014   4.259   0.519  0.1468  0.5225  1.1305
  530TMC3    C1 7864   3.068   4.054   0.651 -0.1866  0.7332  0.0789
  530TMC3    C2 7865   3.129   3.980   0.754  0.0445 -0.0812  0.3375
  530TMC3    C3 7866   3.048   3.917   0.842 -0.9132 -0.8229 -0.9884
  530TMC3    C4 7867   2.929   4.045   0.636 -0.3241  0.0429  0.0673
  530TMC3    C5 7868   2.857   3.958   0.710 -0.3129  0.1635  0.1560
  530TMC3    C6 7869   2.921   3.890   0.810  0.5391 -0.1736  0.5906
  530TMC3     C 7870   3.159   4.123   0.557 -0.8150  0.1344  0.6115
  530TMC3     O 7871   3.278   4.109   0.577 -0.1592  0.0455  0.4608
  530TMC3     H 7872   3.234   3.996   0.774  0.2851  2.3531 -2.9554
  530TMC3    H1 7873   2.886   4.079   0.542 -0.6190  1.1543  0.6073
  530TMC3    H2 7874   2.856   3.837   0.879 -1.5678  0.7310 -0.7005
  530TMC3    C7 7875   2.719   3.946   0.678  0.6156  0.1438  0.2033
  530TMC3    C8 7876   3.108   3.873   0.964  0.3274 -0.2931  0.7803
  530TMC3    O1 7877   2.681   4.006   0.577  0.2195  0.1942 -0.7187
  530TMC3    O2 7878   3.229   3.857   0.969 -0.0689  0.0792 -0.0589
  531MPD2     C 7879   3.199   2.306  13.075 -0.3886  0.1931  0.6133
  531MPD2    C1 7880   3.127   2.412  13.134  0.1154  0.5349 -0.0040
  531MPD2    C2 7881   3.011   2.452  13.071  0.0838 -0.3215 -0.9282
  531MPD2    C3 7882   2.977   2.412  12.944 -0.5555  0.5738  0.4992
  531MPD2    C4 7883   3.056   2.321  12.884 -0.0488 -0.0496  0.2071
  531MPD2    C5 7884   3.163   2.265  12.947 -0.5548  0.7180 -0.2131
  531MPD2     H 7885   2.933   2.509  13.119 -0.5265 -1.8323 -0.1304
  531MPD2    H1 7886   3.019   2.284  12.789 -1.3836 -0.5484  0.9121
  531MPD2    H2 7887   3.288   2.258  13.112  0.2702  0.2730 -0.8621
  531MPD2    H3 7888   3.224   2.193  12.892  1.0966  2.2414 -0.3702
  531MPD2     N 7889   2.855   2.453  12.879 -0.6107  0.3743 -0.1263
  531MPD2    H5 7890   2.830   2.390  12.803 -0.4468  0.6787 -0.4343
  531MPD2    N1 7891   3.169   2.458  13.262  0.4688 -0.1416  0.3790
  531MPD2    H7 7892   3.255   2.420  13.301  1.3374  2.0305  0.5901
  532TMC3    C1 7893   3.129   2.544  13.481  0.1863  0.0841  0.0800
  532TMC3    C2 7894   3.028   2.601  13.550  0.3277  0.5371  0.2088
  532TMC3    C3 7895   2.976   2.533  13.657  0.0912  0.6036 -0.6091
  532TMC3    C4 7896   3.181   2.426  13.523 -0.3505  0.5425  0.3346
  532TMC3    C5 7897   3.149   2.376  13.649  0.8019 -0.6568 -0.3319
  532TMC3    C6 7898   3.037   2.425  13.718  0.0669  0.4581  0.3199
  532TMC3     C 7899   3.096   2.549  13.335  0.9244 -0.3311 -0.0325
  532TMC3     O 7900   2.992   2.612  13.311 -0.3049  0.2458 -0.7185
  532TMC3     H 7901   2.978   2.691  13.514  1.4488  0.6838 -0.9978
  532TMC3    H1 7902   3.260   2.387  13.460 -1.4725  1.7966 -1.8658
  532TMC3    H2 7903   3.004   2.385  13.814  0.4461  1.1650  0.7462
  532TMC3    C7 7904   3.208   2.243  13.690  0.5195 -0.7428  0.3460
  532TMC3    C8 7905   2.828   2.527  13.663  0.8322  0.3336 -0.3506
  532TMC3    O1 7906   3.218   2.217  13.805  0.1535  0.1391 -0.2943
  532TMC3    O2 7907   2.776   2.492  13.767 -0.1596  0.7156 -0.0173
  533TMC3    C1 7908   3.086   4.294  14.321 -0.6995 -0.6855 -0.3346
  533TMC3    C2 7909   3.211   4.347  14.336 -0.0506 -0.6386 -0.4608
  533TMC3    C3 7910   3.228   4.442  14.437  0.3254  0.2891 -0.5425
  533TMC3    C4 7911   2.978   4.341  14.393 -0.0122  0.3083  0.4622
  533TMC3    C5 7912   3.001   4.430  14.491  0.5390 -1.0473  0.1470
  533TMC3    C6 7913   3.131   4.481  14.515 -0.4627 -0.2710 -0.3310
  533TMC3     C 7914   3.093   4.149  14.347 -0.6197  0.6181 -0.2649
  533TMC3     O 7915   3.176   4.112  14.430  0.2940 -0.1350  0.5097
  533TMC3     H 7916   3.287   4.307  14.269 -0.4084  1.5156 -2.1552
  533TMC3    H1 7917   2.881   4.293  14.398 -0.9108  2.0657 -0.1215
  533TMC3    H2 7918   3.154   4.551  14.594 -0.7043  1.5012 -1.8422
  533TMC3    C7 7919   2.919   4.405  14.612  0.7243  0.2746 -0.3884
  533TMC3    C8 7920   3.359   4.511  14.457 -0.4908 -0.4035 -0.0539
  533TMC3    O1 7921   2.845   4.312  14.621 -0.1532 -0.1123 -0.2231
  533TMC3    O2 7922   3.369   4.559  14.568  0.0435 -0.2754  0.6326
  534MPD2     C 7923   4.444   0.517   1.782 -0.1525 -0.6861 -0.7048
  534MPD2    C1 7924   4.530   0.466   1.690  0.2336 -0.1610  0.4393
  534MPD2    C2 7925   4.510   0.344   1.635  0.3367  0.4025 -0.5069
  534MPD2    C3 7926   4.392   0.276   1.658  0.8961 -0.8680 -0.5269
  534MPD2    C4 7927   4.299   0.327   1.742  0.8654 -0.1371  0.0764
  534MPD2    C5 7928   4.325   0.449   1.805  0.3082  0.5339  0.0929
  534MPD2     H 7929   4.583   0.303   1.567  2.3276  1.7934  0.8139
  534MPD2    H1 7930   4.206   0.274   1.755  0.2550  0.6969 -0.9738
  534MPD2    H2 7931   4.458   0.610   1.837  0.6121 -0.6839 -0.9037
  534MPD2    H3 7932   4.252   0.491   1.873 -1.0729 -3.5330  1.1017
  534MPD2     N 7933   4.358   0.158   1.588  0.3749 -0.1396  0.0861
  534MPD2    H5 7934   4.279   0.105   1.624  1.6419 -0.6050  2.1877
  534MPD2    N1 7935   4.657   0.527   1.657  0.0713  0.2450  0.4456
  534MPD2    H7 7936   4.722   0.465   1.610  1.3517  1.9725 -0.0355
  535TMC3    C1 7937   4.379   4.701   1.432 -0.2190  0.3425 -0.3404
  535TMC3    C2 7938   4.269   4.648   1.483  0.4883 -0.3622  0.1598
  535TMC3    C3 7939   4.234   4.521   1.448 -0.4485  0.0754 -0.3838
  535TMC3    C4 7940   4.458   4.638   1.334 -0.3087 -0.2862 -0.4204
  535TMC3    C5 7941   4.415   4.520   1.295  0.0613 -0.1535  0.4762
  535TMC3    C6 7942   4.308   4.451   1.360 -1.0784  0.1153  0.1110
  535TMC3     C 7943   4.423   0.108   1.478  0.4704 -0.2100  0.1356
  535TMC3     O 7944   4.526   0.147   1.420  0.2082  0.0193  0.5800
  535TMC3     H 7945   4.200   4.715   1.532  0.2014 -0.8932  0.4896
  535TMC3    H1 7946   4.537   4.692   1.282 -0.3939 -0.0112 -0.2678
  535TMC3    H2 7947   4.283   4.346   1.351  2.7396 -0.7024 -1.1348
  535TMC3    C7 7948   4.482   4.456   1.185  0.2499 -0.1856  0.5327
  535TMC3    C8 7949   4.106   4.472   1.482  0.3171 -0.1282  0.6142
  535TMC3    O1 7950   4.599   4.485   1.172  0.2286 -0.0115  0.2154
  535TMC3    O2 7951   4.051   4.404   1.400  0.2634 -0.1002 -0.0127
  536MPD2     C 7952   0.169   3.321  15.751 -0.6314 -0.0432 -0.2644
  536MPD2    C1 7953   0.071   3.359  15.835 -0.1155 -0.0676  0.2736
  536MPD2    C2 7954   4.697   3.448  15.782 -0.0317  1.2696 -0.1697
  536MPD2    C3 7955   4.705   3.510  15.663  0.3604 -0.0306  0.3388
  536MPD2    C4 7956   0.077   3.455  15.581 -0.1050 -0.8106  0.0502
  536MPD2    C5 7957   0.174   3.369  15.628  1.2083 -0.2514 -0.6912
  536MPD2     H 7958   4.627   3.489  15.854  0.8844  1.5506  0.5593
  536MPD2    H1 7959   0.090   3.474  15.475 -2.0952 -0.7665 -0.1729
  536MPD2    H2 7960   0.253   3.259  15.781  0.4570  1.0296 -1.0638
  536MPD2    H3 7961   0.244   3.319  15.562 -0.2531 -1.1447 -1.5635
  536MPD2     N 7962   4.615   3.604  15.604 -0.0740 -0.6161  0.3356
  536MPD2    H5 7963   4.628   3.655  15.517  2.2718 -3.1946 -0.8286
  536MPD2    N1 7964   0.053   3.292  15.962  0.7917  0.3880 -0.2776
  536MPD2    H7 7965   0.127   3.225  15.985  2.6195  2.8591  1.0996
  537TMC3    C1 7966   4.653   3.190  16.140 -0.2352  0.2605  0.1335
  537TMC3    C2 7967   0.017   3.191  16.242 -0.6275 -0.5763  0.5047
  537TMC3    C3 7968   4.714   3.128  16.359  0.4648 -0.4243 -0.3986
  537TMC3    C4 7969   4.534   3.127  16.158  0.2662  0.5476 -0.4811
  537TMC3    C5 7970   4.507   3.061  16.272 -0.0351 -0.9734  0.3005
  537TMC3    C6 7971   4.597   3.064  16.377 -0.1553 -0.0678 -0.2913
  537TMC3     C 7972   4.657   3.282  16.027 -0.3239 -0.0962  0.2767
  537TMC3     O 7973   4.554   3.333  15.987  0.3173  0.2010  0.1498
  537TMC3     H 7974   0.114   3.233  16.220 -1.3601  0.7149 -0.2438
  537TMC3    H1 7975   4.461   3.123  16.078  0.4905  0.1615 -0.6681
  537TMC3    H2 7976   4.569   3.018  16.471  1.8039  0.3385  0.4932
  537TMC3    C7 7977   4.367   3.027  16.296  0.4376 -0.2463  0.1689
  537TMC3    C8 7978   0.081   3.137  16.473 -0.8237 -0.2724  0.5036
  537TMC3    O1 7979   4.280   3.069  16.220 -0.4401 -0.0380 -0.5426
  537TMC3    O2 7980   0.035   3.121  16.586  0.0613  1.0197  0.2620
  538TMC3    C1 7981   1.464   2.376  10.390 -0.5727  0.4485 -0.4442
  538TMC3    C2 7982   1.476   2.299  10.280 -0.4675 -0.2895 -0.2710
  538TMC3    C3 7983   1.358   2.260  10.209  0.2520 -0.1751 -0.2960
  538TMC3    C4 7984   1.344   2.420  10.430  0.0603 -0.2483 -0.2821
  538TMC3    C5 7985   1.240   2.406  10.345  0.3359  0.3577 -0.2360
  538TMC3    C6 7986   1.243   2.329  10.234  0.0250 -0.4019  0.9602
  538TMC3     C 7987   1.565   2.354  10.495 -0.2182  0.1683  0.3092
  538TMC3     O 7988   1.682   2.368  10.461 -0.8672  0.1696 -0.0501
  538TMC3     H 7989   1.571   2.248  10.266  0.9385  2.0751  0.7662
  538TMC3    H1 7990   1.330   2.457  10.531  0.0923 -0.1004 -0.3321
  538TMC3    H2 7991   1.148   2.320  10.183  2.7282 -1.3433 -3.9085
  538TMC3    C7 7992   1.116   2.404  10.402 -0.0581 -0.0039  0.1273
  538TMC3    C8 7993   1.341   2.143  10.123 -0.6852 -0.3611  0.3540
  538TMC3    O1 7994   1.053   2.303  10.413  0.0873  0.1082 -0.0711
  538TMC3    O2 7995   1.231   2.113  10.086 -0.1548 -0.0722  0.5150
  539MPD2     C 7996   0.833   0.659  11.771  0.1476  0.2346 -1.2205
  539MPD2    C1 7997   0.847   0.704  11.639  0.0118  0.1549  0.3037
  539MPD2    C2 7998   0.785   0.826  11.605  0.0641 -0.4315 -0.4713
  539MPD2    C3 7999   0.713   0.891  11.693  0.6255 -0.2142  0.0305
  539MPD2    C4 8000   0.700   0.842  11.821 -0.0435  0.3479 -0.7442
  539MPD2    C5 8001   0.766   0.730  11.867  0.0372 -0.3361 -0.3928
  539MPD2     H 8002   0.792   0.868  11.506  0.9379 -0.4947 -0.4421
  539MPD2    H1 8003   0.646   0.898  11.896  0.6316 -0.6368  0.4756
  539MPD2    H2 8004   0.874   0.565  11.807  1.4742  0.6259 -1.6870
  539MPD2    H3 8005   0.748   0.703  11.970  0.8178  1.9070  0.3446
  539MPD2     N 8006   0.637   1.012  11.670 -0.2366  0.4534  0.1469
  539MPD2    H5 8007   0.575   1.049  11.742 -0.2033  1.0720 -0.1426
  539MPD2    N1 8008   0.912   0.630  11.527  0.5002 -0.2310 -0.1978
  539MPD2    H7 8009   0.942   0.685  11.447  2.6117  0.3918  1.0453
  540TMC3    C1 8010   0.566   1.208  11.568  0.0330  0.3453 -0.1057
  540TMC3    C2 8011   0.523   1.254  11.450  0.3406 -0.4587  0.6168
  540TMC3    C3 8012   0.413   1.334  11.454 -0.1743 -0.2714  0.5052
  540TMC3    C4 8013   0.514   1.247  11.685 -0.0834 -0.4946  0.6280
  540TMC3    C5 8014   0.411   1.333  11.681 -0.1269  0.1197 -0.1604
  540TMC3    C6 8015   0.359   1.385  11.566  0.2561  0.4618 -0.5363
  540TMC3     C 8016   0.638   1.084  11.554  0.6779  0.2221 -0.5094
  540TMC3     O 8017   0.708   1.074  11.457 -0.2337 -0.6200 -0.7794
  540TMC3     H 8018   0.567   1.218  11.357  2.8741  1.1207  1.1844
  540TMC3    H1 8019   0.543   1.209  11.783  2.7562  1.8925  0.7195
  540TMC3    H2 8020   0.271   1.448  11.563 -1.1361 -1.5237 -1.1463
  540TMC3    C7 8021   0.339   1.382  11.797 -0.1340  0.1876  0.5039
  540TMC3    C8 8022   0.321   1.345  11.345 -0.0044  0.2575 -0.1428
  540TMC3    O1 8023   0.216   1.364  11.811  0.3404 -0.3490 -0.1737
  540TMC3    O2 8024   0.214   1.393  11.363  0.0720 -0.0233  0.1570
  541MPD2     C 8025   3.663   3.128  13.467  0.0290  0.1360  0.6083
  541MPD2    C1 8026   3.714   3.061  13.353  0.2932 -0.3364 -0.3290
  541MPD2    C2 8027   3.703   3.117  13.229  0.0797 -0.2198  0.0132
  541MPD2    C3 8028   3.656   3.242  13.207 -0.4268 -0.5513  0.0131
  541MPD2    C4 8029   3.605   3.307  13.319 -0.1729  0.0843 -0.9540
  541MPD2    C5 8030   3.605   3.250  13.444 -0.4436 -0.3603  0.1924
  541MPD2     H 8031   3.737   3.058  13.145  0.1676 -1.7891  1.1481
  541MPD2    H1 8032   3.570   3.409  13.313  1.9527  0.8501 -0.3451
  541MPD2    H2 8033   3.666   3.087  13.567  1.4335  0.3868  0.6619
  541MPD2    H3 8034   3.564   3.307  13.527 -1.0590 -1.7147  0.8157
  541MPD2     N 8035   3.640   3.314  13.083  0.5437 -0.5658  0.3657
  541MPD2    H5 8036   3.600   3.407  13.092  0.6300 -0.4385 -0.6001
  541MPD2    N1 8037   3.767   2.927  13.379  0.7856 -0.8348 -0.3932
  541MPD2    H7 8038   3.756   2.887  13.471 -1.1665 -0.4846 -0.4721
  542TMC3    C1 8039   3.650   3.342  12.851 -0.0484 -0.1323 -0.4457
  542TMC3    C2 8040   3.645   3.282  12.726 -0.3047 -0.9116 -0.5086
  542TMC3    C3 8041   3.642   3.357  12.614  0.4514  0.7312 -0.0365
  542TMC3    C4 8042   3.652   3.476  12.863  0.4011  0.2787  0.1083
  542TMC3    C5 8043   3.646   3.555  12.750 -0.4786  0.4628  0.0411
  542TMC3    C6 8044   3.645   3.495  12.624  0.1835  0.2166 -0.0866
  542TMC3     C 8045   3.689   3.264  12.967 -0.4427 -0.0626  0.2854
  542TMC3     O 8046   3.755   3.163  12.944 -0.0569  0.1635 -0.4820
  542TMC3     H 8047   3.647   3.173  12.717 -0.2174 -0.9226 -0.3501
  542TMC3    H1 8048   3.628   3.524  12.957  0.3310 -0.7340  0.6028
  542TMC3    H2 8049   3.626   3.564  12.543  1.3126 -0.7493 -1.1867
  542TMC3    C7 8050   3.689   3.690  12.755  0.5784 -0.2581  0.8204
  542TMC3    C8 8051   3.660   3.292  12.486  0.1972 -0.2482  0.1353
  542TMC3    O1 8052   3.620   3.760  12.691  0.5307  0.0215 -0.2576
  542TMC3    O2 8053   3.726   3.187  12.481  0.6991 -0.2558  0.5583
  543TMC3    C1 8054   3.111   4.340  17.091 -0.0182  0.1750 -0.5040
  543TMC3    C2 8055   2.991   4.271  17.107  0.3144 -0.2177 -0.7915
  543TMC3    C3 8056   2.946   4.263  17.236  0.0085  0.6000  0.2487
  543TMC3    C4 8057   3.182   4.398  17.196  0.8707 -0.0922  0.2989
  543TMC3    C5 8058   3.124   4.394  17.320 -0.0089 -0.0261  0.3210
  543TMC3    C6 8059   3.007   4.325  17.337  0.8651 -0.5095 -0.1187
  543TMC3     C 8060   3.185   4.324  16.967 -0.6648 -0.1620 -0.1231
  543TMC3     O 8061   3.304   4.355  16.977  0.1072  0.5911 -0.3989
  543TMC3     H 8062   2.942   4.207  17.035 -0.0230 -1.7014  0.7603
  543TMC3    H1 8063   3.285   4.428  17.179  1.3250 -1.5001  0.5782
  543TMC3    H2 8064   2.970   4.300  17.436  0.7766  0.6846  0.1535
  543TMC3    C7 8065   3.215   4.382  17.432 -0.4510  0.6080  0.8321
  543TMC3    C8 8066   2.849   4.162  17.269  0.0541 -0.4886 -0.3694
  543TMC3    O1 8067   3.175   4.314  17.532  0.2547  0.7370 -0.2413
  543TMC3    O2 8068   2.769   4.186  17.358 -0.1130  0.8219 -0.2757
  544MPD2     C 8069   2.648   3.704  17.180  0.4824  0.5417 -0.3470
  544MPD2    C1 8070   2.766   3.712  17.105  1.0409  0.6171 -0.1027
  544MPD2    C2 8071   2.841   3.825  17.134 -0.0981 -0.2410  0.3013
  544MPD2    C3 8072   2.806   3.929  17.210  0.2948  0.5892 -0.1744
  544MPD2    C4 8073   2.689   3.923  17.285 -0.1448 -0.3638 -0.3135
  544MPD2    C5 8074   2.613   3.812  17.264  0.3662  0.3611 -0.3688
  544MPD2     H 8075   2.941   3.841  17.096 -0.1482  2.0479  1.1549
  544MPD2    H1 8076   2.660   3.994  17.363  0.9015 -0.7545  0.4368
  544MPD2    H2 8077   2.577   3.623  17.168  0.2587  0.8723 -1.2978
  544MPD2    H3 8078   2.521   3.813  17.321 -0.6333  2.9080 -2.0387
  544MPD2     N 8079   2.886   4.045  17.209 -0.1774  0.2904  0.6026
  544MPD2    H5 8080   2.970   4.050  17.151 -0.3770  0.6062  0.3376
  544MPD2    N1 8081   2.816   3.602  17.045 -0.1150 -0.3621 -0.0127
  544MPD2    H7 8082   2.759   3.518  17.043 -1.0191  0.2208  1.1635
  545TMC3    C1 8083   2.983   3.463  16.951 -0.2161 -0.1586  0.1280
  545TMC3    C2 8084   3.087   3.444  16.860 -0.0568 -0.3248 -0.2864
  545TMC3    C3 8085   3.163   3.329  16.882 -0.4056  0.4685  0.1790
  545TMC3    C4 8086   2.947   3.368  17.043 -0.1549  0.2819 -0.1724
  545TMC3    C5 8087   3.009   3.247  17.037 -0.6062 -0.4864 -0.1714
  545TMC3    C6 8088   3.121   3.228  16.959  0.0306 -0.0199  0.1763
  545TMC3     C 8089   2.939   3.598  16.980 -0.3224  0.0564  0.3551
  545TMC3     O 8090   3.014   3.684  16.940  0.0962 -0.1511 -1.3818
  545TMC3     H 8091   3.124   3.526  16.799  3.1299 -1.8549 -0.3851
  545TMC3    H1 8092   2.866   3.381  17.113  0.0730  0.8104 -0.0051
  545TMC3    H2 8093   3.183   3.142  16.983  1.1150  0.3209 -1.4300
  545TMC3    C7 8094   2.969   3.155  17.144  0.1790  0.3607  0.1610
  545TMC3    C8 8095   3.311   3.334  16.864  0.0398  0.1880 -0.6974
  545TMC3    O1 8096   2.926   3.201  17.251 -0.2362 -0.0331  0.7771
  545TMC3    O2 8097   3.389   3.248  16.904 -0.1977  0.1130  0.4917
  546MPD2     C 8098   0.023   3.416  16.820 -0.1326 -0.1484 -0.6145
  546MPD2    C1 8099   4.632   3.478  16.782  0.2592 -0.8818 -1.0016
  546MPD2    C2 8100   4.634   3.604  16.718 -0.3521 -0.4500 -0.0500
  546MPD2    C3 8101   0.029   3.672  16.697  0.6673 -0.3230 -0.0821
  546MPD2    C4 8102   0.145   3.602  16.718 -0.2635 -0.2584 -0.2061
  546MPD2    C5 8103   0.137   3.472  16.779 -0.6990  0.1213 -0.3775
  546MPD2     H 8104   4.541   3.654  16.695  0.5806  2.0631  1.6071
  546MPD2    H1 8105   0.244   3.635  16.691  0.9494 -3.5548  0.1527
  546MPD2    H2 8106   0.026   3.323  16.875 -0.4478  2.0922  3.2216
  546MPD2    H3 8107   0.231   3.428  16.810 -2.3757 -1.1101  3.0674
  546MPD2     N 8108   0.037   3.810  16.652  0.2684 -0.0753  0.6199
  546MPD2    H5 8109   0.131   3.839  16.628 -0.1699 -0.3749 -1.4018
  546MPD2    N1 8110   4.505   3.428  16.809  0.5539  0.7944 -0.3797
  546MPD2    H7 8111   4.429   3.494  16.799  0.0826  0.7380  2.9701
  547TMC3    C1 8112   4.323   3.312  16.901 -0.0455  0.4590  0.6104
  547TMC3    C2 8113   4.259   3.413  16.848  0.7513 -0.3451 -0.1315
  547TMC3    C3 8114   4.135   3.446  16.903  0.6191 -0.4719 -0.2016
  547TMC3    C4 8115   4.282   3.266  17.023  0.3810 -0.0119  0.1727
  547TMC3    C5 8116   4.169   3.308  17.081 -0.5000 -0.3870  0.1643
  547TMC3    C6 8117   4.084   3.390  17.014 -0.0802  0.2342  0.1945
  547TMC3     C 8118   4.467   3.317  16.882  0.1354  0.1492  0.8036
  547TMC3     O 8119   4.535   3.230  16.933  0.2784  0.2124 -0.3272
  547TMC3     H 8120   4.290   3.458  16.754 -0.1412  1.2643  0.3526
  547TMC3    H1 8121   4.338   3.181  17.061 -2.1817 -2.0745 -0.6601
  547TMC3    H2 8122   3.997   3.428  17.066  1.4130  2.7432  0.8607
  547TMC3    C7 8123   4.099   3.242  17.186  1.0437  0.3122 -0.7283
  547TMC3    C8 8124   4.075   3.569  16.861  0.3815  0.8265  0.5647
  547TMC3    O1 8125   3.997   3.294  17.229  0.7026  0.1314  0.2395
  547TMC3    O2 8126   4.076   3.588  16.741  0.4652  0.0679 -0.0586
  548MPD2     C 8127   4.467   0.027  12.260 -0.2637  0.2579  0.4599
  548MPD2    C1 8128   4.412   4.672  12.357  0.2339  0.3505 -0.0172
  548MPD2    C2 8129   4.472   4.552  12.392 -0.3029 -0.0720 -0.5363
  548MPD2    C3 8130   4.593   4.513  12.338  0.0772  0.1120  0.6112
  548MPD2    C4 8131   4.652   4.605  12.252 -0.0736  0.4906 -0.0259
  548MPD2    C5 8132   4.594   4.722  12.216 -0.0710  0.1659 -0.4458
  548MPD2     H 8133   4.421   4.479  12.453  0.4448  0.2662  0.5135
  548MPD2    H1 8134   0.027   4.590  12.207  0.6848 -1.1313  2.1266
  548MPD2    H2 8135   4.433   0.130  12.248  1.9948  1.0835  1.1376
  548MPD2    H3 8136   4.653   0.069  12.158 -1.1922 -0.4362 -2.3217
  548MPD2     N 8137   4.657   4.388  12.375 -0.4611  0.9934  0.5211
  548MPD2    H5 8138   4.601   4.324  12.431  1.5694  0.8380  2.3646
  548MPD2    N1 8139   4.282   4.707  12.416 -0.1404  0.3475  0.3890
  548MPD2    H7 8140   4.233   0.057  12.366  0.1484  0.7517  0.6994
  549TMC3    C1 8141   4.076   4.666  12.515 -0.3264  0.0773  0.5927
  549TMC3    C2 8142   4.054   0.072  12.550 -0.1764 -0.5519  0.0230
  549TMC3    C3 8143   3.936   0.105  12.600  0.3871 -0.4810 -0.1160
  549TMC3    C4 8144   3.981   4.570  12.525 -0.4192  0.0756 -0.3756
  549TMC3    C5 8145   3.864   4.607  12.587 -0.4908  0.0583  0.0455
  549TMC3    C6 8146   3.835   0.011  12.614 -0.2321  0.1705 -0.8197
  549TMC3     C 8147   4.209   4.624  12.496 -0.6273 -0.0226  0.5621
  549TMC3     O 8148   4.238   4.546  12.586  0.0418  0.2423 -0.2268
  549TMC3     H 8149   4.132   0.146  12.535 -0.3387 -0.0749  1.5441
  549TMC3    H1 8150   3.994   4.471  12.483 -2.0921  0.7612 -2.5180
  549TMC3    H2 8151   3.740   0.041  12.658  0.0178 -3.3310  2.0789
  549TMC3    C7 8152   3.750   4.515  12.588 -0.4679 -0.3881  0.3480
  549TMC3    C8 8153   3.866   0.212  12.526 -0.4521  0.4110 -0.8819
  549TMC3    O1 8154   3.631   4.556  12.585 -0.0938  0.8202 -0.0284
  549TMC3    O2 8155   3.766   0.173  12.467  0.4169 -0.2641  0.7912
  550TMC3    C1 8156   3.433   3.053  12.402 -0.6457 -0.1588  0.3592
  550TMC3    C2 8157   3.331   3.049  12.490 -0.1591  0.9187  0.1977
  550TMC3    C3 8158   3.217   3.125  12.472 -0.3121  0.5840 -0.1034
  550TMC3    C4 8159   3.419   3.113  12.284 -0.5878  0.0847 -0.2164
  550TMC3    C5 8160   3.305   3.194  12.258  0.3351  0.0760 -0.0222
  550TMC3    C6 8161   3.209   3.194  12.354 -0.1364  0.4930 -0.6739
  550TMC3     C 8162   3.490   2.921  12.390 -0.4494 -0.1281 -0.6819
  550TMC3     O 8163   3.408   2.835  12.369 -0.7243 -0.0701 -0.3042
  550TMC3     H 8164   3.340   2.985  12.578  0.7532 -0.1104 -0.6432
  550TMC3    H1 8165   3.495   3.092  12.209  0.0510  1.4480  0.0570
  550TMC3    H2 8166   3.123   3.258  12.338  0.1104  0.6884 -1.2336
  550TMC3    C7 8167   3.253   3.172  12.132 -0.1618  0.0346 -0.2985
  550TMC3    C8 8168   3.094   3.053  12.499  0.1630  0.5271 -0.9225
  550TMC3    O1 8169   3.135   3.142  12.129 -0.2847 -0.3992 -0.1350
  550TMC3    O2 8170   3.069   3.011  12.610 -0.0422 -0.5557  0.2371
  551TMC3    C1 8171   0.392   0.759  13.560 -0.6078 -0.4020 -0.4957
  551TMC3    C2 8172   0.455   0.811  13.449 -0.9395  0.8317  0.0580
  551TMC3    C3 8173   0.588   0.853  13.462  0.3745 -0.5339 -0.1762
  551TMC3    C4 8174   0.452   0.745  13.683 -0.4277 -0.1806 -0.1937
  551TMC3    C5 8175   0.581   0.785  13.691 -0.4066  0.3849  0.0527
  551TMC3    C6 8176   0.641   0.855  13.589  0.1872 -0.1079  0.1412
  551TMC3     C 8177   0.276   0.683  13.525 -0.1178  0.8568  0.6720
  551TMC3     O 8178   0.294   0.604  13.435 -0.1684 -0.3602 -0.0672
  551TMC3     H 8179   0.392   0.832  13.363 -0.2655 -0.2425 -0.6915
  551TMC3    H1 8180   0.401   0.685  13.757  0.2570  0.5806  0.8877
  551TMC3    H2 8181   0.748   0.870  13.598  0.2410 -0.3320 -0.1282
  551TMC3    C7 8182   0.641   0.785  13.823 -0.3156  0.8861  0.0236
  551TMC3    C8 8183   0.638   0.933  13.347  0.3297 -0.0582 -0.4288
  551TMC3    O1 8184   0.570   0.752  13.919  0.4038 -0.4434 -0.0208
  551TMC3    O2 8185   0.590   0.905  13.238 -0.3552  0.1502 -0.3258
  552MPD2     C 8186   2.359   2.233  14.017 -0.1069 -0.0503  0.2444
  552MPD2    C1 8187   2.492   2.199  14.020  0.7234  0.3715  0.3771
  552MPD2    C2 8188   2.572   2.232  14.123  0.1501  0.0810  0.4959
  552MPD2    C3 8189   2.528   2.323  14.217  0.4500  0.2426  0.3028
  552MPD2    C4 8190   2.393   2.349  14.222  0.3783  0.0369 -0.0324
  552MPD2    C5 8191   2.310   2.304  14.124  0.5405 -0.2169 -1.0138
  552MPD2     H 8192   2.676   2.203  14.107 -0.4267 -3.0162  2.2398
  552MPD2    H1 8193   2.351   2.420  14.293  0.8860  0.7815 -0.4848
  552MPD2    H2 8194   2.300   2.209  13.930 -0.2547 -1.7603  0.8132
  552MPD2    H3 8195   2.207   2.336  14.136  0.4565 -0.5736 -0.7841
  552MPD2     N 8196   2.615   2.387  14.308 -0.3217 -0.8084 -0.5435
  552MPD2    H5 8197   2.574   2.438  14.386  0.7091 -0.2415 -0.3710
  552MPD2    N1 8198   2.557   2.143  13.913 -0.3320 -0.1694 -0.2433
  552MPD2    H7 8199   2.646   2.105  13.944  0.6897  2.8556  0.6331
  553TMC3    C1 8200   2.628   2.082  13.716  0.1828 -0.1697 -0.1919
  553TMC3    C2 8201   2.676   2.160  13.615 -0.2793 -0.7440 -0.2900
  553TMC3    C3 8202   2.817   2.167  13.587 -0.4258 -0.1836  0.5792
  553TMC3    C4 8203   2.719   2.001  13.786 -0.7349  0.3888  0.1876
  553TMC3    C5 8204   2.854   2.011  13.748 -0.1671 -0.0523 -0.3026
  553TMC3    C6 8205   2.909   2.083  13.653 -0.3312 -0.1261 -0.2368
  553TMC3     C 8206   2.517   2.136  13.785  0.2665 -0.4857 -0.5951
  553TMC3     O 8207   2.418   2.187  13.730 -0.1266 -0.5529  0.3730
  553TMC3     H 8208   2.607   2.228  13.566 -1.6011 -1.1944  0.9476
  553TMC3    H1 8209   2.695   1.956  13.882  0.7604 -1.2158 -0.1943
  553TMC3    H2 8210   3.010   2.068  13.618 -1.4163  0.5622 -3.6558
  553TMC3    C7 8211   2.940   1.911  13.809  0.4438 -0.0396 -0.0309
  553TMC3    C8 8212   2.859   2.211  13.449  0.1877 -0.2631  0.4022
  553TMC3    O1 8213   2.900   1.796  13.820  0.8430  0.2961 -0.0608
  553TMC3    O2 8214   2.980   2.218  13.421  0.1221  0.0960  0.6398
  554TMC3    C1 8215   4.632   1.372  11.637  0.4419 -0.3148 -0.5209
  554TMC3    C2 8216   4.576   1.368  11.512  0.0025  0.2519  0.3620
  554TMC3    C3 8217   4.604   1.460  11.419 -0.6771  0.6533 -0.0529
  554TMC3    C4 8218   4.711   1.486  11.661  0.0126  0.2285  0.0706
  554TMC3    C5 8219   0.015   1.575  11.565 -0.3467  0.3506  0.0986
  554TMC3    C6 8220   4.684   1.567  11.445 -0.1060 -0.0498  1.2896
  554TMC3     C 8221   4.573   1.297  11.751  0.4781 -0.7213  0.0189
  554TMC3     O 8222   4.462   1.254  11.734  0.4772  0.7300  0.0099
  554TMC3     H 8223   4.516   1.282  11.486 -1.9336  1.4166  1.0163
  554TMC3    H1 8224   0.026   1.505  11.761  0.7088 -0.4578 -0.0661
  554TMC3    H2 8225   4.686   1.653  11.379  0.0933 -1.2482 -0.2446
  554TMC3    C7 8226   0.100   1.688  11.596  0.0981  0.7910  0.8962
  554TMC3    C8 8227   4.557   1.455  11.287  0.6014 -0.5291 -0.3524
  554TMC3    O1 8228   0.122   1.726  11.713 -0.1611 -0.1405 -0.2372
  554TMC3    O2 8229   4.610   1.538  11.211  0.3659  0.4998 -0.0785
  555TMC3    C1 8230   3.338   0.654  14.827 -0.0937 -0.8031 -0.3110
  555TMC3    C2 8231   3.302   0.758  14.914 -0.0284 -0.1226 -0.5230
  555TMC3    C3 8232   3.268   0.722  15.040 -0.3258  0.1312 -0.2654
  555TMC3    C4 8233   3.335   0.522  14.864 -0.4192  0.2235 -0.0596
  555TMC3    C5 8234   3.288   0.492  14.989  0.4471 -0.5467  0.1177
  555TMC3    C6 8235   3.256   0.594  15.082  0.0718  0.1969 -0.7445
  555TMC3     C 8236   3.372   0.677  14.686 -0.3248 -0.5288  0.2410
  555TMC3     O 8237   3.451   0.596  14.634  0.1224 -0.0799  0.3297
  555TMC3     H 8238   3.313   0.863  14.889  1.0593  0.3020  1.7654
  555TMC3    H1 8239   3.364   0.448  14.790  1.0652  1.4676 -0.7168
  555TMC3    H2 8240   3.226   0.565  15.182  2.0864  1.1171  0.1246
  555TMC3    C7 8241   3.293   0.358  15.043 -0.2858  0.0507 -0.3012
  555TMC3    C8 8242   3.267   0.818  15.146 -0.1068 -0.3026 -0.4244
  555TMC3    O1 8243   3.277   0.349  15.162 -0.1445 -0.8382 -0.0873
  555TMC3    O2 8244   3.168   0.817  15.217  0.6529  0.1014  0.3872
  556MPD2     C 8245   2.439   1.688  10.725  0.1770 -1.3003 -0.1437
  556MPD2    C1 8246   2.323   1.768  10.702  0.2602  0.7257  0.1939
  556MPD2    C2 8247   2.236   1.730  10.598 -0.0694  0.1602 -0.1197
  556MPD2    C3 8248   2.273   1.626  10.515  0.4919  0.9468 -0.6929
  556MPD2    C4 8249   2.381   1.549  10.542 -0.2910  0.4150 -0.3937
  556MPD2    C5 8250   2.461   1.583  10.647 -0.5924 -0.0180 -0.1331
  556MPD2     H 8251   2.149   1.790  10.575  1.1580  1.5810 -1.0719
  556MPD2    H1 8252   2.401   1.454  10.495  0.0230 -0.2672  1.1225
  556MPD2    H2 8253   2.508   1.705  10.807  0.3663  1.9892 -0.9902
  556MPD2    H3 8254   2.553   1.530  10.666 -0.9063 -0.1642  1.0031
  556MPD2     N 8255   2.187   1.597  10.407  0.1995 -0.3052 -1.0840
  556MPD2    H5 8256   2.108   1.661  10.403  0.2662 -0.0619  1.7314
  556MPD2    N1 8257   2.289   1.880  10.782  0.4735  0.0119 -0.5690
  556MPD2    H7 8258   2.194   1.914  10.768  0.7595  0.1382 -2.1887
  557TMC3    C1 8259   2.105   1.515  10.196  0.2138 -0.0045 -1.2889
  557TMC3    C2 8260   2.118   1.433  10.090  0.2897 -0.2864 -0.5266
  557TMC3    C3 8261   2.034   1.449   9.984 -0.6717  0.2473  0.5912
  557TMC3    C4 8262   2.023   1.624  10.191 -0.8018 -0.2366 -0.4432
  557TMC3    C5 8263   1.942   1.630  10.086 -0.2072  0.4172 -0.0398
  557TMC3    C6 8264   1.941   1.549   9.979 -0.3406 -0.4770  0.1781
  557TMC3     C 8265   2.204   1.510  10.304 -0.0864  0.1708  0.5063
  557TMC3     O 8266   2.285   1.417  10.301  0.6834 -0.6320  0.2958
  557TMC3     H 8267   2.190   1.352  10.099  1.6659  1.5149  4.8244
  557TMC3    H1 8268   2.012   1.695  10.272  2.0781  0.3338 -0.5529
  557TMC3    H2 8269   1.876   1.548   9.892 -1.7496  0.3524  1.2353
  557TMC3    C7 8270   1.834   1.719  10.097 -0.1945  0.1911  0.0014
  557TMC3    C8 8271   2.101   1.425   9.860  0.6864 -0.5875  0.6653
  557TMC3    O1 8272   1.849   1.814  10.170  0.0269  0.7090  0.3388
  557TMC3    O2 8273   2.103   1.519   9.782  0.2886  0.5428 -0.2567
  558TMC3    C1 8274   0.240   0.299   9.074 -0.2286  0.6983 -0.2107
  558TMC3    C2 8275   0.172   0.405   9.121  0.0148 -0.7074  1.2846
  558TMC3    C3 8276   0.033   0.414   9.129  0.3755 -0.2501  0.0455
  558TMC3    C4 8277   0.164   0.193   9.043 -0.4046 -0.2688  0.1203
  558TMC3    C5 8278   0.028   0.193   9.054 -0.0731 -0.4925  0.1720
  558TMC3    C6 8279   4.681   0.305   9.101 -0.1745 -0.6529  0.6589
  558TMC3     C 8280   0.362   0.267   9.157  0.8673 -0.3771  0.3277
  558TMC3     O 8281   0.360   0.300   9.277 -0.4863  0.4468  0.0011
  558TMC3     H 8282   0.211   0.487   9.180  0.5005  1.6154 -2.2653
  558TMC3    H1 8283   0.210   0.096   9.025  2.6449  0.9390  1.3244
  558TMC3    H2 8284   4.573   0.309   9.099 -0.0841  0.7196 -1.6820
  558TMC3    C7 8285   4.682   0.081   8.989  0.2655  0.6262  0.2199
  558TMC3    C8 8286   4.706   0.496   9.241  0.0648 -0.3033  0.1503
  558TMC3    O1 8287   0.023   0.003   8.920  0.4955 -0.2751 -0.6136
  558TMC3    O2 8288   0.020   0.618   9.248  0.0519 -0.1526  0.1915
  559MPD2     C 8289   4.283   0.797  10.681 -0.0346 -0.1666 -0.2975
  559MPD2    C1 8290   4.244   0.682  10.628  0.4997  0.3217  0.1465
  559MPD2    C2 8291   4.329   0.575  10.639 -0.2326  0.0740 -0.6733
  559MPD2    C3 8292   4.454   0.584  10.697 -0.8558  0.8407  0.5327
  559MPD2    C4 8293   4.485   0.708  10.746 -0.0867 -0.1308 -0.6617
  559MPD2    C5 8294   4.401   0.814  10.738  0.4949  0.0091 -0.0025
  559MPD2     H 8295   4.300   0.479  10.600 -1.3317 -0.1311  0.6523
  559MPD2    H1 8296   4.584   0.732  10.785 -0.6350  0.1582  0.5628
  559MPD2    H2 8297   4.230   0.888  10.654  1.7634  1.6182  2.1534
  559MPD2    H3 8298   4.432   0.907  10.786 -0.4826  0.1368  0.3776
  559MPD2     N 8299   4.537   0.467  10.698  0.3187 -0.0406 -0.1921
  559MPD2    H5 8300   4.507   0.380  10.655  1.1233 -0.8953  0.9701
  559MPD2    N1 8301   4.117   0.684  10.562  0.1396  0.3167  0.3222
  559MPD2    H7 8302   4.063   0.769  10.554  0.6674  0.6730  0.5979
  560TMC3    C1 8303   0.012   0.350  10.747 -0.0462  0.0453 -0.3595
  560TMC3    C2 8304   4.683   0.233  10.692  0.5699  0.4250 -0.0602
  560TMC3    C3 8305   0.052   0.138  10.662 -0.3908  0.1830 -0.0467
  560TMC3    C4 8306   0.148   0.365  10.770  0.2410  0.4551  0.4578
  560TMC3    C5 8307   0.236   0.266  10.734 -0.3179 -0.7954 -0.9548
  560TMC3    C6 8308   0.189   0.145  10.683  0.0917  0.8042 -0.0539
  560TMC3     C 8309   4.657   0.470  10.764  0.4179  0.4557 -0.3762
  560TMC3     O 8310   4.707   0.559  10.829 -0.0288 -0.9985  0.3100
  560TMC3     H 8311   4.578   0.212  10.676  0.6460  0.1690 -0.2183
  560TMC3    H1 8312   0.186   0.449  10.827  1.4227 -1.0743  1.8966
  560TMC3    H2 8313   0.259   0.068  10.649 -1.3236  0.2456 -1.6907
  560TMC3    C7 8314   0.366   0.263  10.794 -0.5717  0.0671  0.0644
  560TMC3    C8 8315   4.721   0.031  10.583  0.7036 -0.2619  0.1354
  560TMC3    O1 8316   0.416   0.155  10.808  1.0314 -0.1256 -0.1533
  560TMC3    O2 8317   4.596   0.013  10.591  0.2109  0.1030  0.4688
  561TMC3    C1 8318   2.516   3.980  10.764  0.4776 -0.6355 -0.3083
  561TMC3    C2 8319   2.429   3.910  10.843  0.5356 -0.8661  0.5264
  561TMC3    C3 8320   2.346   3.986  10.923 -0.3869 -0.0415 -0.2540
  561TMC3    C4 8321   2.525   4.117  10.765  0.3114 -0.0751  0.5805
  561TMC3    C5 8322   2.441   4.184  10.852  0.6520 -0.2073 -0.2440
  561TMC3    C6 8323   2.352   4.121  10.935 -0.4893 -0.3010 -0.0476
  561TMC3     C 8324   2.617   3.906  10.696 -0.1566  0.6934 -0.3308
  561TMC3     O 8325   2.597   3.791  10.664  0.1230 -0.1185 -0.8691
  561TMC3     H 8326   2.431   3.802  10.829 -1.3346 -0.6450 -1.5111
  561TMC3    H1 8327   2.587   4.167  10.691  0.7772 -0.6407  0.5882
  561TMC3    H2 8328   2.281   4.173  10.998 -2.5672 -1.2475 -1.6495
  561TMC3    C7 8329   2.461   4.327  10.878 -0.7690  0.2747 -0.0172
  561TMC3    C8 8330   2.296   3.916  11.040 -0.8113  0.2566 -0.8477
  561TMC3    O1 8331   2.397   4.374  10.974 -0.8300  0.7719 -0.0277
  561TMC3    O2 8332   2.361   3.813  11.057 -0.4378  0.7990  0.1055
  562TMC3    C1 8333   3.185   1.393  16.299 -0.0169 -0.2272  0.6111
  562TMC3    C2 8334   3.069   1.469  16.287 -0.0680  0.7488 -0.4429
  562TMC3    C3 8335   3.000   1.449  16.168  0.0450  0.0421  0.1006
  562TMC3    C4 8336   3.229   1.308  16.201  0.4403  0.2576  1.0492
  562TMC3    C5 8337   3.152   1.299  16.083  0.0621 -0.7094  0.0757
  562TMC3    C6 8338   3.034   1.364  16.071  0.6769  0.4745  0.2023
  562TMC3     C 8339   3.287   1.427  16.395 -0.0360 -0.7155 -0.3292
  562TMC3     O 8340   3.400   1.394  16.362 -0.1676 -0.2026  0.6604
  562TMC3     H 8341   3.041   1.544  16.360  2.8213  0.4358  0.9791
  562TMC3    H1 8342   3.315   1.246  16.222  0.5978 -0.3210 -1.2899
  562TMC3    H2 8343   2.975   1.357  15.980  2.1673 -0.1358 -0.7284
  562TMC3    C7 8344   3.183   1.215  15.968  0.2199  0.3022 -0.1832
  562TMC3    C8 8345   2.880   1.525  16.150 -0.4828  0.0783 -0.3335
  562TMC3    O1 8346   3.124   1.237  15.863 -0.5655  0.4862 -0.2325
  562TMC3    O2 8347   2.818   1.533  16.258 -0.2081 -0.4899  0.2271
  563MPD2     C 8348   0.739   2.431  15.568 -0.3036 -1.0176  0.1969
  563MPD2    C1 8349   0.746   2.361  15.685  0.4417 -0.2667  0.2945
  563MPD2    C2 8350   0.873   2.327  15.736  0.2734 -0.1142 -0.6529
  563MPD2    C3 8351   0.987   2.371  15.675  0.3255 -1.0729  1.4127
  563MPD2    C4 8352   0.976   2.430  15.548  0.0235  0.1166 -0.6232
  563MPD2    C5 8353   0.853   2.464  15.501 -0.5391 -0.4071 -0.1907
  563MPD2     H 8354   0.875   2.273  15.830  2.2272  1.2836  0.1214
  563MPD2    H1 8355   1.054   2.483  15.495  0.5556  0.1003  0.1444
  563MPD2    H2 8356   0.645   2.448  15.516  0.0116  0.3042  0.0707
  563MPD2    H3 8357   0.837   2.523  15.411 -0.1371 -0.1722 -0.1068
  563MPD2     N 8358   1.114   2.343  15.735 -0.1148 -0.1348  0.4665
  563MPD2    H5 8359   1.104   2.301  15.827  3.4565 -1.4378  0.2525
  563MPD2    N1 8360   0.631   2.312  15.755  0.1310 -0.0221 -0.4278
  563MPD2    H7 8361   0.653   2.268  15.843  0.0140  1.9946  0.6216
  564TMC3    C1 8362   0.418   2.241  15.801  0.0661  0.4832  0.1845
  564TMC3    C2 8363   0.287   2.217  15.774 -0.6889 -0.3455  0.3419
  564TMC3    C3 8364   0.212   2.143  15.867 -0.3344 -0.5465 -0.1648
  564TMC3    C4 8365   0.477   2.186  15.911 -0.3871  0.0891 -0.2572
  564TMC3    C5 8366   0.395   2.123  16.001 -0.6480 -0.7085 -0.1941
  564TMC3    C6 8367   0.261   2.100  15.984 -0.1423 -0.1429  0.0191
  564TMC3     C 8368   0.501   2.310  15.701  0.0009 -0.4086 -0.5565
  564TMC3     O 8369   0.452   2.343  15.594  0.0481 -0.2339  0.2763
  564TMC3     H 8370   0.232   2.269  15.697 -0.5745 -0.1020  0.4214
  564TMC3    H1 8371   0.585   2.181  15.924 -0.4553  0.8993  0.6387
  564TMC3    H2 8372   0.202   2.064  16.066 -1.2896  1.7711  0.0284
  564TMC3    C7 8373   0.465   2.031  16.086 -0.0794 -0.0935  0.1719
  564TMC3    C8 8374   0.089   2.079  15.822 -1.1549  0.3632 -0.2919
  564TMC3    O1 8375   0.584   2.050  16.108  0.3791 -0.0537  0.6324
  564TMC3    O2 8376   4.721   2.063  15.906 -0.2837  0.3468 -0.6096
  565TMC3    C1 8377   2.117   3.826  10.114 -0.7943 -0.3926  0.7269
  565TMC3    C2 8378   2.050   3.713  10.158  0.6119  0.4262 -1.2672
  565TMC3    C3 8379   1.918   3.724  10.192 -1.1034 -0.2398 -0.2508
  565TMC3    C4 8380   2.049   3.949  10.091  0.2800  0.3725 -0.0058
  565TMC3    C5 8381   1.916   3.948  10.124  0.5879 -0.2790 -0.3534
  565TMC3    C6 8382   1.856   3.844  10.183 -0.9158  0.3577 -0.0334
  565TMC3     C 8383   2.261   3.828  10.119 -0.6056  0.2691  0.5711
  565TMC3     O 8384   2.310   3.908  10.042  0.3126 -0.1464 -0.3762
  565TMC3     H 8385   2.092   3.613  10.145 -0.1849 -0.1528  0.6679
  565TMC3    H1 8386   2.111   4.034  10.064 -3.1321  2.4881 -1.1385
  565TMC3    H2 8387   1.749   3.850  10.195 -0.7005  0.8382  1.5992
  565TMC3    C7 8388   1.831   3.982  10.015 -1.0286 -0.1688  0.1989
  565TMC3    C8 8389   1.828   3.615  10.171 -0.0188 -0.2299 -0.1440
  565TMC3    O1 8390   1.768   3.893   9.955 -0.3696  0.4437 -0.1273
  565TMC3    O2 8391   1.843   3.512  10.237 -0.4535 -0.0341 -0.5297
  566MPD2     C 8392   2.312   0.942  14.294 -0.3832  0.3574  0.1391
  566MPD2    C1 8393   2.393   0.907  14.187  0.4318  0.2270 -0.3737
  566MPD2    C2 8394   2.340   0.829  14.085  0.3030 -0.5493  0.6569
  566MPD2    C3 8395   2.212   0.782  14.087 -0.1195  0.4665 -0.3291
  566MPD2    C4 8396   2.126   0.814  14.194  0.3079 -0.7763 -0.3573
  566MPD2    C5 8397   2.179   0.900  14.290 -0.3349  0.1446 -0.3135
  566MPD2     H 8398   2.398   0.833  13.994  0.9407 -1.2789  1.0384
  566MPD2    H1 8399   2.023   0.778  14.198 -0.2761  0.8678 -0.8745
  566MPD2    H2 8400   2.346   1.003  14.377  0.3754 -0.9573  0.7883
  566MPD2    H3 8401   2.109   0.933  14.366 -0.4814  0.8277 -0.7510
  566MPD2     N 8402   2.152   0.712  13.979 -0.0137 -0.0191  0.0920
  566MPD2    H5 8403   2.051   0.710  13.976  0.0139 -2.4061  1.1236
  566MPD2    N1 8404   2.531   0.950  14.173  0.0505  0.6900  0.3050
  566MPD2    H7 8405   2.575   0.929  14.083  0.8375  1.3421  0.5408
  567TMC3    C1 8406   2.730   1.061  14.209 -1.2912 -0.1647 -0.2645
  567TMC3    C2 8407   2.739   1.076  14.068  0.0842 -0.5035 -0.7480
  567TMC3    C3 8408   2.860   1.049  14.014 -0.2288  0.2054  0.2437
  567TMC3    C4 8409   2.840   1.026  14.285 -0.0671 -0.0147 -0.4988
  567TMC3    C5 8410   2.959   1.009  14.228  0.7097 -0.1804  0.1901
  567TMC3    C6 8411   2.970   1.036  14.094  0.4702 -0.2550 -0.2466
  567TMC3     C 8412   2.599   1.024  14.265  0.1397  0.3178  0.1237
  567TMC3     O 8413   2.574   1.030  14.384 -0.3946 -0.3647 -0.1064
  567TMC3     H 8414   2.651   1.096  14.008 -0.2933 -0.5052 -0.1944
  567TMC3    H1 8415   2.828   0.998  14.389  0.7445  3.0212  0.3969
  567TMC3    H2 8416   3.067   1.034  14.046  1.3642  0.8543  1.5443
  567TMC3    C7 8417   3.036   0.886  14.262  0.2646  0.1732 -0.8514
  567TMC3    C8 8418   2.874   1.056  13.872 -0.1809 -0.0482 -0.1220
  567TMC3    O1 8419   3.080   0.822  14.166  0.3635 -0.2507  0.1765
  567TMC3    O2 8420   2.791   1.129  13.818 -0.2704  0.3906  0.1772
  568MPD2     C 8421   0.774   0.859  16.356 -0.5107 -0.0780  0.2755
  568MPD2    C1 8422   0.661   0.840  16.428 -0.0019  0.5343 -0.5095
  568MPD2    C2 8423   0.549   0.915  16.402  1.0712 -0.2626 -0.2200
  568MPD2    C3 8424   0.538   1.004  16.300 -0.0932 -1.0823 -0.1066
  568MPD2    C4 8425   0.659   1.028  16.229  0.4682 -0.3796  0.2805
  568MPD2    C5 8426   0.772   0.949  16.254  0.4588 -0.2706 -0.3011
  568MPD2     H 8427   0.451   0.893  16.442  1.1962 -2.9505 -1.3627
  568MPD2    H1 8428   0.669   1.094  16.144  1.1142  3.5572  3.4280
  568MPD2    H2 8429   0.871   0.812  16.366  0.7643  2.9356  1.8995
  568MPD2    H3 8430   0.859   0.959  16.189  1.0108 -1.8807  0.1924
  568MPD2     N 8431   0.422   1.079  16.278  0.3839 -0.1349  0.6237
  568MPD2    H5 8432   0.335   1.064  16.328  0.5924  0.1613  1.0743
  568MPD2    N1 8433   0.663   0.728  16.519 -0.3631  0.3925 -0.1934
  568MPD2    H7 8434   0.745   0.668  16.524 -1.4354 -1.1556 -1.0021
  569TMC3    C1 8435   0.275   1.236  16.192 -0.2681  0.2210  0.2351
  569TMC3    C2 8436   0.263   1.314  16.305 -0.0873 -0.0112  0.3821
  569TMC3    C3 8437   0.176   1.420  16.311  0.4287  0.1044 -0.1004
  569TMC3    C4 8438   0.202   1.258  16.076  0.3194  0.3354 -0.2085
  569TMC3    C5 8439   0.128   1.380  16.073  1.0248 -0.1038 -0.1517
  569TMC3    C6 8440   0.110   1.458  16.191 -0.1644 -0.5149 -0.2538
  569TMC3     C 8441   0.406   1.176  16.182 -0.2809 -0.1889 -0.6838
  569TMC3     O 8442   0.488   1.211  16.100 -0.1744  0.0272  0.5183
  569TMC3     H 8443   0.337   1.302  16.384  1.3054 -0.2165 -0.9542
  569TMC3    H1 8444   0.223   1.197  15.989 -0.3994  0.4537 -0.4576
  569TMC3    H2 8445   0.071   1.559  16.183  2.9130  0.8476  1.5530
  569TMC3    C7 8446   0.095   1.424  15.941 -1.0014 -0.0017  0.4974
  569TMC3    C8 8447   0.213   1.541  16.386 -0.0939  0.6344 -0.9975
  569TMC3    O1 8448   0.100   1.341  15.853 -0.0771 -0.7780  0.2697
  569TMC3    O2 8449   0.147   1.642  16.359  0.0945  0.1420  0.0815
  570TMC3    C1 8450   4.525   0.180  16.247 -0.3537  0.5220 -0.3930
  570TMC3    C2 8451   4.632   0.215  16.167  0.5451 -0.0743  0.1943
  570TMC3    C3 8452   4.672   0.345  16.164 -0.5639 -0.1590 -0.1077
  570TMC3    C4 8453   4.466   0.270  16.331 -0.5237  0.0557 -0.5220
  570TMC3    C5 8454   4.512   0.401  16.324 -0.8572 -0.6171  0.2701
  570TMC3    C6 8455   4.609   0.439  16.244 -0.3426 -0.4857  0.5941
  570TMC3     C 8456   4.445   0.054  16.218 -0.4200  0.2068  0.8414
  570TMC3     O 8457   4.461   0.001  16.109  0.3577  0.7511  0.1224
  570TMC3     H 8458   4.650   0.144  16.087 -0.5153  0.8348 -0.8432
  570TMC3    H1 8459   4.372   0.245  16.378 -1.0103  3.8478  0.5245
  570TMC3    H2 8460   4.641   0.542  16.233  0.3619 -0.8614 -0.8980
  570TMC3    C7 8461   4.449   0.496  16.413  0.1963 -0.1841 -0.4348
  570TMC3    C8 8462   0.071   0.384  16.095 -0.4251 -0.3365 -0.2959
  570TMC3    O1 8463   4.395   0.457  16.514  0.1345 -0.0687 -0.3577
  570TMC3    O2 8464   0.077   0.503  16.077 -0.5975 -0.2120 -0.6317
  571MPD2     C 8465   2.612   1.580  17.212  0.5164 -0.6756 -0.3963
  571MPD2    C1 8466   2.566   1.499  17.309  0.9444 -0.0845 -0.4384
  571MPD2    C2 8467   2.519   1.549  17.428 -0.1562  0.1186  0.4097
  571MPD2    C3 8468   2.527   1.687  17.450 -0.5144 -0.2932  0.4438
  571MPD2    C4 8469   2.561   1.769  17.347  0.2909  0.1352 -0.4990
  571MPD2    C5 8470   2.604   1.717  17.228  0.4628 -0.3318  1.0377
  571MPD2     H 8471   2.497   1.488  17.515  0.2301  0.2792  0.6195
  571MPD2    H1 8472   2.565   1.873  17.377  1.4150  0.1765 -0.7831
  571MPD2    H2 8473   2.652   1.537  17.120 -0.2438 -1.1276 -0.5101
  571MPD2    H3 8474   2.643   1.783  17.151 -3.0195 -1.2074 -1.4605
  571MPD2     N 8475   2.506   1.743  17.581 -0.0420  0.4512 -0.5574
  571MPD2    H5 8476   2.528   1.841  17.590  0.2426  0.3458 -0.0775
  571MPD2    N1 8477   2.567   1.361  17.284  0.1919 -0.0611  0.1453
  571MPD2    H7 8478   2.582   1.330  17.188 -2.3387  2.1646 -0.9802
  572TMC3    C1 8479   2.496   1.745   0.126 -0.3338 -0.2453  0.2563
  572TMC3    C2 8480   2.525   1.659   0.230  0.3243  0.4107  0.0667
  572TMC3    C3 8481   2.509   1.707   0.358  0.1293 -0.3387  0.5312
  572TMC3    C4 8482   2.437   1.862   0.141 -0.2226 -0.3577  0.0318
  572TMC3    C5 8483   2.424   1.909   0.266  0.4259  0.0862 -0.0269
  572TMC3    C6 8484   2.445   1.828   0.378  0.0045 -0.0600  0.4862
  572TMC3     C 8485   2.473   1.668   0.001 -0.0784 -0.2798 -0.5137
  572TMC3     O 8486   2.461   1.548   0.015 -0.2110  0.3972 -1.0833
  572TMC3     H 8487   2.573   1.566   0.201  1.0000  0.9889 -0.6869
  572TMC3    H1 8488   2.388   1.908   0.055  1.1922 -1.4579 -1.3710
  572TMC3    H2 8489   2.441   1.870   0.478 -1.8348  0.2623  0.2742
  572TMC3    C7 8490   2.373   2.044   0.290  0.3875 -0.0107  0.0693
  572TMC3    C8 8491   2.494   1.601   0.464 -0.4274 -0.5873  0.0049
  572TMC3    O1 8492   2.354   2.078   0.404 -0.0105  0.2298  0.2843
  572TMC3    O2 8493   2.515   1.486   0.429 -0.1657  0.1841  0.6342
  573MPD2     C 8494   2.940   1.719  17.633  0.4413  0.5310  0.2789
  573MPD2    C1 8495   3.045   1.796  17.677 -0.5326  0.0170  0.2582
  573MPD2    C2 8496   3.111   1.875  17.579 -0.1189  0.3613  0.0595
  573MPD2    C3 8497   3.067   1.868  17.448 -0.4434 -0.2797 -0.1796
  573MPD2    C4 8498   2.955   1.798  17.420  0.2157  0.0917 -0.3082
  573MPD2    C5 8499   2.897   1.716  17.507  0.0590 -0.0354  0.0201
  573MPD2     H 8500   3.198   1.934  17.605  0.4133  0.1211 -1.1733
  573MPD2    H1 8501   2.908   1.817  17.324 -0.9553  0.3248  0.3129
  573MPD2    H2 8502   2.882   1.651  17.693  3.6671 -1.9499  0.5822
  573MPD2    H3 8503   2.817   1.653  17.470 -1.7759  1.3505  1.6033
  573MPD2     N 8504   3.118   1.947  17.344 -0.2656  0.0634  0.1463
  573MPD2    H5 8505   3.067   1.935  17.257  2.0468  0.5232 -1.2648
  573MPD2    N1 8506   3.093   1.780   0.114  0.4453 -0.3748 -0.1876
  573MPD2    H7 8507   3.045   1.714   0.175 -0.2493  3.1253  3.0479
  574TMC3    C1 8508   3.252   2.120  17.245 -0.3297 -0.5278 -0.5502
  574TMC3    C2 8509   3.151   2.208  17.234  0.1973 -0.2932 -0.3238
  574TMC3    C3 8510   3.174   2.339  17.198  0.0517 -0.5850  0.3189
  574TMC3    C4 8511   3.378   2.173  17.247  0.0962  0.5803 -0.4941
  574TMC3    C5 8512   3.398   2.306  17.206  0.2689 -0.1865 -0.9754
  574TMC3    C6 8513   3.297   2.390  17.169  0.3017 -0.2449 -0.2468
  574TMC3     C 8514   3.241   2.012  17.348 -0.0793 -0.9319 -0.4595
  574TMC3     O 8515   3.329   1.995  17.425  0.1092  0.3489 -0.2867
  574TMC3     H 8516   3.048   2.174  17.239 -0.0353  0.4366 -0.0687
  574TMC3    H1 8517   3.461   2.114  17.284  1.1306  1.0583 -2.0514
  574TMC3    H2 8518   3.316   2.496  17.156 -0.5047 -0.1701 -0.8593
  574TMC3    C7 8519   3.532   2.362  17.203 -0.6326  0.3485 -0.0477
  574TMC3    C8 8520   3.073   2.427  17.229  0.6969 -0.2544 -0.0822
  574TMC3    O1 8521   3.528   2.477  17.167 -0.2742 -0.2946 -0.4112
  574TMC3    O2 8522   2.980   2.384  17.301 -0.8703  0.3524 -0.1504
  575TMC3    C1 8523   1.389   2.871  10.287 -0.4557 -0.2562 -0.1964
  575TMC3    C2 8524   1.271   2.846  10.221  0.0025 -0.9160 -0.2476
  575TMC3    C3 8525   1.242   2.929  10.113 -0.6283 -0.0869 -0.5275
  575TMC3    C4 8526   1.484   2.970  10.246  0.0150  0.6409 -0.0064
  575TMC3    C5 8527   1.434   3.067  10.162 -0.0347  0.0932 -0.3483
  575TMC3    C6 8528   1.317   3.042  10.097  0.3087  0.1654  0.3691
  575TMC3     C 8529   1.402   2.794  10.406 -1.4426  0.2470  0.5305
  575TMC3     O 8530   1.297   2.750  10.456 -0.3728  0.6473  0.1986
  575TMC3     H 8531   1.202   2.767  10.250 -1.3115  0.9941  1.7912
  575TMC3    H1 8532   1.571   2.990  10.307 -0.1266  1.1271  0.0359
  575TMC3    H2 8533   1.267   3.119  10.040 -0.0730 -0.5735 -0.2941
  575TMC3    C7 8534   1.517   3.180  10.133 -0.5311 -0.2784  0.0743
  575TMC3    C8 8535   1.124   2.895  10.036  0.9436 -0.3447 -0.6244
  575TMC3    O1 8536   1.623   3.196  10.201  0.1293 -1.1544 -0.3946
  575TMC3    O2 8537   1.047   2.809  10.082  0.3831  0.0717 -0.1334
  576MPD2     C 8538   1.527   4.126  12.197  0.3005  0.0830  0.1409
  576MPD2    C1 8539   1.496   4.247  12.133 -0.5254  0.3861 -0.8811
  576MPD2    C2 8540   1.432   4.346  12.203  1.1162 -0.2216  0.0430
  576MPD2    C3 8541   1.392   4.331  12.334 -0.7239 -0.3791  0.2087
  576MPD2    C4 8542   1.431   4.215  12.403 -0.5306 -0.9765 -0.4323
  576MPD2    C5 8543   1.496   4.121  12.329  0.1953  1.1383  0.5963
  576MPD2     H 8544   1.414   4.440  12.152  1.3156 -0.7624 -1.0232
  576MPD2    H1 8545   1.405   4.195  12.506  2.2110  0.4922  0.5285
  576MPD2    H2 8546   1.576   4.038  12.157 -1.1218 -1.0319  0.8487
  576MPD2    H3 8547   1.530   4.038  12.390  2.2112  1.5090 -0.0205
  576MPD2     N 8548   1.326   4.438  12.400  0.1381 -0.0495  0.4878
  576MPD2    H5 8549   1.301   4.517  12.342  0.9541  0.6873  1.1350
  576MPD2    N1 8550   1.501   4.263  11.990  0.1132 -0.8125  0.3856
  576MPD2    H7 8551   1.445   4.341  11.960 -1.9251 -1.4881  2.4160
  577TMC3    C1 8552   1.565   4.200  11.762  0.0551  0.6056  0.2473
  577TMC3    C2 8553   1.644   4.097  11.706 -0.2182  0.2815  0.2384
  577TMC3    C3 8554   1.740   4.125  11.616 -0.1448  0.6889 -0.4443
  577TMC3    C4 8555   1.596   4.326  11.738 -0.0115  0.1248  0.1726
  577TMC3    C5 8556   1.701   4.354  11.659 -0.7327 -0.2971  0.6174
  577TMC3    C6 8557   1.778   4.254  11.600  1.1907  0.0450 -0.2095
  577TMC3     C 8558   1.563   4.170  11.907 -0.6836 -0.8561 -0.3177
  577TMC3     O 8559   1.640   4.081  11.938 -0.3487  0.2611  0.2664
  577TMC3     H 8560   1.622   3.992  11.722  0.2306 -0.0180 -1.1700
  577TMC3    H1 8561   1.544   4.403  11.795  0.5020  0.8870 -0.3836
  577TMC3    H2 8562   1.851   4.273  11.522 -0.2715 -1.7642 -2.0653
  577TMC3    C7 8563   1.745   4.482  11.627 -0.3530  0.5071 -0.5807
  577TMC3    C8 8564   1.826   4.021  11.583  0.5434  0.5028 -0.0113
  577TMC3    O1 8565   1.868   4.493  11.634 -0.5381 -0.3380 -0.3156
  577TMC3    O2 8566   1.823   3.928  11.662  0.3673 -0.3163  0.1777
  578MPD2     C 8567   3.009   4.301   0.991  0.4917 -0.1656 -0.4920
  578MPD2    C1 8568   3.139   4.287   0.948 -0.2724 -0.3020  0.3888
  578MPD2    C2 8569   3.227   4.210   1.018  0.1285 -0.2260  0.6209
  578MPD2    C3 8570   3.176   4.158   1.137 -0.1384  0.5141  0.3357
  578MPD2    C4 8571   3.044   4.180   1.185 -0.5068 -0.3858  0.1722
  578MPD2    C5 8572   2.962   4.255   1.112  0.0823 -0.0563 -0.2192
  578MPD2     H 8573   3.320   4.176   0.975 -0.5001 -1.0928 -0.0684
  578MPD2    H1 8574   3.012   4.136   1.279  2.2749 -1.1873  0.7501
  578MPD2    H2 8575   2.950   4.371   0.933 -1.1418 -0.7772  0.4154
  578MPD2    H3 8576   2.861   4.275   1.144 -0.0997 -1.8788  0.2936
  578MPD2     N 8577   3.265   4.082   1.220 -0.0361  0.1773  0.3948
  578MPD2    H5 8578   3.358   4.066   1.182  0.1391 -1.1425  1.3936
  578MPD2    N1 8579   3.171   4.332   0.818  0.3048 -0.3886  0.7646
  578MPD2    H7 8580   3.097   4.371   0.761  2.2485  1.2295 -0.6661
  579TMC3    C1 8581   3.370   3.985   1.402 -0.1026  0.8715  0.7018
  579TMC3    C2 8582   3.390   4.010   1.539 -0.3785 -0.8827  0.4531
  579TMC3    C3 8583   3.525   4.023   1.571  0.3652 -0.4407  0.2581
  579TMC3    C4 8584   3.466   3.951   1.311  0.2122 -0.0889  0.4426
  579TMC3    C5 8585   3.591   3.931   1.365 -0.5091  0.4414 -0.0852
  579TMC3    C6 8586   3.622   3.971   1.490  0.5203 -0.3010 -1.2435
  579TMC3     C 8587   3.251   4.053   1.355  1.0593  0.3996 -0.6042
  579TMC3     O 8588   3.162   4.090   1.429 -0.0664  0.3229 -0.3144
  579TMC3     H 8589   3.319   4.050   1.611  0.4747  0.2486  0.6770
  579TMC3    H1 8590   3.434   3.911   1.215 -0.7359 -0.6210  0.9853
  579TMC3    H2 8591   3.726   3.967   1.520  0.4872 -0.0389 -1.0933
  579TMC3    C7 8592   3.706   3.888   1.273 -0.3742  0.2036  0.0132
  579TMC3    C8 8593   3.567   4.130   1.661 -0.3148 -1.1002  0.1217
  579TMC3    O1 8594   3.816   3.873   1.324  0.2211  0.1011 -0.6156
  579TMC3    O2 8595   3.497   4.157   1.757  0.1874  0.2709  0.1899
  580TMC3    C1 8596   4.488   4.577  11.876  0.0675 -0.6132  0.5995
  580TMC3    C2 8597   4.600   4.588  11.799  0.0801  0.2521  0.4133
  580TMC3    C3 8598   4.704   4.501  11.817  0.3091  0.0674  0.7209
  580TMC3    C4 8599   4.470   4.476  11.967 -0.0041 -0.6558  0.0734
  580TMC3    C5 8600   4.579   4.392  11.985  0.0480  0.4176  0.4807
  580TMC3    C6 8601   4.696   4.402  11.910  0.1382  0.0336 -0.3835
  580TMC3     C 8602   4.355   4.634  11.835 -0.3734 -0.1451  0.0846
  580TMC3     O 8603   4.271   4.648  11.922 -0.3202  0.5739 -0.4199
  580TMC3     H 8604   4.609   4.669  11.727 -3.0166 -0.2664 -0.5597
  580TMC3    H1 8605   4.376   4.462  12.020 -1.1190 -0.1258 -1.7887
  580TMC3    H2 8606   0.058   4.335  11.921  0.5943  0.9638  1.7248
  580TMC3    C7 8607   4.533   4.263  12.033  0.0394  0.7192 -0.4758
  580TMC3    C8 8608   0.113   4.540  11.782  0.5866 -0.8088 -0.0767
  580TMC3    O1 8609   4.444   4.256  12.113 -0.8674  0.1538  0.0999
  580TMC3    O2 8610   0.201   4.455  11.765  0.0878 -0.0149 -0.2769
  581MPD2     C 8611   1.702   3.906  15.276  0.6068 -0.6519  0.0703
  581MPD2    C1 8612   1.699   3.828  15.167  0.2236 -0.5714  0.1093
  581MPD2    C2 8613   1.592   3.829  15.085  0.0065  0.0434 -0.1097
  581MPD2    C3 8614   1.483   3.909  15.111 -0.1740 -0.6039  0.7108
  581MPD2    C4 8615   1.472   3.978  15.228  0.2801  0.0052  0.0217
  581MPD2    C5 8616   1.586   3.971  15.311  0.4952 -0.7840 -0.4018
  581MPD2     H 8617   1.588   3.771  14.994  0.5749 -1.4248  0.8032
  581MPD2    H1 8618   1.393   4.044  15.261  0.1163  0.7890 -1.9381
  581MPD2    H2 8619   1.786   3.916  15.344 -1.4026  0.4692  2.3858
  581MPD2    H3 8620   1.591   4.023  15.406 -2.7989  1.3462 -1.3876
  581MPD2     N 8621   1.384   3.927  15.010 -0.6264 -0.0785 -0.1311
  581MPD2    H5 8622   1.401   3.883  14.920  3.2300  3.0671 -0.9103
  581MPD2    N1 8623   1.815   3.755  15.141  0.0197  0.1992 -0.3736
  581MPD2    H7 8624   1.891   3.782  15.201 -0.8328 -3.6113  2.4212
  582TMC3    C1 8625   1.938   3.573  15.054  0.3716  0.0140  0.1725
  582TMC3    C2 8626   2.012   3.577  15.168 -0.0601 -0.1497 -0.8269
  582TMC3    C3 8627   2.075   3.469  15.214 -0.3522 -0.1728  0.1339
  582TMC3    C4 8628   1.934   3.461  14.986 -0.1550  0.0453  0.1380
  582TMC3    C5 8629   1.994   3.346  15.032  1.0821 -0.3201  0.1410
  582TMC3    C6 8630   2.073   3.347  15.149 -0.0211  0.1568  0.5139
  582TMC3     C 8631   1.817   3.644  15.054  0.2525  0.1100 -0.4515
  582TMC3     O 8632   1.726   3.589  14.988  0.8438  0.2479 -0.7499
  582TMC3     H 8633   2.028   3.672  15.218 -2.5099 -0.1584 -0.0394
  582TMC3    H1 8634   1.885   3.471  14.890 -0.7019  3.7877  0.8069
  582TMC3    H2 8635   2.098   3.256  15.201 -0.6755 -0.3883 -0.1162
  582TMC3    C7 8636   1.906   3.234  15.023 -0.1968 -0.4049 -0.2449
  582TMC3    C8 8637   2.098   3.473  15.363  0.0322  0.3416 -0.3703
  582TMC3    O1 8638   1.956   3.134  15.072  0.6076 -0.1148  0.7070
  582TMC3    O2 8639   2.036   3.563  15.415 -0.2506 -0.5297  0.3199
  583MPD2     C 8640   1.538   0.490  16.575 -0.5987 -0.1255  0.4491
  583MPD2    C1 8641   1.607   0.604  16.529  0.3021  0.1263 -0.5258
  583MPD2    C2 8642   1.621   0.713  16.618 -1.5928 -0.1642 -0.2824
  583MPD2    C3 8643   1.575   0.715  16.750 -0.1019 -0.0948  0.1039
  583MPD2    C4 8644   1.505   0.601  16.789 -0.2154  0.0433  0.1247
  583MPD2    C5 8645   1.491   0.495  16.702 -0.1866 -0.0186 -0.1790
  583MPD2     H 8646   1.675   0.804  16.592  0.4042 -1.5328 -0.8698
  583MPD2    H1 8647   1.462   0.582  16.886  1.4802  0.2661  0.9241
  583MPD2    H2 8648   1.527   0.402  16.513  0.0520  1.1431 -1.4828
  583MPD2    H3 8649   1.442   0.408  16.746 -0.1408  0.4712  0.8424
  583MPD2     N 8650   1.593   0.835  16.825  0.0340  1.0330 -0.5183
  583MPD2    H5 8651   1.637   0.915  16.780  0.1817  0.3684 -1.5422
  583MPD2    N1 8652   1.673   0.618  16.405 -0.9435  0.1857  0.3013
  583MPD2    H7 8653   1.714   0.709  16.384 -0.5901 -0.8803 -3.6301
  584TMC3    C1 8654   1.616   0.959  17.025 -0.1752  1.1334 -0.3949
  584TMC3    C2 8655   1.585   1.078  16.963  0.1062 -0.0503 -0.2154
  584TMC3    C3 8656   1.607   1.196  17.028 -0.1300  0.3074 -0.1074
  584TMC3    C4 8657   1.644   0.952  17.157  0.0485 -0.2124  0.2403
  584TMC3    C5 8658   1.652   1.071  17.225  0.8018  0.0758  0.6060
  584TMC3    C6 8659   1.638   1.189  17.161  0.9832 -0.4193  0.5707
  584TMC3     C 8660   1.573   0.835  16.964 -0.1766 -0.7185 -0.7491
  584TMC3     O 8661   1.531   0.756  17.043 -0.0450  0.5369  0.2556
  584TMC3     H 8662   1.542   1.089  16.864 -0.7910 -2.0546 -0.0523
  584TMC3    H1 8663   1.658   0.861  17.214  1.1252  0.3477  0.8788
  584TMC3    H2 8664   1.637   1.271  17.232  1.7686  0.1537 -0.0721
  584TMC3    C7 8665   1.623   1.064  17.364 -0.3529 -0.4965 -0.0646
  584TMC3    C8 8666   1.552   1.317  16.983  0.6250 -0.1209  0.4954
  584TMC3    O1 8667   1.550   0.968  17.403 -0.4463  0.5244  0.4284
  584TMC3    O2 8668   1.452   1.313  16.915 -0.5748  0.1878  0.0259
  585MPD2     C 8669   0.496   3.874   0.152 -0.1989  0.2173  0.0235
  585MPD2    C1 8670   0.437   4.000   0.150  0.1206  0.2680  0.3295
  585MPD2    C2 8671   0.442   4.072   0.034  0.0249  0.7958  0.0822
  585MPD2    C3 8672   0.494   4.022  17.610  0.5163 -0.4277  0.5298
  585MPD2    C4 8673   0.556   3.899  17.620  0.1331 -0.4949 -0.2921
  585MPD2    C5 8674   0.558   3.823   0.042  0.0496  0.2574 -0.3925
  585MPD2     H 8675   0.403   4.173   0.038  1.6853  1.4684 -0.5185
  585MPD2    H1 8676   0.610   3.877  17.529  0.8941 -3.1531  0.8286
  585MPD2    H2 8677   0.494   3.810   0.240 -1.6726  0.0313 -0.1306
  585MPD2    H3 8678   0.604   3.725   0.054  0.5063  0.3980 -0.9501
  585MPD2     N 8679   0.485   4.081  17.477  0.2816 -0.1018  1.0719
  585MPD2    H5 8680   0.514   4.040  17.388 -0.7510 -1.1590  1.2141
  585MPD2    N1 8681   0.376   4.057   0.257  0.5213  0.1524 -0.4882
  585MPD2    H7 8682   0.361   4.156   0.240 -1.4081  0.1230  1.0488
  586TMC3    C1 8683   0.435   4.251  17.321  0.2313 -0.5902 -0.3499
  586TMC3    C2 8684   0.558   4.225  17.258  0.3394 -0.5430  0.3868
  586TMC3    C3 8685   0.560   4.209  17.122 -0.0966 -0.1099  0.3023
  586TMC3    C4 8686   0.316   4.283  17.263  0.4529 -0.7704 -0.1164
  586TMC3    C5 8687   0.313   4.227  17.137 -0.1504  0.7343 -0.6530
  586TMC3    C6 8688   0.433   4.199  17.069 -0.0534 -0.2267  0.0774
  586TMC3     C 8689   0.422   4.199  17.460  0.0651  0.3000  0.2047
  586TMC3     O 8690   0.350   4.260  17.535 -0.9478  0.5927 -0.4530
  586TMC3     H 8691   0.645   4.199  17.317  0.4348 -0.7516  0.1532
  586TMC3    H1 8692   0.232   4.280  17.332 -0.0599 -1.3020 -0.7614
  586TMC3    H2 8693   0.436   4.172  16.964 -1.3439  0.3022 -0.0968
  586TMC3    C7 8694   0.226   4.116  17.114 -0.3578 -0.0831 -0.1294
  586TMC3    C8 8695   0.644   4.101  17.091  0.8921 -0.5753  0.4701
  586TMC3    O1 8696   0.271   4.032  17.039 -0.2611 -0.0826  0.1980
  586TMC3    O2 8697   0.584   3.996  17.069 -0.2652 -0.2622 -0.2218
  587TMC3    C1 8698   3.709   3.239  16.429  0.0624  0.3905 -0.0908
  587TMC3    C2 8699   3.657   3.352  16.377 -0.1843 -0.7038 -0.2489
  587TMC3    C3 8700   3.742   3.444  16.327  0.0450 -0.0402 -0.1151
  587TMC3    C4 8701   3.842   3.220  16.435 -0.0601 -0.3013  0.0789
  587TMC3    C5 8702   3.930   3.315  16.382  0.6542 -0.2691  0.2611
  587TMC3    C6 8703   3.880   3.428  16.328 -0.4934  0.4277 -0.2458
  587TMC3     C 8704   3.629   3.129  16.481  0.1732 -0.0414 -0.3532
  587TMC3     O 8705   3.694   3.028  16.515 -0.0082 -0.1892 -0.1312
  587TMC3     H 8706   3.551   3.375  16.378 -0.6774 -2.9684  1.2040
  587TMC3    H1 8707   3.896   3.138  16.482 -0.3034 -1.3365 -1.4593
  587TMC3    H2 8708   3.949   3.509  16.306 -1.5065  1.3059 -0.2217
  587TMC3    C7 8709   4.066   3.323  16.435  0.3633  0.2799 -0.5304
  587TMC3    C8 8710   3.691   3.564  16.270  0.2448  0.2491  0.1009
  587TMC3    O1 8711   4.086   3.290  16.553 -0.1557 -0.8793  0.4596
  587TMC3    O2 8712   3.776   3.632  16.213  0.2629  0.0005  0.2905
  588TMC3    C1 8713   1.412   0.750   9.643  0.7856 -0.0761 -0.2561
  588TMC3    C2 8714   1.390   0.620   9.598  0.0776 -0.1977 -0.9749
  588TMC3    C3 8715   1.502   0.534   9.593 -1.1958  0.2557 -0.6057
  588TMC3    C4 8716   1.542   0.787   9.674  0.3011  0.1310 -0.2728
  588TMC3    C5 8717   1.648   0.704   9.655 -0.1456  0.7389 -0.2533
  588TMC3    C6 8718   1.625   0.576   9.605  0.4995  0.7011  0.3635
  588TMC3     C 8719   1.306   0.850   9.633  0.7917  0.2113  0.1692
  588TMC3     O 8720   1.190   0.813   9.642 -0.5779 -0.3115 -0.1103
  588TMC3     H 8721   1.292   0.580   9.575  0.3935 -1.8203  0.4959
  588TMC3    H1 8722   1.565   0.886   9.714 -1.4829  0.0573  0.9617
  588TMC3    H2 8723   1.715   0.515   9.596  1.3908  2.1944 -0.9324
  588TMC3    C7 8724   1.785   0.759   9.647  0.4361  0.5886  0.3756
  588TMC3    C8 8725   1.475   0.394   9.578 -0.1518 -0.6503  0.6990
  588TMC3    O1 8726   1.865   0.701   9.571 -0.3819 -0.5553 -0.0473
  588TMC3    O2 8727   1.392   0.371   9.492 -0.1880  0.0940 -0.2057
  589TMC3    C1 8728   4.111   2.173   0.662  0.3237 -0.2165  0.2732
  589TMC3    C2 8729   4.229   2.130   0.707  0.7976  0.9950  0.3153
  589TMC3    C3 8730   4.267   2.010   0.661  0.3513  0.5289  0.4729
  589TMC3    C4 8731   4.041   2.101   0.565 -0.3562  0.6934 -0.4065
  589TMC3    C5 8732   4.084   1.983   0.521  0.1210  0.1590 -0.2654
  589TMC3    C6 8733   4.205   1.939   0.565  0.2490 -0.5391  0.1806
  589TMC3     C 8734   4.041   2.288   0.720  0.1973  0.5493 -0.5009
  589TMC3     O 8735   3.920   2.277   0.701  0.4831  0.4156 -0.1764
  589TMC3     H 8736   4.276   2.185   0.787  0.0673  0.8581  0.8448
  589TMC3    H1 8737   3.941   2.125   0.529  0.0162  1.0967 -1.1741
  589TMC3    H2 8738   4.241   1.842   0.534 -2.4821 -1.3957 -0.3386
  589TMC3    C7 8739   3.989   1.873   0.501  0.0472  0.5063 -0.0314
  589TMC3    C8 8740   4.376   1.944   0.728 -0.1590  0.6008 -0.0175
  589TMC3    O1 8741   3.934   1.835   0.603  1.0224  0.6764 -0.1593
  589TMC3    O2 8742   4.372   1.823   0.719 -0.1082  0.1511  0.0290
  590MPD2     C 8743   3.965   1.831  16.713  0.0211  0.1090  0.0756
  590MPD2    C1 8744   3.957   1.828  16.575  0.5607  0.6708  0.0654
  590MPD2    C2 8745   4.070   1.867  16.503 -0.4243  0.2764  0.2150
  590MPD2    C3 8746   4.188   1.893  16.565  1.2870  0.7405  0.2514
  590MPD2    C4 8747   4.195   1.881  16.705 -0.4033  0.4243  0.4644
  590MPD2    C5 8748   4.077   1.854  16.777  0.6817 -0.0071 -0.3629
  590MPD2     H 8749   4.061   1.873  16.395 -0.1881  1.3723  0.2543
  590MPD2    H1 8750   4.291   1.889  16.754  0.7006  3.4705 -2.1415
  590MPD2    H2 8751   3.876   1.813  16.771  0.2629  1.4886  0.8791
  590MPD2    H3 8752   4.092   1.830  16.882  2.6486 -1.5283 -0.9899
  590MPD2     N 8753   4.301   1.923  16.487 -0.0080  0.4458 -0.1049
  590MPD2    H5 8754   4.285   1.924  16.387  1.3373 -2.0740 -0.3664
  590MPD2    N1 8755   3.832   1.803  16.522  0.3397 -0.2081 -0.2987
  590MPD2    H7 8756   3.753   1.811  16.586  0.0967 -1.4492 -0.4613
  591TMC3    C1 8757   4.505   1.941  16.406  0.9111  1.4401 -0.3408
  591TMC3    C2 8758   4.533   1.829  16.329  0.4440 -0.1028  0.4951
  591TMC3    C3 8759   4.540   1.856  16.196 -0.4737  0.1374  0.0319
  591TMC3    C4 8760   4.481   2.066  16.357  0.3995 -0.7442 -0.2504
  591TMC3    C5 8761   4.499   2.091  16.224 -0.7924 -0.7887 -0.1967
  591TMC3    C6 8762   4.522   1.983  16.147  0.2009  0.4752 -0.2015
  591TMC3     C 8763   4.427   1.914  16.525  0.3269 -0.5641  0.2839
  591TMC3     O 8764   4.482   1.879  16.629  0.6464  0.6882 -0.4219
  591TMC3     H 8765   4.533   1.731  16.377 -4.5303 -0.4159 -0.1937
  591TMC3    H1 8766   4.446   2.145  16.422 -0.4416  0.6422 -2.3757
  591TMC3    H2 8767   4.530   1.998  16.040 -0.1598  0.4180 -0.2346
  591TMC3    C7 8768   4.427   2.193  16.150 -0.3674  0.1633  0.9849
  591TMC3    C8 8769   4.524   1.752  16.100  0.2588  0.5294  0.0775
  591TMC3    O1 8770   4.336   2.248  16.211  0.1852 -0.3723 -0.6717
  591TMC3    O2 8771   4.598   1.658  16.100 -0.0831  0.4618  0.1190
  592MPD2     C 8772   0.595   3.271  10.980 -0.0943 -0.4859  0.0944
  592MPD2    C1 8773   0.577   3.380  11.060 -0.0001 -0.0464 -0.1531
  592MPD2    C2 8774   0.564   3.366  11.193 -0.0516  0.1419 -0.3565
  592MPD2    C3 8775   0.538   3.248  11.246 -0.4294 -0.3422 -0.1990
  592MPD2    C4 8776   0.540   3.135  11.168 -0.0891 -0.0412 -0.4233
  592MPD2    C5 8777   0.574   3.148  11.039  0.5899  0.4063 -0.0288
  592MPD2     H 8778   0.571   3.456  11.254  0.8945  0.8768 -1.5507
  592MPD2    H1 8779   0.527   3.035  11.207 -0.5041 -1.2916 -3.7589
  592MPD2    H2 8780   0.627   3.278  10.877  1.3990  0.1375  0.5919
  592MPD2    H3 8781   0.590   3.058  10.980  0.1784 -0.4271  1.1356
  592MPD2     N 8782   0.514   3.257  11.391 -0.2301  0.5497 -0.1325
  592MPD2    H5 8783   0.525   3.343  11.444  2.0270  1.2453 -1.7509
  592MPD2    N1 8784   0.589   3.508  10.993 -0.0172 -0.0639  0.0899
  592MPD2    H7 8785   0.622   3.512  10.898  3.2042 -1.1308  1.1688
  593TMC3    C1 8786   0.555   3.753  10.981 -0.5253 -0.0469  0.2693
  593TMC3    C2 8787   0.475   3.853  11.046 -0.1358  0.2688  0.1783
  593TMC3    C3 8788   0.544   3.963  11.087  0.3462  0.2863 -0.3181
  593TMC3    C4 8789   0.685   3.774  10.948 -0.5139 -0.1327 -0.3337
  593TMC3    C5 8790   0.736   3.896  10.982  0.2668  0.2798 -0.2013
  593TMC3    C6 8791   0.675   3.988  11.050  0.2023  0.1985  0.0904
  593TMC3     C 8792   0.518   3.620  11.034 -0.5038  0.1026 -0.5081
  593TMC3     O 8793   0.434   3.625  11.124 -0.5734  0.2227 -0.6714
  593TMC3     H 8794   0.373   3.831  11.074 -0.1862 -3.8192 -3.2560
  593TMC3    H1 8795   0.749   3.687  10.940  0.9580  1.0170 -0.9330
  593TMC3    H2 8796   0.716   4.086  11.071  1.9397 -0.7776  1.2248
  593TMC3    C7 8797   0.836   3.949  10.893  0.0759 -0.6712  0.1368
  593TMC3    C8 8798   0.481   4.046  11.183  0.3063 -0.1844 -0.1596
  593TMC3    O1 8799   0.887   4.056  10.922  0.0567 -0.0018  0.6784
  593TMC3    O2 8800   0.364   4.036  11.184  0.0227  0.1781 -0.0714
  594MPD2     C 8801   3.320   2.401  14.078  0.0474 -0.0051 -0.1511
  594MPD2    C1 8802   3.293   2.496  14.181 -0.0816  0.1083 -0.5085
  594MPD2    C2 8803   3.372   2.606  14.193 -0.1888  0.1942 -0.0512
  594MPD2    C3 8804   3.477   2.639  14.109  0.7053  0.3529  0.1614
  594MPD2    C4 8805   3.506   2.542  14.015  0.8673  0.2034  0.6357
  594MPD2    C5 8806   3.427   2.428  13.996 -0.3350  0.4665  0.5771
  594MPD2     H 8807   3.344   2.685  14.262 -0.0591 -0.3179  0.5862
  594MPD2    H1 8808   3.587   2.562  13.946 -0.4183  0.1086 -0.9029
  594MPD2    H2 8809   3.267   2.308  14.059  1.7024 -1.3307  1.6523
  594MPD2    H3 8810   3.447   2.359  13.914  1.3912  0.0580  1.3345
  594MPD2     N 8811   3.555   2.752  14.135 -0.4045 -0.2713 -0.3440
  594MPD2    H5 8812   3.524   2.797  14.220 -0.4288 -0.7845 -0.0788
  594MPD2    N1 8813   3.196   2.469  14.275  0.1227  0.3888 -0.0235
  594MPD2    H7 8814   3.144   2.383  14.261 -1.8195  1.5146  0.3661
  595TMC3    C1 8815   3.904   3.018  14.217 -0.1649  0.0148 -0.5789
  595TMC3    C2 8816   3.860   2.929  14.122  0.3437 -0.2638  1.5006
  595TMC3    C3 8817   3.718   2.914  14.123  0.3630  0.3880 -0.0347
  595TMC3    C4 8818   3.821   3.080  14.303 -0.0115  0.2579 -0.1284
  595TMC3    C5 8819   3.691   3.058  14.301  0.3020 -0.2121 -0.6190
  595TMC3    C6 8820   3.628   2.975  14.209 -0.3108  0.3463  0.0591
  595TMC3     C 8821   4.043   3.052  14.206 -0.5929  0.5544  0.4064
  595TMC3     O 8822   4.111   2.974  14.143  0.5752  0.3439  0.0880
  595TMC3     H 8823   3.921   2.904  14.036  0.4639  3.4390  0.5076
  595TMC3    H1 8824   3.871   3.144  14.376  2.1957  0.1663 -1.5477
  595TMC3    H2 8825   3.520   2.968  14.217 -0.4066 -1.4462 -2.8027
  595TMC3    C7 8826   3.618   3.096  14.411  0.0985 -0.4251  0.0723
  595TMC3    C8 8827   3.664   2.792  14.062  0.6191  0.1240 -0.0329
  595TMC3    O1 8828   3.499   3.125  14.388  0.1602  0.0339 -0.7942
  595TMC3    O2 8829   3.712   2.765  13.952  0.1442 -0.0020 -0.3149
  596MPD2     C 8830   2.287   0.249  16.545  0.3316 -0.0833 -0.7035
  596MPD2    C1 8831   2.308   0.380  16.496 -0.2396  0.0584  0.1730
  596MPD2    C2 8832   2.348   0.391  16.364 -1.3029 -0.3814 -0.4735
  596MPD2    C3 8833   2.333   0.291  16.277  0.3237 -0.4024  1.3356
  596MPD2    C4 8834   2.302   0.169  16.323  0.0368 -0.2597 -0.0385
  596MPD2    C5 8835   2.280   0.147  16.450  0.0989  0.5794 -0.5366
  596MPD2     H 8836   2.393   0.484  16.330  1.3772 -1.5956 -0.1805
  596MPD2    H1 8837   2.301   0.084  16.255  0.0491 -1.3497  1.3142
  596MPD2    H2 8838   2.249   0.231  16.645  0.3671  0.8071 -0.5308
  596MPD2    H3 8839   2.267   0.047  16.490 -0.3228  0.6975 -0.3838
  596MPD2     N 8840   2.352   0.316  16.138  0.2573  0.2823 -0.3480
  596MPD2    H5 8841   2.328   0.233  16.085  1.3239  0.2612 -0.8111
  596MPD2    N1 8842   2.313   0.497  16.577  0.3820 -0.5472  0.8694
  596MPD2    H7 8843   2.349   0.582  16.534 -1.6227  0.0247  0.3338
  597TMC3    C1 8844   2.309   0.621  16.767  0.1249 -0.2872  0.2805
  597TMC3    C2 8845   2.409   0.706  16.719 -0.3332  0.2744  0.1181
  597TMC3    C3 8846   2.434   0.827  16.784 -0.5127 -0.6776 -0.0218
  597TMC3    C4 8847   2.221   0.669  16.863  0.0996  0.2968  0.4703
  597TMC3    C5 8848   2.260   0.785  16.926 -0.1625 -0.2832  0.6940
  597TMC3    C6 8849   2.362   0.863  16.894  0.1730  0.3861 -0.1962
  597TMC3     C 8850   2.273   0.495  16.712  0.0335 -0.2470  0.0119
  597TMC3     O 8851   2.246   0.401  16.781 -0.0465 -0.6494 -0.0611
  597TMC3     H 8852   2.483   0.667  16.650  1.3491  1.1877  1.4484
  597TMC3    H1 8853   2.134   0.612  16.892 -1.7037  3.1631  0.7728
  597TMC3    H2 8854   2.405   0.945  16.951  0.2437 -0.3263  0.7608
  597TMC3    C7 8855   2.194   0.820  17.046 -0.8497 -0.2497 -0.2620
  597TMC3    C8 8856   2.518   0.933  16.722  0.1520  0.0588  0.2993
  597TMC3    O1 8857   2.115   0.741  17.092  0.3136  0.7412 -0.5298
  597TMC3    O2 8858   2.507   1.039  16.782  0.0036  0.3508 -0.0875
  598TMC3    C1 8859   0.789   2.065  15.178  0.1011 -0.3171  0.2663
  598TMC3    C2 8860   0.670   2.003  15.151 -0.8779 -0.1732  0.5430
  598TMC3    C3 8861   0.630   1.994  15.016 -0.9603  0.7794 -0.8474
  598TMC3    C4 8862   0.863   2.120  15.078 -0.4736  0.4405 -0.4307
  598TMC3    C5 8863   0.817   2.116  14.955 -0.4935 -0.0436 -0.2547
  598TMC3    C6 8864   0.700   2.054  14.917  0.3346 -0.5036  0.4642
  598TMC3     C 8865   0.845   2.064  15.312 -0.6418 -0.0728  0.3085
  598TMC3     O 8866   0.959   2.102  15.328  0.6480 -0.3400 -0.0405
  598TMC3     H 8867   0.637   1.928  15.221  0.8825  1.3391  2.9934
  598TMC3    H1 8868   0.962   2.153  15.105  0.2149 -0.0258 -2.4086
  598TMC3    H2 8869   0.672   2.038  14.813  1.3494  0.1683  0.0947
  598TMC3    C7 8870   0.875   2.190  14.844  0.1005  0.0950 -0.7135
  598TMC3    C8 8871   0.504   1.926  14.995 -0.7162 -0.1954  0.7798
  598TMC3    O1 8872   0.822   2.181  14.734 -0.3086  0.0023 -0.8811
  598TMC3    O2 8873   0.492   1.861  14.892 -0.3224  0.0099 -0.7914
  599MPD2     C 8874   1.124   4.593  16.131  0.9344  0.7647  0.5554
  599MPD2    C1 8875   1.060   4.480  16.097 -0.7968 -0.1978  0.4406
  599MPD2    C2 8876   0.923   4.479  16.099 -0.1809 -0.3383  0.3364
  599MPD2    C3 8877   0.844   4.594  16.121  0.3423 -0.1094  1.0937
  599MPD2    C4 8878   0.918   4.711  16.157  0.6270 -0.0259  0.1920
  599MPD2    C5 8879   1.053   4.708  16.158 -0.1463 -1.0694 -0.1269
  599MPD2     H 8880   0.882   4.382  16.073 -0.8521  0.4249 -1.4659
  599MPD2    H1 8881   0.862   0.078  16.176 -0.2934 -0.9830  2.1281
  599MPD2    H2 8882   1.232   4.600  16.129  0.8722  1.6816  0.2374
  599MPD2    H3 8883   1.106   0.075  16.188 -1.9593 -0.2036  0.4442
  599MPD2     N 8884   0.700   4.596  16.111  0.0607 -0.0839  0.0004
  599MPD2    H5 8885   0.660   4.686  16.134  0.9774  0.6484 -1.2654
  599MPD2    N1 8886   1.121   4.354  16.088 -0.1773  0.0494 -0.2724
  599MPD2    H7 8887   1.065   4.285  16.041 -1.6142  1.9936 -1.4267
  600TMC3    C1 8888   0.475   4.519  16.083  0.0506 -0.3015  0.4442
  600TMC3    C2 8889   0.393   4.420  16.028  0.3588 -1.4390  0.2140
  600TMC3    C3 8890   0.260   4.426  16.038  0.3278 -0.0970 -0.4336
  600TMC3    C4 8891   0.428   4.622  16.163  0.0180  0.7462 -0.1537
  600TMC3    C5 8892   0.290   4.625  16.179  0.5356 -0.1127  0.3819
  600TMC3    C6 8893   0.209   4.534  16.116  0.0592 -0.3552  0.4161
  600TMC3     C 8894   0.619   4.489  16.076 -0.5866  0.1821 -0.3962
  600TMC3     O 8895   0.650   4.371  16.062 -0.3710  0.0128  0.2217
  600TMC3     H 8896   0.437   4.344  15.965 -0.7086 -0.4664 -1.7041
  600TMC3    H1 8897   0.486   4.689  16.225 -0.3485  0.9286 -0.0057
  600TMC3    H2 8898   0.103   4.529  16.137 -0.4834  1.0149 -1.9595
  600TMC3    C7 8899   0.224   0.016  16.249 -0.1691  0.3438  0.5215
  600TMC3    C8 8900   0.188   4.345  15.932  0.8704 -0.2804  0.2132
  600TMC3    O1 8901   0.108   0.006  16.287 -0.1165 -0.1005  0.6863
  600TMC3    O2 8902   0.266   4.309  15.842 -0.0379  0.1990  0.5374
  601MPD2     C 8903   2.252   2.508   0.133  0.1389 -0.1462 -0.1203
  601MPD2    C1 8904   2.243   2.458   0.259 -0.2984  0.0913  0.3036
  601MPD2    C2 8905   2.277   2.327   0.275  0.1406  0.3682 -0.2160
  601MPD2    C3 8906   2.334   2.254   0.176  0.2039 -0.5954 -0.4378
  601MPD2    C4 8907   2.351   2.318   0.052  0.0602  0.2221 -0.4846
  601MPD2    C5 8908   2.304   2.443   0.030 -0.1394 -0.8668  0.0246
  601MPD2     H 8909   2.262   2.282   0.373  0.0859  0.2791 -0.2656
  601MPD2    H1 8910   2.403   2.272  17.663  1.5088  0.8741  0.0667
  601MPD2    H2 8911   2.223   2.611   0.116  2.9569  0.9119  1.6762
  601MPD2    H3 8912   2.308   2.488  17.626 -2.8994  3.0072  1.6828
  601MPD2     N 8913   2.369   2.121   0.178 -0.3996 -0.3882  0.1591
  601MPD2    H5 8914   2.401   2.082   0.090  2.4208  2.3310 -0.0136
  601MPD2    N1 8915   2.196   2.542   0.366 -0.8616  0.1515 -0.1403
  601MPD2    H7 8916   2.158   2.499   0.450  2.5921 -0.6479  1.0136
  602TMC3    C1 8917   2.139   2.744   0.474  0.3969  0.2453 -0.1418
  602TMC3    C2 8918   2.177   2.876   0.499  0.0581  0.7499 -0.8160
  602TMC3    C3 8919   2.096   2.970   0.559  0.1367  0.3908 -0.3770
  602TMC3    C4 8920   2.013   2.693   0.513  0.2509  0.2375 -0.5047
  602TMC3    C5 8921   1.932   2.789   0.575  0.1955 -0.4208 -0.2968
  602TMC3    C6 8922   1.973   2.917   0.594 -0.3227 -0.1438  0.2452
  602TMC3     C 8923   2.209   2.679   0.362 -0.4402 -0.0339  0.6217
  602TMC3     O 8924   2.261   2.756   0.280  0.4295 -0.1812  0.2397
  602TMC3     H 8925   2.268   2.907   0.449  0.5897 -0.4705 -0.6104
  602TMC3    H1 8926   1.968   2.600   0.479  0.1963  0.3565 -0.7626
  602TMC3    H2 8927   1.899   2.990   0.624  0.1324  0.7461 -0.7669
  602TMC3    C7 8928   1.802   2.775   0.521  0.2421  0.3595 -0.2876
  602TMC3    C8 8929   2.076   3.097   0.489  0.5968  0.0919  0.5350
  602TMC3    O1 8930   1.751   2.665   0.526  0.3118  0.1109 -0.3774
  602TMC3    O2 8931   1.957   3.134   0.480  0.1745  0.3420 -0.6112
  603TMC3    C1 8932   1.159   2.774  10.871  0.7566 -0.2010  0.3658
  603TMC3    C2 8933   1.209   2.812  10.997 -0.2048  0.6886  0.4217
  603TMC3    C3 8934   1.309   2.909  10.994 -0.4422 -0.2144 -0.1063
  603TMC3    C4 8935   1.195   2.845  10.758 -0.4146 -0.4613 -0.0851
  603TMC3    C5 8936   1.298   2.938  10.762  1.1344 -0.2991 -0.5970
  603TMC3    C6 8937   1.359   2.976  10.877  0.7767 -0.2457  0.7708
  603TMC3     C 8938   1.107   2.636  10.859 -0.2717 -0.7042 -0.0196
  603TMC3     O 8939   1.157   2.570  10.773 -0.6051  0.0150 -0.1613
  603TMC3     H 8940   1.174   2.765  11.088 -5.7446  0.4261 -1.8583
  603TMC3    H1 8941   1.162   2.809  10.661 -1.3503  0.2157 -0.0144
  603TMC3    H2 8942   1.455   3.025  10.871 -0.5145  1.6139 -4.5539
  603TMC3    C7 8943   1.308   3.035  10.657 -0.4745  0.9897  0.4608
  603TMC3    C8 8944   1.387   2.928  11.116 -0.9153  0.1093 -0.4747
  603TMC3    O1 8945   1.386   3.132  10.679 -0.8053 -0.1618 -0.2256
  603TMC3    O2 8946   1.392   2.824  11.187 -0.5867 -0.1618  0.6684
  604MPD2     C 8947   1.588   1.358  16.363 -0.7470 -0.5218 -0.6267
  604MPD2    C1 8948   1.482   1.408  16.286  0.0581 -0.0096 -0.0158
  604MPD2    C2 8949   1.511   1.477  16.166  0.4282  0.3482 -0.4317
  604MPD2    C3 8950   1.644   1.481  16.122  0.0877  0.6313  0.0723
  604MPD2    C4 8951   1.747   1.430  16.196  0.2730 -0.4980 -0.0555
  604MPD2    C5 8952   1.717   1.369  16.315  0.8751  0.1558 -0.6274
  604MPD2     H 8953   1.435   1.529  16.109  1.8632  0.5994 -2.1162
  604MPD2    H1 8954   1.849   1.445  16.162  0.0574 -0.4055 -0.6602
  604MPD2    H2 8955   1.574   1.318  16.463 -0.3190  0.8269 -0.0200
  604MPD2    H3 8956   1.796   1.356  16.389  0.0137 -1.4109  0.0210
  604MPD2     N 8957   1.663   1.543  15.998  0.2789  0.8036  0.3336
  604MPD2    H5 8958   1.597   1.614  15.968 -0.3885 -1.2258 -2.9244
  604MPD2    N1 8959   1.349   1.411  16.348 -0.4160 -0.3513 -0.0376
  604MPD2    H7 8960   1.343   1.369  16.440  3.2187  0.7166  0.6809
  605TMC3    C1 8961   1.118   1.457  16.375  0.6431 -0.9897 -0.3614
  605TMC3    C2 8962   1.149   1.495  16.503  0.2069  0.1010 -0.1858
  605TMC3    C3 8963   1.096   1.603  16.554 -0.2497 -0.2214  0.2907
  605TMC3    C4 8964   1.005   1.515  16.315 -0.0792 -0.6571 -0.7543
  605TMC3    C5 8965   0.957   1.626  16.372 -0.0744 -0.1129  0.1965
  605TMC3    C6 8966   1.003   1.677  16.486  0.1440  1.2101  0.3701
  605TMC3     C 8967   1.236   1.452  16.286  0.0568  0.0042  0.4748
  605TMC3     O 8968   1.205   1.467  16.165  0.2501 -0.4037  0.1581
  605TMC3     H 8969   1.233   1.450  16.555  0.3735 -1.1423 -1.5237
  605TMC3    H1 8970   0.987   1.493  16.210  1.5658 -1.1901 -0.9179
  605TMC3    H2 8971   0.963   1.765  16.533  0.1547  1.9892 -1.0677
  605TMC3    C7 8972   0.848   1.699  16.310 -0.2217 -0.2870  0.5616
  605TMC3    C8 8973   1.180   1.679  16.652  0.3494  0.5501  0.2307
  605TMC3    O1 8974   0.843   1.821  16.317  0.0199 -0.2652 -0.7095
  605TMC3    O2 8975   1.270   1.615  16.705 -0.8609 -0.4727 -0.0769
  606TMC3    C1 8976   2.596   0.102  16.702 -0.4146  0.9581  0.4827
  606TMC3    C2 8977   2.597   0.153  16.828  0.4328  0.7105  0.2143
  606TMC3    C3 8978   2.520   0.099  16.924 -0.4626  0.4692  0.1968
  606TMC3    C4 8979   2.511   4.722  16.671 -0.3242 -0.5171  0.3852
  606TMC3    C5 8980   2.441   4.660  16.768 -0.2446  0.3463  0.4256
  606TMC3    C6 8981   2.445   4.707  16.896 -0.5423 -0.2900 -0.1490
  606TMC3     C 8982   2.629   0.194  16.593 -0.9144 -0.7982 -0.4721
  606TMC3     O 8983   2.689   0.293  16.633  0.2475  0.4013 -0.2571
  606TMC3     H 8984   2.639   0.251  16.846 -0.6068  1.1637  0.1929
  606TMC3    H1 8985   2.510   4.686  16.569  0.6727 -0.1295  0.2429
  606TMC3    H2 8986   2.388   4.657  16.973 -0.1906  1.2877  1.1115
  606TMC3    C7 8987   2.417   4.515  16.743 -0.1111  0.3433  0.2945
  606TMC3    C8 8988   2.546   0.136  17.058 -0.1339 -0.0562  0.2428
  606TMC3    O1 8989   2.433   4.486  16.623 -0.7290  0.0976 -0.5386
  606TMC3    O2 8990   2.665   0.155  17.084  0.2333  0.7578 -0.2177
  607MPD2     C 8991   0.759   3.206  11.835 -0.4510  0.1031 -0.7015
  607MPD2    C1 8992   0.872   3.268  11.881  0.4563 -0.9220  0.7190
  607MPD2    C2 8993   0.908   3.259  12.012 -0.8724  0.2923 -0.2221
  607MPD2    C3 8994   0.829   3.191  12.099  0.0441 -0.4982 -0.1698
  607MPD2    C4 8995   0.717   3.122  12.054  0.2951 -0.4032 -0.6894
  607MPD2    C5 8996   0.672   3.140  11.923 -0.1241  0.6833 -0.0543
  607MPD2     H 8997   0.996   3.312  12.045  1.4701 -2.7705 -1.4536
  607MPD2    H1 8998   0.659   3.057  12.119  0.6235  0.6128  0.6412
  607MPD2    H2 8999   0.729   3.220  11.732  0.3688 -0.7905 -1.0665
  607MPD2    H3 9000   0.579   3.093  11.894  0.0526  1.5746 -2.0112
  607MPD2     N 9001   0.890   3.181  12.225 -0.1510  0.4259 -0.2389
  607MPD2    H5 9002   0.974   3.236  12.237  1.0879 -1.4292 -0.3783
  607MPD2    N1 9003   0.965   3.337  11.804  0.2279  0.0504 -0.5162
  607MPD2    H7 9004   1.034   3.395  11.850  1.9408 -3.0544  0.7925
  608TMC3    C1 9005   1.093   3.422  11.634 -0.1707  0.6211 -0.1629
  608TMC3    C2 9006   1.196   3.414  11.721 -0.5431 -0.0494 -0.0322
  608TMC3    C3 9007   1.309   3.489  11.701  0.1200 -0.2298 -0.3837
  608TMC3    C4 9008   1.081   3.529  11.545 -0.1039 -0.1075 -0.6070
  608TMC3    C5 9009   1.193   3.615  11.534 -0.4242 -0.4246 -0.5547
  608TMC3    C6 9010   1.310   3.591  11.601  0.3835 -0.2649  0.2089
  608TMC3     C 9011   0.975   3.349  11.667  0.2728 -0.5100 -0.5127
  608TMC3     O 9012   0.885   3.325  11.585  0.1218  0.1382  0.4490
  608TMC3     H 9013   1.205   3.318  11.769  0.8120  0.7484  1.2984
  608TMC3    H1 9014   0.997   3.546  11.478  1.0209  0.7363 -1.8187
  608TMC3    H2 9015   1.388   3.665  11.592  0.3561 -0.3928 -1.1605
  608TMC3    C7 9016   1.191   3.715  11.436 -0.2253 -0.6465  0.1975
  608TMC3    C8 9017   1.424   3.490  11.791 -0.4143 -0.4686  0.2719
  608TMC3    O1 9018   1.106   3.804  11.455  0.4121 -0.1220  0.6911
  608TMC3    O2 9019   1.528   3.541  11.771  0.0094 -0.7027 -0.8022
  609TMC3    C1 9020   4.211   1.960   9.420  0.2844 -0.4694 -0.2753
  609TMC3    C2 9021   4.245   1.863   9.325  0.5838 -0.1442 -1.0189
  609TMC3    C3 9022   4.328   1.767   9.366  0.0266  0.3889  0.1585
  609TMC3    C4 9023   4.267   1.961   9.549  0.7494 -0.1859  0.4021
  609TMC3    C5 9024   4.354   1.863   9.581  0.5552  0.0839  0.3180
  609TMC3    C6 9025   4.379   1.762   9.494  0.2423  0.6603  0.7063
  609TMC3     C 9026   4.088   2.033   9.397 -0.8396 -0.1225  0.0619
  609TMC3     O 9027   4.052   2.046   9.283  0.2063  0.7536 -0.8072
  609TMC3     H 9028   4.211   1.861   9.222  2.0574 -0.2393 -1.5018
  609TMC3    H1 9029   4.256   2.041   9.621 -0.6750 -0.5472  0.5774
  609TMC3    H2 9030   4.447   1.681   9.520 -0.6143  0.6673  2.9566
  609TMC3    C7 9031   4.433   1.877   9.700 -0.2070  0.1320  0.2906
  609TMC3    C8 9032   4.362   1.672   9.259  0.3410  0.2867  0.2684
  609TMC3    O1 9033   4.460   1.994   9.738  0.2036  0.3669  0.5822
  609TMC3    O2 9034   4.337   1.696   9.141  0.1858  0.6836 -0.4123
  610TMC3    C1 9035   0.872   2.829  11.826 -0.5601  0.1515  0.3503
  610TMC3    C2 9036   0.739   2.861  11.842  0.1333  0.2389  0.2984
  610TMC3    C3 9037   0.677   2.817  11.956  0.9184 -0.4333  0.1772
  610TMC3    C4 9038   0.947   2.762  11.918  0.0056 -0.1943 -0.1209
  610TMC3    C5 9039   0.880   2.715  12.036  0.1756  0.2653 -0.0923
  610TMC3    C6 9040   0.747   2.745  12.050  0.2014  0.3019  0.0801
  610TMC3     C 9041   0.954   2.912  11.731  0.5336  0.0385 -0.3597
  610TMC3     O 9042   0.901   2.957  11.632 -0.3653 -0.0984 -0.3770
  610TMC3     H 9043   0.693   2.912  11.758 -0.2112  0.0195  0.3581
  610TMC3    H1 9044   1.047   2.723  11.901 -0.5851 -1.9730  0.4745
  610TMC3    H2 9045   0.688   2.718  12.137  0.7987 -1.5048 -0.0697
  610TMC3    C7 9046   0.953   2.656  12.144 -0.0164 -0.4651 -0.6939
  610TMC3    C8 9047   0.539   2.834  11.983  0.0868  0.4022  0.8207
  610TMC3    O1 9048   1.073   2.625  12.125 -0.0027  0.0697 -1.0148
  610TMC3    O2 9049   0.504   2.806  12.096 -0.4988  0.0160  0.3575
  611MPD2     C 9050   0.311   2.706  10.569  0.2991 -0.1897  0.0587
  611MPD2    C1 9051   0.255   2.811  10.497  0.7115  0.4433  0.2382
  611MPD2    C2 9052   0.328   2.868  10.388  0.0439 -0.2611  0.4739
  611MPD2    C3 9053   0.459   2.836  10.356  0.2969  0.3211  0.4623
  611MPD2    C4 9054   0.514   2.727  10.431 -0.5667  0.3192 -0.2116
  611MPD2    C5 9055   0.439   2.669  10.533 -0.3066  0.0701 -0.0815
  611MPD2     H 9056   0.282   2.957  10.348  0.1301  0.7556  2.6233
  611MPD2    H1 9057   0.613   2.689  10.409 -0.9602 -0.4219 -0.7336
  611MPD2    H2 9058   0.268   2.656  10.655 -1.9749  1.7624  0.0338
  611MPD2    H3 9059   0.489   2.589  10.587 -1.4392 -0.6941 -0.1834
  611MPD2     N 9060   0.534   2.901  10.258 -0.8489  0.1510 -0.3893
  611MPD2    H5 9061   0.633   2.887  10.242 -0.4636  2.0926  0.3429
  611MPD2    N1 9062   0.134   2.868  10.556 -0.1340  0.5342 -0.5128
  611MPD2    H7 9063   0.087   2.806  10.622  2.1867 -1.1385 -0.4379
  612TMC3    C1 9064   0.559   3.043  10.071 -0.5687  0.0272 -0.1925
  612TMC3    C2 9065   0.672   3.097  10.126  0.3280  0.9507 -0.1599
  612TMC3    C3 9066   0.744   3.190  10.052  0.0465 -0.0641 -0.4380
  612TMC3    C4 9067   0.518   3.075   9.948 -0.4330  0.2211 -0.6298
  612TMC3    C5 9068   0.593   3.173   9.880 -0.3681 -0.5617 -0.3359
  612TMC3    C6 9069   0.706   3.231   9.926 -0.3501  0.6670  0.0295
  612TMC3     C 9070   0.471   2.967  10.152  0.0838 -0.7292  0.0524
  612TMC3     O 9071   0.353   2.977  10.127 -0.1875  0.0232 -0.2033
  612TMC3     H 9072   0.678   3.094  10.235 -1.2127 -4.0980 -0.2151
  612TMC3    H1 9073   0.433   3.024   9.904  0.9658 -1.0999 -1.7867
  612TMC3    H2 9074   0.766   3.299   9.867  0.7198  0.5758  1.0273
  612TMC3    C7 9075   0.534   3.204   9.747  0.8135  0.3676 -0.6043
  612TMC3    C8 9076   0.879   3.228  10.089  0.2486  0.4769  0.5293
  612TMC3    O1 9077   0.437   3.138   9.720  0.4754  0.2273 -0.3064
  612TMC3    O2 9078   0.929   3.325  10.035  0.3659 -0.3190 -0.4152
  613MPD2     C 9079   3.963   1.472  15.839  0.3467 -0.1396 -0.3706
  613MPD2    C1 9080   4.017   1.391  15.735 -0.2588  0.1382 -0.2006
  613MPD2    C2 9081   4.053   1.259  15.773  0.2733  0.1035 -0.9438
  613MPD2    C3 9082   4.021   1.208  15.900  0.2933 -0.3841  0.6110
  613MPD2    C4 9083   3.975   1.288  15.995  0.1084 -0.2676  0.5144
  613MPD2    C5 9084   3.939   1.417  15.965 -0.4991  0.0563 -0.3979
  613MPD2     H 9085   4.094   1.193  15.697 -0.5133 -2.3530  0.7662
  613MPD2    H1 9086   3.959   1.255  16.097 -0.8913 -0.0230  0.4436
  613MPD2    H2 9087   3.936   1.577  15.826  1.2035  0.4444  2.6232
  613MPD2    H3 9088   3.895   1.479  16.042  1.3041 -1.1344  1.5834
  613MPD2     N 9089   4.030   1.072  15.928 -0.2361 -0.4836  0.1123
  613MPD2    H5 9090   4.003   1.046  16.022  0.4334  0.6904  0.6351
  613MPD2    N1 9091   4.032   1.436  15.609 -0.5198  0.7674  0.2238
  613MPD2    H7 9092   4.065   1.366  15.543  1.5903  3.0566 -1.1437
  614TMC3    C1 9093   3.995   1.545  15.409  0.3382  0.2709  1.0202
  614TMC3    C2 9094   4.084   1.448  15.377 -0.0796 -1.2729  0.1235
  614TMC3    C3 9095   4.046   1.339  15.298 -0.0639 -0.3834  0.3643
  614TMC3    C4 9096   3.868   1.538  15.356 -0.6604 -0.6359  0.0451
  614TMC3    C5 9097   3.826   1.422  15.288  0.1980 -0.0483 -1.1591
  614TMC3    C6 9098   3.914   1.319  15.260 -0.3635  0.0392 -0.1682
  614TMC3     C 9099   3.992   1.551  15.557 -0.5331 -0.5198  0.6500
  614TMC3     O 9100   3.920   1.638  15.605 -0.5310  0.3943  0.3293
  614TMC3     H 9101   4.187   1.447  15.408 -0.1658 -0.3194  0.4300
  614TMC3    H1 9102   3.804   1.625  15.371  0.2316  0.4613 -2.4447
  614TMC3    H2 9103   3.868   1.230  15.218  3.0226 -2.1491  0.7852
  614TMC3    C7 9104   3.682   1.393  15.297  0.2214 -0.3040  0.0882
  614TMC3    C8 9105   4.098   1.215  15.352 -0.4822  0.4083 -0.4205
  614TMC3    O1 9106   3.620   1.454  15.387 -0.1052 -0.3075  0.2827
  614TMC3    O2 9107   4.144   1.216  15.465 -0.0890  0.0880  0.1732
  615MPD2     C 9108   3.141   2.306  16.321 -0.1502  0.8344  0.1596
  615MPD2    C1 9109   3.048   2.397  16.274  0.0527  0.3875 -0.6164
  615MPD2    C2 9110   2.933   2.361  16.212 -0.1309 -0.4696  0.1288
  615MPD2    C3 9111   2.905   2.221  16.213  0.1552  0.4366  0.1941
  615MPD2    C4 9112   2.986   2.131  16.272 -0.3016  0.2808  0.7643
  615MPD2    C5 9113   3.110   2.173  16.316  0.1241 -0.4833  0.4738
  615MPD2     H 9114   2.872   2.428  16.153 -1.1052  0.2421  1.9492
  615MPD2    H1 9115   2.958   2.026  16.267 -1.5296  0.5628  1.9152
  615MPD2    H2 9116   3.237   2.342  16.357  0.3781  1.2576 -1.6945
  615MPD2    H3 9117   3.182   2.094  16.337 -2.3430 -2.0161  3.1309
  615MPD2     N 9118   2.795   2.176  16.131  0.3540  0.6002 -0.6007
  615MPD2    H5 9119   2.748   2.248  16.077  1.2794  0.7261 -1.2401
  615MPD2    N1 9120   3.088   2.537  16.255 -0.0651 -0.7650  0.1732
  615MPD2    H7 9121   3.014   2.588  16.208 -0.5207  0.1299  1.8498
  616TMC3    C1 9122   3.194   2.749  16.294  0.2495  0.6098  0.4969
  616TMC3    C2 9123   3.315   2.817  16.293 -0.7637  0.2288  0.6702
  616TMC3    C3 9124   3.301   2.958  16.277  0.3994 -0.0792 -0.2886
  616TMC3    C4 9125   3.076   2.810  16.273  0.5794  0.0309  0.4246
  616TMC3    C5 9126   3.065   2.949  16.278  0.5458  0.3385  0.7813
  616TMC3    C6 9127   3.176   3.024  16.276  1.3289 -0.6269 -0.2657
  616TMC3     C 9128   3.202   2.601  16.296  0.5114  0.1830  0.3757
  616TMC3     O 9129   3.317   2.559  16.310  0.3613  0.2489 -0.2065
  616TMC3     H 9130   3.413   2.771  16.298 -0.1729  1.3755 -0.3665
  616TMC3    H1 9131   2.979   2.762  16.263 -0.4129  1.9984  0.5630
  616TMC3    H2 9132   3.170   3.131  16.268  1.1617 -0.5572  0.8012
  616TMC3    C7 9133   2.942   3.020  16.254 -1.3295 -0.4841  0.3535
  616TMC3    C8 9134   3.401   3.034  16.214  0.5916  0.5388 -0.3205
  616TMC3    O1 9135   2.953   3.118  16.183  0.2689  0.0696 -0.2771
  616TMC3    O2 9136   3.386   3.155  16.187 -0.5080  0.2224  0.4898
  617MPD2     C 9137   1.197   0.512  14.015  0.1757 -0.5285  0.0583
  617MPD2    C1 9138   1.190   0.447  14.134  0.0553  1.2369 -0.1756
  617MPD2    C2 9139   1.066   0.383  14.159 -0.5773  0.3604 -0.0752
  617MPD2    C3 9140   0.956   0.398  14.078  0.0523 -0.7086  0.2584
  617MPD2    C4 9141   0.968   0.458  13.955 -0.3794  0.9982  0.1983
  617MPD2    C5 9142   1.087   0.522  13.932  0.1387 -0.5391  0.0849
  617MPD2     H 9143   1.059   0.321  14.247 -0.1910 -0.2800 -0.4935
  617MPD2    H1 9144   0.886   0.468  13.886  0.1932 -0.3604 -0.6766
  617MPD2    H2 9145   1.288   0.553  13.975  1.1396 -3.5139 -0.7831
  617MPD2    H3 9146   1.102   0.579  13.841 -0.6451 -0.4431  0.0194
  617MPD2     N 9147   0.829   0.348  14.103 -0.0364  0.4526 -0.5772
  617MPD2    H5 9148   0.763   0.362  14.028  0.2166 -0.6401 -1.0057
  617MPD2    N1 9149   1.315   0.431  14.197  0.1144  0.2217  0.1083
  617MPD2    H7 9150   1.393   0.474  14.149 -0.1538 -0.2196 -0.7207
  618TMC3    C1 9151   1.473   0.331  14.324  0.4095  0.5751 -0.4692
  618TMC3    C2 9152   1.514   0.203  14.298  0.3964  0.1439 -0.1244
  618TMC3    C3 9153   1.648   0.183  14.288 -0.0353 -0.2178  0.8420
  618TMC3    C4 9154   1.565   0.433  14.343  0.0446  0.2134 -0.5040
  618TMC3    C5 9155   1.700   0.400  14.356  0.1821 -0.1824  0.3161
  618TMC3    C6 9156   1.738   0.270  14.329  0.6337  0.4365 -0.3932
  618TMC3     C 9157   1.331   0.357  14.306 -0.4746 -0.5348 -0.6475
  618TMC3     O 9158   1.255   0.292  14.369 -0.1520 -0.0997 -0.0264
  618TMC3     H 9159   1.446   0.123  14.273  1.7543 -1.1058  0.2221
  618TMC3    H1 9160   1.534   0.537  14.353 -1.4623 -0.2614 -0.2899
  618TMC3    H2 9161   1.845   0.251  14.338  0.7660  0.5287 -1.7276
  618TMC3    C7 9162   1.793   0.509  14.358 -0.2691 -0.1087 -0.4163
  618TMC3    C8 9163   1.688   0.061  14.225  0.5240 -0.9231  0.0088
  618TMC3    O1 9164   1.752   0.601  14.427  0.3369 -0.6621 -0.1687
  618TMC3    O2 9165   1.610   4.690  14.224 -0.2392  0.0057 -0.1321
  619MPD2     C 9166   2.900   1.404  13.390 -0.1731 -0.2137  0.5721
  619MPD2    C1 9167   2.836   1.467  13.280 -0.0931 -0.2114  0.2350
  619MPD2    C2 9168   2.700   1.474  13.280  0.2037 -0.6168  0.6192
  619MPD2    C3 9169   2.625   1.425  13.389  0.1845 -0.4071  0.3866
  619MPD2    C4 9170   2.689   1.353  13.489 -0.5227 -0.2548 -0.9677
  619MPD2    C5 9171   2.825   1.352  13.486  0.7264 -0.0789  0.1443
  619MPD2     H 9172   2.656   1.519  13.191 -1.8807  1.2098  2.5789
  619MPD2    H1 9173   2.637   1.304  13.571 -3.1238  0.8442 -1.9392
  619MPD2    H2 9174   3.008   1.396  13.391 -0.1384 -0.5100 -2.6686
  619MPD2    H3 9175   2.867   1.288  13.562  2.3140 -1.1405 -1.6262
  619MPD2     N 9176   2.487   1.445  13.401  0.5126  0.0610 -0.4056
  619MPD2    H5 9177   2.447   1.390  13.476  0.3674  1.6343  0.6659
  619MPD2    N1 9178   2.914   1.518  13.173  0.2490 -0.3536 -0.3886
  619MPD2    H7 9179   2.851   1.576  13.119  2.1247  1.2864 -0.8306
  620TMC3    C1 9180   3.088   1.599  13.053  0.5647 -0.0635  0.0334
  620TMC3    C2 9181   3.004   1.670  12.966 -0.1535  0.4030  0.7029
  620TMC3    C3 9182   3.044   1.788  12.909 -0.3990  0.3856 -0.6731
  620TMC3    C4 9183   3.204   1.654  13.090  0.6088 -0.4497 -0.3351
  620TMC3    C5 9184   3.247   1.774  13.039  0.4801 -0.2710 -0.3811
  620TMC3    C6 9185   3.160   1.838  12.949  0.1766  0.5486 -1.0141
  620TMC3     C 9186   3.044   1.493  13.137  0.1235  0.2076  0.0301
  620TMC3     O 9187   3.129   1.420  13.189 -0.3891 -0.1032  0.3812
  620TMC3     H 9188   2.914   1.625  12.926  0.7161  0.1788 -1.0172
  620TMC3    H1 9189   3.268   1.598  13.157 -0.6483 -0.0281  1.2150
  620TMC3    H2 9190   3.190   1.932  12.904  1.1237  0.1765 -1.1568
  620TMC3    C7 9191   3.268   1.867  13.157 -0.1920 -0.2311 -0.3579
  620TMC3    C8 9192   2.945   1.890  12.909 -0.2143  0.2995 -0.3667
  620TMC3    O1 9193   3.231   1.984  13.139 -0.6903 -0.5331 -0.0420
  620TMC3    O2 9194   2.844   1.871  12.839  0.1257 -0.0315  0.5364
  621MPD2     C 9195   3.459   1.487   9.756 -0.6606 -0.3003  0.1636
  621MPD2    C1 9196   3.550   1.405   9.817 -0.2080  0.5549 -0.4012
  621MPD2    C2 9197   3.644   1.472   9.890  0.6825 -0.2476 -0.8611
  621MPD2    C3 9198   3.637   1.611   9.907 -0.4728  0.4084 -0.8621
  621MPD2    C4 9199   3.538   1.684   9.849  0.3369 -0.6071 -0.0244
  621MPD2    C5 9200   3.449   1.623   9.769 -0.1648  0.4534  0.0573
  621MPD2     H 9201   3.724   1.420   9.942  0.7260  1.3709  0.6872
  621MPD2    H1 9202   3.517   1.790   9.859  1.2279 -0.1719 -2.7046
  621MPD2    H2 9203   3.385   1.439   9.693  1.3006  0.5008 -2.7701
  621MPD2    H3 9204   3.378   1.681   9.712  0.4208  0.5355 -0.5899
  621MPD2     N 9205   3.744   1.683   9.981 -0.1122 -0.2375 -0.8677
  621MPD2    H5 9206   3.797   1.627  10.047  1.9545  1.9239 -0.7131
  621MPD2    N1 9207   3.543   1.266   9.827  0.3933  0.6532  0.5908
  621MPD2    H7 9208   3.598   1.218   9.898  1.1885  0.7333  0.0274
  622TMC3    C1 9209   3.467   1.046   9.773  0.9707 -0.5190  0.7775
  622TMC3    C2 9210   3.492   0.982   9.893 -0.6841  0.2857  0.1879
  622TMC3    C3 9211   3.481   0.851   9.905 -0.0217  0.6967  0.4314
  622TMC3    C4 9212   3.423   0.968   9.666  0.5509  0.4157 -0.1644
  622TMC3    C5 9213   3.388   0.833   9.695 -0.1968 -0.1087  0.1409
  622TMC3    C6 9214   3.429   0.774   9.810 -0.5105 -0.5633  0.2697
  622TMC3     C 9215   3.466   1.191   9.745  0.6627 -0.9405  0.0174
  622TMC3     O 9216   3.392   1.230   9.655 -0.1030 -0.4078  0.0682
  622TMC3     H 9217   3.543   1.036   9.972 -0.6715  0.4783  0.0492
  622TMC3    H1 9218   3.402   1.016   9.571 -0.2604  1.5627  0.5912
  622TMC3    H2 9219   3.417   0.666   9.810 -0.7509 -0.5241  2.1264
  622TMC3    C7 9220   3.301   0.763   9.611 -0.0546  0.6846 -0.2208
  622TMC3    C8 9221   3.473   0.782  10.030  0.2439 -0.3640  0.0171
  622TMC3    O1 9222   3.277   0.650   9.646 -0.5994  0.1436  0.4869
  622TMC3    O2 9223   3.484   0.662  10.027  0.4298 -0.5053  0.4417
  623MPD2     C 9224   1.891   1.985  15.790 -0.6202 -0.0216  0.1805
  623MPD2    C1 9225   1.781   1.958  15.876  0.1154  0.2678 -0.0428
  623MPD2    C2 9226   1.792   1.871  15.979  0.3207 -0.2164  0.3759
  623MPD2    C3 9227   1.912   1.818  16.022  0.0722  0.1152 -0.0050
  623MPD2    C4 9228   2.023   1.846  15.939 -0.1964  0.0469 -0.2827
  623MPD2    C5 9229   2.008   1.930  15.827  0.1337 -0.0792 -0.4313
  623MPD2     H 9230   1.702   1.854  16.037  0.9310 -0.8941  1.1143
  623MPD2    H1 9231   2.118   1.807  15.971  0.9568  0.2162 -3.4560
  623MPD2    H2 9232   1.894   2.059  15.711 -1.7996  0.4877  0.6073
  623MPD2    H3 9233   2.099   1.973  15.786 -0.5323  2.3011  0.5798
  623MPD2     N 9234   1.912   1.751  16.152 -0.1534  0.1122 -0.1695
  623MPD2    H5 9235   1.826   1.765  16.204  0.4072  0.9881  0.5281
  623MPD2    N1 9236   1.659   2.023  15.878 -0.9586 -0.2031 -0.1263
  623MPD2    H7 9237   1.587   1.974  15.931 -0.0950  0.4197  1.6218
  624TMC3    C1 9238   2.040   1.843  16.564  0.4011  0.5016  0.3517
  624TMC3    C2 9239   1.911   1.859  16.599  0.1080  0.0164  0.0494
  624TMC3    C3 9240   1.817   1.815  16.513  0.2085 -0.1470 -0.0580
  624TMC3    C4 9241   2.070   1.790  16.442 -0.1719 -0.3338 -0.6220
  624TMC3    C5 9242   1.979   1.740  16.359  0.0119  0.8110 -0.3209
  624TMC3    C6 9243   1.845   1.744  16.398  0.0599 -0.1101  0.1501
  624TMC3     C 9244   2.141   1.866  16.659 -0.2423  0.2485 -0.6901
  624TMC3     O 9245   2.140   1.971  16.723  0.3709  0.1154  0.3473
  624TMC3     H 9246   1.895   1.912  16.692 -2.0667  1.1947 -1.0138
  624TMC3    H1 9247   2.175   1.788  16.415  0.7038  1.2821  2.6143
  624TMC3    H2 9248   1.764   1.699  16.342  0.9248  0.3774 -1.4740
  624TMC3    C7 9249   2.018   1.706  16.226  0.6885 -0.6813  0.5747
  624TMC3    C8 9250   1.681   1.811  16.565 -0.6147  0.5291 -0.3555
  624TMC3    O1 9251   2.140   1.700  16.203  0.4030 -0.6516 -0.5283
  624TMC3    O2 9252   1.605   1.730  16.514  0.1120  0.4173 -0.4894
  625MPD2     C 9253   2.381   3.108   0.955 -0.5106  1.0045 -0.8134
  625MPD2    C1 9254   2.405   3.199   0.854  0.1556  1.0669  0.0427
  625MPD2    C2 9255   2.530   3.194   0.789  0.4451  0.5293  0.7089
  625MPD2    C3 9256   2.624   3.105   0.827 -0.0164  0.2426 -0.1979
  625MPD2    C4 9257   2.600   3.027   0.931 -0.5293 -0.4501  0.2244
  625MPD2    C5 9258   2.482   3.022   1.001  0.0542  0.2227 -0.3695
  625MPD2     H 9259   2.555   3.265   0.710  0.1168  2.0506  1.9591
  625MPD2    H1 9260   2.674   2.959   0.971  0.1162  0.1592  0.0832
  625MPD2    H2 9261   2.287   3.089   1.005  0.2941  0.3406  0.4808
  625MPD2    H3 9262   2.466   2.943   1.073 -0.7560  0.5381 -0.2053
  625MPD2     N 9263   2.739   3.105   0.740  0.7710 -0.2159 -0.9089
  625MPD2    H5 9264   2.750   3.183   0.676  1.0339  1.1038  0.7275
  625MPD2    N1 9265   2.299   3.280   0.797 -0.8101 -0.0198 -0.0446
  625MPD2    H7 9266   2.329   3.350   0.730 -0.4556 -2.7073 -2.6926
  626TMC3    C1 9267   2.078   3.340   0.738  0.1372  0.5854  0.3508
  626TMC3    C2 9268   2.122   3.414   0.631  0.7061  0.4514  0.3034
  626TMC3    C3 9269   2.038   3.501   0.569  0.0719  0.2620  0.0346
  626TMC3    C4 9270   1.949   3.367   0.784 -0.6030 -0.1027 -0.8516
  626TMC3    C5 9271   1.871   3.463   0.730  0.4107 -0.2329  0.0770
  626TMC3    C6 9272   1.909   3.532   0.619  0.7028 -0.1208 -0.5389
  626TMC3     C 9273   2.169   3.278   0.834 -0.2626  0.1115 -0.4142
  626TMC3     O 9274   2.118   3.230   0.933  0.1768  0.4144  0.3564
  626TMC3     H 9275   2.203   3.390   0.563 -0.1243  0.2586 -0.6289
  626TMC3    H1 9276   1.904   3.323   0.872 -3.7780  0.1842 -2.3246
  626TMC3    H2 9277   1.856   3.611   0.566 -1.2429  0.4374  2.2683
  626TMC3    C7 9278   1.734   3.490   0.788  0.4533 -0.3257  0.0255
  626TMC3    C8 9279   2.074   3.559   0.431 -0.6933  0.2910  0.1619
  626TMC3    O1 9280   1.717   3.466   0.907 -0.3359  0.5623 -0.4610
  626TMC3    O2 9281   1.986   3.623   0.379  0.4724 -0.7723 -0.2332
  627MPD2     C 9282   1.145   3.568  14.399  0.3543 -0.0368  0.2677
  627MPD2    C1 9283   1.039   3.641  14.434 -0.0918  0.0542 -0.2655
  627MPD2    C2 9284   0.912   3.615  14.387  0.1882 -0.5808 -0.0146
  627MPD2    C3 9285   0.893   3.494  14.324  0.2254 -0.7747  0.4326
  627MPD2    C4 9286   1.003   3.423  14.286 -0.2249 -0.8214  0.7460
  627MPD2    C5 9287   1.126   3.459  14.320 -0.2431  0.0011  0.1977
  627MPD2     H 9288   0.829   3.672  14.427  0.1297 -1.0403  0.5195
  627MPD2    H1 9289   1.006   3.343  14.213 -0.6232 -0.1704  0.0192
  627MPD2    H2 9290   1.246   3.595  14.429  1.1910 -1.5963 -1.0777
  627MPD2    H3 9291   1.208   3.394  14.289  1.0248  1.2495  0.9363
  627MPD2     N 9292   0.760   3.453  14.285 -0.0609 -0.0135  0.0732
  627MPD2    H5 9293   0.681   3.516  14.296 -1.3383 -1.5428 -0.3234
  627MPD2    N1 9294   1.058   3.755  14.519 -0.1981 -0.2828 -0.4841
  627MPD2    H7 9295   0.977   3.812  14.542  1.0504  1.9060 -1.4974
  628TMC3    C1 9296   1.147   3.902  14.685 -0.4807  0.5080 -0.4514
  628TMC3    C2 9297   1.208   3.899  14.799  0.3196  0.0557  0.1621
  628TMC3    C3 9298   1.197   4.004  14.891  0.1930 -0.3814 -0.2713
  628TMC3    C4 9299   1.086   4.014  14.639  0.0153 -0.0286 -0.3189
  628TMC3    C5 9300   1.075   4.120  14.723 -0.0457 -0.6404 -0.2391
  628TMC3    C6 9301   1.124   4.112  14.854  0.4596  0.0969 -0.5361
  628TMC3     C 9302   1.171   3.788  14.593  0.0541  0.0654  0.0785
  628TMC3     O 9303   1.271   3.723  14.614  0.3156 -0.0081  0.5515
  628TMC3     H 9304   1.259   3.808  14.829 -0.7359  0.3259  2.7954
  628TMC3    H1 9305   1.062   4.013  14.533  0.5771 -0.9970 -0.4375
  628TMC3    H2 9306   1.141   4.204  14.909 -2.6112  1.2652 -1.5242
  628TMC3    C7 9307   1.113   4.241  14.658  0.0829  0.1452  0.4827
  628TMC3    C8 9308   1.275   4.010  15.018 -0.0234 -0.1783 -0.5033
  628TMC3    O1 9309   1.232   4.263  14.648 -0.2476  0.7712  0.1048
  628TMC3    O2 9310   1.242   4.101  15.088  0.3472 -0.4637  0.0141
  629MPD2     C 9311   3.895   3.089  16.089 -0.9980  0.3106  0.6086
  629MPD2    C1 9312   3.872   2.963  16.131 -0.9748 -0.8288  0.5159
  629MPD2    C2 9313   3.744   2.926  16.162 -0.3063 -0.0890  0.1497
  629MPD2    C3 9314   3.641   3.013  16.153  0.7353  0.4624 -0.0990
  629MPD2    C4 9315   3.660   3.139  16.120 -0.2391 -0.1430  0.0897
  629MPD2    C5 9316   3.788   3.176  16.087  0.5833  1.1173 -1.0725
  629MPD2     H 9317   3.727   2.821  16.184 -1.6495  0.1070  0.0659
  629MPD2    H1 9318   3.587   3.219  16.117  1.8503  1.8449  1.6111
  629MPD2    H2 9319   3.995   3.123  16.065 -0.6617 -0.8540  0.3802
  629MPD2    H3 9320   3.806   3.280  16.063  2.1940  1.0345 -0.2983
  629MPD2     N 9321   3.518   2.960  16.192 -0.0782 -0.7382 -0.1614
  629MPD2    H5 9322   3.512   2.861  16.216 -0.9776 -0.8602 -0.8623
  629MPD2    N1 9323   3.984   2.869  16.139 -0.2622  0.1049  0.0648
  629MPD2    H7 9324   4.071   2.911  16.108  0.4682  0.3795  2.4874
  630TMC3    C1 9325   4.118   2.687  16.183 -0.5668  0.1889 -0.2455
  630TMC3    C2 9326   4.220   2.750  16.117  0.3968  0.5846  0.2038
  630TMC3    C3 9327   4.343   2.717  16.151  0.4136 -0.4763 -0.9599
  630TMC3    C4 9328   4.141   2.595  16.288  0.3714 -0.3820  0.5839
  630TMC3    C5 9329   4.273   2.576  16.324 -0.2372  0.0375  0.0729
  630TMC3    C6 9330   4.375   2.634  16.250  0.2528 -0.2869  0.0120
  630TMC3     C 9331   3.984   2.737  16.182 -1.1284  0.3577 -1.2153
  630TMC3     O 9332   3.895   2.659  16.218 -0.1412  0.2697 -0.0251
  630TMC3     H 9333   4.208   2.815  16.031  0.5596  0.2456 -0.0761
  630TMC3    H1 9334   4.058   2.548  16.339 -0.1446  0.3107  0.3856
  630TMC3    H2 9335   4.473   2.592  16.265  0.8678  0.5882 -1.5436
  630TMC3    C7 9336   4.299   2.484  16.432 -0.0660 -0.0907  0.2939
  630TMC3    C8 9337   4.452   2.755  16.067  0.0653  0.5791 -0.6414
  630TMC3    O1 9338   4.209   2.414  16.481 -0.5255  0.2200  0.0262
  630TMC3    O2 9339   4.559   2.699  16.096 -0.4851  0.3979 -0.4800
  631MPD2     C 9340   1.985   2.500  15.841 -0.6153  0.8215  0.0454
  631MPD2    C1 9341   2.040   2.482  15.719  0.2738 -0.4469  0.8923
  631MPD2    C2 9342   2.130   2.373  15.708  0.2347 -0.2644 -1.0527
  631MPD2    C3 9343   2.175   2.303  15.819 -0.3892  0.0259 -0.9878
  631MPD2    C4 9344   2.123   2.340  15.940 -0.0542 -0.1473  0.2785
  631MPD2    C5 9345   2.024   2.435  15.953 -0.1970  0.1341  0.6040
  631MPD2     H 9346   2.179   2.340  15.617  1.5048 -0.4138 -0.3157
  631MPD2    H1 9347   2.148   2.284  16.030  0.4936 -0.9801 -0.3839
  631MPD2    H2 9348   1.905   2.573  15.847 -0.5726  0.7789  1.2725
  631MPD2    H3 9349   1.977   2.452  16.048 -1.5380 -0.6131  0.0652
  631MPD2     N 9350   2.279   2.212  15.804 -0.8341 -0.1606 -1.0195
  631MPD2    H5 9351   2.318   2.206  15.710 -1.4956 -3.6954 -1.0758
  631MPD2    N1 9352   1.988   2.557  15.613  0.2836  0.2294  0.5204
  631MPD2    H7 9353   1.924   2.634  15.631  1.5513  1.5181 -0.4318
  632TMC3    C1 9354   2.027   2.662  15.408  0.3135  0.3887  0.2786
  632TMC3    C2 9355   2.010   2.779  15.481 -0.2896  0.1984  0.6581
  632TMC3    C3 9356   2.010   2.890  15.412 -0.0528 -0.6041 -0.0371
  632TMC3    C4 9357   2.069   2.668  15.277 -0.2216 -0.0385 -0.5221
  632TMC3    C5 9358   2.095   2.789  15.218  0.3369  1.0007  0.0803
  632TMC3    C6 9359   2.050   2.900  15.279 -0.0701  0.0703  0.4541
  632TMC3     C 9360   2.036   2.544  15.483  1.1195 -0.4181  0.4067
  632TMC3     O 9361   2.105   2.456  15.426  0.7116  0.0177 -0.3178
  632TMC3     H 9362   2.028   2.789  15.587 -3.2287  0.0779  1.1784
  632TMC3    H1 9363   2.080   2.575  15.222 -2.6316 -0.8944  0.4475
  632TMC3    H2 9364   2.072   2.995  15.231  1.9171 -1.0748 -0.9201
  632TMC3    C7 9365   2.154   2.800  15.091  0.4258 -0.4246 -0.2805
  632TMC3    C8 9366   1.991   3.007  15.494 -0.3321 -0.8392  0.3462
  632TMC3    O1 9367   2.164   2.906  15.024  0.2494  0.3655  0.3117
  632TMC3    O2 9368   2.002   2.997  15.620  0.3585 -0.5559 -0.2990
  633MPD2     C 9369   1.890   0.143  17.204  0.8227 -0.0653  0.2074
  633MPD2    C1 9370   1.839   0.096  17.083  0.2929  0.2523 -0.6527
  633MPD2    C2 9371   1.810   4.683  17.075  0.3636 -0.6311 -0.4650
  633MPD2    C3 9372   1.856   4.601  17.176  0.0713 -0.5484  0.3300
  633MPD2    C4 9373   1.898   4.654  17.303 -0.5525  0.2384  0.1462
  633MPD2    C5 9374   1.918   0.063  17.308  0.1294 -0.6222 -0.3468
  633MPD2     H 9375   1.757   4.639  16.991 -0.4945  1.3490 -0.9593
  633MPD2    H1 9376   1.915   4.596  17.393 -0.9572 -2.5358 -1.5708
  633MPD2    H2 9377   1.908   0.250  17.214 -0.7026  0.2909 -0.8428
  633MPD2    H3 9378   1.940   0.113  17.402 -1.8665 -0.6487  0.1520
  633MPD2     N 9379   1.852   4.464  17.169 -0.0727 -0.2707  0.3109
  633MPD2    H5 9380   1.850   4.416  17.258 -2.2385  1.7931  1.4072
  633MPD2    N1 9381   1.807   0.183  16.977  0.1906 -0.2667 -0.1616
  633MPD2    H7 9382   1.766   0.139  16.894 -0.2296  2.6307 -1.4696
  634TMC3    C1 9383   1.837   0.353  16.820 -0.6860  0.2890 -0.2976
  634TMC3    C2 9384   1.855   0.257  16.722  0.1367  0.6953  0.1208
  634TMC3    C3 9385   1.910   0.282  16.600  0.3716 -0.0505 -0.0134
  634TMC3    C4 9386   1.876   0.481  16.786 -0.1006 -0.0731 -0.0440
  634TMC3    C5 9387   1.925   0.507  16.659  0.1558  0.3436 -0.2724
  634TMC3    C6 9388   1.937   0.406  16.565  0.1201 -0.1864 -0.4561
  634TMC3     C 9389   1.848   0.316  16.958  0.3078 -0.0903  0.2929
  634TMC3     O 9390   1.888   0.396  17.043 -0.0268  0.3426 -0.6950
  634TMC3     H 9391   1.816   0.156  16.732 -0.7862  1.2203  1.9555
  634TMC3    H1 9392   1.868   0.557  16.863  0.5541  1.8806 -1.8896
  634TMC3    H2 9393   1.970   0.433  16.465  1.9491 -0.0398  0.1735
  634TMC3    C7 9394   1.959   0.645  16.627 -0.8923  0.1346 -1.0198
  634TMC3    C8 9395   1.930   0.164  16.515 -0.0940  0.4561  0.0075
  634TMC3    O1 9396   2.013   0.671  16.520 -0.1383 -0.7540 -0.2547
  634TMC3    O2 9397   1.949   0.052  16.566 -0.3510 -0.2719  0.3388
  635TMC3    C1 9398   2.569   1.132  17.324  0.6403 -0.1999 -0.6232
  635TMC3    C2 9399   2.669   1.121  17.234  0.6749 -0.1558 -0.5592
  635TMC3    C3 9400   2.696   1.002  17.170  0.5327  0.1444  0.5953
  635TMC3    C4 9401   2.500   1.019  17.357 -0.0029 -0.2157  0.4730
  635TMC3    C5 9402   2.526   0.905  17.286 -0.4353  0.1518 -0.2866
  635TMC3    C6 9403   2.615   0.894  17.185  0.0098 -0.0322 -0.1564
  635TMC3     C 9404   2.538   1.259  17.379  0.4215 -0.6866  0.5864
  635TMC3     O 9405   2.502   1.260  17.497  0.1567  0.3341  0.8622
  635TMC3     H 9406   2.742   1.199  17.213 -0.5240  0.5968 -1.9565
  635TMC3    H1 9407   2.427   1.032  17.436 -0.8637 -1.4241 -0.1385
  635TMC3    H2 9408   2.635   0.804  17.128  0.4483  0.3012 -0.5238
  635TMC3    C7 9409   2.431   0.793  17.293 -0.2581 -0.1444 -0.0558
  635TMC3    C8 9410   2.781   1.005  17.051 -0.4190 -0.2907 -0.7968
  635TMC3    O1 9411   2.433   0.716  17.193 -0.1810 -0.1912  0.1651
  635TMC3    O2 9412   2.767   0.933  16.956  0.7341 -0.3061 -0.4652
  636MPD2     C 9413   3.310   1.034  15.758 -0.2647 -0.9607  0.6422
  636MPD2    C1 9414   3.352   1.055  15.888  0.5021 -0.1727  0.2384
  636MPD2    C2 9415   3.464   0.981  15.930 -0.2088 -0.1307  0.2992
  636MPD2    C3 9416   3.533   0.886  15.850 -0.0200  0.0161 -0.3266
  636MPD2    C4 9417   3.481   0.868  15.724 -0.0721  0.3356  0.2357
  636MPD2    C5 9418   3.374   0.941  15.679 -0.2058  0.0592 -0.0678
  636MPD2     H 9419   3.500   1.002  16.030  2.0680  0.8042 -0.7210
  636MPD2    H1 9420   3.518   0.793  15.654 -1.8051 -0.3325  0.0474
  636MPD2    H2 9421   3.219   1.078  15.720 -0.6793 -1.7062  0.7572
  636MPD2    H3 9422   3.342   0.921  15.578 -1.8348 -0.3694  0.5420
  636MPD2     N 9423   3.655   0.828  15.890  0.1286 -0.0868  0.5512
  636MPD2    H5 9424   3.684   0.855  15.983 -0.0571  1.0513  0.2853
  636MPD2    N1 9425   3.288   1.129  15.994  0.2614 -0.3828  0.8854
  636MPD2    H7 9426   3.322   1.117  16.089 -1.1915 -0.5513  1.3884
  637TMC3    C1 9427   3.875   0.716  15.862 -0.2141  0.1401  0.2090
  637TMC3    C2 9428   3.939   0.821  15.931 -0.1139  0.3601  0.5711
  637TMC3    C3 9429   4.073   0.845  15.915 -0.0494  0.8091  0.0208
  637TMC3    C4 9430   3.948   0.621  15.794  0.4459  0.0768  0.5393
  637TMC3    C5 9431   4.082   0.650  15.789 -0.2785 -0.1453 -0.4759
  637TMC3    C6 9432   4.148   0.757  15.845 -0.3334 -0.2345 -0.3255
  637TMC3     C 9433   3.740   0.747  15.806  0.2858  0.6638 -0.8734
  637TMC3     O 9434   3.712   0.691  15.700  0.1711  0.5258 -0.3551
  637TMC3     H 9435   3.878   0.901  15.973  0.4267 -0.0730  2.1598
  637TMC3    H1 9436   3.905   0.541  15.735  1.8618 -1.5891  1.7747
  637TMC3    H2 9437   4.255   0.771  15.832 -0.4541 -0.8637 -1.9557
  637TMC3    C7 9438   4.132   0.624  15.655 -0.1722 -0.4308  0.1025
  637TMC3    C8 9439   4.108   0.979  15.863 -0.0731 -0.3774  0.3081
  637TMC3    O1 9440   4.104   0.515  15.602 -0.2133 -0.0934 -0.3054
  637TMC3    O2 9441   4.159   0.967  15.754 -0.1727  1.3300  0.7384
  638MPD2     C 9442   2.983   4.584  14.929  0.6655  0.7941 -0.0858
  638MPD2    C1 9443   2.933   4.489  14.845 -0.0816  0.2178 -0.6270
  638MPD2    C2 9444   2.890   4.366  14.896 -0.1289  0.1894 -0.3366
  638MPD2    C3 9445   2.900   4.342  15.033 -0.0592 -0.1424 -0.0733
  638MPD2    C4 9446   2.934   4.446  15.114 -0.4764 -0.2738 -0.0732
  638MPD2    C5 9447   2.972   4.568  15.061 -0.4404  0.3531 -0.1608
  638MPD2     H 9448   2.864   4.286  14.828  2.6167 -1.0788  0.1228
  638MPD2    H1 9449   2.933   4.444  15.223  0.1324  1.8282 -0.0251
  638MPD2    H2 9450   3.024   4.673  14.883 -0.1499  1.3405  0.2468
  638MPD2    H3 9451   3.011   4.637  15.135 -2.2436  0.0341  1.0794
  638MPD2     N 9452   2.884   4.215  15.082 -0.4713 -0.2549  0.3137
  638MPD2    H5 9453   2.845   4.141  15.024 -1.5129  1.3886 -1.0689
  638MPD2    N1 9454   2.947   4.502  14.705  0.1153 -0.5556  0.0363
  638MPD2    H7 9455   2.997   4.586  14.677 -1.2610  0.8002  1.6357
  639TMC3    C1 9456   2.859   4.031  15.230  0.1712 -0.1786  0.2424
  639TMC3    C2 9457   2.750   3.986  15.157  0.5693  0.4997  1.2260
  639TMC3    C3 9458   2.695   3.867  15.188  0.1145  0.0248  1.2691
  639TMC3    C4 9459   2.921   3.953  15.321  0.2629 -0.6553  0.1027
  639TMC3    C5 9460   2.871   3.828  15.345  0.1610 -0.5222  0.3410
  639TMC3    C6 9461   2.759   3.783  15.275 -0.3292 -0.1508 -0.2435
  639TMC3     C 9462   2.907   4.167  15.208  0.6390 -0.4067 -0.2845
  639TMC3     O 9463   2.980   4.220  15.296 -0.2093  0.5158 -0.7535
  639TMC3     H 9464   2.688   4.051  15.097  0.2633  0.4051  1.4405
  639TMC3    H1 9465   3.007   3.993  15.374  0.5298 -0.0694 -0.7662
  639TMC3    H2 9466   2.741   3.676  15.274  1.2192 -0.4449  1.3509
  639TMC3    C7 9467   2.972   3.721  15.332  0.2178  0.3938 -0.1918
  639TMC3    C8 9468   2.661   3.795  15.067  0.4488  0.0034 -0.7578
  639TMC3    O1 9469   2.946   3.606  15.370 -0.2846 -0.1015 -0.3306
  639TMC3    O2 9470   2.743   3.788  14.974  0.1179  0.3754  0.1053
  640MPD2     C 9471   3.723   3.073  10.043  0.2431  0.8207 -0.4039
  640MPD2    C1 9472   3.684   2.973   9.955 -0.1413  0.3783 -0.5372
  640MPD2    C2 9473   3.555   2.987   9.891  0.9704 -0.4378 -0.5654
  640MPD2    C3 9474   3.481   3.101   9.907 -0.2226  0.3832 -0.1876
  640MPD2    C4 9475   3.528   3.201   9.983  0.3628  0.1328 -0.2785
  640MPD2    C5 9476   3.649   3.193  10.049  0.1975  0.0910  0.0348
  640MPD2     H 9477   3.510   2.911   9.828 -0.7485  2.9394 -3.4279
  640MPD2    H1 9478   3.476   3.295   9.967  0.5094 -0.2051 -2.7796
  640MPD2    H2 9479   3.814   3.074  10.102  0.1146 -0.4132 -0.1904
  640MPD2    H3 9480   3.679   3.275  10.114  0.0038  0.4455 -0.3198
  640MPD2     N 9481   3.354   3.124   9.831 -0.4519 -0.3124  0.3762
  640MPD2    H5 9482   3.337   3.224   9.824 -1.3234 -0.3799  1.5724
  640MPD2    N1 9483   3.769   2.861   9.939  0.1182 -0.3848  0.8328
  640MPD2    H7 9484   3.860   2.860   9.983  2.1974 -1.3905 -3.4691
  641TMC3    C1 9485   3.860   2.677   9.825  0.0621 -0.0527  0.3499
  641TMC3    C2 9486   3.963   2.670   9.916 -0.4840  0.0885 -0.6622
  641TMC3    C3 9487   4.081   2.612   9.870  0.1692 -1.2914  0.4999
  641TMC3    C4 9488   3.869   2.634   9.701  0.0963 -0.1195  0.3445
  641TMC3    C5 9489   3.991   2.598   9.656 -0.4267  0.1463 -0.0832
  641TMC3    C6 9490   4.103   2.583   9.736 -0.8678  0.0251 -0.7667
  641TMC3     C 9491   3.737   2.752   9.858 -0.2953  0.0245 -0.2287
  641TMC3     O 9492   3.637   2.731   9.794 -0.0420 -0.3305 -0.2034
  641TMC3     H 9493   3.946   2.670  10.023  0.7495  3.3327 -0.4922
  641TMC3    H1 9494   3.786   2.646   9.633 -1.0816  0.0692  1.8114
  641TMC3    H2 9495   4.204   2.580   9.696 -0.5807 -1.4437  0.0538
  641TMC3    C7 9496   4.013   2.567   9.517 -0.0311 -0.0724  0.0317
  641TMC3    C8 9497   4.197   2.600   9.952  0.5336  0.3246 -1.2655
  641TMC3    O1 9498   3.927   2.598   9.439 -0.4947  0.3798 -0.1426
  641TMC3    O2 9499   4.284   2.525   9.912 -0.0267  0.6999 -0.3815
  642TMC3    C1 9500   0.084   4.208  12.350  0.4287 -0.5204 -0.4582
  642TMC3    C2 9501   0.013   4.135  12.449 -0.0555 -0.5243  0.1619
  642TMC3    C3 9502   0.047   4.005  12.466  0.3338  0.7001 -0.0214
  642TMC3    C4 9503   0.176   4.147  12.266 -0.3501  0.4107 -0.3108
  642TMC3    C5 9504   0.212   4.018  12.304  0.1944 -0.3289 -0.3443
  642TMC3    C6 9505   0.150   3.950  12.402  0.6312 -0.1826  0.1555
  642TMC3     C 9506   0.045   4.342  12.312 -0.2744  0.1216 -0.7166
  642TMC3     O 9507   0.125   4.397  12.237 -0.0027  0.0041 -0.2468
  642TMC3     H 9508   4.668   4.185  12.517  0.7230  0.7986 -0.0225
  642TMC3    H1 9509   0.221   4.205  12.186  1.5820 -0.8054 -0.1198
  642TMC3    H2 9510   0.163   3.843  12.417  2.1292 -0.0003  0.1321
  642TMC3    C7 9511   0.298   3.933  12.223 -0.0167 -0.1643  0.3202
  642TMC3    C8 9512   4.688   3.922  12.546  0.1920 -0.0259  0.0545
  642TMC3    O1 9513   0.326   3.822  12.267  0.2371 -0.2228  0.0422
  642TMC3    O2 9514   4.720   3.814  12.593  0.5210 -0.4275  0.0817
  643TMC3    C1 9515   3.473   2.917   0.041  0.0092  0.3779 -0.1185
  643TMC3    C2 9516   3.380   3.018   0.034  0.2608 -0.1747 -0.2245
  643TMC3    C3 9517   3.415   3.134  17.668 -0.0428 -0.6252  0.5573
  643TMC3    C4 9518   3.587   2.916  17.656  0.2309 -0.1645  0.5870
  643TMC3    C5 9519   3.589   3.015  17.558 -0.5914  0.6079 -0.1087
  643TMC3    C6 9520   3.509   3.125  17.569  0.2038 -0.2975  0.0761
  643TMC3     C 9521   3.462   2.837   0.162 -0.6010  0.5752  0.9394
  643TMC3     O 9522   3.351   2.794   0.192 -0.4676 -0.4531  0.4940
  643TMC3     H 9523   3.285   3.011   0.087  0.1271 -0.5739 -0.5128
  643TMC3    H1 9524   3.649   2.828  17.646  0.0129 -0.4832  1.9568
  643TMC3    H2 9525   3.506   3.196  17.487 -1.4586  1.1804  1.4481
  643TMC3    C7 9526   3.698   3.035  17.468  0.3469 -0.6885  0.1598
  643TMC3    C8 9527   3.329   3.254  17.668 -0.0686  0.0215 -0.1499
  643TMC3    O1 9528   3.708   3.146  17.419 -0.5623 -0.3686  0.3257
  643TMC3    O2 9529   3.217   3.238   0.022 -0.5080  0.5139  0.2193
  644MPD2     C 9530   4.541   3.489  10.324 -0.8676 -0.5141 -0.0104
  644MPD2    C1 9531   4.551   3.432  10.201 -0.9020  0.1083  0.2797
  644MPD2    C2 9532   4.629   3.498  10.104  0.2616  0.0571 -0.1635
  644MPD2    C3 9533   4.710   3.607  10.138  0.3766 -0.0311  0.2460
  644MPD2    C4 9534   4.712   3.656  10.268 -0.1246 -0.1557 -0.0957
  644MPD2    C5 9535   4.626   3.594  10.349 -0.3819  0.5142 -0.2302
  644MPD2     H 9536   4.639   3.462  10.002 -0.6381  0.8637 -0.5325
  644MPD2    H1 9537   0.052   3.733  10.311 -3.2738  2.4547 -0.1583
  644MPD2    H2 9538   4.476   3.456  10.404  1.2668  2.2714  2.8474
  644MPD2    H3 9539   4.624   3.636  10.449 -0.5044  2.0148 -0.8529
  644MPD2     N 9540   0.070   3.659  10.037 -0.0165  0.3747  0.4575
  644MPD2    H5 9541   0.082   3.608   9.949 -2.6943  2.0758 -0.8769
  644MPD2    N1 9542   4.463   3.321  10.177  0.7274  0.3527  0.0175
  644MPD2    H7 9543   4.427   3.269  10.257 -0.7068  0.5439 -0.5106
  645TMC3    C1 9544   0.216   3.807   9.928  0.4225 -0.4213  0.1193
  645TMC3    C2 9545   0.187   3.742   9.811 -0.2829  0.7148 -0.0428
  645TMC3    C3 9546   0.225   3.806   9.696 -0.2695  0.1115  0.2692
  645TMC3    C4 9547   0.274   3.932   9.930 -0.5239  0.7780 -0.0208
  645TMC3    C5 9548   0.349   3.965   9.813  0.0076  0.3952 -0.1150
  645TMC3    C6 9549   0.313   3.907   9.695  0.2160  0.7594  0.9195
  645TMC3     C 9550   0.142   3.775  10.049  0.0121  0.3919 -0.2410
  645TMC3     O 9551   0.145   3.848  10.146  0.5129  0.2468 -0.3063
  645TMC3     H 9552   0.119   3.658   9.803  0.2402  0.1572  1.4160
  645TMC3    H1 9553   0.278   3.991  10.020  1.7815  1.4005 -0.5342
  645TMC3    H2 9554   0.353   3.944   9.601 -0.8527 -0.3956  0.0113
  645TMC3    C7 9555   0.431   4.086   9.816  1.0933  0.2392 -0.9676
  645TMC3    C8 9556   0.196   3.752   9.565 -0.1711  0.0504  0.5407
  645TMC3    O1 9557   0.481   4.121   9.711  0.6379  0.2563  0.1512
  645TMC3    O2 9558   0.236   3.805   9.464 -0.3073  0.9162 -0.0255
  646MPD2     C 9559   3.211   2.970  14.540 -0.3394  0.5293 -0.2513
  646MPD2    C1 9560   3.139   3.001  14.654  0.4248  0.3983  1.1439
  646MPD2    C2 9561   3.051   3.103  14.642  0.7430 -0.9563 -0.6948
  646MPD2    C3 9562   3.028   3.166  14.513 -0.1906  0.2386 -0.6031
  646MPD2    C4 9563   3.094   3.119  14.405  0.2638 -0.1380 -0.5092
  646MPD2    C5 9564   3.193   3.027  14.416  1.1209 -0.5381  0.0679
  646MPD2     H 9565   3.000   3.138  14.731  1.8431 -0.0182 -0.4224
  646MPD2    H1 9566   3.070   3.162  14.308  2.3800  2.2372  0.0158
  646MPD2    H2 9567   3.286   2.892  14.546 -0.0854  0.8326  0.6086
  646MPD2    H3 9568   3.243   2.993  14.326 -0.3736  0.5975 -1.1876
  646MPD2     N 9569   2.930   3.263  14.504  0.6218  0.4202 -0.4097
  646MPD2    H5 9570   2.862   3.265  14.579  1.7738  1.4444  0.6184
  646MPD2    N1 9571   3.180   2.946  14.770 -0.1105  0.8157  0.0996
  646MPD2    H7 9572   3.262   2.889  14.753 -1.0343 -0.5482  0.2396
  647TMC3    C1 9573   3.217   2.884  14.989 -0.0944 -0.3149  0.1477
  647TMC3    C2 9574   3.150   2.825  15.090  0.6605  0.4653  0.0098
  647TMC3    C3 9575   3.233   2.759  15.188  0.1313  0.2302  0.6820
  647TMC3    C4 9576   3.354   2.866  14.963 -0.0473  0.1942 -0.6281
  647TMC3    C5 9577   3.421   2.804  15.062  0.0261 -0.4104  0.2923
  647TMC3    C6 9578   3.372   2.756  15.177 -0.1297  0.5212 -0.5357
  647TMC3     C 9579   3.139   2.967  14.897 -0.4032 -0.8814  0.2931
  647TMC3     O 9580   3.037   3.019  14.944 -0.6120  0.5560  0.2545
  647TMC3     H 9581   3.041   2.828  15.097  0.6918  2.3958 -0.3377
  647TMC3    H1 9582   3.390   2.907  14.870 -1.0172  0.8538 -0.7089
  647TMC3    H2 9583   3.431   2.698  15.247 -0.9585  0.1110 -0.1762
  647TMC3    C7 9584   3.553   2.751  15.030  0.2595 -0.3977 -0.8489
  647TMC3    C8 9585   3.187   2.655  15.277 -0.1316 -0.2373 -0.1398
  647TMC3    O1 9586   3.626   2.733  15.129 -0.3069 -0.7682 -0.1318
  647TMC3    O2 9587   3.273   2.600  15.345  0.1295  0.1374  0.1203
  648TMC3    C1 9588   2.392   0.422  15.937 -0.9452  0.7289 -0.6224
  648TMC3    C2 9589   2.394   0.301  15.877  0.1413  0.6014  0.2920
  648TMC3    C3 9590   2.367   0.302  15.746  0.7432  0.2714  0.6051
  648TMC3    C4 9591   2.366   0.540  15.878  0.6830 -0.9649 -0.3613
  648TMC3    C5 9592   2.334   0.527  15.748  0.1228  0.0404  0.0957
  648TMC3    C6 9593   2.329   0.411  15.676  0.1955 -1.1295 -0.3685
  648TMC3     C 9594   2.399   0.430  16.079  0.2904  0.0304 -0.4737
  648TMC3     O 9595   2.438   0.536  16.124  0.2233  0.2954 -0.5606
  648TMC3     H 9596   2.411   0.204  15.923 -1.1287  1.0797  1.7658
  648TMC3    H1 9597   2.378   0.635  15.928  0.4592 -1.7867  1.2717
  648TMC3    H2 9598   2.299   0.407  15.572 -0.5791 -1.0467 -0.1461
  648TMC3    C7 9599   2.287   0.647  15.681  0.3093 -0.3008  0.0757
  648TMC3    C8 9600   2.380   0.182  15.665  0.1005 -0.4073 -0.0336
  648TMC3    O1 9601   2.296   0.651  15.558 -0.3537  0.1638  0.4171
  648TMC3    O2 9602   2.293   0.141  15.590  0.5361 -0.1137 -0.2440
  649TMC3    C1 9603   1.335   1.718  12.873 -0.4661 -0.0762 -0.1960
  649TMC3    C2 9604   1.468   1.722  12.855  0.0086  0.6863 -0.1676
  649TMC3    C3 9605   1.553   1.645  12.926 -0.8353 -0.1756 -0.4074
  649TMC3    C4 9606   1.281   1.641  12.974 -0.2904  0.1254 -0.3361
  649TMC3    C5 9607   1.374   1.583  13.057  0.1223  0.6843 -0.3648
  649TMC3    C6 9608   1.507   1.573  13.034 -0.3197  0.1036  0.4054
  649TMC3     C 9609   1.246   1.762  12.774  0.5813  0.6350  0.2052
  649TMC3     O 9610   1.128   1.778  12.813 -0.3975 -0.4112 -0.3807
  649TMC3     H 9611   1.505   1.782  12.772 -2.2276  1.1536 -0.8255
  649TMC3    H1 9612   1.174   1.634  12.983 -0.3567  2.2200  0.4882
  649TMC3    H2 9613   1.577   1.520  13.097  1.4265  0.6375 -1.0771
  649TMC3    C7 9614   1.323   1.530  13.184  0.0724  0.0910 -0.1161
  649TMC3    C8 9615   1.699   1.662  12.906  0.4441  0.7008 -0.1192
  649TMC3    O1 9616   1.242   1.597  13.245  0.3926  0.6276 -0.2089
  649TMC3    O2 9617   1.770   1.605  12.990  0.6661  0.4286 -0.1689
  650TMC3    C1 9618   4.113   3.591  12.556  0.0766 -0.3312 -0.0190
  650TMC3    C2 9619   4.018   3.691  12.548  0.1387 -0.7301  0.6095
  650TMC3    C3 9620   4.053   3.795  12.466  0.6463 -0.6406  0.3593
  650TMC3    C4 9621   4.227   3.596  12.479 -0.1758 -0.1198  0.3983
  650TMC3    C5 9622   4.250   3.693  12.390 -0.4544 -0.1954  0.0020
  650TMC3    C6 9623   4.168   3.804  12.394 -0.2927 -0.0334 -0.0203
  650TMC3     C 9624   4.073   3.477  12.640  0.5404 -0.4958  0.7636
  650TMC3     O 9625   3.969   3.481  12.710  0.1941  0.7800 -0.1225
  650TMC3     H 9626   3.927   3.692  12.607  0.5087  1.7801  1.1282
  650TMC3    H1 9627   4.274   3.503  12.450  2.6049  1.3105  0.2906
  650TMC3    H2 9628   4.183   3.886  12.325 -0.8780 -0.2844 -0.4404
  650TMC3    C7 9629   4.383   3.698  12.330  0.8411  0.2663  0.1735
  650TMC3    C8 9630   3.982   3.924  12.483 -0.1395 -0.7416 -0.2572
  650TMC3    O1 9631   4.472   3.615  12.353 -0.0547 -0.3844 -0.2349
  650TMC3    O2 9632   4.049   4.026  12.469 -0.2452  0.0971  0.4427
  651MPD2     C 9633   3.250   0.143  10.115 -0.3301  0.6832  0.3685
  651MPD2    C1 9634   3.208   0.257  10.170 -0.1247  0.4654  0.1000
  651MPD2    C2 9635   3.304   0.337  10.235 -0.1259 -0.0063  0.3190
  651MPD2    C3 9636   3.439   0.312  10.227 -1.1072  0.4462  0.8317
  651MPD2    C4 9637   3.476   0.190  10.177  0.5741  0.9397  0.1418
  651MPD2    C5 9638   3.384   0.106  10.120  0.2085 -0.3211 -0.6253
  651MPD2     H 9639   3.274   0.418  10.301 -2.6924 -0.8596  0.2076
  651MPD2    H1 9640   3.576   0.150  10.180  1.5282  3.1974 -1.1560
  651MPD2    H2 9641   3.186   0.079  10.056  0.0490 -1.2174  2.0161
  651MPD2    H3 9642   3.419   0.016  10.071 -2.2435 -0.9572 -1.2256
  651MPD2     N 9643   3.535   0.398  10.290 -0.1323  0.2896  0.0784
  651MPD2    H5 9644   3.494   0.477  10.339  0.5699  1.0253 -0.5295
  651MPD2    N1 9645   3.074   0.296  10.170  0.0234  0.6836 -0.4126
  651MPD2    H7 9646   3.050   0.371  10.234 -0.4448  0.1475  0.0383
  652TMC3    C1 9647   3.926   0.583  10.464 -0.0949  0.1807 -0.1586
  652TMC3    C2 9648   3.875   0.490  10.379 -0.0755 -0.5069 -0.3932
  652TMC3    C3 9649   3.742   0.495  10.365  0.4014 -0.2314 -0.0169
  652TMC3    C4 9650   3.848   0.670  10.536 -0.4001 -0.2428  0.2922
  652TMC3    C5 9651   3.716   0.658  10.528  0.2480 -1.0860 -0.6633
  652TMC3    C6 9652   3.660   0.572  10.445 -0.0281 -0.1013  0.0916
  652TMC3     C 9653   4.072   0.583  10.486  0.1866  0.1204  0.0736
  652TMC3     O 9654   4.137   0.491  10.439  0.0412  0.6181  0.1664
  652TMC3     H 9655   3.936   0.423  10.320 -2.2916 -1.0669 -2.0640
  652TMC3    H1 9656   3.886   0.719  10.625  2.5447 -2.1411  0.0730
  652TMC3    H2 9657   3.552   0.581  10.435 -0.1348  1.2022  2.4944
  652TMC3    C7 9658   3.643   0.684  10.651  0.2697  0.3710 -0.1787
  652TMC3    C8 9659   3.668   0.387  10.282  0.2816 -0.6965  0.2878
  652TMC3    O1 9660   3.558   0.600  10.676  0.0647 -0.0416  0.0702
  652TMC3    O2 9661   3.729   0.308  10.217  0.3277  0.4002 -0.4984
  653MPD2     C 9662   1.779   0.263  17.689 -0.0418 -1.1089  0.1040
  653MPD2    C1 9663   1.698   0.334  17.607  0.4654 -0.1209  0.3373
  653MPD2    C2 9664   1.634   0.267  17.503  0.1687  0.0749 -0.0893
  653MPD2    C3 9665   1.628   0.133  17.498  0.4130  0.0891 -0.2662
  653MPD2    C4 9666   1.696   0.061  17.596  0.0472  0.0324 -0.0090
  653MPD2    C5 9667   1.779   0.131  17.684 -0.6502 -0.5933 -0.3386
  653MPD2     H 9668   1.578   0.326  17.432  1.4511  0.3023 -0.9041
  653MPD2    H1 9669   1.695   4.677  17.610 -0.2922  0.1168  0.6421
  653MPD2    H2 9670   1.837   0.309   0.073  1.1796  0.1249 -1.5202
  653MPD2    H3 9671   1.826   0.079   0.072  2.4586  1.5260 -0.7423
  653MPD2     N 9672   1.564   0.072  17.390  0.2055  0.4576 -0.4833
  653MPD2    H5 9673   1.522   0.128  17.316 -0.5481 -1.3703 -1.4235
  653MPD2    N1 9674   1.683   0.475  17.623  0.7758  0.8627 -0.3215
  653MPD2    H7 9675   1.646   0.521  17.540  1.8468  0.1165 -1.2164
  654TMC3    C1 9676   1.462   4.630  17.260 -0.5977 -0.6621  0.0167
  654TMC3    C2 9677   1.373   4.717  17.210 -0.2306  0.2874 -0.9286
  654TMC3    C3 9678   1.308   4.670  17.097 -0.3972 -0.2799 -0.3459
  654TMC3    C4 9679   1.478   4.499  17.223  0.1257 -0.7285 -0.1292
  654TMC3    C5 9680   1.410   4.461  17.111  0.3789  0.0275 -0.4981
  654TMC3    C6 9681   1.331   4.548  17.040  0.1168  0.2793 -0.3303
  654TMC3     C 9682   1.547   4.661  17.375  0.3354  0.3162 -0.4996
  654TMC3     O 9683   1.584   4.568  17.447 -0.1636  0.0333  0.4886
  654TMC3     H 9684   1.347   0.088  17.256 -1.4310  0.5811 -2.1830
  654TMC3    H1 9685   1.564   4.447  17.263 -0.2127 -1.3894 -0.2537
  654TMC3    H2 9686   1.267   4.514  16.960  1.8950 -0.7229 -1.3193
  654TMC3    C7 9687   1.424   4.326  17.051  0.0499 -0.7787 -0.1787
  654TMC3    C8 9688   1.235   0.047  17.027  0.0808 -0.4965  0.2076
  654TMC3    O1 9689   1.361   4.307  16.946 -0.3078 -0.2774 -0.2603
  654TMC3    O2 9690   1.199   0.152  17.083 -0.6958 -0.3826  0.0122
  655MPD2     C 9691   3.045   0.764  15.725  0.2503 -0.9198  0.0216
  655MPD2    C1 9692   2.938   0.829  15.664  0.0619 -0.1342 -0.1640
  655MPD2    C2 9693   2.903   0.803  15.537  0.2920 -0.0617 -0.5446
  655MPD2    C3 9694   2.950   0.696  15.474  0.1489 -0.4001  0.3623
  655MPD2    C4 9695   3.072   0.641  15.527 -0.0808  0.1548  0.3334
  655MPD2    C5 9696   3.113   0.668  15.654 -0.0430  0.1266 -0.2759
  655MPD2     H 9697   2.810   0.840  15.495  0.4565  1.9005  0.8514
  655MPD2    H1 9698   3.116   0.559  15.472 -1.8531 -1.5117  1.3933
  655MPD2    H2 9699   3.087   0.782  15.824  0.4651  0.1571 -0.2582
  655MPD2    H3 9700   3.209   0.637  15.694  0.0690  0.1905 -0.4912
  655MPD2     N 9701   2.901   0.648  15.350  0.1057 -0.0194  0.1010
  655MPD2    H5 9702   2.956   0.575  15.306  1.3404  0.1655  1.3517
  655MPD2    N1 9703   2.879   0.941  15.716  0.4573 -0.1120  0.0218
  655MPD2    H7 9704   2.823   0.996  15.652  1.4316  1.7999  0.8037
  656TMC3    C1 9705   2.806   1.094  15.883 -0.1817  0.8365 -0.2937
  656TMC3    C2 9706   2.736   1.088  15.999  0.0904 -0.3654  0.0874
  656TMC3    C3 9707   2.651   1.193  16.020  0.0542  0.1719 -0.3562
  656TMC3    C4 9708   2.806   1.204  15.803  0.3926 -0.1937  0.5648
  656TMC3    C5 9709   2.730   1.312  15.835  0.2654 -0.9322 -0.0382
  656TMC3    C6 9710   2.639   1.298  15.929  0.7588  0.1629  0.5725
  656TMC3     C 9711   2.880   0.974  15.852  0.1907 -0.1505  0.2951
  656TMC3     O 9712   2.924   0.909  15.944 -0.3817 -0.1426  0.5290
  656TMC3     H 9713   2.740   0.996  16.056 -0.9191  0.0936  0.8946
  656TMC3    H1 9714   2.862   1.194  15.710 -0.3590  1.9599 -0.1046
  656TMC3    H2 9715   2.579   1.382  15.961  1.0642  0.4544  0.3779
  656TMC3    C7 9716   2.689   1.386  15.713 -0.2353 -0.3894  0.0640
  656TMC3    C8 9717   2.554   1.176  16.122 -0.5012  0.0344 -0.7316
  656TMC3    O1 9718   2.754   1.376  15.611  0.8936 -0.0273 -0.1931
  656TMC3    O2 9719   2.514   1.280  16.176 -0.1719  0.4673  0.0591
  657TMC3    C1 9720   1.711   0.018  15.007 -0.3344 -0.3007 -0.0628
  657TMC3    C2 9721   1.799   0.091  15.085 -0.4755 -0.1146  0.4332
  657TMC3    C3 9722   1.753   0.201  15.147  0.2985  0.5170 -0.4746
  657TMC3    C4 9723   1.574   0.045  15.008  0.3932 -0.0588  1.1443
  657TMC3    C5 9724   1.532   0.157  15.072 -0.5203 -0.7275 -0.1398
  657TMC3    C6 9725   1.623   0.238  15.145 -0.2711  0.7726 -0.3183
  657TMC3     C 9726   1.767   4.639  14.924 -0.0463  0.7556 -0.4635
  657TMC3     O 9727   1.682   4.564  14.875  0.3827  0.0987 -0.2306
  657TMC3     H 9728   1.899   0.057  15.106 -0.9538 -1.9401 -0.3097
  657TMC3    H1 9729   1.500   4.706  14.960  2.3735 -1.4167 -0.1709
  657TMC3    H2 9730   1.583   0.321  15.201 -0.0158  1.1399 -0.6775
  657TMC3    C7 9731   1.391   0.182  15.098  0.8815  0.1759  0.1572
  657TMC3    C8 9732   1.852   0.274  15.224  0.4486 -0.4363  0.4109
  657TMC3    O1 9733   1.360   0.294  15.137 -0.0585 -0.3898  0.0386
  657TMC3    O2 9734   1.942   0.223  15.283  0.3096  0.4781  0.1663
  658MPD2     C 9735   3.092   0.464  14.560 -0.1104 -0.0112 -0.7911
  658MPD2    C1 9736   3.034   0.573  14.632  0.9027  0.8380  1.2067
  658MPD2    C2 9737   3.011   0.699  14.576 -0.0100  0.2052  0.3889
  658MPD2    C3 9738   3.049   0.718  14.450  0.3126 -0.4360 -0.1855
  658MPD2    C4 9739   3.116   0.621  14.381  0.2232 -0.0783 -0.1183
  658MPD2    C5 9740   3.135   0.493  14.433 -0.2292 -0.1125 -0.0044
  658MPD2     H 9741   2.956   0.779  14.626  1.0667  0.2116  1.5502
  658MPD2    H1 9742   3.162   0.638  14.284  0.7577 -0.4783  0.0614
  658MPD2    H2 9743   3.127   0.375  14.611 -0.3580 -0.4717 -1.4399
  658MPD2    H3 9744   3.205   0.430  14.378  1.3954  0.4738  1.3745
  658MPD2     N 9745   3.023   0.845  14.395  0.7677  0.3554 -0.4909
  658MPD2    H5 9746   3.003   0.913  14.467 -0.7606 -0.8601  0.2357
  658MPD2    N1 9747   2.985   0.539  14.761 -0.1105 -0.0904 -0.4612
  658MPD2    H7 9748   2.988   0.441  14.788  2.1844 -0.3518 -1.7008
  659TMC3    C1 9749   2.867   0.568  14.955  0.1134  0.2191  0.5130
  659TMC3    C2 9750   2.893   0.604  15.085  0.3040  0.0584 -0.1670
  659TMC3    C3 9751   2.783   0.638  15.155  0.4175 -0.2302 -0.2289
  659TMC3    C4 9752   2.739   0.552  14.906  0.0918 -0.2238 -0.1752
  659TMC3    C5 9753   2.639   0.596  14.988  0.0050  0.8318 -0.2356
  659TMC3    C6 9754   2.659   0.627  15.116 -0.0716 -0.1567  0.2824
  659TMC3     C 9755   2.946   0.633  14.857 -0.1301 -0.5113  0.3831
  659TMC3     O 9756   2.953   0.753  14.869  0.4730  0.1835  0.3574
  659TMC3     H 9757   2.992   0.632  15.118  0.7133  0.9395 -2.1596
  659TMC3    H1 9758   2.726   0.531  14.801 -0.7996  0.8978 -0.2897
  659TMC3    H2 9759   2.574   0.652  15.179  0.0611  1.4014 -0.1481
  659TMC3    C7 9760   2.500   0.600  14.942 -0.2559 -0.3061 -0.3725
  659TMC3    C8 9761   2.793   0.693  15.281 -0.3280  0.1132  0.0264
  659TMC3    O1 9762   2.434   0.692  14.979  0.0867  0.1479 -0.0514
  659TMC3    O2 9763   2.699   0.762  15.323 -0.7303 -0.4476 -0.9717
  660MPD2     C 9764   1.178   4.035  12.287  0.7396  0.1169 -0.3996
  660MPD2    C1 9765   1.092   4.141  12.291  0.6050  0.5512  0.3904
  660MPD2    C2 9766   1.017   4.155  12.406  0.3471  0.1072  0.5362
  660MPD2    C3 9767   1.039   4.075  12.510 -0.3833  0.3866  0.3598
  660MPD2    C4 9768   1.128   3.970  12.503 -0.6281  0.4072  0.0577
  660MPD2    C5 9769   1.204   3.956  12.392  0.0047  0.3692 -0.8411
  660MPD2     H 9770   0.953   4.242  12.415  1.4305  1.0379 -0.9702
  660MPD2    H1 9771   1.146   3.900  12.584  1.1724  2.4653  1.4252
  660MPD2    H2 9772   1.237   4.022  12.197 -1.1204 -0.8777 -1.5039
  660MPD2    H3 9773   1.278   3.877  12.395 -0.0455  0.5142  4.1488
  660MPD2     N 9774   0.978   4.095  12.635 -0.5441  0.4296  0.1159
  660MPD2    H5 9775   1.004   4.032  12.710  3.6075  4.0610  1.7450
  660MPD2    N1 9776   1.078   4.215  12.177  0.0702  0.0411 -0.3970
  660MPD2    H7 9777   1.121   4.183  12.091 -0.6849  0.3003 -0.8676
  661TMC3    C1 9778   0.992   4.356  12.023  0.6677 -0.1339  0.5554
  661TMC3    C2 9779   1.103   4.353  11.941 -0.3368  0.5953 -0.1256
  661TMC3    C3 9780   1.084   4.390  11.809 -0.0609  0.0747  0.3058
  661TMC3    C4 9781   0.867   4.391  11.980  0.4735 -0.0407  0.5905
  661TMC3    C5 9782   0.855   4.416  11.843  0.0917 -0.3630 -0.6026
  661TMC3    C6 9783   0.959   4.410  11.756 -0.0623  0.5199  0.1207
  661TMC3     C 9784   0.998   4.319  12.163  0.8279 -0.4347  0.6062
  661TMC3     O 9785   0.921   4.380  12.242  0.6451 -0.5522 -0.0424
  661TMC3     H 9786   1.198   4.336  11.990  0.1619 -0.7403 -1.5722
  661TMC3    H1 9787   0.785   4.392  12.051  0.9615 -0.8855  1.1673
  661TMC3    H2 9788   0.945   4.431  11.650 -0.6287  0.4899  0.1902
  661TMC3    C7 9789   0.723   4.400  11.789 -0.2368 -0.4369  0.9925
  661TMC3    C8 9790   1.198   4.367  11.727 -0.1038 -1.2002 -0.1243
  661TMC3    O1 9791   0.628   4.438  11.856  0.1823  0.3530 -0.0258
  661TMC3    O2 9792   1.287   4.305  11.783 -0.3878 -0.0505  0.6822
  662MPD2     C 9793   1.076   3.857  17.122  0.5563  0.1535 -0.2079
  662MPD2    C1 9794   0.950   3.810  17.145 -0.6580  0.7722 -0.0696
  662MPD2    C2 9795   0.854   3.896  17.133  0.1322 -0.3014 -0.4964
  662MPD2    C3 9796   0.877   4.032  17.107 -0.6086  0.1203 -0.0624
  662MPD2    C4 9797   1.004   4.081  17.080 -0.5573  0.6252  1.1760
  662MPD2    C5 9798   1.099   3.987  17.086  0.4792  0.2120 -0.0286
  662MPD2     H 9799   0.756   3.850  17.143  0.5890 -1.4995 -1.5586
  662MPD2    H1 9800   1.019   4.186  17.056  0.8679  0.2613  0.4694
  662MPD2    H2 9801   1.164   3.797  17.142  0.3770  0.2572  0.9010
  662MPD2    H3 9802   1.202   4.013  17.068  0.8856 -1.1555  0.3539
  662MPD2     N 9803   0.776   4.126  17.104 -0.6227  0.1787  0.1587
  662MPD2    H5 9804   0.806   4.222  17.115  1.0805 -0.1610 -1.4996
  662MPD2    N1 9805   0.910   3.679  17.188 -0.4067 -0.4677 -0.2730
  662MPD2    H7 9806   0.814   3.662  17.214  0.0004 -0.8990  0.9613
  663TMC3    C1 9807   0.943   3.454  17.236  0.2321  0.6121  0.2458
  663TMC3    C2 9808   0.805   3.450  17.236  0.2857  0.4747  0.4211
  663TMC3    C3 9809   0.739   3.346  17.289 -0.4124  0.4285 -0.1790
  663TMC3    C4 9810   1.012   3.368  17.314  0.1786  0.1129 -0.8226
  663TMC3    C5 9811   0.948   3.258  17.357  0.2604  0.6991 -0.1132
  663TMC3    C6 9812   0.812   3.247  17.351 -0.4489 -0.2041 -0.1548
  663TMC3     C 9813   1.006   3.576  17.203 -0.4281  0.3852  0.0167
  663TMC3     O 9814   1.127   3.584  17.219 -0.1754 -0.1520  0.0955
  663TMC3     H 9815   0.743   3.512  17.171  0.0703  1.2386  1.3564
  663TMC3    H1 9816   1.116   3.384  17.336  0.3838 -1.9838 -0.2832
  663TMC3    H2 9817   0.759   3.183  17.421 -1.0201  0.3224 -0.0996
  663TMC3    C7 9818   1.023   3.166  17.448 -0.0208 -0.3259 -0.2966
  663TMC3    C8 9819   0.647   3.404  17.383 -0.0292 -0.7665 -1.0150
  663TMC3    O1 9820   1.116   3.207  17.516 -0.1342  0.2178  0.3479
  663TMC3    O2 9821   0.670   3.523  17.395 -0.1851  0.3569  0.3011
  664MPD2     C 9822   3.623   2.115  16.846 -0.0781 -0.0851  0.1590
  664MPD2    C1 9823   3.735   2.109  16.927  0.3661  0.2128  0.0935
  664MPD2    C2 9824   3.729   2.020  17.029  0.3060 -0.5047 -0.6430
  664MPD2    C3 9825   3.614   1.954  17.065  0.2729 -0.1496 -0.2021
  664MPD2    C4 9826   3.494   1.973  16.989 -0.4884  0.1197  1.0083
  664MPD2    C5 9827   3.501   2.053  16.878  0.4604  0.0402 -0.6521
  664MPD2     H 9828   3.821   1.987  17.075  0.4140 -1.5111 -1.5828
  664MPD2    H1 9829   3.400   1.938  17.030 -0.2957 -1.2462  0.2880
  664MPD2    H2 9830   3.623   2.175  16.755 -0.3814 -0.4484 -0.0778
  664MPD2    H3 9831   3.416   2.073  16.814 -2.2728 -3.9561  1.7679
  664MPD2     N 9832   3.619   1.871  17.182 -0.1032  0.8658 -0.0194
  664MPD2    H5 9833   3.708   1.875  17.231 -0.7745  3.7797  0.9328
  664MPD2    N1 9834   3.856   2.177  16.919  0.1884  0.5882 -0.5401
  664MPD2    H7 9835   3.940   2.154  16.971  0.5546  0.0711 -1.3606
  665TMC3    C1 9836   3.554   1.741  17.366  0.0223  0.4892 -0.3930
  665TMC3    C2 9837   3.461   1.659  17.424  0.3936 -0.2157 -1.0195
  665TMC3    C3 9838   3.453   1.655  17.562  0.0117  0.8890 -0.2290
  665TMC3    C4 9839   3.632   1.823  17.438 -0.3131 -0.4117 -0.4010
  665TMC3    C5 9840   3.618   1.822  17.582 -0.7344  0.4052  0.2114
  665TMC3    C6 9841   3.525   1.738  17.640 -0.4982  0.0705  0.2583
  665TMC3     C 9842   3.524   1.778  17.227  0.5024  0.2801  0.1087
  665TMC3     O 9843   3.436   1.724  17.163  0.4885  0.2367 -0.1938
  665TMC3     H 9844   3.416   1.575  17.372  2.5808  0.0242 -3.2712
  665TMC3    H1 9845   3.691   1.909  17.408 -0.0431 -0.3454  0.3172
  665TMC3    H2 9846   3.506   1.745   0.052  0.7627 -0.0175  0.5002
  665TMC3    C7 9847   3.672   1.939  17.652 -0.2924  0.2419 -0.2290
  665TMC3    C8 9848   3.355   1.577  17.632 -1.2283  0.2740  0.8884
  665TMC3    O1 9849   3.761   2.002  17.595  0.2035  0.0517  0.6132
  665TMC3    O2 9850   3.376   1.551   0.052 -0.7113  0.0127 -0.0050
  666TMC3    C1 9851   3.853   1.879  10.085  0.2816 -0.2393 -0.3404
  666TMC3    C2 9852   3.899   1.808  10.189  0.3512 -0.0890  0.1688
  666TMC3    C3 9853   3.991   1.866  10.277  0.1836 -0.3829  0.0069
  666TMC3    C4 9854   3.897   2.008  10.061 -0.1143 -0.2655  0.3534
  666TMC3    C5 9855   3.993   2.062  10.146 -0.7746 -0.1220 -0.2555
  666TMC3    C6 9856   4.037   1.989  10.258 -0.2142  0.3656 -0.0559
  666TMC3     C 9857   3.761   1.817   9.985 -0.2416 -0.7081  0.7098
  666TMC3     O 9858   3.719   1.895   9.899 -0.3028 -0.4598  0.3369
  666TMC3     H 9859   3.860   1.708  10.203  2.2360 -0.8238  0.1944
  666TMC3    H1 9860   3.852   2.062   9.978 -0.1538  0.0225  0.5650
  666TMC3    H2 9861   4.103   2.034  10.331  0.6868 -0.7369 -0.1898
  666TMC3    C7 9862   4.006   2.210  10.142 -0.0547 -0.2426 -0.2130
  666TMC3    C8 9863   4.023   1.790  10.399 -0.8645  0.5424  0.0105
  666TMC3    O1 9864   3.948   2.262  10.045  0.3376  0.3012 -0.3683
  666TMC3    O2 9865   3.939   1.710  10.438  0.1584  0.1805 -0.2222
  667MPD2     C 9866   4.661   1.921  14.924 -0.5402  0.4643  0.2134
  667MPD2    C1 9867   4.626   2.055  14.884  0.1473  0.2773  0.1369
  667MPD2    C2 9868   4.497   2.079  14.838  0.1710 -0.2565  0.1471
  667MPD2    C3 9869   4.409   1.974  14.820  0.3411  0.1463 -0.5056
  667MPD2    C4 9870   4.448   1.842  14.860  0.2907 -0.7220  0.3193
  667MPD2    C5 9871   4.572   1.816  14.912  0.4528  0.6124 -0.0988
  667MPD2     H 9872   4.483   2.183  14.811 -0.5661 -0.4202 -0.0976
  667MPD2    H1 9873   4.377   1.761  14.847 -1.4923  0.9940 -0.7282
  667MPD2    H2 9874   0.034   1.888  14.960 -1.3517 -2.0583  0.0526
  667MPD2    H3 9875   4.605   1.720  14.949 -0.5405  0.5263  0.5636
  667MPD2     N 9876   4.284   1.994  14.756  0.0957  0.0043  0.4811
  667MPD2    H5 9877   4.214   1.924  14.777  0.7991 -0.8359  0.0566
  667MPD2    N1 9878   4.712   2.166  14.918  0.7996  0.4572 -0.2360
  667MPD2    H7 9879   4.676   2.260  14.912 -0.7583 -0.0957  0.4773
  668TMC3    C1 9880   0.164   2.265  15.038 -0.4730  0.5493 -0.9575
  668TMC3    C2 9881   0.302   2.279  15.050  0.1689  0.0400  0.4568
  668TMC3    C3 9882   0.354   2.299  15.170  0.2191 -0.4896  0.4856
  668TMC3    C4 9883   0.092   2.267  15.157 -0.1698  0.2011 -0.2485
  668TMC3    C5 9884   0.148   2.286  15.278  0.4994  0.7623 -1.0134
  668TMC3    C6 9885   0.279   2.295  15.281 -0.3288 -0.0266 -0.1238
  668TMC3     C 9886   0.124   2.149  14.957  0.2733 -0.2709 -0.4510
  668TMC3     O 9887   0.205   2.063  14.929 -0.1446 -0.0941 -0.5488
  668TMC3     H 9888   0.362   2.278  14.960  1.7683 -0.6142  1.5409
  668TMC3    H1 9889   4.709   2.246  15.146 -0.3164  0.1303  1.2447
  668TMC3    H2 9890   0.338   2.315  15.370  1.6926 -2.4665 -0.9285
  668TMC3    C7 9891   0.092   2.236  15.391 -0.3858 -0.6505 -0.0992
  668TMC3    C8 9892   0.499   2.329  15.172  0.5075 -0.3527 -0.6372
  668TMC3    O1 9893   0.160   2.153  15.447  0.2205 -0.4260  0.3987
  668TMC3    O2 9894   0.553   2.299  15.279  0.4182 -0.8152  0.4343
  669TMC3    C1 9895   2.902   2.428  14.610  0.8104 -0.1020 -0.6420
  669TMC3    C2 9896   2.806   2.403  14.521 -0.1918 -0.4887 -0.2433
  669TMC3    C3 9897   2.825   2.447  14.388  0.0584 -0.2601  0.2843
  669TMC3    C4 9898   3.029   2.457  14.575  1.0699 -0.2523 -0.4025
  669TMC3    C5 9899   3.048   2.479  14.445 -0.2889 -0.7309  0.1553
  669TMC3    C6 9900   2.949   2.488  14.354 -1.0465 -0.4571  0.6554
  669TMC3     C 9901   2.894   2.330  14.708 -0.3730  0.9807 -0.2363
  669TMC3     O 9902   2.799   2.347  14.782  0.7051  0.7232 -0.2825
  669TMC3     H 9903   2.709   2.366  14.552  0.4206 -2.9369 -1.2740
  669TMC3    H1 9904   3.112   2.447  14.644  1.5849 -0.2594 -1.0289
  669TMC3    H2 9905   2.963   2.519  14.251 -0.2238 -1.4889  0.4574
  669TMC3    C7 9906   3.180   2.524  14.401 -0.9570  1.0535 -0.4078
  669TMC3    C8 9907   2.747   2.397  14.283 -0.1382 -0.1198 -0.0376
  669TMC3    O1 9908   3.234   2.621  14.454  0.4650  0.5812 -0.1113
  669TMC3    O2 9909   2.797   2.392  14.168 -0.2163 -0.0678  0.0501
  670MPD2     C 9910   0.944   4.715  13.908  0.2517  0.8811 -0.6369
  670MPD2    C1 9911   1.066   0.016  13.961 -0.4362  0.0953 -0.7808
  670MPD2    C2 9912   1.112   4.667  14.069  0.1802  1.1331  0.5796
  670MPD2    C3 9913   1.035   4.559  14.110  0.2224 -0.4180  0.9159
  670MPD2    C4 9914   0.904   4.543  14.066 -0.3545  0.3778 -0.4268
  670MPD2    C5 9915   0.860   4.621  13.965  0.0399  0.4372  0.1699
  670MPD2     H 9916   1.205   4.687  14.121 -0.3875  1.3754  1.5033
  670MPD2    H1 9917   0.845   4.461  14.105  0.4726 -0.7719 -1.5718
  670MPD2    H2 9918   0.901   0.045  13.824 -3.2586 -0.6922  0.1699
  670MPD2    H3 9919   0.760   4.603  13.927 -0.0188  0.8051  0.1440
  670MPD2     N 9920   1.080   4.460  14.195  0.4186  0.2670  0.1072
  670MPD2    H5 9921   1.010   4.395  14.229 -1.2703  1.5823 -0.9262
  670MPD2    N1 9922   1.154   0.106  13.906 -0.4200  0.0894  0.0173
  670MPD2    H7 9923   1.240   0.097  13.959 -1.2839  0.4328  1.4912
  671TMC3    C1 9924   1.223   4.309  14.307 -0.1445 -1.1646  0.3849
  671TMC3    C2 9925   1.352   4.270  14.317 -0.2829  0.0406  0.4306
  671TMC3    C3 9926   1.388   4.142  14.303 -0.1034  0.0614 -0.6285
  671TMC3    C4 9927   1.122   4.216  14.300 -0.1599  0.2855  0.2791
  671TMC3    C5 9928   1.161   4.083  14.288  0.5265 -0.2605  0.2349
  671TMC3    C6 9929   1.290   4.041  14.285  0.2452  0.5050  0.3337
  671TMC3     C 9930   1.208   4.429  14.231  0.2068 -0.3500 -0.1768
  671TMC3     O 9931   1.311   4.465  14.177  0.8853 -0.0609  0.1685
  671TMC3     H 9932   1.431   4.343  14.304  0.1062 -0.4895 -0.2012
  671TMC3    H1 9933   1.017   4.244  14.307 -0.8152 -2.2932  0.6357
  671TMC3    H2 9934   1.318   3.947  14.239  0.4763  0.5627  0.3582
  671TMC3    C7 9935   1.085   4.029  14.181 -0.3334  0.3775 -0.1351
  671TMC3    C8 9936   1.514   4.126  14.221 -0.2302 -0.0154  0.1176
  671TMC3    O1 9937   1.138   3.953  14.099 -0.2496 -0.7983 -0.0254
  671TMC3    O2 9938   1.568   4.217  14.168 -0.6333  0.1062  0.3057
  672MPD2     C 9939   0.554   4.586   0.910 -0.2097  0.7769  0.1895
  672MPD2    C1 9940   0.664   4.667   0.913  0.0869 -0.7345 -0.2403
  672MPD2    C2 9941   0.686   0.026   1.021 -0.6641 -0.4917  0.3029
  672MPD2    C3 9942   0.591   0.036   1.124 -0.0253  0.6102  0.2945
  672MPD2    C4 9943   0.483   4.675   1.124 -0.6890 -0.0418 -0.2488
  672MPD2    C5 9944   0.464   4.593   1.015 -0.5578 -0.0503  0.8362
  672MPD2     H 9945   0.774   0.088   1.023 -3.0005  2.8636 -1.3565
  672MPD2    H1 9946   0.410   4.666   1.204 -1.1436 -0.8634 -0.7472
  672MPD2    H2 9947   0.544   4.519   0.825  0.4021  1.6829 -0.5827
  672MPD2    H3 9948   0.384   4.520   1.013  0.4226 -1.0631 -1.3828
  672MPD2     N 9949   0.610   0.113   1.237  0.1434  0.4920 -0.4085
  672MPD2    H5 9950   0.561   0.087   1.323  1.8264  1.0548  0.7152
  672MPD2    N1 9951   0.746   4.664   0.797  0.5798  0.0421 -0.3292
  672MPD2    H7 9952   0.717   4.596   0.728  0.9115 -0.3044 -0.1261
  673TMC3    C1 9953   0.928   4.690   0.652 -0.2784 -0.3595  0.1970
  673TMC3    C2 9954   0.917   4.561   0.618  0.5969  0.3588 -0.2011
  673TMC3    C3 9955   0.993   4.513   0.518 -0.0156  0.3646 -0.2296
  673TMC3    C4 9956   1.023   0.042   0.596  0.4011 -0.2535 -0.8469
  673TMC3    C5 9957   1.101   4.715   0.490  0.5305 -0.1509  0.2567
  673TMC3    C6 9958   1.084   4.587   0.443  0.1110 -0.3103 -0.7146
  673TMC3     C 9959   0.857   0.021   0.770  0.0186  0.2692 -0.6592
  673TMC3     O 9960   0.923   0.094   0.836 -0.6210 -0.3446 -0.0384
  673TMC3     H 9961   0.842   4.493   0.657 -0.1271  0.8551 -0.7243
  673TMC3    H1 9962   1.022   0.146   0.626 -2.3933 -0.7058  0.6617
  673TMC3    H2 9963   1.152   4.541   0.372  0.9684  0.3667 -0.3332
  673TMC3    C7 9964   1.233   0.054   0.460 -0.0258 -0.8456  0.7636
  673TMC3    C8 9965   0.997   4.368   0.506  0.1240  0.4823 -0.4917
  673TMC3    O1 9966   1.323   4.707   0.416  0.1169  0.1516  0.5849
  673TMC3    O2 9967   1.039   4.314   0.406 -0.2039  0.3272  0.7119
  674MPD2     C 9968   0.678   0.086   0.464  0.0494  0.3102 -0.6882
  674MPD2    C1 9969   0.711   4.695   0.402  0.4296  0.1125  0.3264
  674MPD2    C2 9970   0.659   4.578   0.433  0.2035 -0.1208  0.6012
  674MPD2    C3 9971   0.550   4.570   0.518  0.1524  0.1296 -0.2685
  674MPD2    C4 9972   0.510   4.682   0.580 -0.6470 -0.3765 -0.4098
  674MPD2    C5 9973   0.575   0.077   0.555  0.1096 -0.6166 -0.4605
  674MPD2     H 9974   0.693   4.487   0.385 -0.8878 -0.2084 -0.0078
  674MPD2    H1 9975   0.427   4.690   0.650  0.1221  0.5598  0.3922
  674MPD2    H2 9976   0.722   0.183   0.446  0.2396  0.0377 -1.7375
  674MPD2    H3 9977   0.553   0.168   0.611 -1.4602 -1.4960  0.3599
  674MPD2     N 9978   0.487   4.443   0.536 -0.3236  0.1189  0.3081
  674MPD2    H5 9979   0.532   4.370   0.482 -2.5471  0.4915 -2.1046
  674MPD2    N1 9980   0.795   4.718   0.293  0.3855 -0.1177 -0.0107
  674MPD2    H7 9981   0.806   0.093   0.267  1.7847 -0.6943 -1.6027
  675TMC3    C1 9982   0.935   4.671   0.101 -0.3708 -0.4253  0.2480
  675TMC3    C2 9983   0.994   4.579   0.011 -0.2768 -0.4381  0.0930
  675TMC3    C3 9984   1.080   4.629  17.605  1.0813  0.2605  0.8426
  675TMC3    C4 9985   0.975   0.077   0.102 -0.7178  0.0742  0.4698
  675TMC3    C5 9986   1.066   0.120   0.001  0.1679 -0.6775 -0.1060
  675TMC3    C6 9987   1.113   0.042  17.595 -0.6111 -0.1433  0.1189
  675TMC3     C 9988   0.852   4.617   0.211  0.1436 -0.4778 -0.1594
  675TMC3     O 9989   0.851   4.496   0.229  0.5086  0.4995 -0.0587
  675TMC3     H 9990   0.952   4.479  17.694 -2.2625  0.7324 -2.7013
  675TMC3    H1 9991   0.940   0.149   0.175 -1.7261  1.4929 -1.4236
  675TMC3    H2 9992   1.169   0.081  17.511 -1.6088  0.5105 -0.2420
  675TMC3    C7 9993   1.131   0.241   0.029 -0.3011  0.0541 -0.7136
  675TMC3    C8 9994   1.144   4.532  17.515 -0.7497  0.0515 -0.4755
  675TMC3    O1 9995   1.120   0.281   0.145 -0.4635 -0.2491 -0.4981
  675TMC3    O2 9996   1.190   4.572  17.409  0.4026  0.0375 -0.3137
  676MPD2     C 9997   3.813   3.314  11.286  0.0019 -0.4229 -0.0479
  676MPD2    C1 9998   3.938   3.300  11.339  0.1284 -0.4981 -1.3442
  676MPD2    C2 9999   3.991   3.184  11.374 -0.1226  0.2658 -0.2072
  676MPD2    C310000   3.907   3.074  11.386 -0.1564  0.5966  0.4070
  676MPD2    C410001   3.774   3.089  11.347 -0.3608 -0.1812  0.5775
  676MPD2    C510002   3.728   3.208  11.295 -0.1900 -0.5315 -0.1158
  676MPD2     H10003   4.097   3.177  11.400 -0.2272 -0.3927  0.0632
  676MPD2    H110004   3.714   3.000  11.353  0.8314 -1.1936 -2.4416
  676MPD2    H210005   3.781   3.409  11.244  1.6367  0.5736  0.9583
  676MPD2    H310006   3.624   3.218  11.267 -0.5204  0.1924  1.3624
  676MPD2     N10007   3.943   2.943  11.422  0.0965 -0.1968 -0.0098
  676MPD2    H510008   3.880   2.868  11.397  1.1255 -0.4508 -1.8552
  676MPD2    N110009   4.025   3.411  11.349  0.2378 -0.2530  0.2235
  676MPD2    H710010   4.118   3.397  11.388  0.9222  1.0638 -0.9380
  677TMC3    C110011   4.128   3.625  11.306  0.1425  0.0160 -0.1134
  677TMC3    C210012   4.204   3.606  11.410 -0.0961  0.7768  0.0505
  677TMC3    C310013   4.333   3.655  11.403  0.5679 -0.3652  0.7470
  677TMC3    C410014   4.169   3.700  11.197  0.4133 -0.1255  0.6747
  677TMC3    C510015   4.304   3.735  11.185 -0.1114 -0.3807 -0.3190
  677TMC3    C610016   4.382   3.725  11.297 -0.3600  0.0449  0.3324
  677TMC3     C10017   4.012   3.533  11.285  0.4319 -0.3036  0.2520
  677TMC3     O10018   3.927   3.575  11.207  0.3714  0.5025  0.0596
  677TMC3     H10019   4.169   3.554  11.499  1.0383  0.6553  0.4246
  677TMC3    H110020   4.097   3.729  11.122  0.2002  1.9617  1.7115
  677TMC3    H210021   4.486   3.756  11.294  0.1903 -1.8241 -0.0912
  677TMC3    C710022   4.343   3.814  11.064  0.2149 -0.4559  0.2582
  677TMC3    C810023   4.429   3.629  11.515  0.1134  0.5713 -0.3708
  677TMC3    O110024   4.271   3.810  10.965 -0.0431 -0.0492  0.1609
  677TMC3    O210025   4.550   3.646  11.496 -0.1527 -0.1792  0.2087
  678MPD2     C10026   0.036   1.931   1.047  0.0059  0.4894 -0.3769
  678MPD2    C110027   0.040   2.056   0.984 -0.2432  0.1900  0.0265
  678MPD2    C210028   4.664   2.091   0.891  0.0086 -0.3906 -0.2233
  678MPD2    C310029   4.573   1.990   0.858 -0.3494 -0.0827  0.2969
  678MPD2    C410030   4.585   1.863   0.904 -0.2604  0.4643 -0.2985
  678MPD2    C510031   4.675   1.832   0.999  1.5339 -0.3209  0.0778
  678MPD2     H10032   4.663   2.182   0.832  4.0689  0.4865  1.0765
  678MPD2    H110033   4.520   1.780   0.877  2.0222 -1.6541  0.7390
  678MPD2    H210034   0.107   1.899   1.123 -0.8240 -1.5855 -0.4705
  678MPD2    H310035   4.685   1.734   1.043  0.7124  0.2760  1.5839
  678MPD2     N10036   4.467   2.031   0.773  0.2210  0.3833  0.7351
  678MPD2    H510037   4.463   2.127   0.738  0.6266  0.3328  0.5496
  678MPD2    N110038   0.143   2.150   1.010  0.2735 -0.0329  0.0442
  678MPD2    H710039   0.148   2.240   0.964  0.6408 -1.1711 -2.1000
  679TMC3    C110040   0.551   2.210   1.196 -0.0957  0.3091  0.8612
  679TMC3    C210041   0.412   2.214   1.216  0.4223 -0.3315 -0.9065
  679TMC3    C310042   0.329   2.245   1.115 -0.3357  0.0366 -0.4159
  679TMC3    C410043   0.593   2.234   1.071  0.5227  0.6424  0.2177
  679TMC3    C510044   0.504   2.275   0.970 -0.1724  0.1648  0.7081
  679TMC3    C610045   0.368   2.285   0.993  0.0335 -0.0621  0.7982
  679TMC3     C10046   0.629   2.104   1.261 -0.4020 -0.3917  0.1503
  679TMC3     O10047   0.745   2.083   1.229  0.4537  0.7231 -0.0815
  679TMC3     H10048   0.372   2.213   1.317  0.6769 -0.4337 -0.8075
  679TMC3    H110049   0.696   2.214   1.044  0.9099 -0.4636  2.4761
  679TMC3    H210050   0.298   2.317   0.916  2.4747  1.3078 -0.8505
  679TMC3    C710051   0.575   2.330   0.851  0.2099  0.1184  1.3078
  679TMC3    C810052   0.228   2.145   1.118 -0.7509  0.1358 -0.2462
  679TMC3    O110053   0.697   2.321   0.845 -0.0654 -0.2017 -0.6440
  679TMC3    O210054   0.230   2.061   1.210 -0.6326  0.3495 -0.7887
  680MPD2     C10055   0.977   1.935  13.851  0.2819  0.5981  0.1787
  680MPD2    C110056   1.099   1.873  13.829  0.6911  0.2642 -0.3522
  680MPD2    C210057   1.199   1.947  13.772  0.2491 -0.2089  0.4330
  680MPD2    C310058   1.184   2.081  13.742  0.0634  0.4933  0.5792
  680MPD2    C410059   1.064   2.144  13.766  0.1119  0.3210  0.5118
  680MPD2    C510060   0.964   2.067  13.823  0.3832  0.4265  0.3331
  680MPD2     H10061   1.299   1.906  13.766 -0.9560 -2.9327 -1.1242
  680MPD2    H110062   1.050   2.248  13.736  1.3140  0.6972  1.2481
  680MPD2    H210063   0.889   1.880  13.883  1.5898  0.6821  3.9100
  680MPD2    H310064   0.868   2.117  13.828  1.1659  1.9889 -0.3080
  680MPD2     N10065   1.292   2.164  13.706 -0.0591 -0.2866  0.2949
  680MPD2    H510066   1.275   2.264  13.712  3.7611  0.5547 -2.3208
  680MPD2    N110067   1.122   1.736  13.859  0.2789  0.4714  0.1045
  680MPD2    H710068   1.197   1.683  13.817 -0.5702 -1.1728  0.6839
  681TMC3    C110069   1.090   1.537  13.980  0.5415  0.0944 -0.4609
  681TMC3    C210070   1.093   1.480  14.105 -0.0250 -0.1628  0.0084
  681TMC3    C310071   1.148   1.360  14.123  0.5016  0.8861 -0.0697
  681TMC3    C410072   1.120   1.459  13.871 -0.6802  0.4979  0.2071
  681TMC3    C510073   1.174   1.336  13.892  0.1437  0.1986  0.3565
  681TMC3    C610074   1.184   1.277  14.013 -0.1540  0.1168 -0.7394
  681TMC3     C10075   1.061   1.674  13.969 -0.2021 -0.8788 -0.4861
  681TMC3     O10076   0.992   1.727  14.058 -0.3083 -0.3611  0.0522
  681TMC3     H10077   1.063   1.531  14.196  2.4562  2.5256 -0.6749
  681TMC3    H110078   1.116   1.509  13.775  2.1257  0.4764  0.0721
  681TMC3    H210079   1.246   1.188  14.019 -1.4845 -0.8296 -1.0657
  681TMC3    C710080   1.193   1.253  13.778 -0.5496 -0.8448  0.2325
  681TMC3    C810081   1.208   1.331  14.251  0.4524 -0.2178 -0.1222
  681TMC3    O110082   1.213   1.131  13.795  0.7185 -0.4346  0.5157
  681TMC3    O210083   1.191   1.224  14.308 -0.3846  0.0941  0.3367
  682MPD2     C10084   3.188   3.118  10.626  0.5136  0.3928  0.1278
  682MPD2    C110085   3.222   2.988  10.611  0.3156  0.5880 -0.6053
  682MPD2    C210086   3.213   2.910  10.727 -0.1125 -0.1352  0.2885
  682MPD2    C310087   3.176   2.969  10.847  0.2106 -0.4294 -0.0129
  682MPD2    C410088   3.143   3.103  10.855  0.8497 -0.0308 -0.0195
  682MPD2    C510089   3.149   3.171  10.744 -0.5483 -0.6196  0.6817
  682MPD2     H10090   3.239   2.805  10.718 -1.4098 -0.3055 -1.6043
  682MPD2    H110091   3.109   3.141  10.951 -1.8993  0.8508 -1.3680
  682MPD2    H210092   3.203   3.192  10.548 -0.0785  1.0653  0.6469
  682MPD2    H310093   3.118   3.275  10.735 -1.1013 -0.8392  0.1114
  682MPD2     N10094   3.159   2.895  10.970 -0.4532 -0.4082 -0.0306
  682MPD2    H510095   3.136   2.955  11.049 -1.1071  0.1595 -0.6555
  682MPD2    N110096   3.277   2.928  10.497 -0.2176 -0.4332 -0.1359
  682MPD2    H710097   3.297   2.829  10.496  0.2056 -0.3781  2.1058
  683TMC3    C110098   3.152   2.753  11.348 -0.8603 -0.1186  0.2660
  683TMC3    C210099   3.190   2.633  11.390  0.3351 -0.8148  0.4763
  683TMC3    C310100   3.219   2.542  11.285 -0.1350  0.1831 -0.9992
  683TMC3    C410101   3.171   2.809  11.225 -0.1554  0.2281  0.1294
  683TMC3    C510102   3.203   2.723  11.123 -0.9499  0.5278  0.4282
  683TMC3    C610103   3.225   2.592  11.155 -0.0340 -0.4537  0.5524
  683TMC3     C10104   3.101   2.839  11.452  1.0479 -0.8266 -0.1763
  683TMC3     O10105   3.131   2.959  11.441  0.6297  0.2431  0.0715
  683TMC3     H10106   3.180   2.605  11.495 -1.5756 -0.7386  0.2980
  683TMC3    H110107   3.143   2.912  11.204  1.9674  1.0886  1.5433
  683TMC3    H210108   3.224   2.523  11.072  0.7705 -0.7733  0.8067
  683TMC3    C710109   3.186   2.764  10.985  0.1794  0.0263  0.0834
  683TMC3    C810110   3.243   2.407  11.313  0.6999 -0.2344 -0.5805
  683TMC3    O110111   3.195   2.675  10.903  0.0323 -0.2663 -0.1895
  683TMC3    O210112   3.247   2.337  11.214  0.4635  0.3284  0.0272
  684MPD2     C10113   1.224   2.349  16.415  0.5053  0.1712 -0.0432
  684MPD2    C110114   1.247   2.444  16.313  0.8537 -0.1117 -0.8122
  684MPD2    C210115   1.230   2.579  16.336  0.7006 -0.5894  0.4685
  684MPD2    C310116   1.211   2.625  16.468 -0.3057  0.3317  0.7069
  684MPD2    C410117   1.208   2.532  16.572 -0.9514  0.3102  0.5080
  684MPD2    C510118   1.201   2.398  16.546  0.1217 -1.2362  0.3881
  684MPD2     H10119   1.251   2.643  16.251  0.3520  0.6843  1.3375
  684MPD2    H110120   1.206   2.561  16.676  0.5084 -0.1927  0.6819
  684MPD2    H210121   1.243   2.244  16.395  0.8184  0.4221 -1.0423
  684MPD2    H310122   1.193   2.324  16.625 -2.4072 -2.7348 -1.2612
  684MPD2     N10123   1.214   2.758  16.502 -0.1813 -0.0163  0.1084
  684MPD2    H510124   1.254   2.772  16.594  0.8258  0.7301 -0.4535
  684MPD2    N110125   1.288   2.409  16.183 -0.2285  0.3984  0.2995
  684MPD2    H710126   1.314   2.481  16.116  2.0759  1.6329  2.5356
  685TMC3    C110127   1.350   2.274  15.998 -0.6389  0.0502  1.2558
  685TMC3    C210128   1.294   2.362  15.905 -0.3835  0.3534  0.5444
  685TMC3    C310129   1.331   2.346  15.777  0.3844  0.3480  0.7418
  685TMC3    C410130   1.452   2.189  15.965 -0.0503  0.5669 -0.5252
  685TMC3    C510131   1.490   2.175  15.834  0.3372  0.5292 -0.4219
  685TMC3    C610132   1.426   2.255  15.740 -0.0480 -0.5083 -0.5117
  685TMC3     C10133   1.315   2.284  16.135  0.0861 -0.7881 -0.2172
  685TMC3     O10134   1.341   2.185  16.202  0.0392 -0.3478 -0.6196
  685TMC3     H10135   1.221   2.437  15.932  0.9796  0.1775  4.7795
  685TMC3    H110136   1.506   2.130  16.038 -2.0259  0.2333  0.6601
  685TMC3    H210137   1.450   2.234  15.636 -0.7115  1.6191 -1.0923
  685TMC3    C710138   1.620   2.124  15.799 -0.4263  0.6757 -0.5556
  685TMC3    C810139   1.234   2.362  15.673  0.4340 -0.0248  0.4115
  685TMC3    O110140   1.675   2.160  15.697  0.8822 -0.1676  0.5834
  685TMC3    O210141   1.279   2.393  15.562  0.0907 -0.3505  0.6395
  686MPD2     C10142   2.407   2.624  15.771 -0.2103 -0.6311 -0.0413
  686MPD2    C110143   2.485   2.553  15.863  0.2274  1.0355  0.7578
  686MPD2    C210144   2.572   2.460  15.810 -0.1675  0.3868  0.0986
  686MPD2    C310145   2.597   2.447  15.672  0.3773  0.5461 -0.3656
  686MPD2    C410146   2.528   2.526  15.585 -0.9414  0.0246  0.0553
  686MPD2    C510147   2.427   2.604  15.630  0.6953 -0.4668  0.9932
  686MPD2     H10148   2.642   2.416  15.881 -0.9779  0.7414  1.1083
  686MPD2    H110149   2.550   2.530  15.479  1.1037 -0.2898  0.4647
  686MPD2    H210150   2.331   2.693  15.805  0.4023 -0.0713  0.1897
  686MPD2    H310151   2.365   2.664  15.564  0.6410 -0.8117  0.7316
  686MPD2     N10152   2.697   2.361  15.612 -0.6317 -0.9745 -0.3206
  686MPD2    H510153   2.733   2.387  15.520 -0.4500  2.6867  0.8101
  686MPD2    N110154   2.451   2.556  16.000  0.4678  0.6064 -0.4167
  686MPD2    H710155   2.365   2.604  16.025 -1.6149 -1.7007 -3.1098
  687TMC3    C110156   2.677   2.169  15.770  0.4374  0.2129 -0.3108
  687TMC3    C210157   2.541   2.160  15.764 -0.0046  0.2159  0.7518
  687TMC3    C310158   2.483   2.113  15.876  0.2233 -0.3468 -0.2813
  687TMC3    C410159   2.755   2.110  15.863  0.4159 -0.1604  0.8127
  687TMC3    C510160   2.692   2.059  15.971  0.2960  0.0909 -0.4909
  687TMC3    C610161   2.559   2.068  15.979  0.4170  0.3356 -0.1394
  687TMC3     C10162   2.746   2.239  15.661  0.2321 -0.5331  0.3209
  687TMC3     O10163   2.844   2.183  15.614 -0.3122 -0.2981  0.1268
  687TMC3     H10164   2.489   2.196  15.676 -0.5787 -1.5124  0.3902
  687TMC3    H110165   2.863   2.100  15.853  0.4144  1.3568 -0.6414
  687TMC3    H210166   2.510   2.034  16.070 -0.7171  0.0673 -0.8548
  687TMC3    C710167   2.768   2.044  16.094 -0.3777 -0.0271  0.3181
  687TMC3    C810168   2.344   2.145  15.906  0.4354 -0.2390 -0.0010
  687TMC3    O110169   2.829   1.939  16.117  0.4881  0.2521 -0.9139
  687TMC3    O210170   2.303   2.116  16.019 -0.1822  0.5456  0.4224
  688MPD2     C10171   2.075   1.129  17.423 -0.1457 -0.1876  0.1746
  688MPD2    C110172   2.034   0.998  17.399 -0.6635  0.3519  0.9872
  688MPD2    C210173   2.071   0.944  17.282  0.2913 -0.7063  0.0113
  688MPD2    C310174   2.152   1.011  17.193  0.8183 -0.5335  0.2118
  688MPD2    C410175   2.186   1.147  17.211 -0.3931  0.2609  0.2792
  688MPD2    C510176   2.140   1.205  17.323 -0.5451 -0.6515 -0.3016
  688MPD2     H10177   2.043   0.841  17.264 -0.4395 -0.2870 -1.2600
  688MPD2    H110178   2.249   1.203  17.143 -2.2836  0.9824 -0.8624
  688MPD2    H210179   2.056   1.182  17.515  0.3851  1.7206 -0.8318
  688MPD2    H310180   2.163   1.310  17.339 -0.6775 -0.7058  0.2308
  688MPD2     N10181   2.201   0.951  17.071  0.2139 -0.3826  0.1616
  688MPD2    H510182   2.255   0.999  16.999 -1.1486 -0.4630 -0.9110
  688MPD2    N110183   1.962   0.918  17.493 -0.0842  0.4248  0.3559
  688MPD2    H710184   1.930   0.827  17.463 -0.3731  0.0857  1.7201
  689TMC3    C110185   1.852   0.874   0.013 -0.3881 -0.0455 -0.0770
  689TMC3    C210186   1.816   0.930   0.134  0.4229  0.3727  0.1442
  689TMC3    C310187   1.729   0.855   0.201 -0.1209  0.5733 -0.4760
  689TMC3    C410188   1.795   0.759  17.654  0.5999 -0.3596 -0.4334
  689TMC3    C510189   1.706   0.692   0.032 -0.7815 -0.2288 -0.1084
  689TMC3    C610190   1.685   0.736   0.157  0.0080 -0.2008 -0.1306
  689TMC3     C10191   1.941   0.955  17.624 -1.0523 -0.1810 -0.5210
  689TMC3     O10192   1.984   1.052  17.678  0.0462  0.0229  0.2443
  689TMC3     H10193   1.879   1.004   0.184  1.1348 -0.2338  0.1368
  689TMC3    H110194   1.830   0.720  17.559 -0.5338 -2.0772 -0.1398
  689TMC3    H210195   1.624   0.676   0.223  0.4834 -0.9108 -0.3373
  689TMC3    C710196   1.730   0.550   0.031  0.3620 -0.1123  0.2279
  689TMC3    C810197   1.672   0.905   0.322  0.0346 -0.3173 -0.0693
  689TMC3    O110198   1.818   0.518   0.110 -0.4649 -0.0970  0.3997
  689TMC3    O210199   1.585   0.836   0.382  0.2439 -0.4118  0.3345
  690MPD2     C10200   4.172   3.255  15.631  0.3605  0.8972 -0.7158
  690MPD2    C110201   4.198   3.128  15.583 -0.5162  0.1594  0.5512
  690MPD2    C210202   4.295   3.123  15.482  0.4705 -0.3950  0.0578
  690MPD2    C310203   4.377   3.239  15.454  0.8600  0.1455  0.2818
  690MPD2    C410204   4.346   3.356  15.513  0.6020  0.0052 -0.1672
  690MPD2    C510205   4.242   3.367  15.595 -0.5822  0.1176  0.0071
  690MPD2     H10206   4.316   3.027  15.436  0.2699  0.5770 -2.0371
  690MPD2    H110207   4.408   3.445  15.507  1.3544 -0.4155  1.3933
  690MPD2    H210208   4.100   3.280  15.708  1.7770  1.1310  0.5241
  690MPD2    H310209   4.226   3.457  15.653  4.1780  0.8363  0.1795
  690MPD2     N10210   4.479   3.231  15.360  0.1745  0.3441  0.3141
  690MPD2    H510211   4.492   3.139  15.319 -0.3299  0.7075 -0.6557
  690MPD2    N110212   4.115   3.020  15.614  0.8130  0.7793 -0.3878
  690MPD2    H710213   4.127   2.933  15.564  2.1929  0.4143  0.5826
  691TMC3    C110214   3.955   2.884  15.741 -0.5952 -0.2696  0.3522
  691TMC3    C210215   3.827   2.887  15.794 -0.2178 -0.4347 -0.2832
  691TMC3    C310216   3.755   2.774  15.778 -0.2037  0.3148  0.1296
  691TMC3    C410217   4.009   2.764  15.687 -0.5297  0.0250  0.2141
  691TMC3    C510218   3.927   2.650  15.685  0.3133 -0.1993 -0.4265
  691TMC3    C610219   3.802   2.655  15.730 -0.1186 -0.2957  0.3933
  691TMC3     C10220   4.022   3.017  15.721 -0.5013 -0.3904  0.0472
  691TMC3     O10221   3.973   3.109  15.783 -0.6643 -0.3112  0.9388
  691TMC3     H10222   3.793   2.976  15.847  2.8192  0.1310  0.7352
  691TMC3    H110223   4.105   2.764  15.637 -0.9161 -4.0140 -0.4974
  691TMC3    H210224   3.740   2.566  15.732  1.2972 -1.3212 -1.2480
  691TMC3    C710225   3.960   2.550  15.589  0.6851  0.6187  0.3076
  691TMC3    C810226   3.624   2.766  15.845 -0.1260  1.0094 -0.2402
  691TMC3    O110227   4.078   2.551  15.561  0.5248 -0.2565 -0.1600
  691TMC3    O210228   3.600   2.667  15.920  0.1839  0.2038 -0.1215
  692TMC3    C110229   1.286   4.194  16.128 -0.2254  0.1077  0.0807
  692TMC3    C210230   1.384   4.156  16.215  0.0449  0.2736  0.2492
  692TMC3    C310231   1.440   4.024  16.211  0.3870  0.2650  0.4056
  692TMC3    C410232   1.234   4.104  16.036  0.0376  0.1151  0.8605
  692TMC3    C510233   1.308   3.994  16.009  0.2141 -0.2091 -0.0097
  692TMC3    C610234   1.416   3.963  16.086  1.5709 -0.3887  0.3235
  692TMC3     C10235   1.251   4.333  16.134 -0.1096  0.2924  0.4724
  692TMC3     O10236   1.322   4.408  16.200  0.0251 -0.3495  0.3918
  692TMC3     H10237   1.399   4.217  16.303 -1.9855  1.0480  0.0497
  692TMC3    H110238   1.144   4.119  15.979  0.3284  0.3455  0.4670
  692TMC3    H210239   1.455   3.862  16.077 -0.4291 -1.0860 -0.6162
  692TMC3    C710240   1.237   3.876  15.954  0.2181  0.5750  1.2545
  692TMC3    C810241   1.384   3.934  16.310  0.6620  0.2889  0.3364
  692TMC3    O110242   1.157   3.897  15.865  0.5222 -0.0162  0.2847
  692TMC3    O210243   1.415   3.815  16.300  0.0199  0.0145 -0.2748
  693MPD2     C10244   0.738   2.652  10.652 -0.3906  0.4617  0.5748
  693MPD2    C110245   0.783   2.520  10.663 -0.8804 -0.5307  0.1847
  693MPD2    C210246   0.884   2.475  10.578 -0.3370 -0.1282 -0.3715
  693MPD2    C310247   0.962   2.569  10.506 -1.1585 -0.2579 -0.5135
  693MPD2    C410248   0.934   2.700  10.519  0.2229  0.1782 -0.0789
  693MPD2    C510249   0.821   2.740  10.588  0.5649 -0.6896 -0.0916
  693MPD2     H10250   0.911   2.370  10.574  0.2024  0.0862 -2.1245
  693MPD2    H110251   0.989   2.768  10.455 -1.0356  1.0549 -0.2173
  693MPD2    H210252   0.656   2.684  10.716 -0.0648 -4.0440  3.2741
  693MPD2    H310253   0.795   2.845  10.584 -0.2500 -0.8450  1.4288
  693MPD2     N10254   1.082   2.536  10.430  0.0824 -0.0957 -0.4733
  693MPD2    H510255   1.143   2.615  10.413 -0.3669  0.4287  0.3571
  693MPD2    N110256   0.705   2.436  10.746  0.0073 -0.1449  0.4933
  693MPD2    H710257   0.631   2.473  10.805 -1.1411  0.1859 -1.1377
  694TMC3    C110258   0.582   2.237  10.820 -0.4961 -0.1012 -0.6651
  694TMC3    C210259   0.500   2.167  10.738  0.6331 -0.2293 -0.1909
  694TMC3    C310260   0.411   2.076  10.801  1.2925  0.0072 -0.1614
  694TMC3    C410261   0.599   2.199  10.953 -0.3675  0.3798  0.2986
  694TMC3    C510262   0.514   2.108  11.004 -0.5587 -0.0615 -0.2251
  694TMC3    C610263   0.418   2.045  10.936 -0.8696  0.1901 -0.0539
  694TMC3     C10264   0.704   2.297  10.755  0.1122 -0.1032 -0.7868
  694TMC3     O10265   0.769   2.215  10.691 -0.0791 -0.2777 -0.4160
  694TMC3     H10266   0.494   2.184  10.631 -1.1995  0.9790  0.0802
  694TMC3    H110267   0.676   2.255  11.005 -1.5166  1.9981  0.2907
  694TMC3    H210268   0.352   1.968  10.973 -0.2763 -0.8126 -1.0959
  694TMC3    C710269   0.513   2.103  11.149 -0.0188  1.0220  0.1824
  694TMC3    C810270   0.317   2.006  10.716 -0.0855 -0.1003 -0.1834
  694TMC3    O110271   0.565   2.201  11.201 -0.8318  0.3443  0.1519
  694TMC3    O210272   0.203   1.983  10.754 -0.0942 -0.3394  0.2033
  695MPD2     C10273   1.678   4.037  13.213  0.2069 -0.2216 -0.1067
  695MPD2    C110274   1.657   4.071  13.345  0.4725 -0.3986 -0.6759
  695MPD2    C210275   1.529   4.098  13.392 -0.5371 -0.4693  0.1362
  695MPD2    C310276   1.424   4.103  13.305 -0.7138  0.4983 -0.3112
  695MPD2    C410277   1.442   4.079  13.173 -0.0319 -0.3447 -0.2619
  695MPD2    C510278   1.569   4.042  13.130 -0.2649  0.1850 -0.5301
  695MPD2     H10279   1.530   4.127  13.496 -0.1141  1.4553 -0.3984
  695MPD2    H110280   1.359   4.065  13.106  0.7607 -1.2684 -1.0522
  695MPD2    H210281   1.772   4.005  13.169  0.1981  0.9300 -0.9515
  695MPD2    H310282   1.580   4.019  13.025  0.4408 -0.3912 -0.3313
  695MPD2     N10283   1.296   4.133  13.362  0.5110 -0.6363 -0.0960
  695MPD2    H510284   1.294   4.129  13.463  0.0771  0.0525 -0.0783
  695MPD2    N110285   1.763   4.052  13.448 -0.3840  0.2304  0.0574
  695MPD2    H710286   1.740   4.091  13.539 -0.9712  0.1486 -0.0541
  696TMC3    C110287   1.066   4.179  13.366 -0.3879 -0.5873  0.2253
  696TMC3    C210288   1.050   4.098  13.476  1.0410 -0.5187 -0.5728
  696TMC3    C310289   0.932   4.127  13.545  0.1693  0.3588 -0.3073
  696TMC3    C410290   0.974   4.274  13.325  1.7940  0.0251 -0.2712
  696TMC3    C510291   0.856   4.286  13.393 -0.2788  0.3327 -1.1212
  696TMC3    C610292   0.841   4.221  13.513 -0.4008 -0.2360  0.3557
  696TMC3     C10293   1.182   4.167  13.282  0.9115  0.4157 -0.3045
  696TMC3     O10294   1.174   4.193  13.159 -0.1981 -0.0199  0.1854
  696TMC3     H10295   1.117   4.015  13.493  0.0446 -1.2338 -0.1716
  696TMC3    H110296   0.977   4.320  13.227  1.0511  0.0876 -0.2695
  696TMC3    H210297   0.748   4.243  13.564  1.0404  1.3432  2.2800
  696TMC3    C710298   0.788   4.418  13.381 -0.2970 -0.1091  0.8018
  696TMC3    C810299   0.938   4.075  13.687  0.5143 -0.0065  0.0210
  696TMC3    O110300   0.803   4.474  13.275 -0.1338  0.7021 -0.3916
  696TMC3    O210301   1.045   4.030  13.727  0.1444  0.3831  0.0680
  697MPD2     C10302   0.487   1.400  15.579 -0.1199 -0.3492 -0.6072
  697MPD2    C110303   0.487   1.305  15.474 -0.1742 -0.0046 -0.3512
  697MPD2    C210304   0.520   1.351  15.348 -0.2591 -0.2813 -0.6298
  697MPD2    C310305   0.546   1.478  15.307  0.3020 -0.2051  0.5958
  697MPD2    C410306   0.560   1.574  15.407 -1.0589 -0.2527  0.5726
  697MPD2    C510307   0.524   1.537  15.544 -0.0540  0.3442  0.0199
  697MPD2     H10308   0.519   1.276  15.270 -2.0317 -0.0132 -0.8738
  697MPD2    H110309   0.585   1.677  15.389  0.9248 -0.7110  0.7526
  697MPD2    H210310   0.454   1.358  15.673  1.4393  1.9056  0.9506
  697MPD2    H310311   0.519   1.603  15.630  0.8052 -0.7456  0.9178
  697MPD2     N10312   0.581   1.502  15.171  0.4281  0.5429  0.2020
  697MPD2    H510313   0.564   1.430  15.102 -0.9293  1.8328 -0.8153
  697MPD2    N110314   0.469   1.164  15.482  0.7916  0.0319 -0.1668
  697MPD2    H710315   0.481   1.120  15.391  1.7642 -0.8446  0.3741
  698TMC3    C110316   0.675   1.586  14.989  0.2463 -0.1850 -0.1055
  698TMC3    C210317   0.777   1.673  14.951 -0.5453  0.4479  0.6027
  698TMC3    C310318   0.851   1.632  14.848  0.1098  0.7037 -0.9919
  698TMC3    C410319   0.650   1.468  14.928 -0.2505  0.1170 -0.5164
  698TMC3    C510320   0.727   1.434  14.820  0.1982 -0.5635  0.0844
  698TMC3    C610321   0.833   1.515  14.775  0.0942 -0.5883 -0.3368
  698TMC3     C10322   0.653   1.607  15.127  0.2069  0.5931 -0.0223
  698TMC3     O10323   0.714   1.693  15.194  0.0899 -0.1377  0.4634
  698TMC3     H10324   0.805   1.766  15.000 -3.3839  1.2189  0.7835
  698TMC3    H110325   0.574   1.394  14.949 -0.1984 -0.2440 -1.6164
  698TMC3    H210326   0.893   1.492  14.688  1.2596 -1.2801  0.6682
  698TMC3    C710327   0.670   1.332  14.725  0.7665 -0.3842 -0.6150
  698TMC3    C810328   0.956   1.727  14.795  1.2775 -0.2264 -0.7157
  698TMC3    O110329   0.559   1.282  14.747  0.0411  0.2326  0.0382
  698TMC3    O210330   1.019   1.801  14.875 -0.2294  0.1793 -0.0058
  699TMC3    C110331   0.848   4.208  12.803 -0.0601  0.1889  0.1262
  699TMC3    C210332   0.855   4.097  12.889 -0.3392  0.6075 -0.6995
  699TMC3    C310333   0.786   4.111  13.006 -0.8302  0.2542  0.2370
  699TMC3    C410334   0.782   4.324  12.838  0.3422  1.2727  0.0144
  699TMC3    C510335   0.720   4.329  12.963  0.7909  0.0559 -1.0964
  699TMC3    C610336   0.724   4.224  13.046 -0.3307 -0.4794 -0.4510
  699TMC3     C10337   0.899   4.203  12.663 -0.3786 -0.1906  0.1357
  699TMC3     O10338   0.843   4.291  12.598  0.0360 -0.4242 -0.5845
  699TMC3     H10339   0.887   3.998  12.857  1.5923  0.8300  0.5524
  699TMC3    H110340   0.761   4.401  12.765  1.1279  0.9874 -0.5061
  699TMC3    H210341   0.694   4.233  13.150 -0.0458  0.4780 -0.4459
  699TMC3    C710342   0.626   4.422  13.005 -0.0001 -0.3663  0.0427
  699TMC3    C810343   0.795   4.012  13.110  0.1467  0.9153 -0.7707
  699TMC3    O110344   0.542   4.375  13.078 -0.2653  0.2021 -0.0229
  699TMC3    O210345   0.701   4.008  13.189  0.7964 -0.0482 -0.8041
  700TMC3    C110346   4.492   1.182  17.094  0.3055  0.2564 -0.4224
  700TMC3    C210347   4.498   1.045  17.124 -0.2793  0.3421  0.3954
  700TMC3    C310348   4.599   1.010  17.209  0.5774 -0.4930 -0.9358
  700TMC3    C410349   4.539   1.278  17.178 -0.0585 -0.3917 -1.4784
  700TMC3    C510350   4.633   1.230  17.267 -0.4359  0.0748 -0.4557
  700TMC3    C610351   4.675   1.102  17.275 -0.4577  0.7404 -0.5044
  700TMC3     C10352   4.456   1.206  16.958  0.7424 -0.3149  0.1515
  700TMC3     O10353   4.402   1.122  16.889  0.1243  0.0202 -0.1088
  700TMC3     H10354   4.463   0.974  17.050  2.4722 -0.2550 -0.3566
  700TMC3    H110355   4.513   1.381  17.158  0.5556 -0.0914 -0.7111
  700TMC3    H210356   0.020   1.074  17.355 -2.4641 -0.4615  0.7697
  700TMC3    C710357   0.024   1.322  17.277  0.0594  0.2149 -0.3834
  700TMC3    C810358   4.684   0.900  17.160 -0.1316 -0.5667  0.6512
  700TMC3    O110359   4.722   1.436  17.240 -0.1118  0.1898 -0.0380
  700TMC3    O210360   0.072   0.945  17.141  0.5294  0.4525  0.2822
  701TMC3    C110361   4.520   0.317  15.746  0.2097 -1.1738  0.3059
  701TMC3    C210362   4.540   0.252  15.624  0.7081  0.2280  0.0607
  701TMC3    C310363   4.654   0.283  15.555  0.2527 -0.5038 -0.2741
  701TMC3    C410364   4.608   0.409  15.790  0.0095  0.0785 -0.2406
  701TMC3    C510365   0.002   0.434  15.722  0.5613 -0.0530 -0.1915
  701TMC3    C610366   0.022   0.368  15.603 -0.5044  0.3215 -0.3899
  701TMC3     C10367   4.404   0.297  15.819  0.3209 -0.6181  0.0936
  701TMC3     O10368   4.401   0.338  15.936 -0.2467  0.1220 -0.4444
  701TMC3     H10369   4.468   0.179  15.590  0.0241  1.0688 -0.2683
  701TMC3    H110370   4.576   0.459  15.882 -0.2296 -0.2281 -0.1564
  701TMC3    H210371   0.105   0.394  15.538 -1.6790 -0.2892 -2.1529
  701TMC3    C710372   0.049   0.576  15.721 -0.4220  0.1953  0.2248
  701TMC3    C810373   4.660   0.255  15.416  0.0994 -0.4244  0.5222
  701TMC3    O110374   0.103   0.620  15.618 -0.5410  0.7363 -0.1096
  701TMC3    O210375   0.048   0.222  15.374 -0.6199  0.4863 -0.5623
  702MPD2     C10376   4.610   2.542  11.252 -0.3898 -0.4579  0.3155
  702MPD2    C110377   4.524   2.647  11.251  0.0380  0.1498 -0.6903
  702MPD2    C210378   4.522   2.744  11.152 -0.5428  0.3231  0.8443
  702MPD2    C310379   4.615   2.741  11.049 -0.0699 -0.4321 -0.4652
  702MPD2    C410380   4.712   2.641  11.056 -0.0147 -0.3120 -0.2132
  702MPD2    C510381   4.713   2.551  11.156  0.7079 -0.1284  0.1052
  702MPD2     H10382   4.439   2.813  11.158 -0.5567  0.4107 -0.3368
  702MPD2    H110383   0.072   2.641  10.987  0.5063 -0.7835  0.4108
  702MPD2    H210384   4.606   2.457  11.318  0.7883 -0.0307  0.9292
  702MPD2    H310385   0.067   2.475  11.163  1.9333  1.1283  0.0282
  702MPD2     N10386   4.620   2.821  10.940 -0.5960  0.0592  0.3975
  702MPD2    H510387   4.681   2.789  10.866  1.0696 -2.6770  2.9081
  702MPD2    N110388   4.421   2.664  11.356  0.0221  0.0587  0.0268
  702MPD2    H710389   4.369   2.750  11.344  0.1535  0.2194  0.6170
  703TMC3    C110390   4.561   2.984  10.789 -0.8691 -0.6297 -0.3260
  703TMC3    C210391   4.448   3.043  10.737 -0.3452  0.6065  0.5467
  703TMC3    C310392   4.448   3.074  10.607 -0.3435 -0.2040 -0.2133
  703TMC3    C410393   4.674   2.962  10.718 -0.2466  0.9551  0.1905
  703TMC3    C510394   4.675   3.017  10.592 -0.6669  0.5863  0.2755
  703TMC3    C610395   4.557   3.063  10.529 -0.6644  0.2905 -0.6029
  703TMC3     C10396   4.538   2.929  10.920  0.3948 -1.0284 -0.5849
  703TMC3     O10397   4.450   2.979  10.988  0.1729 -0.7014 -0.3110
  703TMC3     H10398   4.366   3.076  10.799 -1.4740 -0.6430 -0.2897
  703TMC3    H110399   0.045   2.941  10.769 -1.1820 -0.0558  1.4908
  703TMC3    H210400   4.558   3.106  10.430  1.3148  1.6263  0.0097
  703TMC3    C710401   0.070   2.981  10.509  0.7735 -0.0302 -0.5194
  703TMC3    C810402   4.339   3.154  10.551 -0.3430 -0.1098  0.3924
  703TMC3    O110403   0.072   3.046  10.403 -0.1303 -0.2787 -0.1257
  703TMC3    O210404   4.368   3.216  10.443 -0.2200 -0.0216 -0.1983
  704TMC3    C110405   1.235   0.848  11.659 -0.4111  0.0552 -0.0051
  704TMC3    C210406   1.309   0.935  11.736 -0.2691  0.1421  0.7467
  704TMC3    C310407   1.338   0.896  11.865  0.1557  0.7092 -0.8395
  704TMC3    C410408   1.192   0.725  11.702  0.0381 -0.5100  0.2376
  704TMC3    C510409   1.229   0.693  11.829  0.2667 -0.2651 -0.3630
  704TMC3    C610410   1.289   0.777  11.915 -0.4256 -0.0665 -0.0254
  704TMC3     C10411   1.240   0.861  11.515 -0.1341 -0.2139  0.2320
  704TMC3     O10412   1.164   0.795  11.452 -0.5717  0.3101  0.3933
  704TMC3     H10413   1.354   1.027  11.701  0.9043 -0.0240  1.8355
  704TMC3    H110414   1.135   0.660  11.637  0.0975  0.2713 -0.6026
  704TMC3    H210415   1.324   0.747  12.014  0.3043 -1.7998 -0.7937
  704TMC3    C710416   1.286   0.564  11.858  0.4765  0.3598 -0.6140
  704TMC3    C810417   1.457   0.952  11.932 -0.2246  0.3986  0.6745
  704TMC3    O110418   1.403   0.566  11.885  1.0879 -0.0329  0.0109
  704TMC3    O210419   1.543   1.001  11.864 -0.0590 -0.3544 -0.0070
  705MPD2     C10420   1.851   3.455  16.727  0.5960  0.2040 -0.5528
  705MPD2    C110421   1.777   3.536  16.638 -0.9113  0.0849 -0.4367
  705MPD2    C210422   1.650   3.574  16.666 -0.3743 -0.1153 -0.0877
  705MPD2    C310423   1.577   3.536  16.778 -0.4868 -0.1880  0.3884
  705MPD2    C410424   1.653   3.456  16.867 -0.3744  0.5759 -0.3617
  705MPD2    C510425   1.774   3.407  16.834  0.1305  0.2110 -0.4106
  705MPD2     H10426   1.604   3.635  16.589 -0.2882 -0.8188 -0.6903
  705MPD2    H110427   1.605   3.426  16.959 -1.1233  1.2991 -0.5155
  705MPD2    H210428   1.959   3.441  16.727  0.3617 -1.5022 -2.2789
  705MPD2    H310429   1.824   3.352  16.913  1.1029  0.6909 -0.6861
  705MPD2     N10430   1.444   3.560  16.806 -0.3378 -0.2342 -0.0654
  705MPD2    H510431   1.395   3.507  16.877 -0.4810  0.7532  0.5665
  705MPD2    N110432   1.829   3.577  16.515 -0.0184 -0.2732  0.1048
  705MPD2    H710433   1.774   3.645  16.463  0.1762 -0.7343 -0.6995
  706TMC3    C110434   2.056   3.536  16.111  0.1076 -0.1590  0.0012
  706TMC3    C210435   2.016   3.661  16.069  0.2740  0.4883 -0.2450
  706TMC3    C310436   1.957   3.745  16.162  0.2026  0.2045  0.4745
  706TMC3    C410437   2.035   3.490  16.238  0.2607  0.9400  0.2715
  706TMC3    C510438   1.971   3.580  16.324 -0.5470  0.9790  0.0497
  706TMC3    C610439   1.932   3.707  16.292  0.0598 -0.2447 -0.2375
  706TMC3     C10440   2.153   3.460  16.028  0.7573 -0.4014 -0.8055
  706TMC3     O10441   2.224   3.381  16.089 -0.8187 -0.3564  0.1779
  706TMC3     H10442   2.050   3.705  15.975  0.2607  0.1113 -0.4252
  706TMC3    H110443   2.073   3.399  16.283  1.2119  1.4626  0.5255
  706TMC3    H210444   1.889   3.773  16.366 -0.1667  0.8695 -1.3653
  706TMC3    C710445   1.947   3.536  16.461 -0.2568  0.4952  0.4180
  706TMC3    C810446   1.897   3.874  16.118 -0.0937  0.0563  0.4541
  706TMC3    O110447   2.034   3.459  16.505  0.4061  0.2963 -0.2814
  706TMC3    O210448   1.857   3.876  16.003 -0.1154  0.2654  0.2901
  707TMC3    C110449   2.579   2.271   0.936 -0.2142 -0.1492  0.5164
  707TMC3    C210450   2.529   2.143   0.953 -0.3206  0.3103  0.1323
  707TMC3    C310451   2.493   2.120   1.082  0.1434 -0.6202 -0.2119
  707TMC3    C410452   2.584   2.371   1.036 -0.6358 -0.2860  0.4644
  707TMC3    C510453   2.549   2.331   1.162 -0.6206 -0.4338 -0.1833
  707TMC3    C610454   2.493   2.209   1.180  0.1473 -0.4560 -0.7782
  707TMC3     C10455   2.652   2.290   0.814 -0.5888 -0.3369  1.1619
  707TMC3     O10456   2.645   2.199   0.733  0.2145  0.4770 -0.3239
  707TMC3     H10457   2.521   2.073   0.871  0.3145  1.7746 -1.1818
  707TMC3    H110458   2.615   2.473   1.013 -0.6542 -0.2820  0.4564
  707TMC3    H210459   2.474   2.179   1.283  0.1913  1.6912 -0.1271
  707TMC3    C710460   2.500   2.432   1.257  0.0019 -0.1430  0.1382
  707TMC3    C810461   2.515   1.982   1.129 -0.2346  0.0473  0.3234
  707TMC3    O110462   2.444   2.401   1.361  0.5090 -0.3427 -0.7090
  707TMC3    O210463   2.471   1.950   1.237  0.1036 -0.0481  0.7073
  708MPD2     C10464   0.184   2.224  13.851  0.1383  0.5194 -0.1825
  708MPD2    C110465   0.060   2.227  13.901  0.0119  0.2317 -0.4101
  708MPD2    C210466   0.022   2.151  14.008 -0.3105  0.9007  0.6247
  708MPD2    C310467   0.113   2.065  14.063 -0.1538 -0.0152  0.6206
  708MPD2    C410468   0.244   2.072  14.017 -0.0320  0.1429 -0.1049
  708MPD2    C510469   0.277   2.145  13.911 -0.2104  0.0892  0.1954
  708MPD2     H10470   4.655   2.165  14.067 -0.7886 -4.3182  1.1379
  708MPD2    H110471   0.322   2.011  14.061 -0.2558  1.4244  2.0543
  708MPD2    H210472   0.229   2.294  13.782  0.7399  1.0588  0.7471
  708MPD2    H310473   0.375   2.148  13.863 -0.4490 -0.4261 -0.3197
  708MPD2     N10474   0.063   1.983  14.170 -0.1494  0.3113  0.3924
  708MPD2    H510475   4.689   1.997  14.195 -1.2039 -1.5810 -2.5063
  708MPD2    N110476   4.686   2.317  13.848 -0.1610 -0.3460 -1.1599
  708MPD2    H710477   4.597   2.331  13.895 -0.5166 -0.2414 -1.8540
  709TMC3    C110478   4.568   2.440  13.693 -0.5946  0.4823  0.4536
  709TMC3    C210479   4.517   2.414  13.574  0.2085  0.3498 -0.2665
  709TMC3    C310480   4.382   2.377  13.565 -0.4115 -0.1759  0.1436
  709TMC3    C410481   4.483   2.438  13.802  0.4931 -0.4750 -0.1916
  709TMC3    C510482   4.363   2.379  13.794 -0.1724  0.2984 -0.4429
  709TMC3    C610483   4.315   2.341  13.675  0.2358  0.5157 -0.9842
  709TMC3     C10484   4.687   2.361  13.715  0.2575  0.1425 -0.1285
  709TMC3     O10485   0.035   2.336  13.623 -0.2137  0.3620  0.0217
  709TMC3     H10486   4.581   2.432  13.488  2.5502  1.4944  1.7274
  709TMC3    H110487   4.518   2.490  13.890 -1.6087 -0.0175  0.3868
  709TMC3    H210488   4.209   2.322  13.665 -0.0373  1.0963  0.8510
  709TMC3    C710489   4.339   2.284  13.898  0.3758  0.1086  0.5315
  709TMC3    C810490   4.306   2.462  13.478  0.0761  0.1051  0.1522
  709TMC3    O110491   4.406   2.299  14.000  0.4503  0.5560 -0.3123
  709TMC3    O210492   4.188   2.491  13.501 -0.7772 -1.0556  0.6368
  710TMC3    C110493   0.015   2.872   0.268 -0.5566 -0.4948 -0.5466
  710TMC3    C210494   0.085   2.969   0.204 -0.1522  0.2410  0.2176
  710TMC3    C310495   0.217   2.936   0.185  0.3315  0.0773 -0.4441
  710TMC3    C410496   0.062   2.748   0.287 -0.7978  0.1907 -0.7388
  710TMC3    C510497   0.195   2.720   0.275 -0.3706  0.3697 -0.0425
  710TMC3    C610498   0.277   2.814   0.221 -0.1723 -0.1338  0.4629
  710TMC3     C10499   4.589   2.896   0.261  0.5969  1.0089 -0.9870
  710TMC3     O10500   4.521   2.796   0.239 -0.0546 -0.0629 -0.3766
  710TMC3     H10501   0.032   3.045   0.149  0.1180  0.6436  0.5097
  710TMC3    H110502   4.714   2.673   0.319 -0.9741  0.1480 -1.2253
  710TMC3    H210503   0.385   2.807   0.212 -0.3081  0.1256 -1.5835
  710TMC3    C710504   0.245   2.623   0.369  0.9949  0.2737 -0.0409
  710TMC3    C810505   0.299   3.006   0.087 -0.3336 -0.1630  0.4639
  710TMC3    O110506   0.175   2.596   0.466 -0.2402 -0.1562 -0.0878
  710TMC3    O210507   0.380   2.945   0.015 -0.2214 -0.1687  0.2650
  711TMC3    C110508   0.294   4.276  15.495  0.8418  0.0854  0.0477
  711TMC3    C210509   0.370   4.387  15.531 -0.3046 -0.5956  0.4711
  711TMC3    C310510   0.497   4.372  15.580 -0.2498  0.8109  1.2674
  711TMC3    C410511   0.343   4.148  15.502 -0.2602 -0.2027 -0.0796
  711TMC3    C510512   0.469   4.143  15.557 -0.0456  0.2307  0.2140
  711TMC3    C610513   0.549   4.250  15.592 -0.4697 -0.5692  0.2468
  711TMC3     C10514   0.182   4.299  15.405  0.1721  0.1032 -0.4137
  711TMC3     O10515   0.149   4.208  15.333  0.2078 -0.4906 -0.2723
  711TMC3     H10516   0.337   4.489  15.512  1.5976 -0.0873 -0.0691
  711TMC3    H110517   0.290   4.062  15.463 -0.2343  0.0124 -0.5825
  711TMC3    H210518   0.642   4.229  15.645 -0.5120  0.2304  0.6470
  711TMC3    C710519   0.538   4.018  15.543  0.3708 -0.2038 -0.2143
  711TMC3    C810520   0.569   4.496  15.620  0.1407 -0.2199 -0.3164
  711TMC3    O110521   0.626   3.983  15.624 -0.0529 -0.1760  0.3377
  711TMC3    O210522   0.499   4.600  15.634 -0.5281  0.6519 -0.1137
  712MPD2     C10523   2.006   1.020  13.914 -0.1161 -0.2880 -0.0601
  712MPD2    C110524   1.922   1.023  13.806  0.7615 -0.8321  0.3479
  712MPD2    C210525   1.948   1.112  13.702 -0.4323 -0.3299  0.1414
  712MPD2    C310526   2.059   1.191  13.714  0.2559 -0.2706  0.7327
  712MPD2    C410527   2.146   1.174  13.820 -0.2793  0.1862 -0.0320
  712MPD2    C510528   2.117   1.088  13.919 -0.3025  0.5132  0.0768
  712MPD2     H10529   1.877   1.103  13.621 -1.1820  0.4769  0.7061
  712MPD2    H110530   2.229   1.241  13.840 -1.1638  1.2551  0.0695
  712MPD2    H210531   1.984   0.955  13.998 -2.3355 -2.0397 -1.9726
  712MPD2    H310532   2.190   1.070  13.996 -0.8353 -1.1186  0.2159
  712MPD2     N10533   2.100   1.290  13.624  0.1558  0.1663 -0.5283
  712MPD2    H510534   2.185   1.338  13.651  0.0041 -0.0351  0.3323
  712MPD2    N110535   1.809   0.932  13.794  0.3528  0.4321 -0.0483
  712MPD2    H710536   1.740   0.953  13.722 -0.3960 -2.3244 -0.1221
  713TMC3    C110537   2.080   1.433  13.446 -0.4188  0.2425  0.2371
  713TMC3    C210538   2.218   1.436  13.438 -0.2794 -0.4440 -0.7894
  713TMC3    C310539   2.271   1.545  13.374 -0.4665 -0.2236 -0.0162
  713TMC3    C410540   1.994   1.522  13.385 -0.4839 -0.4667 -0.4176
  713TMC3    C510541   2.059   1.621  13.309  0.3802 -0.7898  0.5355
  713TMC3    C610542   2.193   1.634  13.303 -0.1267 -0.3459 -0.2537
  713TMC3     C10543   2.023   1.320  13.511 -0.8547  0.0884  0.2947
  713TMC3     O10544   1.918   1.277  13.471 -0.9948  0.3425 -0.5284
  713TMC3     H10545   2.278   1.348  13.460 -1.1278 -0.4388  1.4830
  713TMC3    H110546   1.887   1.508  13.389 -0.2675 -2.2394 -0.7043
  713TMC3    H210547   2.237   1.721  13.257 -0.8907 -0.2311 -0.7748
  713TMC3    C710548   1.980   1.734  13.257 -0.0766 -0.6422 -0.3630
  713TMC3    C810549   2.406   1.527  13.316  0.2463 -0.7114 -0.8970
  713TMC3    O110550   2.053   1.823  13.213  0.0874 -0.6240 -0.0047
  713TMC3    O210551   2.436   1.603  13.225 -0.1673 -0.4492  0.5545
  714MPD2     C10552   3.100   3.656   1.437 -0.6489 -0.1056  0.1319
  714MPD2    C110553   3.199   3.663   1.345  0.8255  0.8191 -0.1387
  714MPD2    C210554   3.168   3.725   1.223 -0.2667 -0.3680 -1.0277
  714MPD2    C310555   3.054   3.792   1.195  0.0304 -0.1655 -0.2456
  714MPD2    C410556   2.960   3.780   1.295  0.7806  0.1661  0.1505
  714MPD2    C510557   2.981   3.718   1.411 -0.2332 -0.4605 -0.4220
  714MPD2     H10558   3.239   3.724   1.140  0.1099  1.2507 -0.7215
  714MPD2    H110559   2.866   3.833   1.293  0.7336  0.0317 -1.0646
  714MPD2    H210560   3.104   3.626   1.541  0.8098  0.9824  0.3806
  714MPD2    H310561   2.902   3.724   1.485  0.7818  1.1728  0.5243
  714MPD2     N10562   3.021   3.848   1.068 -0.0672  0.3298 -0.7301
  714MPD2    H510563   2.930   3.892   1.064 -0.9833 -1.4380  0.1581
  714MPD2    N110564   3.321   3.596   1.375  0.1502  0.0204 -0.1872
  714MPD2    H710565   3.331   3.542   1.460  1.7244 -0.4803 -0.6870
  715TMC3    C110566   3.539   3.530   1.352  0.3721  0.2676  1.2645
  715TMC3    C210567   3.633   3.501   1.253 -0.1619 -0.3322 -0.6846
  715TMC3    C310568   3.762   3.503   1.286  0.3582  0.1952 -0.2530
  715TMC3    C410569   3.577   3.573   1.476 -0.4480  0.6271 -0.2999
  715TMC3    C510570   3.714   3.579   1.497  0.5477  0.0813  0.2484
  715TMC3    C610571   3.809   3.532   1.413 -0.5800  0.5450 -0.5089
  715TMC3     C10572   3.426   3.591   1.287 -0.5087  0.1111 -0.1742
  715TMC3     O10573   3.441   3.646   1.181 -0.5797 -0.1038 -0.1900
  715TMC3     H10574   3.599   3.493   1.150 -1.5647  0.5517 -0.2943
  715TMC3    H110575   3.502   3.614   1.542  0.4794  0.7762  0.6725
  715TMC3    H210576   3.915   3.531   1.435 -0.7662  0.5984  0.3742
  715TMC3    C710577   3.749   3.650   1.615  0.3936 -0.0978  0.9132
  715TMC3    C810578   3.857   3.438   1.195  0.3460 -0.8665 -0.0850
  715TMC3    O110579   3.659   3.651   1.697  0.4366  0.1811  0.0116
  715TMC3    O210580   3.805   3.358   1.121 -0.3477 -0.1283  0.1113
  716MPD2     C10581   4.248   2.745  10.278 -1.3184 -0.7371 -0.6360
  716MPD2    C110582   4.263   2.652  10.186  0.0679 -0.2446 -0.4478
  716MPD2    C210583   4.371   2.568  10.193  0.5975 -0.0922 -0.3518
  716MPD2    C310584   4.458   2.565  10.297  0.0738 -0.2755  0.1307
  716MPD2    C410585   4.439   2.657  10.399 -0.2734  0.1271  0.0229
  716MPD2    C510586   4.336   2.752  10.385  0.2055  0.5950  0.4498
  716MPD2     H10587   4.386   2.503  10.108  0.1909 -1.4122  0.5813
  716MPD2    H110588   4.503   2.663  10.487 -0.4517 -0.6157  0.1951
  716MPD2    H210589   4.170   2.819  10.262  1.5957  2.4688 -0.0205
  716MPD2    H310590   4.328   2.822  10.467 -3.2330 -1.6536  2.0141
  716MPD2     N10591   4.555   2.464  10.298 -0.1339 -0.9633 -0.4404
  716MPD2    H510592   4.549   2.402  10.217  0.6935  0.2718 -1.4437
  716MPD2    N110593   4.177   2.662  10.077 -0.0460  0.0926 -0.6398
  716MPD2    H710594   4.104   2.732  10.077  0.5273  0.6940 -0.5565
  717TMC3    C110595   4.709   2.311  10.387  0.2718 -0.0029 -0.0884
  717TMC3    C210596   4.652   2.219  10.309  0.1402  0.6820  0.2292
  717TMC3    C310597   0.015   2.115  10.274  0.1592  0.3667  0.0359
  717TMC3    C410598   0.111   2.315  10.442  0.1794  0.5870 -0.8648
  717TMC3    C510599   0.185   2.207  10.397 -0.1177 -0.4880 -0.1437
  717TMC3    C610600   0.144   2.104  10.311  0.9838  0.3174 -0.0781
  717TMC3     C10601   4.639   2.434  10.402  0.9214  0.3593  0.0685
  717TMC3     O10602   4.645   2.469  10.520  0.5882  0.3240  0.9554
  717TMC3     H10603   4.546   2.221  10.288  0.1941 -2.1123 -0.3405
  717TMC3    H110604   0.140   2.407  10.493 -1.4162  2.1142 -2.7289
  717TMC3    H210605   0.209   2.031  10.266 -0.9895 -0.9223 -0.8946
  717TMC3    C710606   0.328   2.242  10.397  0.0438  0.2533  0.4043
  717TMC3    C810607   4.671   2.040  10.169 -0.5649  0.0210  0.0336
  717TMC3    O110608   0.368   2.302  10.495 -0.4353 -0.3846  0.1412
  717TMC3    O210609   4.575   2.088  10.112  0.6856  0.7891 -0.6214
  718MPD2     C10610   3.553   1.728  12.947  0.8865 -0.1358 -0.0548
  718MPD2    C110611   3.486   1.775  12.837  0.3022  0.3543 -0.3831
  718MPD2    C210612   3.424   1.676  12.760 -0.0541  0.2867  0.3447
  718MPD2    C310613   3.434   1.542  12.789 -0.0077  0.6132  0.4915
  718MPD2    C410614   3.497   1.502  12.909  0.0944 -0.4313 -0.1652
  718MPD2    C510615   3.556   1.596  12.987  0.0145 -0.1635 -0.0941
  718MPD2     H10616   3.358   1.704  12.678 -1.7537 -2.0221  0.9341
  718MPD2    H110617   3.480   1.403  12.948  0.8641 -0.4613  0.0954
  718MPD2    H210618   3.616   1.794  13.006  0.1590  0.2834  0.2569
  718MPD2    H310619   3.617   1.562  13.070  1.7991  2.7991 -0.2064
  718MPD2     N10620   3.357   1.460  12.708  0.3402 -0.3919 -0.3760
  718MPD2    H510621   3.290   1.504  12.646  0.5196  1.6445  0.8625
  718MPD2    N110622   3.500   1.907  12.799  0.7462 -0.7033 -0.3502
  718MPD2    H710623   3.566   1.971  12.841 -2.5095  0.3187  3.1231
  719TMC3    C110624   3.492   2.064  12.627 -0.3876 -0.5162  0.1192
  719TMC3    C210625   3.423   2.066  12.506 -0.4166 -0.4178 -0.5448
  719TMC3    C310626   3.490   2.019  12.399 -0.3320 -0.1286  0.2625
  719TMC3    C410627   3.627   2.038  12.635 -0.4117  0.8945  0.7644
  719TMC3    C510628   3.693   2.013  12.521 -0.1189  0.2129  0.3179
  719TMC3    C610629   3.629   1.997  12.399  0.2965  0.4490  0.1923
  719TMC3     C10630   3.425   1.966  12.703  0.1490  0.0254 -0.2539
  719TMC3     O10631   3.312   1.939  12.664  0.3191 -0.0634  0.1580
  719TMC3     H10632   3.317   2.088  12.502 -0.2292  0.3992 -0.9893
  719TMC3    H110633   3.686   2.075  12.718 -2.7768  2.1085  1.8944
  719TMC3    H210634   3.672   1.953  12.310  3.3990  1.1246  1.3886
  719TMC3    C710635   3.825   1.951  12.538 -1.0772  0.0861  0.2834
  719TMC3    C810636   3.425   1.909  12.336  0.1362 -0.5433 -0.0058
  719TMC3    O110637   3.890   1.951  12.434 -0.0071 -0.0533  0.1859
  719TMC3    O210638   3.481   1.803  12.320  0.1780  0.0211 -0.2990
  720MPD2     C10639   1.776   3.106  13.874 -1.1135  0.2821 -0.0575
  720MPD2    C110640   1.885   3.094  13.791 -0.0120 -0.4443 -0.1829
  720MPD2    C210641   2.002   3.032  13.848 -0.2905  0.3441 -0.3559
  720MPD2    C310642   2.003   2.998  13.990  0.3199  0.0397 -0.2899
  720MPD2    C410643   1.894   3.037  14.069 -0.3287 -0.0050  0.0343
  720MPD2    C510644   1.784   3.086  14.007  0.3981  0.6584  0.5769
  720MPD2     H10645   2.086   3.006  13.785  0.7449 -3.0194  2.3986
  720MPD2    H110646   1.889   3.012  14.175 -1.5817  0.3049  0.0499
  720MPD2    H210647   1.684   3.154  13.843 -2.0612  0.3360  2.7916
  720MPD2    H310648   1.689   3.098  14.058  0.5102 -0.2203  0.9979
  720MPD2     N10649   2.117   2.930  14.039 -0.3415  0.3625  0.5856
  720MPD2    H510650   2.168   2.885  13.964  0.0122  1.5012  0.1423
  720MPD2    N110651   1.871   3.115  13.655  0.3644 -0.3111  0.1896
  720MPD2    H710652   1.933   3.066  13.592  0.2372 -0.1974 -0.0258
  721TMC3    C110653   2.285   2.861  14.199 -0.2778 -0.1093  0.3452
  721TMC3    C210654   2.299   2.811  14.327 -0.5092 -0.7046 -0.1103
  721TMC3    C310655   2.413   2.752  14.357  0.4422 -0.9674 -0.0396
  721TMC3    C410656   2.377   2.837  14.097 -0.2307  0.1670 -0.2125
  721TMC3    C510657   2.493   2.782  14.135  0.6078 -0.3895  0.4153
  721TMC3    C610658   2.515   2.738  14.266  0.0571 -0.0044  0.7803
  721TMC3     C10659   2.156   2.919  14.168 -0.4250 -0.3484 -0.9237
  721TMC3     O10660   2.091   2.961  14.261 -0.3868  0.3518 -0.0885
  721TMC3     H10661   2.222   2.835  14.400  0.4555 -0.0462  0.6806
  721TMC3    H110662   2.372   2.884  13.999 -0.6564  2.1010  0.7304
  721TMC3    H210663   2.611   2.700  14.299  0.4875 -0.1176 -0.6011
  721TMC3    C710664   2.611   2.830  14.060  0.0313  0.8423  0.1496
  721TMC3    C810665   2.448   2.696  14.483 -0.2047 -0.0145  0.3241
  721TMC3    O110666   2.604   2.940  14.010 -0.0329  0.3082 -0.2629
  721TMC3    O210667   2.536   2.610  14.482  0.0672  0.2020 -0.1621
  722MPD2     C10668   0.777   1.484  13.580 -0.7042  0.0595  0.0783
  722MPD2    C110669   0.743   1.609  13.544 -0.6492  0.2922 -0.0124
  722MPD2    C210670   0.611   1.639  13.519  0.4542  0.0147  0.3560
  722MPD2    C310671   0.519   1.541  13.529  0.4837 -0.1572  0.5433
  722MPD2    C410672   0.554   1.414  13.562 -0.3059 -0.1171 -0.2936
  722MPD2    C510673   0.687   1.378  13.578  0.5645 -0.1232 -0.3959
  722MPD2     H10674   0.589   1.745  13.510 -0.5907 -0.4643 -2.8886
  722MPD2    H110675   0.479   1.338  13.583 -0.7968 -0.3933 -2.9720
  722MPD2    H210676   0.877   1.452  13.607 -0.7817  1.3701  1.9287
  722MPD2    H310677   0.713   1.274  13.599  1.0447 -0.2741 -1.7254
  722MPD2     N10678   0.386   1.576  13.509 -0.0703  0.6144 -0.3379
  722MPD2    H510679   0.371   1.672  13.481 -0.5990  0.2726 -1.2333
  722MPD2    N110680   0.834   1.713  13.530  0.2581  0.1140 -0.2213
  722MPD2    H710681   0.787   1.797  13.499 -1.2243  0.2416  2.4382
  723TMC3    C110682   0.142   1.553  13.504 -0.0530 -0.1442 -0.2257
  723TMC3    C210683   0.033   1.479  13.545 -0.5994  0.3961 -0.4012
  723TMC3    C310684   4.634   1.530  13.530  0.0123 -0.3461 -1.1495
  723TMC3    C410685   0.128   1.677  13.453  0.1827  0.0751 -0.8424
  723TMC3    C510686   4.719   1.724  13.450  0.2142  0.0774 -0.2117
  723TMC3    C610687   4.610   1.649  13.471  0.2430  0.1763  0.1937
  723TMC3     C10688   0.277   1.492  13.510  0.0564  0.9252  0.1621
  723TMC3     O10689   0.267   1.372  13.510 -0.3376 -0.1160  0.2835
  723TMC3     H10690   0.044   1.381  13.591  0.3778  0.7066  0.0415
  723TMC3    H110691   0.216   1.737  13.434  0.1548  1.3242  2.9775
  723TMC3    H210692   4.507   1.674  13.449  0.5104  1.6472  0.6562
  723TMC3    C710693   4.697   1.830  13.358  0.6466  0.1043  0.1899
  723TMC3    C810694   4.524   1.436  13.506 -0.7993  0.1055 -0.0250
  723TMC3    O110695   4.613   1.817  13.270  0.2965 -0.1826  0.3658
  723TMC3    O210696   4.419   1.468  13.561  0.2552 -0.4580 -0.1298
  724TMC3    C110697   2.154   3.977   9.101 -0.1093 -0.1253 -0.4776
  724TMC3    C210698   2.051   4.040   9.171 -0.3143  0.1816 -0.3213
  724TMC3    C310699   2.068   4.166   9.221 -0.0283 -0.2957 -0.1364
  724TMC3    C410700   2.272   4.041   9.070 -0.6989 -0.4929 -0.0636
  724TMC3    C510701   2.283   4.162   9.128 -0.6180  0.1931 -0.4048
  724TMC3    C610702   2.190   4.225   9.205 -0.3246  0.5857 -0.3142
  724TMC3     C10703   2.141   3.843   9.049  0.3222  0.3469  0.8041
  724TMC3     O10704   2.211   3.801   8.962  0.0562 -0.4193  0.1192
  724TMC3     H10705   1.950   4.006   9.154 -0.4046  0.9201 -1.2498
  724TMC3    H110706   2.343   3.993   9.004  0.5532 -2.4160  2.7271
  724TMC3    H210707   2.203   4.328   9.236 -1.0520 -0.2608  2.7195
  724TMC3    C710708   2.405   4.241   9.091  0.0598  0.3483  0.5262
  724TMC3    C810709   1.951   4.252   9.233  0.7628  0.3996 -0.3552
  724TMC3    O110710   2.453   4.311   9.177  0.3812  0.0943  0.4140
  724TMC3    O210711   1.848   4.230   9.168 -0.8952 -0.3258  0.2064
  725TMC3    C110712   2.399   3.112  12.749  0.5205  0.5148 -0.3779
  725TMC3    C210713   2.303   3.084  12.655 -0.2504  0.1907  0.0897
  725TMC3    C310714   2.300   2.959  12.597 -0.3483 -0.7620 -0.6219
  725TMC3    C410715   2.490   3.023  12.792  0.4394  0.6526  0.3352
  725TMC3    C510716   2.480   2.902  12.724  0.2848  0.1606 -0.3453
  725TMC3    C610717   2.380   2.860  12.638 -0.7507 -0.1112  0.2255
  725TMC3     C10718   2.388   3.236  12.823 -0.2286  0.3006 -0.4955
  725TMC3     O10719   2.346   3.331  12.759  0.1000  0.4287 -0.1024
  725TMC3     H10720   2.246   3.168  12.618 -0.2243 -0.4639 -1.4720
  725TMC3    H110721   2.562   3.048  12.869 -0.2058 -0.9758  1.4575
  725TMC3    H210722   2.381   2.764  12.587  0.7460  0.6781 -1.2128
  725TMC3    C710723   2.612   2.874  12.671 -0.1154  0.0171  0.7005
  725TMC3    C810724   2.270   2.954  12.459 -0.0513  0.4996 -0.0551
  725TMC3    O110725   2.706   2.909  12.737  0.3299 -0.4987  0.9386
  725TMC3    O210726   2.230   2.843  12.417 -0.2214  0.2028  0.2217
  726MPD2     C10727   1.176   4.264   9.434  0.6183  0.8271  0.3308
  726MPD2    C110728   1.118   4.350   9.514 -0.1015  0.0213 -0.2669
  726MPD2    C210729   1.079   4.295   9.633  0.4582  0.2759 -0.2931
  726MPD2    C310730   1.089   4.158   9.668 -0.4167 -0.4150  0.3118
  726MPD2    C410731   1.158   4.076   9.582  0.6141 -0.5011  0.1399
  726MPD2    C510732   1.200   4.131   9.466 -0.1609 -0.5191 -0.5079
  726MPD2     H10733   1.027   4.356   9.705  2.5985  1.7145  0.0342
  726MPD2    H110734   1.172   3.970   9.601 -2.2009 -1.2416 -2.0458
  726MPD2    H210735   1.229   4.300   9.347 -1.3293 -1.4650 -1.8152
  726MPD2    H310736   1.261   4.073   9.398  0.3130 -0.2330 -0.3239
  726MPD2     N10737   1.036   4.107   9.785 -0.3650  0.1273  0.1756
  726MPD2    H510738   1.025   4.007   9.787  1.8355 -0.0856  0.7713
  726MPD2    N110739   1.116   4.489   9.497 -0.3703 -0.1853 -0.4757
  726MPD2    H710740   1.046   4.538   9.552 -0.8422 -1.6520  0.2114
  727TMC3    C110741   1.108   4.694   9.399 -0.1148  0.1662  0.1876
  727TMC3    C210742   1.113   0.054   9.510  0.4925 -0.5092  0.7531
  727TMC3    C310743   1.062   0.179   9.498  0.5538  0.3218 -0.4739
  727TMC3    C410744   1.079   0.029   9.283  0.2657  0.1626 -0.4672
  727TMC3    C510745   1.024   0.159   9.274  0.4376 -0.6117 -0.1324
  727TMC3    C610746   1.013   0.236   9.387  0.0270 -0.3041  0.9031
  727TMC3     C10747   1.172   4.561   9.396 -0.7863  0.0229  0.2467
  727TMC3     O10748   1.227   4.536   9.290  0.1707  0.0916 -0.6856
  727TMC3     H10749   1.127   0.016   9.611 -2.6500  0.3129  1.5071
  727TMC3    H110750   1.078   4.685   9.198  0.3648 -1.5496  0.9083
  727TMC3    H210751   1.006   0.344   9.383 -0.2902 -0.3838 -0.7274
  727TMC3    C710752   1.000   0.206   9.138 -0.1939 -0.2433 -0.5096
  727TMC3    C810753   1.082   0.260   9.617  0.7309 -0.3614 -0.0383
  727TMC3    O110754   1.039   0.129   9.049 -0.8899  0.0017 -0.2322
  727TMC3    O210755   1.151   0.219   9.708  0.2357 -0.4315  0.4491
  728TMC3    C110756   4.622   3.293  15.185  0.4389 -0.2894 -0.3853
  728TMC3    C210757   0.003   3.217  15.212  0.2424 -0.4752  0.9019
  728TMC3    C310758   0.090   3.193  15.108  0.1710 -0.7922  0.6483
  728TMC3    C410759   4.603   3.358  15.068  0.5263  0.0334 -0.3773
  728TMC3    C510760   4.684   3.316  14.965  0.2246 -0.3659  0.1087
  728TMC3    C610761   0.066   3.230  14.984  0.5668  0.1063  0.4402
  728TMC3     C10762   4.528   3.336  15.287  0.1184  0.6188  0.4899
  728TMC3     O10763   4.512   3.456  15.300 -0.5195  0.6164 -0.4043
  728TMC3     H10764   0.026   3.179  15.311  3.0748  1.5921  1.0547
  728TMC3    H110765   4.519   3.422  15.045  1.2066  0.0435 -2.8243
  728TMC3    H210766   0.124   3.202  14.898 -0.1518 -0.5510  0.1765
  728TMC3    C710767   4.671   3.376  14.833  0.4924 -0.2108 -0.1471
  728TMC3    C810768   0.212   3.112  15.134  0.2120 -0.9248 -0.4687
  728TMC3    O110769   4.720   3.314  14.736  0.5959  0.2587  0.4074
  728TMC3    O210770   0.238   3.079  15.247  0.3870 -0.2968 -0.1370
  729MPD2     C10771   2.274   3.812  16.533  0.1155  0.3328  0.2673
  729MPD2    C110772   2.229   3.946  16.533  0.8127  0.3691  0.4025
  729MPD2    C210773   2.121   3.978  16.619  0.7007 -0.5492 -0.0856
  729MPD2    C310774   2.064   3.888  16.708  0.2042 -0.1800 -0.3342
  729MPD2    C410775   2.116   3.764  16.707 -0.6488 -0.4081  0.3308
  729MPD2    C510776   2.219   3.726  16.627  0.4900 -1.0060 -0.6881
  729MPD2     H10777   2.073   4.075  16.614  0.1561 -0.7968  0.2542
  729MPD2    H110778   2.079   3.686  16.772 -0.2206  0.8164  2.0506
  729MPD2    H210779   2.357   3.771  16.476  0.5808  1.8902 -0.1888
  729MPD2    H310780   2.255   3.623  16.630  1.3958 -0.6727 -0.0492
  729MPD2     N10781   1.957   3.913  16.803 -0.2725 -0.3664 -0.9262
  729MPD2    H510782   1.941   3.833  16.863 -0.9813  0.3356 -0.1580
  729MPD2    N110783   2.281   4.041  16.436  0.3597  0.3362  0.1080
  729MPD2    H710784   2.360   4.009  16.380  0.6165 -1.3513  1.4596
  730TMC3    C110785   1.856   4.042  16.963  0.0042  0.4010 -0.3861
  730TMC3    C210786   1.951   4.001  17.053 -0.4469  0.2382 -0.2890
  730TMC3    C310787   1.979   4.083  17.158 -0.1750 -0.5012  0.5522
  730TMC3    C410788   1.790   4.159  16.983 -0.5644 -0.8696  0.5678
  730TMC3    C510789   1.816   4.240  17.096 -0.8356  0.7636  0.1233
  730TMC3    C610790   1.908   4.199  17.189 -0.1249  0.0432  0.4947
  730TMC3     C10791   1.889   4.031  16.819  0.3808 -0.1837  0.0989
  730TMC3     O10792   1.879   4.134  16.751  0.2012 -0.0129 -0.3016
  730TMC3     H10793   2.010   3.911  17.038 -1.5520 -0.3076 -1.2902
  730TMC3    H110794   1.723   4.203  16.910 -0.3889 -1.2745  0.1621
  730TMC3    H210795   1.938   4.261  17.273 -1.5517 -1.0885  1.8377
  730TMC3    C710796   1.802   4.385  17.066  0.5318  0.0212  0.4444
  730TMC3    C810797   2.122   4.109  17.164 -0.6731 -0.0678  0.4177
  730TMC3    O110798   1.768   4.417  16.957 -0.1887 -0.1651 -0.2967
  730TMC3    O210799   2.163   4.213  17.217 -0.1076  0.3370  0.0079
  731MPD2     C10800   2.446   2.520  12.095  0.3010 -0.1790 -0.3179
  731MPD2    C110801   2.574   2.502  12.144 -0.3795  0.1526  0.1446
  731MPD2    C210802   2.596   2.476  12.278  0.4153 -0.4695 -0.1374
  731MPD2    C310803   2.495   2.494  12.369 -0.8582 -0.4043 -0.0419
  731MPD2    C410804   2.367   2.519  12.323 -0.6384  0.4521 -0.6433
  731MPD2    C510805   2.340   2.521  12.186 -0.5032  1.5981  0.4118
  731MPD2     H10806   2.696   2.451  12.312  1.6506  1.7025 -2.1048
  731MPD2    H110807   2.287   2.546  12.391  1.0324  1.6626  0.8463
  731MPD2    H210808   2.428   2.536  11.989 -0.5823 -2.1261 -0.4560
  731MPD2    H310809   2.237   2.541  12.158 -0.2873  1.0554 -0.7584
  731MPD2     N10810   2.530   2.464  12.503  0.2330 -0.0120  0.4192
  731MPD2    H510811   2.629   2.449  12.518  0.1171 -1.4420 -0.2205
  731MPD2    N110812   2.678   2.506  12.050  0.0132  0.2073  0.2392
  731MPD2    H710813   2.653   2.510  11.951  0.5897 -1.0699  0.0358
  732TMC3    C110814   2.899   2.477  11.970 -0.1323 -0.1081 -0.4181
  732TMC3    C210815   2.849   2.394  11.869  0.4808  0.2239  0.2951
  732TMC3    C310816   2.929   2.357  11.768 -0.5340  0.0349  0.7276
  732TMC3    C410817   3.026   2.531  11.964  0.1319  0.1160  0.3854
  732TMC3    C510818   3.099   2.505  11.848  0.1853 -0.3990  0.2362
  732TMC3    C610819   3.052   2.419  11.753  0.5091 -0.5944  0.3762
  732TMC3     C10820   2.807   2.512  12.079 -0.0897  0.4209  0.1711
  732TMC3     O10821   2.868   2.554  12.175 -0.2967  0.1065 -0.0306
  732TMC3     H10822   2.750   2.351  11.883  0.3830  0.1257 -0.6650
  732TMC3    H110823   3.055   2.601  12.042 -1.0052  3.0998 -1.8946
  732TMC3    H210824   3.102   2.408  11.657 -0.3737 -0.1092 -0.1351
  732TMC3    C710825   3.184   2.612  11.798 -0.2596 -0.3070  0.0622
  732TMC3    C810826   2.882   2.279  11.654  0.1726 -0.4464  0.1971
  732TMC3    O110827   3.260   2.574  11.715 -0.3527 -0.0218  0.0390
  732TMC3    O210828   2.960   2.249  11.568 -0.3239 -0.6220  0.3490
  733TMC3    C110829   3.063   1.140  12.592 -0.5456 -0.4790  0.5425
  733TMC3    C210830   3.164   1.175  12.677  0.2215  0.1487  1.0636
  733TMC3    C310831   3.248   1.272  12.630 -0.0159 -0.1438 -0.6093
  733TMC3    C410832   3.034   1.212  12.479 -0.1956  0.4032  0.0326
  733TMC3    C510833   3.129   1.291  12.432 -0.0885  0.4694  0.7695
  733TMC3    C610834   3.238   1.335  12.508  0.7539 -0.7670 -0.2117
  733TMC3     C10835   2.959   1.050  12.633  0.2094 -0.0617  0.1780
  733TMC3     O10836   2.855   1.058  12.570 -0.7238 -0.3968  0.3811
  733TMC3     H10837   3.183   1.152  12.781  0.2810  0.8976  1.2201
  733TMC3    H110838   2.952   1.181  12.416  1.0194 -0.8729 -0.9168
  733TMC3    H210839   3.323   1.391  12.471  2.9499 -3.3928  0.8416
  733TMC3    C710840   3.086   1.377  12.318  0.4701  0.1420 -0.4297
  733TMC3    C810841   3.347   1.327  12.725 -0.3162  0.7022 -0.1510
  733TMC3    O110842   2.970   1.369  12.275  0.4105  1.4677  0.3258
  733TMC3    O210843   3.385   1.242  12.804 -0.6089 -0.1163  0.1141
  734MPD2     C10844   1.534   3.351  12.267 -0.4094  0.1391  0.0739
  734MPD2    C110845   1.402   3.347  12.253  0.1634  0.1951 -0.1259
  734MPD2    C210846   1.349   3.382  12.138  0.6807 -0.3365 -0.0417
  734MPD2    C310847   1.426   3.427  12.036  0.8318 -0.6525 -0.1092
  734MPD2    C410848   1.562   3.419  12.050 -0.3306  0.4574 -0.8537
  734MPD2    C510849   1.615   3.394  12.171  0.2974  0.3655  1.1509
  734MPD2     H10850   1.241   3.387  12.131  0.8670  1.8890 -1.2278
  734MPD2    H110851   1.617   3.454  11.964  0.5019  2.3330  0.4560
  734MPD2    H210852   1.573   3.316  12.363 -0.3263 -1.3853 -0.5126
  734MPD2    H310853   1.722   3.383  12.187  0.3894  0.0352  0.3217
  734MPD2     N10854   1.369   3.447  11.911 -0.0146  0.5808 -0.3221
  734MPD2    H510855   1.269   3.463  11.911  0.1032  1.3126 -1.4885
  734MPD2    N110856   1.327   3.302  12.359  0.5841 -0.1351 -0.0252
  734MPD2    H710857   1.380   3.270  12.439 -0.6095  1.4743  1.4256
  735TMC3    C110858   1.129   3.226  12.471  0.0938 -0.0936  0.5094
  735TMC3    C210859   0.996   3.216  12.452  0.0375  0.2876 -0.2507
  735TMC3    C310860   0.940   3.091  12.440 -0.3097 -0.3043  0.1979
  735TMC3    C410861   1.203   3.112  12.499 -0.5829 -0.1111  0.6833
  735TMC3    C510862   1.140   2.991  12.486  0.0114 -0.7816  0.4612
  735TMC3    C610863   1.009   2.978  12.457  0.4095  0.0532 -0.5612
  735TMC3     C10864   1.189   3.297  12.361  0.7742  0.4853  0.8169
  735TMC3     O10865   1.103   3.333  12.280  0.7443 -0.6454 -0.3347
  735TMC3     H10866   0.933   3.304  12.459 -1.5638 -0.8920  0.1718
  735TMC3    H110867   1.311   3.106  12.500 -0.4936  1.5888  1.1472
  735TMC3    H210868   0.986   2.886  12.403 -1.4976 -2.2283  4.1444
  735TMC3    C710869   1.235   2.917  12.404  0.6801  0.0683 -0.5915
  735TMC3    C810870   0.850   3.088  12.325  0.0820 -0.3897 -0.2547
  735TMC3    O110871   1.248   2.949  12.288 -0.0547 -0.7654  0.0988
  735TMC3    O210872   0.759   3.006  12.331 -0.0394  0.2409  0.2023
  736MPD2     C10873   1.414   2.617  12.522 -0.0643  0.1839  0.8285
  736MPD2    C110874   1.380   2.718  12.436 -0.0738  0.2967 -0.1812
  736MPD2    C210875   1.445   2.719  12.311 -0.4589  0.0820 -0.6044
  736MPD2    C310876   1.537   2.615  12.279  0.3716  0.1996  0.4159
  736MPD2    C410877   1.579   2.526  12.369  0.2025  0.8415 -0.7842
  736MPD2    C510878   1.511   2.525  12.491  0.5675  0.4357 -0.1613
  736MPD2     H10879   1.421   2.795  12.238 -0.0250 -0.4092 -1.2518
  736MPD2    H110880   1.645   2.446  12.340 -1.0714  0.0755 -1.5917
  736MPD2    H210881   1.369   2.616  12.621 -2.0393  1.5962 -0.0820
  736MPD2    H310882   1.550   2.452  12.561 -2.4656  1.4639  2.6078
  736MPD2     N10883   1.604   2.613  12.154 -0.3148  0.6525 -0.0646
  736MPD2    H510884   1.645   2.524  12.127 -0.0393  0.5132  0.8139
  736MPD2    N110885   1.288   2.813  12.476 -0.2688 -0.4884  0.1001
  736MPD2    H710886   1.267   2.811  12.575  1.4287 -1.3026  0.4404
  737TMC3    C110887   1.688   2.699  11.940 -0.3877  0.1183  0.4156
  737TMC3    C210888   1.735   2.805  11.865  0.9271  0.0059  1.1049
  737TMC3    C310889   1.757   2.791  11.734 -0.5721 -0.0945  0.5110
  737TMC3    C410890   1.661   2.581  11.884  0.0949 -0.2697 -0.0713
  737TMC3    C510891   1.697   2.575  11.752  0.3759 -0.0498  0.2172
  737TMC3    C610892   1.746   2.675  11.668 -0.3593 -0.0489 -0.4705
  737TMC3     C10893   1.638   2.728  12.082 -0.3741 -0.3306  0.1119
  737TMC3     O10894   1.626   2.845  12.121  0.4641  0.0242 -0.0316
  737TMC3     H10895   1.740   2.901  11.916  1.0256  0.8677 -0.5241
  737TMC3    H110896   1.618   2.500  11.942 -1.4166  0.0581 -0.7589
  737TMC3    H210897   1.780   2.657  11.567 -1.1786  0.6058 -0.8704
  737TMC3    C710898   1.676   2.439  11.695  0.1543  0.1170  0.1763
  737TMC3    C810899   1.761   2.914  11.658 -0.1150  0.0278  0.4131
  737TMC3    O110900   1.599   2.362  11.749  0.1415  0.1883  0.2271
  737TMC3    O210901   1.827   3.002  11.703  0.3938 -0.4603  0.0478
  738MPD2     C10902   1.052   1.749  14.434 -0.0796  0.2803 -0.1725
  738MPD2    C110903   1.059   1.781  14.572  0.1363 -0.0670  0.0082
  738MPD2    C210904   1.139   1.888  14.613  0.7920  0.3434  0.2564
  738MPD2    C310905   1.203   1.970  14.516 -0.2077 -0.5646  0.8418
  738MPD2    C410906   1.197   1.936  14.381 -0.4698  1.0562  0.0368
  738MPD2    C510907   1.129   1.820  14.345 -0.3621  0.4580  1.1081
  738MPD2     H10908   1.139   1.911  14.719  1.7726  1.2882  0.0405
  738MPD2    H110909   1.266   1.992  14.319 -0.1554 -0.0306 -0.5882
  738MPD2    H210910   0.985   1.667  14.410  0.1801 -0.2340  0.8811
  738MPD2    H310911   1.124   1.784  14.242  2.2977  0.8991  0.8254
  738MPD2     N10912   1.282   2.082  14.548 -0.2947 -0.5696 -1.3805
  738MPD2    H510913   1.337   2.122  14.474  3.5652 -1.8654  0.8039
  738MPD2    N110914   0.973   1.709  14.659  0.0694 -0.2836 -0.3485
  738MPD2    H710915   0.905   1.645  14.620 -0.6999  0.5320 -0.3575
  739TMC3    C110916   1.404   2.231  14.684  0.0693  0.5622  0.2173
  739TMC3    C210917   1.431   2.294  14.566  0.3287 -0.0253  0.2033
  739TMC3    C310918   1.508   2.405  14.565 -0.4827  0.3245 -0.0307
  739TMC3    C410919   1.457   2.273  14.808 -0.4700  0.0824  0.6340
  739TMC3    C510920   1.534   2.386  14.802  0.2044 -1.2309 -0.4336
  739TMC3    C610921   1.567   2.444  14.679  0.4813 -0.4249 -0.4503
  739TMC3     C10922   1.312   2.123  14.673 -0.0437 -0.3004  0.2973
  739TMC3     O10923   1.264   2.091  14.782  0.4228  0.1316  0.2468
  739TMC3     H10924   1.380   2.277  14.472  1.7241 -0.7787 -0.4204
  739TMC3    H110925   1.434   2.222  14.901 -2.8685  1.7512  0.9852
  739TMC3    H210926   1.633   2.530  14.673  2.1774 -1.7666 -1.2340
  739TMC3    C710927   1.595   2.447  14.919  0.5166 -0.2113 -0.2067
  739TMC3    C810928   1.563   2.443  14.436 -0.6864  0.3523  0.4367
  739TMC3    O110929   1.619   2.567  14.917 -0.0345  0.1270  0.6664
  739TMC3    O210930   1.486   2.431  14.343  0.6924  0.0195  0.4147
  740TMC3    C110931   2.096   3.304  14.200 -0.2679 -0.5795  0.1368
  740TMC3    C210932   2.182   3.256  14.296  0.0118 -0.8383  0.0711
  740TMC3    C310933   2.311   3.224  14.249 -0.0902  0.3100 -0.5079
  740TMC3    C410934   2.132   3.315  14.062  0.6148 -0.5700 -0.3095
  740TMC3    C510935   2.255   3.270  14.024 -0.5470  1.1884  0.4718
  740TMC3    C610936   2.347   3.228  14.115 -0.4846 -0.2123 -0.0916
  740TMC3     C10937   1.959   3.353  14.242  0.7477 -0.1013 -0.0952
  740TMC3     O10938   1.926   3.457  14.185 -0.4209  0.1071  0.0150
  740TMC3     H10939   2.152   3.254  14.400  1.2387 -2.0319  0.3920
  740TMC3    H110940   2.061   3.344  13.985  0.4201  1.3990  0.6080
  740TMC3    H210941   2.439   3.176  14.090 -1.0824 -1.0169 -0.6318
  740TMC3    C710942   2.266   3.217  13.891 -0.6853  0.1115  0.3818
  740TMC3    C810943   2.381   3.145  14.343 -0.0435  0.3668  0.0348
  740TMC3    O110944   2.326   3.108  13.884  0.4200  0.5697 -0.5930
  740TMC3    O210945   2.335   3.142  14.456  0.6933  0.1062  0.1559
  741TMC3    C110946   1.414   2.771  13.985  0.1411 -0.1497 -0.1871
  741TMC3    C210947   1.319   2.687  14.029 -0.6895 -0.2979 -0.2082
  741TMC3    C310948   1.314   2.675  14.164  0.2804 -0.1865 -0.0540
  741TMC3    C410949   1.498   2.838  14.070  0.0719  0.5512 -0.1684
  741TMC3    C510950   1.495   2.811  14.208 -0.6407 -0.3403 -0.4658
  741TMC3    C610951   1.397   2.732  14.259 -0.0018 -0.6000 -0.2639
  741TMC3     C10952   1.443   2.766  13.847 -1.4786  0.0956 -0.1281
  741TMC3     O10953   1.366   2.712  13.762  0.0190 -0.5462 -0.1171
  741TMC3     H10954   1.256   2.624  13.966 -2.2196 -0.1694  1.2057
  741TMC3    H110955   1.563   2.920  14.040  2.5602 -1.9998 -1.7317
  741TMC3    H210956   1.382   2.710  14.364 -0.0039 -1.7037 -0.4948
  741TMC3    C710957   1.604   2.861  14.295  0.4172 -0.4888  0.7782
  741TMC3    C810958   1.228   2.561  14.205 -0.6022 -0.2203 -0.0706
  741TMC3    O110959   1.674   2.947  14.239  0.4110  0.0535 -0.0926
  741TMC3    O210960   1.127   2.593  14.257  0.5332  0.0323 -0.1030
  742TMC3    C110961   1.455   1.530  15.269 -0.1924 -0.7394 -0.1116
  742TMC3    C210962   1.346   1.495  15.191 -0.8099 -0.1219 -0.0529
  742TMC3    C310963   1.380   1.445  15.064 -0.2368  0.2264 -0.2552
  742TMC3    C410964   1.591   1.527  15.231 -0.4166  0.1433  0.5829
  742TMC3    C510965   1.610   1.472  15.102 -0.4933 -0.3065 -0.0410
  742TMC3    C610966   1.510   1.444  15.013  0.4279  0.4440 -0.1193
  742TMC3     C10967   1.423   1.566  15.408 -0.1994  0.4497 -0.8726
  742TMC3     O10968   1.312   1.613  15.427 -0.2928  0.5464 -0.3003
  742TMC3     H10969   1.251   1.493  15.244 -0.5227 -0.4701  0.4446
  742TMC3    H110970   1.665   1.530  15.310 -0.7845 -0.0854  0.9384
  742TMC3    H210971   1.533   1.386  14.925  5.2639 -0.5483  1.8162
  742TMC3    C710972   1.723   1.393  15.083 -0.1197  0.2906  0.7149
  742TMC3    C810973   1.276   1.363  15.001  0.3373  0.5777  0.0711
  742TMC3    O110974   1.721   1.302  15.000 -0.3797  0.0474 -0.5211
  742TMC3    O210975   1.307   1.282  14.917  0.1080 -0.0607 -0.0061
  743MPD2     C10976   2.782   0.790   0.354 -0.0604 -0.2579  0.0122
  743MPD2    C110977   2.819   0.859   0.468 -0.4329 -0.0397  0.6986
  743MPD2    C210978   2.864   0.788   0.581  0.5678  0.6977  0.5872
  743MPD2    C310979   2.859   0.651   0.578  0.1072 -0.6035 -0.2716
  743MPD2    C410980   2.809   0.588   0.463 -0.1338 -0.2851  0.4717
  743MPD2    C510981   2.780   0.658   0.349  0.0779  0.1926 -0.6188
  743MPD2     H10982   2.909   0.839   0.666  0.1541 -2.3524  2.6060
  743MPD2    H110983   2.808   0.481   0.451 -0.5565 -0.4220  1.7969
  743MPD2    H210984   2.756   0.854   0.271  0.1433 -1.7349 -1.1816
  743MPD2    H310985   2.743   0.608   0.260 -0.6078  0.6437 -0.5925
  743MPD2     N10986   2.926   0.580   0.683  0.7630  0.4286  0.1504
  743MPD2    H510987   2.980   0.642   0.741 -0.7559  0.2633  1.7274
  743MPD2    N110988   2.822   0.999   0.467 -0.0269 -0.1937 -0.0556
  743MPD2    H710989   2.806   1.048   0.379  1.3775  0.9820  0.3475
  744TMC3    C110990   2.806   1.224   0.532  0.6181 -0.2587  0.3516
  744TMC3    C210991   2.789   1.310   0.636 -0.1585  0.1718  0.1183
  744TMC3    C310992   2.813   1.444   0.617  0.5855  0.1703  0.7133
  744TMC3    C410993   2.838   1.265   0.409 -0.7380  0.1370  0.4209
  744TMC3    C510994   2.860   1.396   0.387  0.3686 -0.2595  0.3798
  744TMC3    C610995   2.844   1.489   0.493  0.9045 -0.0382  0.5085
  744TMC3     C10996   2.834   1.087   0.567 -0.4043 -0.2206  0.3025
  744TMC3     O10997   2.848   1.070   0.687  0.1566  1.0179 -0.0371
  744TMC3     H10998   2.754   1.276   0.733  2.7679 -1.6905  0.5196
  744TMC3    H110999   2.871   1.194   0.334 -0.4014 -0.1439  0.8353
  744TMC3    H211000   2.866   1.594   0.480  2.9442 -0.2214  2.4440
  744TMC3    C711001   2.920   1.447   0.261 -0.0688  0.5244  0.2727
  744TMC3    C811002   2.775   1.540   0.723 -0.4651  0.0896 -0.1535
  744TMC3    O111003   2.952   1.565   0.247  0.6780 -0.0292  0.8490
  744TMC3    O211004   2.796   1.653   0.684 -0.0996 -0.1816 -0.3599
  745TMC3    C111005   1.710   0.714  13.804 -0.3116 -0.1374  0.3244
  745TMC3    C211006   1.604   0.730  13.895  0.6817 -0.4898  0.0488
  745TMC3    C311007   1.485   0.779  13.853 -0.0865  0.5272  0.2372
  745TMC3    C411008   1.685   0.735  13.668 -0.4950  0.4932  0.3045
  745TMC3    C511009   1.560   0.771  13.631  0.3259  0.2788  0.4612
  745TMC3    C611010   1.462   0.799  13.717 -0.9178  0.0200  0.2878
  745TMC3     C11011   1.802   0.809  13.862 -0.5782  0.6135 -0.8902
  745TMC3     O11012   1.878   0.764  13.947  0.2653  0.1041  0.2256
  745TMC3     H11013   1.617   0.722  14.002 -2.4566  2.0452  0.6189
  745TMC3    H111014   1.754   0.695  13.594 -2.6055  0.8914 -1.8794
  745TMC3    H211015   1.367   0.836  13.679 -1.9786  0.7586  3.7011
  745TMC3    C711016   1.520   0.784  13.489 -0.2507 -0.1813 -0.1744
  745TMC3    C811017   1.432   0.877  13.949 -0.5332  0.4118 -0.1664
  745TMC3    O111018   1.401   0.772  13.456  0.0469 -0.1645 -0.0185
  745TMC3    O211019   1.406   0.828  14.060  0.0141 -0.1885  0.6558
  746TMC3    C111020   4.098   2.769  11.439  0.8310  0.8853  1.2071
  746TMC3    C211021   4.226   2.735  11.476  0.2928 -0.3928 -0.3968
  746TMC3    C311022   4.249   2.604  11.490 -0.0233 -0.5676 -0.2021
  746TMC3    C411023   4.000   2.682  11.409  0.5200 -0.5150  0.2647
  746TMC3    C511024   4.022   2.554  11.443 -0.3838  0.5969  0.1711
  746TMC3    C611025   4.150   2.514  11.474  0.1718  0.0265 -0.0378
  746TMC3     C11026   4.068   2.913  11.454 -0.1597  0.1444  0.0034
  746TMC3     O11027   4.162   2.984  11.480 -0.0483  0.4077 -0.3190
  746TMC3     H11028   4.308   2.797  11.512  1.2612 -1.9649  0.1227
  746TMC3    H111029   3.903   2.711  11.368 -0.5065 -2.6476  1.2178
  746TMC3    H211030   4.182   2.411  11.470  1.5832  0.5357 -2.3457
  746TMC3    C711031   3.953   2.456  11.357  0.4662  0.4468  1.0660
  746TMC3    C811032   4.380   2.566  11.440 -0.5076  0.4306 -0.0374
  746TMC3    O111033   3.927   2.484  11.241  0.0872 -0.2591 -0.7444
  746TMC3    O211034   4.428   2.458  11.459 -0.1386  0.2270  0.2543
  747TMC3    C111035   2.309   2.051  10.943 -0.1875 -0.2935  0.0305
  747TMC3    C211036   2.193   2.018  10.998 -0.1843  0.1802  0.0040
  747TMC3    C311037   2.137   2.099  11.092 -0.3167  0.0126  0.3922
  747TMC3    C411038   2.376   2.163  10.980 -0.1410 -0.8375 -0.2006
  747TMC3    C511039   2.326   2.244  11.074 -0.1114  0.0107 -0.0396
  747TMC3    C611040   2.204   2.213  11.133 -0.1025  0.3574  0.1946
  747TMC3     C11041   2.376   1.949  10.865 -0.1663 -0.2675  0.1194
  747TMC3     O11042   2.496   1.934  10.885 -0.0594 -0.0547 -0.2337
  747TMC3     H11043   2.128   1.941  10.956 -0.4254  0.1413  0.4500
  747TMC3    H111044   2.459   2.194  10.916 -0.7424 -1.6389 -1.3606
  747TMC3    H211045   2.167   2.279  11.210  1.6414  1.5090  0.0527
  747TMC3    C711046   2.402   2.352  11.125 -0.0815 -0.5048 -0.1800
  747TMC3    C811047   2.018   2.059  11.162 -0.2432  0.6006  0.0576
  747TMC3    O111048   2.329   2.435  11.178 -0.0905  0.0575 -0.0145
  747TMC3    O211049   1.971   1.945  11.151 -0.0686 -0.4359 -0.2598
  748MPD2     C11050   2.584   3.090   1.791  0.3216  0.3469  0.0584
  748MPD2    C111051   2.663   2.975   1.797  0.2334 -0.0983 -0.1613
  748MPD2    C211052   2.734   2.947   1.689 -0.2977 -0.3474 -0.0997
  748MPD2    C311053   2.744   3.021   1.574 -0.3812  0.0290  0.6591
  748MPD2    C411054   2.675   3.143   1.569  0.0146 -0.0575  0.0051
  748MPD2    C511055   2.599   3.176   1.685 -0.8695  0.4569  0.0740
  748MPD2     H11056   2.804   2.865   1.696  0.0222 -0.1314 -0.8303
  748MPD2    H111057   2.670   3.196   1.475 -1.2042 -0.1436  0.0285
  748MPD2    H211058   2.516   3.116   1.871 -0.8791 -0.5973 -0.6574
  748MPD2    H311059   2.533   3.261   1.682 -0.4136  0.7839 -0.7218
  748MPD2     N11060   2.827   2.974   1.475 -0.4082 -0.5128 -0.3342
  748MPD2    H511061   2.884   2.891   1.486  1.9982  1.2893  0.8959
  748MPD2    N111062   2.657   2.899   1.913 -0.4228  0.2490  0.7289
  748MPD2    H711063   2.594   2.938   1.982 -0.3552  0.7984  0.4791
  749TMC3    C111064   2.947   2.951   1.270 -0.6446  0.1221 -0.0241
  749TMC3    C211065   2.906   2.820   1.262  0.9970  0.0777  0.3512
  749TMC3    C311066   2.938   2.757   1.152  0.2125 -0.8671 -0.0269
  749TMC3    C411067   3.013   3.014   1.169  0.1479 -0.2037 -0.0772
  749TMC3    C511068   3.057   2.940   1.062 -0.2343  0.2935 -0.0888
  749TMC3    C611069   3.007   2.808   1.047  0.2355  0.1892  0.5582
  749TMC3     C11070   2.859   3.034   1.356 -0.5437 -0.6948  0.2230
  749TMC3     O11071   2.856   3.152   1.330  0.6515  0.4497  0.0360
  749TMC3     H11072   2.859   2.760   1.340  1.9690  0.0772  0.9377
  749TMC3    H111073   3.048   3.115   1.187  1.8453 -0.5222 -1.5650
  749TMC3    H211074   3.039   2.741   0.967 -1.8499  1.0856 -1.0169
  749TMC3    C711075   3.134   2.994   0.959  0.5112 -0.1391  0.1920
  749TMC3    C811076   2.910   2.615   1.153  0.5339  0.1942 -0.7374
  749TMC3    O111077   3.159   3.113   0.969 -0.0262 -0.1463 -0.0818
  749TMC3    O211078   2.811   2.581   1.206  0.5369 -0.0716  0.5016
  750MPD2     C11079   4.348   4.421  10.448  0.4641  0.2692 -0.3117
  750MPD2    C111080   4.272   4.407  10.559 -0.3388 -0.1650  0.1007
  750MPD2    C211081   4.211   4.285  10.580 -0.4198 -1.0350 -0.0094
  750MPD2    C311082   4.232   4.178  10.492  0.1871 -0.4114  0.5935
  750MPD2    C411083   4.310   4.197  10.379 -0.2549  0.0324 -0.8231
  750MPD2    C511084   4.369   4.321  10.356  0.1270  0.0265 -0.6768
  750MPD2     H11085   4.170   4.257  10.676 -0.0610 -0.0396  0.4261
  750MPD2    H111086   4.343   4.116  10.315 -2.0396 -2.7443  1.7645
  750MPD2    H211087   4.377   4.523  10.425  0.2563  0.3651 -0.1489
  750MPD2    H311088   4.431   4.327  10.267  1.9589 -0.6737  0.5490
  750MPD2     N11089   4.194   4.044  10.532  0.3291  0.3701  0.2104
  750MPD2    H511090   4.235   3.972  10.474 -1.5187  0.5719 -1.3457
  750MPD2    N111091   4.249   4.517  10.647 -0.2807 -0.0135 -0.3866
  750MPD2    H711092   4.287   4.607  10.619 -1.3200  0.6478  0.3255
  751TMC3    C111093   4.092   3.859  10.652  0.0669  0.1508 -0.2480
  751TMC3    C211094   3.986   3.816  10.732 -0.5370  0.1271  0.0376
  751TMC3    C311095   3.997   3.692  10.771  0.2631 -0.3191 -0.1570
  751TMC3    C411096   4.198   3.776  10.619 -0.2353 -0.4422 -0.5128
  751TMC3    C511097   4.199   3.648  10.657 -0.2996  0.7732  0.0009
  751TMC3    C611098   4.097   3.603  10.740  0.7305  0.5157  0.1386
  751TMC3     C11099   4.118   4.006  10.639  0.1092 -0.3749  0.7272
  751TMC3     O11100   4.043   4.079  10.708  0.0282 -0.6985  0.4000
  751TMC3     H11101   3.915   3.890  10.769 -0.4119  0.6234 -0.7210
  751TMC3    H111102   4.288   3.814  10.572  1.3810 -1.8721  1.4125
  751TMC3    H211103   4.089   3.495  10.752 -0.5188  0.8097  2.1017
  751TMC3    C711104   4.327   3.585  10.676  0.2053 -0.6867 -0.0258
  751TMC3    C811105   3.878   3.626  10.816  0.1015 -0.5087 -0.6902
  751TMC3    O111106   4.408   3.605  10.591 -0.0179 -0.9893 -0.0938
  751TMC3    O211107   3.876   3.505  10.811  0.4881  0.0652 -0.2183
  752TMC3    C111108   2.880   4.617  17.017  0.6231 -0.0610 -0.0468
  752TMC3    C211109   2.764   4.559  17.060  0.5379  0.1787 -0.1241
  752TMC3    C311110   2.729   4.565  17.189  0.3162  0.1470  0.5826
  752TMC3    C411111   2.958   4.683  17.110  0.4915 -0.6694 -0.2315
  752TMC3    C511112   2.915   4.691  17.239 -0.2534  0.5219 -0.6357
  752TMC3    C611113   2.807   4.629  17.285 -1.1823  0.6010 -0.0725
  752TMC3     C11114   2.913   4.632  16.879  0.3608  1.3761  0.0086
  752TMC3     O11115   2.951   0.025  16.854  0.0050  0.3125  0.0233
  752TMC3     H11116   2.701   4.518  16.982 -1.2920  2.5305  0.0918
  752TMC3    H111117   3.051   0.004  17.076  0.2124  0.8719  0.9620
  752TMC3    H211118   2.773   4.622  17.388  4.1562 -0.8914  1.5861
  752TMC3    C711119   3.009   4.717  17.347  0.4948 -0.4328 -0.5230
  752TMC3    C811120   2.590   4.513  17.217 -0.5591  0.1862 -0.4570
  752TMC3    O111121   3.002   4.664  17.457 -0.4562  0.2205  0.5933
  752TMC3    O211122   2.528   4.479  17.114 -0.1914 -0.2788  0.5900
  753TMC3    C111123   4.490   0.796  13.453 -0.4345 -0.2943 -0.2226
  753TMC3    C211124   4.422   0.848  13.562 -0.6936  0.2628  0.4809
  753TMC3    C311125   4.298   0.795  13.594  0.1566  0.0242  0.3514
  753TMC3    C411126   4.434   0.708  13.372 -0.1702  0.0237 -0.1195
  753TMC3    C511127   4.312   0.665  13.406 -0.2958  0.0084  0.7763
  753TMC3    C611128   4.236   0.708  13.508 -0.1180 -0.2661  0.2671
  753TMC3     C11129   4.614   0.862  13.414  0.3522  0.6151 -0.1393
  753TMC3     O11130   4.643   0.960  13.476 -0.0682  0.1487 -0.2134
  753TMC3     H11131   4.466   0.930  13.618  0.9072 -0.5075  0.3490
  753TMC3    H111132   4.472   0.660  13.282  1.5052  1.2733 -0.0887
  753TMC3    H211133   4.154   0.646  13.542 -2.0587  1.9459 -0.3449
  753TMC3    C711134   4.261   0.555  13.328 -0.6024  0.5770 -0.7503
  753TMC3    C811135   4.248   0.813  13.730  0.0939 -0.1496  0.4535
  753TMC3    O111136   4.344   0.480  13.273  0.3696  0.6914  0.4691
  753TMC3    O211137   4.140   0.772  13.758 -0.3547 -0.1395  0.2413
  754MPD2     C11138   3.278   3.830  12.545 -0.4504 -0.3109  0.0753
  754MPD2    C111139   3.257   3.915  12.649  0.1501 -0.2544 -0.1104
  754MPD2    C211140   3.138   3.971  12.673  0.2868  0.2278  0.2854
  754MPD2    C311141   3.038   3.955  12.585 -0.4452  0.4566 -0.3812
  754MPD2    C411142   3.062   3.870  12.477  0.3369  0.0427  0.0166
  754MPD2    C511143   3.181   3.816  12.453 -0.7714  0.2367 -0.0432
  754MPD2     H11144   3.126   4.030  12.764  2.2066  1.0745 -0.0229
  754MPD2    H111145   2.986   3.842  12.405 -0.1085 -2.0128  1.2841
  754MPD2    H211146   3.377   3.796  12.518 -0.9697 -0.9935 -1.0218
  754MPD2    H311147   3.202   3.750  12.370  1.8467 -0.6706  1.3208
  754MPD2     N11148   2.897   3.983  12.604 -0.0360 -0.1353 -0.1196
  754MPD2    H511149   2.824   3.932  12.556  0.9719 -1.1080 -0.6267
  754MPD2    N111150   3.364   3.930  12.742  0.0876  0.1791 -0.3625
  754MPD2    H711151   3.441   3.865  12.734 -1.7502 -1.8993 -1.2622
  755MPD2     C11152   2.281   4.545  13.151 -0.5618  0.0101  0.3463
  755MPD2    C111153   2.383   4.493  13.220 -0.5154 -0.5661  0.2378
  755MPD2    C211154   2.449   4.384  13.166  0.0820 -0.5571 -0.4830
  755MPD2    C311155   2.420   4.342  13.039  0.1231 -1.3489  0.4696
  755MPD2    C411156   2.316   4.399  12.970 -0.8912 -0.4858  0.1871
  755MPD2    C511157   2.255   4.501  13.026  0.1602 -0.1300 -0.5620
  755MPD2     H11158   2.530   4.342  13.225 -0.1298  0.2381  0.3623
  755MPD2    H111159   2.298   4.376  12.865  0.8310 -0.9280 -0.0082
  755MPD2    H211160   2.226   4.633  13.184 -1.7686 -0.4955 -0.2881
  755MPD2    H311161   2.191   4.556  12.957 -1.1187 -0.5327  0.3095
  755MPD2     N11162   2.491   4.237  12.982 -0.1457  0.4646 -0.2620
  755MPD2    H511163   2.473   4.213  12.884  0.8767 -0.5883 -0.1947
  755MPD2    N111164   2.420   4.544  13.345 -0.6311 -0.5192 -0.1599
  755MPD2    H711165   2.489   4.489  13.396 -0.7913 -1.1892 -0.6692
  756MPD2     C11166   4.481   4.645   8.827  0.0986 -0.7324  0.6328
  756MPD2    C111167   4.460   4.703   8.951 -0.4589 -0.1221  0.5307
  756MPD2    C211168   4.336   4.677   9.019  0.2686 -0.4845  0.2271
  756MPD2    C311169   4.237   4.604   8.958 -1.0868  0.0202  0.6364
  756MPD2    C411170   4.264   4.547   8.834 -0.4063  0.5231 -0.0876
  756MPD2    C511171   4.383   4.569   8.775 -0.5067 -0.2110  0.3064
  756MPD2     H11172   4.316   4.712   9.120 -0.4325  0.3393 -0.1949
  756MPD2    H111173   4.191   4.505   8.766  1.1623  0.6897 -1.8576
  756MPD2    H211174   4.573   4.657   8.772 -0.6112 -1.3518 -0.6896
  756MPD2    H311175   4.407   4.525   8.679 -0.6520 -2.1602  1.1648
  756MPD2     N11176   4.112   4.590   9.023 -0.0023  0.4563  0.6296
  756MPD2    H511177   4.110   4.618   9.120 -1.4121 -0.1802  0.7817
  756MPD2    N111178   4.547   0.077   9.010 -0.2679  0.1142 -0.0386
  756MPD2    H711179   4.510   0.121   9.093  1.3510  1.3922  0.0054
  757MPD2     C11180   3.108   4.157   8.952  0.0139  0.2249  0.2717
  757MPD2    C111181   3.193   4.055   8.996  0.2500  0.4040  0.3613
  757MPD2    C211182   3.328   4.085   9.010  0.0680  0.6647 -0.5525
  757MPD2    C311183   3.370   4.211   8.985  0.0063  0.0242  0.9276
  757MPD2    C411184   3.284   4.314   8.944  0.3345  0.4629  0.1702
  757MPD2    C511185   3.154   4.284   8.929 -0.2522 -0.5326 -0.0708
  757MPD2     H11186   3.397   4.015   9.055 -0.4735  0.2866 -0.3014
  757MPD2    H111187   3.311   4.417   8.920  1.9988  0.0667  0.3799
  757MPD2    H211188   3.003   4.134   8.937 -0.6311  1.6739  2.5881
  757MPD2    H311189   3.082   4.363   8.912  0.3557  0.1796  0.7072
  757MPD2     N11190   3.504   4.240   9.013  0.1500 -0.3978 -0.1824
  757MPD2    H511191   3.566   4.163   9.037  0.5042  0.6282  2.2947
  757MPD2    N111192   3.140   3.925   9.016 -0.1087 -0.0736  0.0862
  757MPD2    H711193   3.039   3.920   9.012  0.0304 -2.6085  0.1672
  758MPD2     C11194   3.807   4.001  15.636 -0.6877  0.1170 -0.1939
  758MPD2    C111195   3.925   4.016  15.705  0.0302 -0.7222 -0.7340
  758MPD2    C211196   3.914   4.051  15.839 -0.0448 -1.1209 -0.6973
  758MPD2    C311197   3.795   4.073  15.902 -0.2959 -0.0239  0.9392
  758MPD2    C411198   3.686   4.065  15.827  0.1738 -0.1015  0.5353
  758MPD2    C511199   3.688   4.025  15.692  0.1792  0.3976 -0.4131
  758MPD2     H11200   4.007   4.065  15.893 -1.9277  0.9523  2.0100
  758MPD2    H111201   3.585   4.082  15.863  0.0268  0.3814 -0.0947
  758MPD2    H211202   3.808   3.965  15.534 -1.1123 -2.8123  0.8274
  758MPD2    H311203   3.595   4.013  15.637  0.8788  0.6605 -1.6369
  758MPD2     N11204   3.780   4.109  16.039 -0.3219 -0.3866  0.1878
  758MPD2    H511205   3.688   4.133  16.075 -0.3398 -1.0867  0.6126
  758MPD2    N111206   4.051   3.984  15.633  0.0386 -0.1487  0.0078
  758MPD2    H711207   4.043   3.941  15.542  0.0158 -2.3624  1.0397
  759MPD2     C11208   3.615   1.665  10.623 -0.1804 -0.3082 -0.3176
  759MPD2    C111209   3.499   1.623  10.569  0.0002  0.1805 -0.0891
  759MPD2    C211210   3.448   1.693  10.463 -0.1253  0.1560  0.6509
  759MPD2    C311211   3.527   1.788  10.399  0.2997 -0.3507 -0.3665
  759MPD2    C411212   3.644   1.829  10.454  0.7252  0.1850 -0.9720
  759MPD2    C511213   3.687   1.767  10.567  1.1398 -0.0818 -0.0734
  759MPD2     H11214   3.345   1.666  10.443  0.4291 -0.5308 -1.2523
  759MPD2    H111215   3.700   1.915  10.418  3.6601 -0.7755  1.2961
  759MPD2    H211216   3.664   1.618  10.707  1.3102 -0.6197 -1.3551
  759MPD2    H311217   3.786   1.792  10.603  1.7958  1.2454 -2.7485
  759MPD2     N11218   3.477   1.851  10.285  0.9189  0.0298  0.3702
  759MPD2    H511219   3.382   1.825  10.258  0.9982 -0.5756  0.6734
  759MPD2    N111220   3.414   1.526  10.611  0.7649  0.4419  0.9814
  759MPD2    H711221   3.326   1.518  10.560  0.8132  1.3251  0.7577
  760MPD2     C11222   2.306   4.177  11.611  0.4839  0.1505 -0.5808
  760MPD2    C111223   2.427   4.193  11.672 -0.4905  0.0214 -1.0035
  760MPD2    C211224   2.460   4.111  11.786 -0.3018 -0.3788 -0.3078
  760MPD2    C311225   2.373   4.012  11.834  0.8308 -0.6017  0.3922
  760MPD2    C411226   2.256   3.998  11.765  0.3835 -0.2251  0.5888
  760MPD2    C511227   2.223   4.084  11.664 -0.0436 -0.2142 -0.3238
  760MPD2     H11228   2.556   4.126  11.835 -1.6416  0.7653  1.9920
  760MPD2    H111229   2.184   3.925  11.799 -0.9046  2.2993  3.2751
  760MPD2    H211230   2.268   4.250  11.540 -0.4142  0.2593  0.0233
  760MPD2    H311231   2.124   4.096  11.623  0.6980 -0.9837 -2.3508
  760MPD2     N11232   2.410   3.917  11.929  0.3712 -0.3850 -0.1611
  760MPD2    H511233   2.339   3.847  11.948 -1.0182  1.1297  0.2435
  760MPD2    N111234   2.530   4.283  11.639  0.0449 -0.6826  0.5102
  760MPD2    H711235   2.609   4.272  11.702  0.3481  0.6544  0.3632
  761MPD2     C11236   3.448   3.546  11.081 -0.3230  0.1345  0.2741
  761MPD2    C111237   3.513   3.468  10.983 -0.3646 -1.1519  0.9508
  761MPD2    C211238   3.617   3.528  10.923 -0.4509 -1.0631  0.0616
  761MPD2    C311239   3.666   3.661  10.939 -0.2965 -0.2262 -0.2577
  761MPD2    C411240   3.602   3.736  11.039  0.0379 -0.1969  0.3570
  761MPD2    C511241   3.495   3.678  11.104 -0.0020 -0.1639  0.2353
  761MPD2     H11242   3.672   3.466  10.853  0.3338 -0.7192  0.3772
  761MPD2    H111243   3.624   3.838  11.069 -2.5423  0.9516 -1.6987
  761MPD2    H211244   3.360   3.505  11.128 -0.4346  0.1423  0.0699
  761MPD2    H311245   3.438   3.733  11.178  3.7737  2.1685  1.3890
  761MPD2     N11246   3.785   3.709  10.881  0.9038 -0.3347 -0.4756
  761MPD2    H511247   3.829   3.792  10.920  1.7645 -0.6651 -0.7585
  761MPD2    N111248   3.466   3.339  10.960  0.3673 -0.3514 -0.2377
  761MPD2    H711249   3.387   3.310  11.015  0.2491 -0.9997 -0.7376
  762MPD2     C11250   3.839   3.249  10.513 -0.6244 -0.5280 -0.3000
  762MPD2    C111251   3.858   3.136  10.591 -1.0150  0.0997 -0.8189
  762MPD2    C211252   3.987   3.094  10.626 -0.2769  0.1086 -0.1179
  762MPD2    C311253   4.094   3.162  10.572 -0.9799 -0.0223 -0.2275
  762MPD2    C411254   4.075   3.267  10.484  0.1281  1.2812 -0.5305
  762MPD2    C511255   3.952   3.313  10.461  0.9001  0.8590 -0.1320
  762MPD2     H11256   4.005   3.014  10.696  2.0702  0.4809 -0.3158
  762MPD2    H111257   4.157   3.322  10.439 -0.0142  2.3801  0.5584
  762MPD2    H211258   3.739   3.282  10.487 -1.3419 -2.9584 -0.6701
  762MPD2    H311259   3.948   3.408  10.410 -2.9608  2.0459  2.3829
  762MPD2     N11260   4.222   3.114  10.603 -0.3020 -0.3539  0.0227
  762MPD2    H511261   4.226   3.044  10.676  2.1131 -0.5175 -0.2880
  762MPD2    N111262   3.741   3.085  10.639  0.4602  0.1470 -0.0962
  762MPD2    H711263   3.652   3.134  10.644  0.0676 -0.4003 -1.8160
  763MPD2     C11264   0.191   3.777  15.665 -0.5720 -0.7833 -0.5870
  763MPD2    C111265   0.327   3.751  15.685  0.0117 -0.5107 -0.7541
  763MPD2    C211266   0.401   3.801  15.789 -0.1917 -0.5585 -0.3448
  763MPD2    C311267   0.332   3.878  15.883 -0.0103 -0.0301 -0.0811
  763MPD2    C411268   0.192   3.883  15.868 -0.1185  0.4282  0.5898
  763MPD2    C511269   0.119   3.835  15.765  0.7311  0.4338  0.8669
  763MPD2     H11270   0.508   3.787  15.799 -0.4684 -1.5426  1.3706
  763MPD2    H111271   0.120   3.915  15.942  1.7478  1.8289  1.7962
  763MPD2    H211272   0.133   3.730  15.586 -0.6717 -0.9296 -0.4245
  763MPD2    H311273   0.012   3.849  15.758  0.9916  1.4844 -1.0749
  763MPD2     N11274   0.402   3.944  15.993  0.4758 -0.3431 -1.1275
  763MPD2    H511275   0.504   3.937  15.993  0.6778  2.7054 -1.2194
  763MPD2    N111276   0.389   3.665  15.588  0.3855  0.5318 -0.0541
  763MPD2    H711277   0.485   3.637  15.606 -0.0817 -1.9775 -1.5158
  764MPD2     C11278   3.425   0.780  17.573  0.4825 -0.0014 -0.4968
  764MPD2    C111279   3.340   0.744  17.467 -0.4653 -0.5028 -0.1650
  764MPD2    C211280   3.248   0.644  17.491 -0.0011  0.3993  0.3200
  764MPD2    C311281   3.254   0.572  17.608  0.3464 -0.0967  0.3928
  764MPD2    C411282   3.353   0.598   0.007  0.3274 -0.2545  0.2474
  764MPD2    C511283   3.432   0.708  17.692 -0.5269 -0.2419 -0.4204
  764MPD2     H11284   3.181   0.615  17.411  0.8575  1.8627 -0.9444
  764MPD2    H111285   3.367   0.542   0.098  0.0525 -0.2705  0.2783
  764MPD2    H211286   3.495   0.861  17.553  2.4151 -1.0571  2.0298
  764MPD2    H311287   3.495   0.738   0.080 -0.4117 -0.1423 -0.5443
  764MPD2     N11288   3.165   0.459  17.621 -0.3491  0.3266  0.3407
  764MPD2    H511289   3.081   0.453  17.565  0.9307  1.3008 -1.6826
  764MPD2    N111290   3.342   0.801  17.331 -0.3173 -0.0676 -0.1394
  764MPD2    H711291   3.284   0.759  17.260 -2.3867  2.2924  0.1313
  765MPD2     C11292   3.146   2.909  15.927  0.5431  0.6932 -0.1901
  765MPD2    C111293   3.209   3.015  15.865 -0.7320 -0.1267  0.5805
  765MPD2    C211294   3.346   3.000  15.839 -0.1784 -0.0392 -0.1367
  765MPD2    C311295   3.413   2.884  15.867  0.7097 -0.6572  0.0348
  765MPD2    C411296   3.344   2.775  15.923  0.4066 -0.2394  0.1678
  765MPD2    C511297   3.213   2.787  15.951 -0.0246 -0.5965 -0.9462
  765MPD2     H11298   3.400   3.087  15.803 -0.1386 -0.6937 -1.6841
  765MPD2    H111299   3.392   2.680  15.942 -3.6121 -2.0911  1.0404
  765MPD2    H211300   3.043   2.924  15.956  1.1607  1.4945  1.5998
  765MPD2    H311301   3.170   2.702  16.001 -0.3607 -0.0078 -0.2347
  765MPD2     N11302   3.555   2.880  15.833 -0.6063 -0.5523 -0.3554
  765MPD2    H511303   3.602   2.961  15.795 -0.0181 -0.4237  0.6453
  765MPD2    N111304   3.151   3.144  15.843  0.6445  0.3389  0.3000
  765MPD2    H711305   3.214   3.220  15.819  0.5445  0.8781  1.7339
  766MPD2     C11306   2.544   3.447  15.401 -0.1919 -0.3162 -0.0815
  766MPD2    C111307   2.678   3.412  15.423 -0.1193  0.2699 -0.0984
  766MPD2    C211308   2.758   3.378  15.314 -0.0928 -0.0716  0.1807
  766MPD2    C311309   2.701   3.385  15.187  0.5685 -0.5167  0.1891
  766MPD2    C411310   2.570   3.431  15.167 -0.2863  0.3466  0.2673
  766MPD2    C511311   2.495   3.462  15.271 -0.1026  0.0355  0.9826
  766MPD2     H11312   2.864   3.360  15.325  0.5097  1.5936 -2.9728
  766MPD2    H111313   2.526   3.428  15.068  0.9539  0.9444 -0.2919
  766MPD2    H211314   2.487   3.475  15.489 -0.7916  0.4605 -0.7137
  766MPD2    H311315   2.396   3.502  15.255 -0.1029  0.2344  1.4631
  766MPD2     N11316   2.776   3.366  15.069  0.5581 -0.5971 -0.2637
  766MPD2    H511317   2.736   3.419  14.993 -0.0497  0.6250  0.9186
  766MPD2    N111318   2.735   3.419  15.552  0.0209  0.0985  0.4816
  766MPD2    H711319   2.832   3.397  15.567 -0.0397  0.3719  1.2689
  767MPD2     C11320   2.320   3.663  14.982  0.3165  1.0332  0.2871
  767MPD2    C111321   2.460   3.669  14.978  0.0173  0.0785 -0.4241
  767MPD2    C211322   2.523   3.616  14.868  0.2994  0.7530 -0.1822
  767MPD2    C311323   2.452   3.558  14.769 -0.5078  0.0741 -0.6392
  767MPD2    C411324   2.317   3.550  14.772 -0.2937 -0.5057  0.7809
  767MPD2    C511325   2.247   3.608  14.879  0.3848 -0.7177 -1.0131
  767MPD2     H11326   2.631   3.625  14.864  0.3761  0.2270  0.8436
  767MPD2    H111327   2.256   3.494  14.702  0.2290 -0.1572  0.0435
  767MPD2    H211328   2.258   3.702  15.062  1.3855 -0.1715  1.7113
  767MPD2    H311329   2.140   3.593  14.879  0.2955 -0.0876 -0.6078
  767MPD2     N11330   2.526   3.509  14.659 -0.1782  0.2255 -0.1995
  767MPD2    H511331   2.626   3.518  14.652 -0.0185 -1.6193 -0.3752
  767MPD2    N111332   2.533   3.747  15.080  0.1505 -0.2963 -0.1116
  767MPD2    H711333   2.476   3.777  15.158 -1.1827  0.4267 -1.3781
  768MPD2     C11334   4.296   2.225  10.952  0.4982 -0.0252  0.1381
  768MPD2    C111335   4.194   2.158  11.017  0.7772  0.2947 -0.5399
  768MPD2    C211336   4.190   2.139  11.157 -0.4452  0.2572  0.2812
  768MPD2    C311337   4.291   2.205  11.227  0.1461 -0.3469 -0.3285
  768MPD2    C411338   4.387   2.281  11.165  0.1078  0.3400 -0.5265
  768MPD2    C511339   4.396   2.280  11.028  0.3115 -0.6396 -0.3566
  768MPD2     H11340   4.103   2.092  11.201 -0.4219 -1.9161 -2.0213
  768MPD2    H111341   4.467   2.326  11.222  0.1541  0.1082 -0.4134
  768MPD2    H211342   4.300   2.238  10.844  1.2643  0.2643  0.2000
  768MPD2    H311343   4.480   2.325  10.976  1.7108 -0.6421  1.8929
  768MPD2     N11344   4.293   2.204  11.367  0.1989  0.9811 -0.5924
  768MPD2    H511345   4.368   2.258  11.409  2.1143 -1.6696 -0.5837
  768MPD2    N111346   4.084   2.102  10.949  0.3488  0.0234 -0.7779
  768MPD2    H711347   4.014   2.058  11.009  0.6556 -1.1671 -1.3138
  769MPD2     C11348   4.464   0.130  14.962  0.2264 -0.6130 -0.0096
  769MPD2    C111349   4.372   0.205  15.035 -0.4681  0.3678 -0.2147
  769MPD2    C211350   4.403   0.230  15.170  0.1917  0.0247 -0.3176
  769MPD2    C311351   4.524   0.198  15.220  0.3165 -0.0024 -0.0168
  769MPD2    C411352   4.614   0.120  15.150  0.2134 -0.2442  0.1469
  769MPD2    C511353   4.581   0.081  15.018 -0.0734  0.7244 -0.4126
  769MPD2     H11354   4.329   0.273  15.237  0.2845  0.5711 -0.5661
  769MPD2    H111355   4.713   0.096  15.186  0.7207  0.1837 -0.9394
  769MPD2    H211356   4.433   0.111  14.860 -0.9126 -0.4037  0.2948
  769MPD2    H311357   4.645   0.012  14.964 -0.8748 -0.8357  0.6337
  769MPD2     N11358   4.541   0.247  15.353 -0.3986 -0.1263 -0.9482
  769MPD2    H511359   4.462   0.289  15.399  0.1162 -0.4888  0.2705
  769MPD2    N111360   4.243   0.218  14.978  0.4193 -0.1101 -0.7055
  769MPD2    H711361   4.227   0.175  14.888  2.8684 -0.3046 -1.0464
  770MPD2     C11362   3.545   4.211  15.092 -0.4013  0.5649 -0.8147
  770MPD2    C111363   3.631   4.214  14.982  0.2884  0.1769 -0.2704
  770MPD2    C211364   3.702   4.336  14.956  0.2504 -0.4351  0.1595
  770MPD2    C311365   3.704   4.441  15.049 -0.1482 -0.5815 -0.0929
  770MPD2    C411366   3.630   4.430  15.162 -0.2678  0.0816  0.1940
  770MPD2    C511367   3.550   4.313  15.182 -0.7356  0.7382  0.3195
  770MPD2     H11368   3.755   4.347  14.862  1.2390  1.4998  0.9410
  770MPD2    H111369   3.614   4.510  15.233 -1.2961 -0.2359  0.3309
  770MPD2    H211370   3.482   4.130  15.126  1.0694 -0.9318 -1.6733
  770MPD2    H311371   3.485   4.309  15.268  0.6614  0.4466  1.3656
  770MPD2     N11372   3.771   4.562  15.006  0.5515  0.2223  0.5641
  770MPD2    H511373   3.818   4.566  14.916 -1.1503 -0.2963 -0.3668
  770MPD2    N111374   3.637   4.091  14.897  0.4783 -0.0893  0.3271
  770MPD2    H711375   3.600   4.009  14.945 -0.4973  0.1438 -0.0325
  771MPD2     C11376   0.644   3.025  13.909  0.1433  0.1842  0.3858
  771MPD2    C111377   0.565   3.100  13.820 -0.3016 -0.3560 -0.8232
  771MPD2    C211378   0.458   3.041  13.762  0.7769  0.0403  0.6205
  771MPD2    C311379   0.428   2.900  13.778 -0.0707 -1.1784 -0.0817
  771MPD2    C411380   0.506   2.824  13.861  0.3702  0.2033  0.2599
  771MPD2    C511381   0.611   2.890  13.920  0.4123  0.4102 -0.7813
  771MPD2     H11382   0.407   3.113  13.699  1.8235 -0.8602 -1.2825
  771MPD2    H111383   0.489   2.717  13.872 -0.6640  0.5844  2.3804
  771MPD2    H211384   0.736   3.059  13.956 -0.6695 -0.3374  2.3446
  771MPD2    H311385   0.675   2.838  13.990 -1.1766  2.0827  1.9404
  771MPD2     N11386   0.317   2.845  13.709 -0.8329  0.1991 -0.1646
  771MPD2    H511387   0.256   2.907  13.657 -2.5163 -2.4755 -1.3535
  771MPD2    N111388   0.594   3.233  13.786  0.6113  0.0705  0.2410
  771MPD2    H711389   0.533   3.279  13.719 -0.7633  1.8724  2.7341
  772MPD2     C11390   0.225   3.882  13.703  0.7071 -0.1125 -0.2181
  772MPD2    C111391   0.248   3.773  13.784  0.1622 -0.2886 -0.8263
  772MPD2    C211392   0.145   3.736  13.868  0.4782  0.2219 -0.7449
  772MPD2    C311393   0.027   3.812  13.879  0.5106 -0.2168  0.6422
  772MPD2    C411394   0.008   3.918  13.793  0.2795  0.6508 -0.4206
  772MPD2    C511395   0.109   3.954  13.709 -0.2278  0.1620 -0.4943
  772MPD2     H11396   0.166   3.651  13.932  2.6261  0.5942 -0.9365
  772MPD2    H111397   4.645   3.983  13.791 -1.6378 -1.8982  0.2995
  772MPD2    H211398   0.304   3.921  13.640 -0.3067  1.1835 -0.6992
  772MPD2    H311399   0.103   4.040  13.644 -0.9534  1.3551  1.1375
  772MPD2     N11400   4.649   3.767  13.973 -0.0565 -0.0588  0.4866
  772MPD2    H511401   4.669   3.682  14.024 -1.6628  0.9983  2.8472
  772MPD2    N111402   0.369   3.695  13.779 -0.2689 -0.1605 -0.7656
  772MPD2    H711403   0.370   3.620  13.847  1.6386 -1.2102 -1.9512
  773MPD2     C11404   4.213   3.793  17.528 -0.1671 -0.3479  0.1979
  773MPD2    C111405   4.088   3.732  17.531 -0.0207 -0.3615 -0.4532
  773MPD2    C211406   4.083   3.591  17.555 -0.4925 -0.0921  0.1503
  773MPD2    C311407   4.200   3.525  17.591 -0.4020  0.7005 -0.3209
  773MPD2    C411408   4.321   3.586  17.593 -0.4136 -0.5681  0.3993
  773MPD2    C511409   4.331   3.720  17.564 -0.0988  0.1266 -0.2307
  773MPD2     H11410   3.982   3.551  17.561 -0.3486 -0.2112  1.9555
  773MPD2    H111411   4.407   3.524  17.616 -0.6288 -0.8381  0.4779
  773MPD2    H211412   4.224   3.889  17.478  0.6078 -1.4918 -1.8537
  773MPD2    H311413   4.425   3.773  17.569 -0.3449  0.4795  0.8247
  773MPD2     N11414   4.202   3.384  17.621  0.0285  0.2628 -0.4057
  773MPD2    H511415   4.289   3.342  17.653  0.9655  0.9265 -2.0451
  773MPD2    N111416   3.973   3.804  17.495  0.2147 -0.0669 -0.5654
  773MPD2    H711417   3.888   3.748  17.502  0.1734  0.2354  1.5016
  774MPD2     C11418   3.144   3.325  13.416 -0.6337  0.4479 -0.0308
  774MPD2    C111419   3.203   3.417  13.503 -0.1591 -0.1314  0.4919
  774MPD2    C211420   3.266   3.520  13.439 -0.2527 -0.4371  0.5021
  774MPD2    C311421   3.300   3.508  13.305  0.3787 -0.5626  0.1542
  774MPD2    C411422   3.236   3.424  13.223 -0.3918  0.3492  0.0419
  774MPD2    C511423   3.161   3.334  13.283  0.9750  0.0495  0.3987
  774MPD2     H11424   3.306   3.595  13.507 -0.0729  0.3056 -0.4182
  774MPD2    H111425   3.242   3.419  13.115 -0.9669  0.9176 -0.0153
  774MPD2    H211426   3.077   3.249  13.456 -2.0122  0.0280 -3.1108
  774MPD2    H311427   3.111   3.254  13.228 -0.2830 -0.6420  2.5338
  774MPD2     N11428   3.385   3.610  13.256 -0.8436 -0.1180 -0.0494
  774MPD2    H511429   3.431   3.667  13.326 -0.0092 -0.3600 -0.3970
  774MPD2    N111430   3.197   3.397  13.642 -0.5936 -0.2990  0.1187
  774MPD2    H711431   3.148   3.318  13.683  1.2945 -0.6522  1.6451
  775MPD2     C11432   0.304   0.161  15.906  0.1759  0.2626  0.1286
  775MPD2    C111433   0.254   0.279  15.948  0.3913  0.6511 -0.2793
  775MPD2    C211434   0.299   0.400  15.898  0.5286 -0.1364 -0.0344
  775MPD2    C311435   0.402   0.394  15.800  0.1963 -0.2866 -0.1572
  775MPD2    C411436   0.453   0.273  15.757 -0.1019 -0.6608 -0.4942
  775MPD2    C511437   0.404   0.156  15.808  0.2867 -0.0206  0.0999
  775MPD2     H11438   0.265   0.494  15.939  1.8844 -0.3888  1.6955
  775MPD2    H111439   0.537   0.263  15.688  0.1236  1.1294 -0.4660
  775MPD2    H211440   0.263   0.068  15.945 -1.1535  0.6935 -0.2417
  775MPD2    H311441   0.447   0.060  15.780 -1.3737 -1.2414  1.7457
  775MPD2     N11442   0.459   0.506  15.741  0.1423  0.3854  0.7419
  775MPD2    H511443   0.508   0.504  15.652  0.7405 -3.8307  1.1872
  775MPD2    N111444   0.139   0.279  16.042 -0.1986  0.3871 -0.5698
  775MPD2    H711445   0.097   0.190  16.069  1.5772 -0.0444  0.7570
  776MPD2     C11446   0.040   4.681  10.944 -0.4498 -0.2036  0.0077
  776MPD2    C111447   4.679   0.062  10.977  0.3429 -0.1174  0.2329
  776MPD2    C211448   0.011   0.176  11.032 -0.2930 -0.0348  0.1720
  776MPD2    C311449   0.142   0.180  11.072 -0.9416 -0.2471  0.3810
  776MPD2    C411450   0.227   0.081  11.047  0.3311 -0.2345  0.2461
  776MPD2    C511451   0.178   4.691  10.979 -0.2961  0.9168  0.0053
  776MPD2     H11452   4.666   0.256  11.056  0.0245 -0.1093  1.2991
  776MPD2    H111453   0.330   0.086  11.079  0.3987  1.0553 -0.1769
  776MPD2    H211454   0.017   4.594  10.883  1.1838  0.5498 -1.6927
  776MPD2    H311455   0.242   4.617  10.931 -0.3433  1.0513 -0.2671
  776MPD2     N11456   0.207   0.290  11.131  0.1088 -0.1120 -0.5910
  776MPD2    H511457   0.307   0.278  11.144  0.0014  1.3024  1.4984
  776MPD2    N111458   4.550   0.049  10.929 -0.1765  0.7776  0.3734
  776MPD2    H711459   4.522   4.677  10.907 -1.5689  1.1998  0.3230
  777MPD2     C11460   3.751   2.225   0.380  0.6868 -0.7641  0.3963
  777MPD2    C111461   3.685   2.116   0.418 -0.1562 -0.6346  0.1658
  777MPD2    C211462   3.648   2.021   0.322  0.2783 -0.3938  0.1112
  777MPD2    C311463   3.694   2.032   0.193  0.1539  0.2159 -0.1239
  777MPD2    C411464   3.782   2.129   0.163  0.5008 -0.0126 -0.8806
  777MPD2    C511465   3.800   2.238   0.249 -0.0999  0.2916  0.4386
  777MPD2     H11466   3.576   1.944   0.348  0.3148 -1.2373 -2.2249
  777MPD2    H111467   3.827   2.137   0.064  0.8624  0.1884 -0.7039
  777MPD2    H211468   3.774   2.304   0.450 -1.9139  1.9785 -1.8333
  777MPD2    H311469   3.866   2.322   0.231  1.5484 -1.2369 -0.5125
  777MPD2     N11470   3.645   1.941   0.090  0.0816 -0.4246 -0.3580
  777MPD2    H511471   3.573   1.879   0.125  0.7797  0.1346  2.1107
  777MPD2    N111472   3.654   2.099   0.555 -0.3663 -0.9249 -0.0479
  777MPD2    H711473   3.681   2.171   0.621 -0.7097 -1.8746  1.1341
  778MPD2     C11474   0.763   2.464  15.131  0.4770 -0.1050  0.3716
  778MPD2    C111475   0.669   2.455  15.034  0.1085 -0.3539  0.5538
  778MPD2    C211476   0.690   2.522  14.916 -0.2929 -0.4417 -0.3081
  778MPD2    C311477   0.800   2.598  14.900 -0.4594  0.5391  0.3483
  778MPD2    C411478   0.893   2.610  14.996 -0.0258 -0.3818 -0.7073
  778MPD2    C511479   0.887   2.527  15.106  0.2225 -0.2307 -0.1581
  778MPD2     H11480   0.620   2.520  14.834 -1.7684  0.4390  0.9262
  778MPD2    H111481   0.988   2.660  14.978 -0.8484  1.9967  1.4839
  778MPD2    H211482   0.758   2.408  15.224  0.8924 -0.0286  0.4380
  778MPD2    H311483   0.971   2.529  15.174  0.2616 -3.4326 -0.1194
  778MPD2     N11484   0.813   2.658  14.771  0.0522  0.1784  0.9110
  778MPD2    H511485   0.777   2.607  14.691  1.1697  0.3037  0.3248
  778MPD2    N111486   0.541   2.402  15.055 -0.9725  0.0208  0.4726
  778MPD2    H711487   0.472   2.436  14.989  0.2110 -2.8105 -2.2314
  779MPD2     C11488   0.299   1.448  14.597 -0.2264 -0.3005 -0.7124
  779MPD2    C111489   0.256   1.491  14.473 -0.5618  0.4116 -0.0742
  779MPD2    C211490   0.301   1.617  14.431  0.4170  0.1854 -0.4802
  779MPD2    C311491   0.382   1.694  14.513  0.3130 -0.3913 -0.0215
  779MPD2    C411492   0.427   1.644  14.637  0.1306  0.0044 -0.2614
  779MPD2    C511493   0.380   1.525  14.677  1.2804  0.6523 -0.4377
  779MPD2     H11494   0.266   1.655  14.336 -1.6750  1.1637  0.6743
  779MPD2    H111495   0.494   1.696  14.705 -1.3211  0.5983  0.7242
  779MPD2    H211496   0.281   1.349  14.638 -1.6343  0.5394  0.6904
  779MPD2    H311497   0.385   1.482  14.776  0.3826 -0.2702 -0.7878
  779MPD2     N11498   0.423   1.824  14.459 -0.3739  0.6966  0.4863
  779MPD2    H511499   0.379   1.858  14.375  0.3199 -0.2939 -0.2871
  779MPD2    N111500   0.183   1.401  14.395  0.1681  0.6196  0.4911
  779MPD2    H711501   0.164   1.427  14.299  1.4847  1.1428  0.3641
  780MPD2     C11502   3.905   1.378   0.612 -0.3512 -0.4711 -0.2829
  780MPD2    C111503   3.878   1.276   0.525 -0.0841 -0.1564  0.0322
  780MPD2    C211504   3.925   1.277   0.400  0.1189 -0.2515  0.0921
  780MPD2    C311505   4.026   1.377   0.365 -0.5273 -0.3196 -0.7490
  780MPD2    C411506   4.059   1.476   0.457 -0.5177 -0.2515 -0.5551
  780MPD2    C511507   3.987   1.481   0.575 -0.3818 -0.3367  0.1445
  780MPD2     H11508   3.913   1.192   0.334  0.9309 -0.0754 -0.2835
  780MPD2    H111509   4.128   1.556   0.432 -0.5675  0.3121  1.0914
  780MPD2    H211510   3.859   1.384   0.710 -0.8744  0.1549 -0.5645
  780MPD2    H311511   3.999   1.559   0.649 -0.7500  0.4507 -0.6257
  780MPD2     N11512   4.096   1.363   0.246 -0.0423 -0.3752 -0.1336
  780MPD2    H511513   4.058   1.301   0.175 -0.2472 -2.0143  1.4331
  780MPD2    N111514   3.794   1.176   0.579 -0.4438 -0.4910 -0.2960
  780MPD2    H711515   3.776   1.165   0.678 -1.7144  0.2234 -0.4395
  781MPD2     C11516   2.198   3.495  11.712 -0.2647 -0.2311 -0.1304
  781MPD2    C111517   2.218   3.362  11.736 -0.1366  0.0515  0.3806
  781MPD2    C211518   2.318   3.296  11.672  0.2603 -0.0104 -0.2326
  781MPD2    C311519   2.405   3.364  11.587  0.0781 -0.4704  0.8033
  781MPD2    C411520   2.396   3.499  11.576 -0.6164 -0.7862  0.0981
  781MPD2    C511521   2.291   3.555  11.632  0.2005 -0.0461 -0.4821
  781MPD2     H11522   2.348   3.194  11.694  0.6027  0.1995  0.2849
  781MPD2    H111523   2.468   3.562  11.524  0.1226 -0.8872  1.0087
  781MPD2    H211524   2.123   3.559  11.756  2.3090  0.9778  2.4688
  781MPD2    H311525   2.285   3.659  11.601  1.5174  0.7906  2.0747
  781MPD2     N11526   2.518   3.298  11.529  0.3120 -0.1715 -0.2911
  781MPD2    H511527   2.570   3.352  11.461  0.1248  0.2453 -0.1006
  781MPD2    N111528   2.137   3.320  11.838 -0.7663  0.7179 -0.3884
  781MPD2    H711529   2.066   3.387  11.866 -0.0220  0.7836  1.3355
  782MPD2     C11530   0.347   3.421   9.962  0.4675  0.2775  0.3804
  782MPD2    C111531   0.376   3.459  10.095  0.3388 -0.1448 -0.1200
  782MPD2    C211532   0.461   3.565  10.114 -0.2415 -0.0471  0.4107
  782MPD2    C311533   0.515   3.642  10.014 -0.4209 -0.1943  0.6477
  782MPD2    C411534   0.478   3.606   9.884 -0.0442  0.6663  0.5890
  782MPD2    C511535   0.399   3.496   9.860 -0.1330  0.1119  0.0953
  782MPD2     H11536   0.483   3.586  10.218 -0.8390 -0.1016  0.5522
  782MPD2    H111537   0.511   3.650   9.790  0.0969  0.3197  0.4784
  782MPD2    H211538   0.285   3.336   9.934  1.3612 -0.7512  1.4708
  782MPD2    H311539   0.372   3.468   9.759 -0.3751  0.3721  0.0871
  782MPD2     N11540   0.611   3.741  10.044  0.5805  0.4508  0.2502
  782MPD2    H511541   0.624   3.750  10.144  2.0742  0.5190  0.0545
  782MPD2    N111542   0.332   3.377  10.200 -0.4572 -0.2932  0.1469
  782MPD2    H711543   0.297   3.288  10.165 -0.8536 -0.3433  0.6621
  783MPD2     C11544   4.427   3.371  10.955 -0.0984 -0.0305 -1.2296
  783MPD2    C111545   4.445   3.436  10.832  0.1299 -0.2863 -0.1530
  783MPD2    C211546   4.565   3.426  10.765  0.4012 -1.4644 -0.0782
  783MPD2    C311547   4.667   3.349  10.820  0.1075  0.3508 -0.0308
  783MPD2    C411548   4.653   3.283  10.942 -0.0255 -0.4642 -0.0728
  783MPD2    C511549   4.529   3.296  11.004  0.1702  0.8090  0.2433
  783MPD2     H11550   4.582   3.465  10.665 -0.9315 -0.4573  0.0971
  783MPD2    H111551   0.007   3.234  11.001 -2.3121 -2.0617  1.5827
  783MPD2    H211552   4.330   3.369  11.004 -0.2490  2.2420 -1.4257
  783MPD2    H311553   4.507   3.231  11.088  0.9612 -0.2783 -0.3787
  783MPD2     N11554   0.066   3.334  10.749  0.5626 -0.3436  0.6978
  783MPD2    H511555   0.072   3.392  10.665  0.1836  1.2375  1.7560
  783MPD2    N111556   4.332   3.504  10.787 -0.7127  0.2661 -0.0334
  783MPD2    H711557   4.248   3.505  10.844  1.0258 -0.0108  2.5409
  784MPD2     C11558   1.014   3.907   0.747  0.2917 -0.5360  0.1427
  784MPD2    C111559   1.022   4.009   0.840 -0.2006 -0.3279  0.3813
  784MPD2    C211560   1.007   4.138   0.796 -0.0174  0.0719 -0.7500
  784MPD2    C311561   0.991   4.169   0.657  0.2610 -0.7286  0.2135
  784MPD2    C411562   0.983   4.065   0.568 -0.5636  0.8355  0.4777
  784MPD2    C511563   0.987   3.932   0.617 -0.1938  0.0798 -0.2145
  784MPD2     H11564   1.014   4.217   0.870 -0.9030 -1.9124  1.4519
  784MPD2    H111565   0.975   4.080   0.461 -1.8388  3.2365  0.9040
  784MPD2    H211566   1.010   3.802   0.771 -1.0000 -0.7250 -0.8631
  784MPD2    H311567   0.953   3.857   0.546 -2.5556  2.8902 -2.0620
  784MPD2     N11568   0.988   4.307   0.630  0.5288 -0.3844 -0.0455
  784MPD2    H511569   0.997   4.369   0.710 -0.5185 -0.0728 -0.1658
  784MPD2    N111570   1.054   3.988   0.973 -0.5555 -0.0610 -0.2601
  784MPD2    H711571   1.088   4.069   1.024 -1.3726  1.4687 -2.1712
  785MPD2     C11572   2.912   2.199  10.193  0.6256  0.8803 -0.4832
  785MPD2    C111573   2.866   2.236  10.317  0.4822  0.7361 -0.0469
  785MPD2    C211574   2.755   2.173  10.372 -0.6310  0.5981 -0.4168
  785MPD2    C311575   2.690   2.068  10.306  0.6071  0.0226 -0.1498
  785MPD2    C411576   2.748   2.022  10.186  0.2384  0.2194 -0.7634
  785MPD2    C511577   2.846   2.098  10.128  0.5475 -0.1484 -0.1594
  785MPD2     H11578   2.717   2.212  10.466  2.0659  1.7500  0.2111
  785MPD2    H111579   2.711   1.941  10.124 -0.8883  0.6072 -0.6104
  785MPD2    H211580   2.994   2.250  10.143  0.1549 -0.2048 -2.3336
  785MPD2    H311581   2.885   2.070  10.031 -0.2987 -0.1000 -0.5180
  785MPD2     N11582   2.578   2.009  10.366 -0.0552 -0.3989 -0.8954
  785MPD2    H511583   2.555   2.040  10.460  1.4960  2.3323 -1.4334
  785MPD2    N111584   2.936   2.348  10.387  0.7509 -0.1048  0.0087
  785MPD2    H711585   3.008   2.399  10.337  2.5724  0.4979  3.2631
  786MPD2     C11586   0.815   1.159  15.060  0.1534 -0.0593  0.0035
  786MPD2    C111587   0.910   1.127  14.961  0.8389  0.8435  0.4123
  786MPD2    C211588   1.033   1.194  14.961 -0.0841  0.1324  0.6457
  786MPD2    C311589   1.046   1.306  15.045 -0.0585  0.0341  0.4899
  786MPD2    C411590   0.948   1.340  15.134  0.9129  0.3902 -0.0368
  786MPD2    C511591   0.840   1.260  15.149  1.0782 -0.3378  0.5537
  786MPD2     H11592   1.110   1.171  14.889 -1.1854  1.3690 -0.9475
  786MPD2    H111593   0.951   1.429  15.196  0.3962  2.1574 -2.5645
  786MPD2    H211594   0.717   1.114  15.068  0.2464 -0.4020 -0.8174
  786MPD2    H311595   0.760   1.297  15.212  0.0881 -0.2790 -0.7289
  786MPD2     N11596   1.159   1.391  15.055  0.6173 -0.3457 -0.1590
  786MPD2    H511597   1.144   1.480  15.101  0.6760  1.5647 -3.8085
  786MPD2    N111598   0.890   1.026  14.864  0.8757 -0.3432 -0.6141
  786MPD2    H711599   0.944   1.026  14.778 -0.2969 -1.3132 -1.3643
  787MPD2     C11600   0.436   0.286  14.541 -0.6328 -0.3847 -0.8643
  787MPD2    C111601   0.557   0.324  14.600 -0.2947  0.4380  0.0905
  787MPD2    C211602   0.621   0.228  14.670  0.0734 -0.4162  0.5561
  787MPD2    C311603   0.565   0.103  14.688 -0.3174 -0.5041  0.3361
  787MPD2    C411604   0.451   0.060  14.625  0.2258 -0.4063  0.3557
  787MPD2    C511605   0.386   0.156  14.549  0.1143 -0.3986 -0.0186
  787MPD2     H11606   0.717   0.248  14.715  0.3935 -2.7986  0.9658
  787MPD2    H111607   0.407   4.684  14.630 -0.7492  0.0380  0.4788
  787MPD2    H211608   0.379   0.365  14.493 -1.4500 -1.9723 -2.4980
  787MPD2    H311609   0.292   0.131  14.501  1.0109 -1.3553 -1.3003
  787MPD2     N11610   0.637   0.022  14.782  0.7533 -0.2894  0.0229
  787MPD2    H511611   0.711   0.074  14.828 -0.7389  0.1600  1.9050
  787MPD2    N111612   0.588   0.456  14.611 -0.5873 -0.2311 -0.0772
  787MPD2    H711613   0.531   0.521  14.558  0.2997  0.1262 -0.6001
  788MPD2     C11614   3.158   3.575   0.560  0.1214  0.2092  0.0649
  788MPD2    C111615   3.101   3.486   0.466  0.7229  0.3777 -0.7666
  788MPD2    C211616   3.048   3.546   0.353 -0.4263  0.2087  0.4091
  788MPD2    C311617   3.047   3.678   0.326  0.6046 -0.5944  0.1051
  788MPD2    C411618   3.125   3.761   0.407  0.1792  0.2127 -0.0231
  788MPD2    C511619   3.184   3.704   0.520 -0.8959 -0.2512  0.0127
  788MPD2     H11620   3.001   3.484   0.277 -2.0779  1.9148  0.0637
  788MPD2    H111621   3.150   3.862   0.376  0.9315  0.8017  2.4838
  788MPD2    H211622   3.205   3.545   0.653  0.7625  1.6974  0.2065
  788MPD2    H311623   3.254   3.762   0.579  0.6900  0.2934 -2.4160
  788MPD2     N11624   2.966   3.732   0.223  0.3379  0.0120 -0.6369
  788MPD2    H511625   2.987   3.824   0.187  0.5904  0.1935 -0.0134
  788MPD2    N111626   3.091   3.347   0.494  0.0802  0.1746 -0.1626
  788MPD2    H711627   3.134   3.326   0.584  1.1904  0.4847 -0.6188
  789MPD2     C11628   3.509   3.793  16.166 -0.1962 -0.5822 -0.3455
  789MPD2    C111629   3.476   3.706  16.272 -0.1247 -0.4929 -0.0824
  789MPD2    C211630   3.354   3.729  16.338 -0.2047  1.1117  0.1636
  789MPD2    C311631   3.269   3.829  16.302  0.2541  0.4260  0.2975
  789MPD2    C411632   3.308   3.910  16.199  0.0956 -0.4057  0.3168
  789MPD2    C511633   3.425   3.891  16.130 -0.1864 -0.1485 -0.3437
  789MPD2     H11634   3.336   3.664  16.422 -0.0743  1.4428  0.4499
  789MPD2    H111635   3.239   3.986  16.163  3.1312  2.0755 -0.3157
  789MPD2    H211636   3.607   3.783  16.121  0.2008 -0.9406  0.5983
  789MPD2    H311637   3.453   3.947  16.041 -2.6433  0.0211 -1.0224
  789MPD2     N11638   3.146   3.850  16.370  0.2985  0.1910 -0.8052
  789MPD2    H511639   3.087   3.926  16.336 -0.4134 -0.7587 -1.7006
  789MPD2    N111640   3.568   3.605  16.319 -0.1164  0.0516  0.0271
  789MPD2    H711641   3.524   3.548  16.391 -0.3149 -2.0190 -1.7418
  790MPD2     C11642   3.521   0.913  13.500  0.0942  1.1232  0.7426
  790MPD2    C111643   3.605   0.808  13.500  0.5366  0.0096 -0.3396
  790MPD2    C211644   3.623   0.734  13.389 -0.1456  1.3047 -0.1344
  790MPD2    C311645   3.570   0.773  13.264 -0.6830 -0.0622 -0.1222
  790MPD2    C411646   3.476   0.881  13.265  0.1874  0.9070  0.1746
  790MPD2    C511647   3.459   0.952  13.383 -0.2395  0.3496  0.1863
  790MPD2     H11648   3.684   0.645  13.389  0.8243  1.9709  0.3473
  790MPD2    H111649   3.415   0.902  13.178  3.7055  3.7472 -1.6146
  790MPD2    H211650   3.509   0.976  13.588  0.7387  2.0026  0.1992
  790MPD2    H311651   3.383   1.029  13.394  1.5524  2.4519 -2.2896
  790MPD2     N11652   3.608   0.705  13.138  0.5678 -0.6141 -0.0713
  790MPD2    H511653   3.665   0.622  13.152 -2.4862 -2.7673 -0.2933
  790MPD2    N111654   3.659   0.769  13.625 -0.0396 -0.1092  0.3303
  790MPD2    H711655   3.622   0.811  13.709  3.2161  2.5612  0.4109
  791MPD2     C11656   3.156   0.663  12.497 -0.5806  0.9929  0.2206
  791MPD2    C111657   3.217   0.558  12.560  0.4221 -0.7664  0.6561
  791MPD2    C211658   3.158   0.442  12.561 -0.2058  0.2274 -0.5371
  791MPD2    C311659   3.033   0.421  12.499  0.5759 -0.3689  0.3119
  791MPD2    C411660   2.967   0.528  12.446  0.2853 -0.0864 -0.5272
  791MPD2    C511661   3.029   0.652  12.445  0.0902  0.1013 -0.2112
  791MPD2     H11662   3.199   0.359  12.618  0.1031  0.0141 -1.0639
  791MPD2    H111663   2.868   0.529  12.400 -0.3080 -0.2050  0.7580
  791MPD2    H211664   3.203   0.759  12.482  1.8488  0.0187  1.5371
  791MPD2    H311665   2.981   0.732  12.390  0.2539 -0.7508 -1.6025
  791MPD2     N11666   2.964   0.293  12.509 -0.6699  0.2774  0.3602
  791MPD2    H511667   3.011   0.214  12.551 -1.3126  0.2023  0.9364
  791MPD2    N111668   3.348   0.573  12.608 -0.0303 -0.1674 -0.3050
  791MPD2    H711669   3.405   0.656  12.596 -0.3191  0.0597 -0.1006
  792MPD2     C11670   0.101   4.489  10.375 -0.1533  0.1544  0.3940
  792MPD2    C111671   0.039   4.607  10.409 -0.1248 -1.0877  0.1561
  792MPD2    C211672   4.652   4.644  10.331  0.0255  1.4755  0.3125
  792MPD2    C311673   4.600   4.570  10.226 -0.0528  0.0748  0.0328
  792MPD2    C411674   4.665   4.449  10.200  0.0890  0.6197 -0.5727
  792MPD2    C511675   0.049   4.411  10.268 -0.5122  0.5307  0.0587
  792MPD2     H11676   4.609   0.019  10.349  0.8994  1.7913  0.6918
  792MPD2    H111677   4.627   4.387  10.120  1.5795 -0.8115 -0.1706
  792MPD2    H211678   0.180   4.444  10.435  0.6701  0.8578 -0.1583
  792MPD2    H311679   0.088   4.311  10.251  0.2220  0.8293 -0.0142
  792MPD2     N11680   4.492   4.603  10.140  0.2067 -0.1494 -0.1135
  792MPD2    H511681   4.468   4.540  10.064  0.4377 -0.2403 -0.1119
  792MPD2    N111682   0.088   4.678  10.517 -0.0065  0.1597 -0.0308
  792MPD2    H711683   0.183   4.675  10.551 -0.8309 -1.0932  2.2433
  793MPD2     C11684   4.581   0.610   9.488 -0.2220 -0.1466  0.2137
  793MPD2    C111685   4.561   0.478   9.445 -0.2745 -0.2005  0.3860
  793MPD2    C211686   4.493   0.390   9.520  0.3087  0.1749 -0.3883
  793MPD2    C311687   4.451   0.433   9.648  1.0143  0.3164  0.9686
  793MPD2    C411688   4.477   0.561   9.694 -0.2673  0.5855  0.0036
  793MPD2    C511689   4.547   0.647   9.612  0.1500 -0.3722  0.4843
  793MPD2     H11690   4.482   0.290   9.480  0.7887 -0.3738  0.8438
  793MPD2    H111691   4.445   0.588   9.794 -2.5354  0.8749 -0.8232
  793MPD2    H211692   4.622   0.683   9.419  0.9174  0.4364  1.5042
  793MPD2    H311693   4.577   0.745   9.648 -0.6242 -0.5991  1.7547
  793MPD2     N11694   4.378   0.341   9.725 -0.3932  0.5256 -0.8747
  793MPD2    H511695   4.349   0.260   9.672 -1.7631  0.6169 -0.2744
  793MPD2    N111696   4.610   0.430   9.315  0.0517 -0.3610  0.1990
  793MPD2    H711697   4.582   0.336   9.287  1.2973 -0.9006  0.7780
  794MPD2     C11698   3.745   4.608  17.192  0.3027 -0.4386 -0.6409
  794MPD2    C111699   3.680   4.498  17.132 -0.5175 -0.8169 -0.3441
  794MPD2    C211700   3.631   4.514  17.006  0.2014 -0.0049 -0.3427
  794MPD2    C311701   3.649   4.634  16.938  0.6009 -0.6021 -0.9652
  794MPD2    C411702   3.718   0.016  17.002  0.4244  0.0404  0.3652
  794MPD2    C511703   3.759   0.006  17.133 -0.2178 -0.0054 -0.0466
  794MPD2     H11704   3.591   4.425  16.959 -1.4324 -0.0976  1.2632
  794MPD2    H111705   3.731   0.110  16.951 -1.1923  1.7124  2.9771
  794MPD2    H211706   3.787   4.591  17.291  1.4316 -0.9694 -1.2226
  794MPD2    H311707   3.819   0.086  17.175 -0.2666 -0.0588  0.1262
  794MPD2     N11708   3.592   4.668  16.811 -0.1340  0.0721  0.0441
  794MPD2    H511709   3.613   0.038  16.775  0.6716  0.3137  1.1586
  794MPD2    N111710   3.669   4.370  17.193 -0.0507  0.1412 -0.3618
  794MPD2    H711711   3.602   4.300  17.164  0.5590 -0.9821  0.9634
  795MPD2     C11712   1.539   1.979  13.142  0.0177  0.8445  0.1447
  795MPD2    C111713   1.519   1.907  13.256  0.0875 -0.1821 -0.9370
  795MPD2    C211714   1.622   1.827  13.302  0.2869 -0.5533  0.4756
  795MPD2    C311715   1.747   1.834  13.250  0.1680  0.0881 -0.4576
  795MPD2    C411716   1.768   1.916  13.144  0.6691  0.7254  0.6362
  795MPD2    C511717   1.665   1.987  13.091 -0.2551 -0.0453  0.1410
  795MPD2     H11718   1.600   1.766  13.388 -0.0369 -2.0207 -0.6395
  795MPD2    H111719   1.861   1.906  13.090  0.2844  1.6450 -0.2031
  795MPD2    H211720   1.462   2.033  13.088 -0.8576  0.6229  1.1594
  795MPD2    H311721   1.684   2.032  12.994  2.2586 -0.9754  0.2298
  795MPD2     N11722   1.851   1.743  13.300  0.6952  0.5485 -0.4761
  795MPD2    H511723   1.822   1.669  13.364  1.0401  2.3518  1.7327
  795MPD2    N111724   1.397   1.898  13.322  0.2472 -0.3388 -0.1754
  795MPD2    H711725   1.387   1.833  13.400 -0.7165 -0.2015 -0.1883
  796MPD2     C11726   1.078   3.382  16.029 -0.4688  0.2833  0.1569
  796MPD2    C111727   1.162   3.422  16.132 -0.0800 -0.1673  0.0053
  796MPD2    C211728   1.215   3.552  16.126 -0.0013  0.2134  0.7881
  796MPD2    C311729   1.194   3.641  16.015 -0.1765  0.3034  0.3351
  796MPD2    C411730   1.112   3.598  15.913  0.3373  0.6642  0.0510
  796MPD2    C511731   1.061   3.470  15.924  0.4732  0.3435 -0.3265
  796MPD2     H11732   1.278   3.573  16.212 -0.5527 -3.1047  1.9919
  796MPD2    H111733   1.098   3.649  15.819 -1.5950 -0.0251 -0.0376
  796MPD2    H211734   1.030   3.285  16.025  1.6015 -0.7152 -0.1590
  796MPD2    H311735   0.990   3.435  15.850 -0.7299 -0.3282  1.1410
  796MPD2     N11736   1.248   3.767  16.035 -0.0517  0.5336  0.2580
  796MPD2    H511737   1.301   3.774  16.121  1.2089 -1.0585 -0.4049
  796MPD2    N111738   1.170   3.321  16.236 -0.1211  0.1415  0.4820
  796MPD2    H711739   1.113   3.237  16.233  0.8968 -0.4698 -1.3986
  797MPD2     C11740   1.557   2.814   0.337 -0.1511  0.0010 -0.2738
  797MPD2    C111741   1.660   2.902   0.354  0.3739 -0.7554  0.0571
  797MPD2    C211742   1.664   3.016   0.275 -0.5937 -0.1899  0.7125
  797MPD2    C311743   1.565   3.031   0.173 -0.2667  0.1131 -0.4254
  797MPD2    C411744   1.462   2.943   0.165 -0.1126 -0.1894 -0.2890
  797MPD2    C511745   1.455   2.832   0.250  0.6575 -0.1374  0.7437
  797MPD2     H11746   1.744   3.087   0.288 -1.2695  0.7919 -0.5549
  797MPD2    H111747   1.379   2.947   0.095 -1.4712 -0.3099  1.3204
  797MPD2    H211748   1.546   2.724   0.396 -0.4888 -0.5450 -1.1717
  797MPD2    H311749   1.375   2.760   0.241 -2.1732  3.3609 -2.1893
  797MPD2     N11750   1.570   3.152   0.090 -0.1381  0.0784 -0.3459
  797MPD2    H511751   1.637   3.222   0.120 -3.2171  2.4153  0.9940
  797MPD2    N111752   1.770   2.883   0.446 -0.0699  0.1000 -0.9099
  797MPD2    H711753   1.835   2.961   0.457 -1.9224  1.2918  1.8004
  798MPD2     C11754   2.218   3.367   0.059  0.3643 -0.6747  0.7856
  798MPD2    C111755   2.087   3.349   0.112  0.0859 -0.6299 -0.4779
  798MPD2    C211756   2.065   3.283   0.233 -1.0571  0.2407 -0.3289
  798MPD2    C311757   2.182   3.233   0.303 -0.3689  0.2820  0.4078
  798MPD2    C411758   2.310   3.264   0.253  0.0995  0.8306 -0.1891
  798MPD2    C511759   2.326   3.337   0.134  0.3521 -0.4400 -0.0326
  798MPD2     H11760   1.972   3.261   0.284 -1.0544  0.3719 -0.2690
  798MPD2    H111761   2.403   3.242   0.305 -0.2362 -0.4588 -0.1459
  798MPD2    H211762   2.232   3.411  17.655 -0.2815 -0.3569  0.8383
  798MPD2    H311763   2.425   3.362   0.097  0.5544 -2.2719 -0.7215
  798MPD2     N11764   2.185   3.150   0.420  0.1511  0.6171 -0.0055
  798MPD2    H511765   2.274   3.105   0.443 -0.8085 -0.8266  0.9093
  798MPD2    N111766   1.976   3.398   0.036  0.3566  0.6409 -0.1459
  798MPD2    H711767   1.999   3.449  17.646  1.9591  2.0421  1.1507
  799MPD2     C11768   1.129   4.522  14.543 -0.0870 -0.3017 -0.1679
  799MPD2    C111769   1.015   4.449  14.557 -0.2927  1.0640  0.1396
  799MPD2    C211770   0.897   4.502  14.513  0.4288 -0.4016  0.4823
  799MPD2    C311771   0.897   4.625  14.448  0.3014  0.0370  0.0083
  799MPD2    C411772   1.013   4.699  14.426 -0.7937  0.2003  0.2008
  799MPD2    C511773   1.130   4.645  14.484 -0.2982 -0.0044 -0.3756
  799MPD2     H11774   0.807   4.441  14.522  0.6142 -0.8843 -0.8613
  799MPD2    H111775   1.010   0.071  14.373  1.6666  0.1609 -0.0309
  799MPD2    H211776   1.225   4.478  14.567 -1.4343 -3.6853 -0.9784
  799MPD2    H311777   1.224   4.699  14.474  1.4100 -3.0004 -0.3019
  799MPD2     N11778   0.784   4.684  14.396 -0.5776  0.2061 -0.6171
  799MPD2    H511779   0.797   0.056  14.363 -0.8742  0.3017 -0.4588
  799MPD2    N111780   1.012   4.324  14.617 -0.4634  0.0307 -0.1032
  799MPD2    H711781   0.918   4.287  14.628 -0.4897 -0.2607 -1.2883
  800MPD2     C11782   1.597   1.294  14.183 -0.9017  0.6718  0.2451
  800MPD2    C111783   1.627   1.305  14.048 -0.4952  0.2035  0.4800
  800MPD2    C211784   1.576   1.209  13.968 -0.6915 -0.3705  0.0021
  800MPD2    C311785   1.508   1.101  14.014  0.1098  0.4818  0.0036
  800MPD2    C411786   1.470   1.091  14.145  0.5212  0.0423 -0.1658
  800MPD2    C511787   1.519   1.187  14.229  0.5052  0.2546 -0.0766
  800MPD2     H11788   1.598   1.212  13.862  2.1279  0.0616  0.5701
  800MPD2    H111789   1.413   1.013  14.194  1.0904 -0.0356  0.3711
  800MPD2    H211790   1.627   1.369  14.255 -0.6367  1.2002 -0.4232
  800MPD2    H311791   1.491   1.177  14.333 -2.7690  3.0939 -0.6475
  800MPD2     N11792   1.479   1.001  13.923  0.1154 -0.3823 -0.3105
  800MPD2    H511793   1.499   1.026  13.827  1.5001  1.8737  0.5660
  800MPD2    N111794   1.715   1.410  14.006  0.1102  0.1186  0.2374
  800MPD2    H711795   1.767   1.460  14.078  0.5309  0.5102 -0.3462
  801MPD2     C11796   1.993   2.114  13.878 -0.6257 -0.6786 -0.3952
  801MPD2    C111797   1.956   1.997  13.941  0.2327  0.7063 -0.1892
  801MPD2    C211798   1.896   2.006  14.072 -0.1569 -0.1814 -0.1154
  801MPD2    C311799   1.887   2.130  14.132 -0.6398 -0.2004  0.6336
  801MPD2    C411800   1.923   2.246  14.065 -1.0133 -1.0838  0.3538
  801MPD2    C511801   1.982   2.231  13.940 -0.2486  0.1198 -0.4249
  801MPD2     H11802   1.879   1.909  14.117  1.0592 -0.1565  0.3916
  801MPD2    H111803   1.907   2.341  14.114 -0.7502 -0.0288 -1.6434
  801MPD2    H211804   2.045   2.117  13.782  1.2265  0.6446  0.6510
  801MPD2    H311805   2.016   2.323  13.895  0.3804  0.1868  0.1892
  801MPD2     N11806   1.831   2.143  14.265  0.3117  0.0129 -0.2691
  801MPD2    H511807   1.850   2.227  14.317  3.6151 -0.7233 -0.2531
  801MPD2    N111808   1.960   1.869  13.881 -0.1884 -0.0808  0.2610
  801MPD2    H711809   1.917   1.790  13.929  0.7100 -1.2130 -0.8108
  802MPD2     C11810   0.793   0.600  17.692  0.1361 -0.0025 -0.3866
  802MPD2    C111811   0.820   0.730  17.660  0.1037  0.3215 -0.7902
  802MPD2    C211812   0.897   0.751  17.545  0.3882  0.1651 -0.7428
  802MPD2    C311813   0.938   0.652  17.463 -0.4404  0.4090 -0.8547
  802MPD2    C411814   0.909   0.525  17.497 -0.2362 -0.2357 -0.2248
  802MPD2    C511815   0.842   0.495  17.614  0.1975  0.2977 -0.0814
  802MPD2     H11816   0.944   0.846  17.523  1.5955 -0.6382 -1.6640
  802MPD2    H111817   0.937   0.439  17.437  0.2791 -0.0371 -0.2706
  802MPD2    H211818   0.750   0.574   0.093 -1.0244 -0.9659 -1.1685
  802MPD2    H311819   0.816   0.400  17.659  0.5307  0.3514  0.2332
  802MPD2     N11820   1.003   0.697  17.345  0.3906  0.2862 -0.7336
  802MPD2    H511821   0.995   0.795  17.318  1.2007  1.0081  1.5925
  802MPD2    N111822   0.797   0.842   0.043 -0.7787 -0.1660 -0.1589
  802MPD2    H711823   0.844   0.928   0.018 -2.7381  1.1567  0.7378
  803MPD2     C11824   2.175   0.516  11.648  0.3541  0.0842 -0.4586
  803MPD2    C111825   2.151   0.500  11.786  0.4550 -0.4064 -0.2052
  803MPD2    C211826   2.096   0.378  11.826 -0.2137 -0.2038  0.1640
  803MPD2    C311827   2.074   0.274  11.729 -0.5344 -0.2310  0.5552
  803MPD2    C411828   2.125   0.289  11.604 -0.2682 -0.5067  0.4463
  803MPD2    C511829   2.173   0.410  11.562  0.1215  0.9255  0.7696
  803MPD2     H11830   2.068   0.366  11.929 -0.2522 -0.7639  0.0864
  803MPD2    H111831   2.126   0.199  11.544 -2.1680  0.0278 -0.3893
  803MPD2    H211832   2.213   0.607  11.604 -1.9049  0.5140 -1.5645
  803MPD2    H311833   2.218   0.412  11.463 -2.8690  0.6925 -0.5787
  803MPD2     N11834   2.008   0.152  11.766 -0.5936  0.0865 -0.3441
  803MPD2    H511835   1.972   0.087  11.697  0.6598  0.1737 -1.0883
  803MPD2    N111836   2.184   0.591  11.894 -0.0517 -0.7322  0.2245
  803MPD2    H711837   2.143   0.574  11.986 -3.3414  0.7158 -0.9687
  804MPD2     C11838   1.466   1.608  16.970 -0.3064  0.5578 -0.3288
  804MPD2    C111839   1.586   1.561  17.030 -0.5650 -0.0210  0.2084
  804MPD2    C211840   1.677   1.655  17.086 -0.8055 -0.7580  1.0647
  804MPD2    C311841   1.655   1.787  17.083  0.0931  0.4789 -0.1029
  804MPD2    C411842   1.537   1.832  17.024  1.3480 -0.4152 -0.7073
  804MPD2    C511843   1.446   1.742  16.976 -0.3311  0.1563 -0.1650
  804MPD2     H11844   1.768   1.619  17.134 -1.1224 -1.7278  0.9527
  804MPD2    H111845   1.513   1.937  17.030  1.7959 -0.2686 -1.5858
  804MPD2    H211846   1.394   1.543  16.921  0.9799 -1.4710  0.4894
  804MPD2    H311847   1.349   1.783  16.952  0.0830  0.6998 -0.9489
  804MPD2     N11848   1.734   1.873  17.151 -0.1209 -0.3850  0.9429
  804MPD2    H511849   1.806   1.825  17.204  2.0064  0.6286 -1.0283
  804MPD2    N111850   1.620   1.426  17.042 -0.0666  0.1595  0.4917
  804MPD2    H711851   1.702   1.410  17.099  0.3061  0.7448  0.1267
  805MPD2     C11852   0.748   4.692  15.747 -0.8012  0.4101 -0.1291
  805MPD2    C111853   0.793   4.581  15.676 -0.3303 -0.1719 -0.3552
  805MPD2    C211854   0.931   4.552  15.662  0.5012 -0.0979 -0.9202
  805MPD2    C311855   1.019   4.644  15.720  0.7061 -0.3821 -0.6235
  805MPD2    C411856   0.974   0.025  15.795  0.3020 -0.2845  0.6672
  805MPD2    C511857   0.838   0.058  15.798 -0.5075 -0.3302  0.4546
  805MPD2     H11858   0.970   4.462  15.617 -2.8760 -0.7399 -2.5105
  805MPD2    H111859   1.038   0.088  15.856  0.3836  0.9114 -0.6516
  805MPD2    H211860   0.645   4.711  15.777 -0.6383  0.1175  0.6118
  805MPD2    H311861   0.788   0.127  15.865 -0.4073 -1.3607  1.5947
  805MPD2     N11862   1.156   4.611  15.721  0.2984  0.1852 -0.2927
  805MPD2    H511863   1.179   4.527  15.669 -3.0957 -0.9659  0.1273
  805MPD2    N111864   0.705   4.477  15.632  0.1346 -0.3220 -0.1209
  805MPD2    H711865   0.742   4.392  15.592 -0.3632  0.2389 -1.7923
  806MPD2     C11866   1.195   4.026  17.404 -0.5342  0.8446  0.6077
  806MPD2    C111867   1.156   4.040  17.535 -0.4576  0.2274 -0.2517
  806MPD2    C211868   1.129   4.171  17.583 -0.7012 -0.3694  0.1746
  806MPD2    C311869   1.161   4.282  17.507  0.3883  1.1906  0.9637
  806MPD2    C411870   1.199   4.271  17.375 -0.3865  0.5656  0.2189
  806MPD2    C511871   1.214   4.144  17.326 -0.0960 -0.4657  0.3167
  806MPD2     H11872   1.104   4.190  17.686  2.5159 -0.1399  0.9028
  806MPD2    H111873   1.212   4.354  17.306 -1.4652  0.4054 -0.1745
  806MPD2    H211874   1.227   3.932  17.361 -0.2882  0.1991  2.2032
  806MPD2    H311875   1.232   4.142  17.219 -1.1336 -1.8481  0.1730
  806MPD2     N11876   1.139   4.409  17.568 -0.1819 -0.3450 -0.6341
  806MPD2    H511877   1.115   4.405  17.667 -2.5253  2.2974 -1.0882
  806MPD2    N111878   1.131   3.927  17.615 -0.4449  0.4484  0.0494
  806MPD2    H711879   1.127   3.835  17.571 -0.6364 -0.0203  1.0538
  807MPD2     C11880   0.768   3.222   0.039  0.3134 -0.2923 -0.3250
  807MPD2    C111881   0.735   3.314   0.135  0.5581  0.3273 -0.3555
  807MPD2    C211882   0.645   3.273   0.229 -0.4986  0.6119  0.2539
  807MPD2    C311883   0.606   3.146   0.248  0.0538  0.3214  0.0968
  807MPD2    C411884   0.650   3.049   0.156 -0.2426  0.5367 -0.2569
  807MPD2    C511885   0.718   3.095   0.049 -0.0777 -0.2200  0.3921
  807MPD2     H11886   0.606   3.348   0.297 -2.2050 -1.2807  1.3422
  807MPD2    H111887   0.623   2.944   0.154 -0.2666  0.5534 -0.8382
  807MPD2    H211888   0.819   3.245  17.641 -1.5445  0.7197 -1.0978
  807MPD2    H311889   0.752   3.024  17.669  1.1533 -1.2891  1.9721
  807MPD2     N11890   0.517   3.109   0.354 -0.7898 -0.0386 -0.1183
  807MPD2    H511891   0.466   3.183   0.401 -1.2799  0.1799 -0.9841
  807MPD2    N111892   0.790   3.443   0.143  0.2948  0.2718 -0.2045
  807MPD2    H711893   0.775   3.500   0.226  1.9379  0.0023  0.2844
  808MPD2     C11894   2.601   0.427   9.901 -0.3062 -0.1798 -0.8264
  808MPD2    C111895   2.473   0.482   9.930 -0.3219  0.0149  0.2585
  808MPD2    C211896   2.473   0.616   9.954  0.1954 -0.5297 -0.7248
  808MPD2    C311897   2.588   0.695   9.954 -0.0534 -0.7202  0.1981
  808MPD2    C411898   2.711   0.637   9.934  0.5863  0.7431  0.0273
  808MPD2    C511899   2.714   0.510   9.895  0.2533 -1.1421  0.0234
  808MPD2     H11900   2.379   0.668   9.966 -0.1312 -1.8923  2.7152
  808MPD2    H111901   2.808   0.685   9.934  0.5669  0.7727 -0.7249
  808MPD2    H211902   2.609   0.326   9.862  2.4393 -1.2152  2.3298
  808MPD2    H311903   2.812   0.470   9.874  0.3065 -1.1208  0.2266
  808MPD2     N11904   2.581   0.836   9.958  0.1123  0.1864 -0.1895
  808MPD2    H511905   2.663   0.892   9.937  1.4153 -1.9857 -0.9555
  808MPD2    N111906   2.348   0.419   9.904 -0.2118  0.3918  0.4704
  808MPD2    H711907   2.265   0.476   9.918 -0.6843 -0.4807  1.1798
  809MPD2     C11908   2.698   1.672   9.443  0.6295  0.1909  0.9328
  809MPD2    C111909   2.752   1.546   9.452  0.2064  0.2088 -0.9871
  809MPD2    C211910   2.733   1.464   9.564 -0.3152  0.0074  0.3407
  809MPD2    C311911   2.676   1.510   9.678  0.7063 -0.1947 -0.5006
  809MPD2    C411912   2.624   1.637   9.676 -0.5151  0.4709 -0.1925
  809MPD2    C511913   2.643   1.714   9.563 -1.0384  0.2562  0.5424
  809MPD2     H11914   2.772   1.363   9.566 -1.8671 -0.6325 -1.2997
  809MPD2    H111915   2.579   1.683   9.763  1.2529 -1.1686  1.6216
  809MPD2    H211916   2.709   1.747   9.365 -0.0319  0.1712  0.8221
  809MPD2    H311917   2.607   1.816   9.569 -1.3319  0.1073  1.2758
  809MPD2     N11918   2.648   1.434   9.796  0.0633  0.8748  0.3349
  809MPD2    H511919   2.597   1.484   9.868 -1.1879 -1.3050  0.9584
  809MPD2    N111920   2.809   1.482   9.336 -0.0526 -0.1039 -0.1227
  809MPD2    H711921   2.834   1.384   9.345 -2.3036 -0.5656  1.1046
  810MPD2     C11922   1.988   0.281  10.552 -0.4767 -0.8967 -0.2435
  810MPD2    C111923   1.877   0.223  10.495 -0.3228  0.1353 -0.4808
  810MPD2    C211924   1.776   0.306  10.448 -0.1300  0.2665 -0.9080
  810MPD2    C311925   1.786   0.445  10.462  0.0924  0.1798  0.0292
  810MPD2    C411926   1.892   0.501  10.534 -0.1618  0.4323  0.1234
  810MPD2    C511927   1.987   0.414  10.581  0.5752 -0.3670 -0.0217
  810MPD2     H11928   1.710   0.263  10.375 -2.3666  1.3814  0.4599
  810MPD2    H111929   1.897   0.608  10.550 -0.3983  0.7129 -1.5862
  810MPD2    H211930   2.066   0.216  10.590  0.7647 -0.4448 -2.0295
  810MPD2    H311931   2.074   0.447  10.637  0.3901  0.0446  0.0225
  810MPD2     N11932   1.698   0.533  10.402 -1.0816  0.2298 -0.2752
  810MPD2    H511933   1.724   0.631  10.397 -0.0104  0.0505  1.8336
  810MPD2    N111934   1.888   0.087  10.450 -0.0148 -0.2466  0.2545
  810MPD2    H711935   1.979   0.045  10.460  0.7201  1.6745  1.7021
  811MPD2     C11936   1.494   4.635   9.752 -1.5136 -0.2012 -0.1259
  811MPD2    C111937   1.587   4.709   9.822 -0.3602  0.0942 -1.0971
  811MPD2    C211938   1.601   0.122   9.791 -0.7728 -0.3632 -0.3384
  811MPD2    C311939   1.535   0.182   9.684  0.9211  0.4985 -0.1810
  811MPD2    C411940   1.442   0.105   9.611 -0.0837 -0.2308  0.0177
  811MPD2    C511941   1.427   4.698   9.647  0.4609 -0.3562 -0.3760
  811MPD2     H11942   1.668   0.183   9.850  2.2551 -2.2880 -1.7690
  811MPD2    H111943   1.365   0.151   9.550 -0.8752 -1.2643  0.2496
  811MPD2    H211944   1.464   4.535   9.781  0.5016 -0.2828  1.6615
  811MPD2    H311945   1.372   4.641   9.572 -1.1835 -1.7401  1.8686
  811MPD2     N11946   1.549   0.321   9.662 -0.6143  0.1938 -0.0487
  811MPD2    H511947   1.609   0.368   9.729 -0.4355 -0.1251  0.0118
  811MPD2    N111948   1.652   4.635   9.918 -0.3056  0.4255 -0.0398
  811MPD2    H711949   1.608   4.546   9.938 -2.2348  1.3245 -0.2221
  812MPD2     C11950   0.352   0.210  12.571 -0.5267  0.1922  0.2013
  812MPD2    C111951   0.258   0.300  12.574 -0.0205  1.2960  0.0382
  812MPD2    C211952   0.165   0.282  12.674  0.5813 -0.3265 -0.2229
  812MPD2    C311953   0.169   0.180  12.761  0.0587 -1.1562 -0.0329
  812MPD2    C411954   0.261   0.084  12.755 -0.3497  0.4091 -0.2082
  812MPD2    C511955   0.359   0.102  12.660 -0.0107  0.0811  0.5173
  812MPD2     H11956   0.076   0.343  12.685  1.4284  1.0629 -0.9869
  812MPD2    H111957   0.272   0.010  12.834 -0.5080  2.5663  1.8560
  812MPD2    H211958   0.434   0.221  12.501  0.0710 -1.2103  0.6824
  812MPD2    H311959   0.447   0.038  12.660 -0.2214 -0.2112  0.6066
  812MPD2     N11960   0.066   0.178  12.854  0.4685 -0.1707  0.4465
  812MPD2    H511961   0.005   0.258  12.866  0.8204  0.2908 -0.8856
  812MPD2    N111962   0.256   0.410  12.485  0.2678  0.1022 -0.3932
  812MPD2    H711963   0.336   0.428  12.425  1.5939  1.7249  1.8839
  813MPD2     C11964   4.152   2.221  12.720  0.1927 -0.9625  0.9110
  813MPD2    C111965   4.178   2.356  12.737 -0.3876 -1.0372  0.5436
  813MPD2    C211966   4.126   2.430  12.847 -0.1424  0.2639 -0.0110
  813MPD2    C311967   4.054   2.362  12.942  0.1018  0.0353  0.5634
  813MPD2    C411968   4.018   2.232  12.918  0.7168 -1.2030  0.4177
  813MPD2    C511969   4.069   2.159  12.810  0.0569  0.6227  0.4290
  813MPD2     H11970   4.161   2.531  12.864 -1.2795  1.0700 -2.5075
  813MPD2    H111971   3.945   2.184  12.982 -1.9824  0.0361 -1.7332
  813MPD2    H211972   4.197   2.170  12.635 -0.0380  0.8761 -0.3019
  813MPD2    H311973   4.041   2.056  12.795 -1.9195  1.1896  0.2247
  813MPD2     N11974   4.002   2.444  13.045 -0.4606  0.2460 -0.3539
  813MPD2    H511975   4.022   2.543  13.047 -0.1319  0.1681  0.1822
  813MPD2    N111976   4.268   2.413  12.644 -0.0793 -0.6360 -0.1510
  813MPD2    H711977   4.323   2.349  12.588 -0.7974 -0.0641 -1.5013
  814MPD2     C11978   0.565   3.801  11.810  0.0516  0.1648 -0.0423
  814MPD2    C111979   0.478   3.728  11.893  0.6215 -0.7712  0.3576
  814MPD2    C211980   0.404   3.793  11.991 -0.0715  0.3516  0.0834
  814MPD2    C311981   0.431   3.926  12.024 -0.3472  0.6973 -0.3723
  814MPD2    C411982   0.522   3.994  11.943  0.0799 -0.6492 -0.2214
  814MPD2    C511983   0.587   3.930  11.837  0.0534 -1.0194 -0.3232
  814MPD2     H11984   0.332   3.738  12.049  0.6988 -1.5470 -0.7681
  814MPD2    H111985   0.549   4.097  11.962  1.8537 -1.1284 -0.1407
  814MPD2    H211986   0.612   3.760  11.722  1.1312 -0.2745  0.7382
  814MPD2    H311987   0.664   3.980  11.779  1.0121 -0.9543  0.9955
  814MPD2     N11988   0.353   3.996  12.114  0.2267 -0.3685 -0.5829
  814MPD2    H511989   0.345   4.097  12.104 -0.8725 -0.5455 -1.4745
  814MPD2    N111990   0.446   3.595  11.876 -0.2713 -0.1273 -0.0462
  814MPD2    H711991   0.366   3.563  11.930  0.7570  0.0497  1.5679
  815MPD2     C11992   0.491   1.455  12.124  0.2610 -0.9066 -0.9612
  815MPD2    C111993   0.389   1.451  12.029  0.1452  0.1140 -0.4321
  815MPD2    C211994   0.260   1.467  12.069  0.2767 -0.8055  0.6528
  815MPD2    C311995   0.230   1.495  12.197  0.5046  0.7301  0.2343
  815MPD2    C411996   0.331   1.497  12.291 -0.0172 -0.0887  0.0239
  815MPD2    C511997   0.459   1.473  12.253 -0.2139 -1.2345  0.5590
  815MPD2     H11998   0.179   1.471  11.997  2.3310 -0.8312 -1.6431
  815MPD2    H111999   0.310   1.529  12.393 -0.6536 -1.7594  0.4194
  815MPD2    H212000   0.597   1.448  12.099  0.6032  0.5956  0.0908
  815MPD2    H312001   0.543   1.482  12.322  0.5225 -2.8025 -0.1131
  815MPD2     N12002   0.090   1.496  12.233  0.2062 -0.3533 -0.1505
  815MPD2    H512003   0.030   1.489  12.152 -1.0945  1.6424  0.6613
  815MPD2    N112004   0.425   1.418  11.893  0.2082 -0.4859 -0.1739
  815MPD2    H712005   0.525   1.416  11.876  0.3722  0.1119  0.7348
  816MPD2     C12006   4.641   0.533  17.184  0.6990 -0.3481 -0.4143
  816MPD2    C112007   4.698   0.650  17.138  0.2918 -0.3514 -0.4151
  816MPD2    C212008   0.096   0.652  17.071  0.6121  0.1766  0.1167
  816MPD2    C312009   0.165   0.535  17.050  0.1424 -0.1203 -0.3958
  816MPD2    C412010   0.110   0.417  17.094 -0.0962  0.0324 -0.1336
  816MPD2    C512011   4.709   0.417  17.157  0.1016 -0.2464  0.3180
  816MPD2     H12012   0.131   0.747  17.033  1.8929 -0.4196 -0.2051
  816MPD2    H112013   0.160   0.322  17.079  0.7611  0.2891  1.1496
  816MPD2    H212014   4.545   0.530  17.233 -0.1204 -0.2758 -2.0327
  816MPD2    H312015   4.667   0.323  17.192  2.5177 -0.8978  1.4474
  816MPD2     N12016   0.283   0.536  16.966 -0.1405 -0.2689  0.1902
  816MPD2    H512017   0.327   0.625  16.942  0.4165 -0.6378 -0.1475
  816MPD2    N112018   4.627   0.777  17.163 -0.2221 -0.2354 -0.6034
  816MPD2    H712019   4.538   0.761  17.210 -1.3394 -0.4248 -2.7711
  817MPD2     C12020   0.216   2.417  10.112  0.1188 -0.0623 -0.6764
  817MPD2    C112021   0.114   2.401  10.015  0.5826 -0.2590 -0.2307
  817MPD2    C212022   0.023   2.503  10.005  0.0242 -0.5670 -0.0415
  817MPD2    C312023   0.032   2.617  10.080 -0.2491 -0.5035 -0.3095
  817MPD2    C412024   0.127   2.625  10.178 -0.5695  0.5058  0.2467
  817MPD2    C512025   0.219   2.524  10.193 -0.2695 -0.2057 -0.1292
  817MPD2     H12026   4.678   2.491   9.922  2.2216 -0.9471 -1.8232
  817MPD2    H112027   0.138   2.717  10.233  3.0502 -0.1615  0.6325
  817MPD2    H212028   0.274   2.329  10.140 -0.5912 -0.3911 -0.2219
  817MPD2    H312029   0.293   2.536  10.271 -0.4238  0.1670 -0.0403
  817MPD2     N12030   4.651   2.709  10.063 -0.1790  0.0642  0.3605
  817MPD2    H512031   4.563   2.682  10.021 -0.7042  2.0152  0.1773
  817MPD2    N112032   0.101   2.290   9.930 -0.1185  0.4466  0.0420
  817MPD2    H712033   0.026   2.289   9.862  1.2381 -1.6333 -1.4098
  818MPD2     C12034   3.940   2.650  10.414  0.2152  0.6492 -0.0811
  818MPD2    C112035   3.880   2.604  10.295 -0.8166  0.3025  0.1396
  818MPD2    C212036   3.934   2.482  10.233 -0.0666 -0.3097  0.3367
  818MPD2    C312037   4.018   2.399  10.313 -0.0767 -0.2678 -0.1378
  818MPD2    C412038   4.071   2.444  10.433  0.2451 -0.2961 -0.3640
  818MPD2    C512039   4.040   2.572  10.473 -0.2025 -0.3693  0.3684
  818MPD2     H12040   3.886   2.441  10.145  0.1058  0.8754 -0.3132
  818MPD2    H112041   4.155   2.393  10.479 -1.2355 -1.6521  0.8285
  818MPD2    H212042   3.915   2.745  10.458 -2.5128 -0.1301  0.0223
  818MPD2    H312043   4.090   2.615  10.559 -1.4779 -2.3434  2.1029
  818MPD2     N12044   4.041   2.266  10.272 -0.1648  0.3472  0.3401
  818MPD2    H512045   4.084   2.214  10.347 -2.6787 -1.3681  0.6214
  818MPD2    N112046   3.761   2.659  10.244 -0.0422 -0.5818  0.4374
  818MPD2    H712047   3.707   2.602  10.180  0.3577  1.1092 -1.4098
  819MPD2     C12048   1.358   4.045  15.695  0.2181  0.8367 -0.5954
  819MPD2    C112049   1.422   3.935  15.645 -0.6727  0.4884  0.3056
  819MPD2    C212050   1.559   3.918  15.660 -0.1319 -0.6897  0.2310
  819MPD2    C312051   1.631   4.017  15.723 -0.5985  0.2886  0.3864
  819MPD2    C412052   1.567   4.124  15.769 -0.5681 -0.2624  0.7434
  819MPD2    C512053   1.433   4.144  15.753  0.1373  0.0796  0.2107
  819MPD2     H12054   1.613   3.829  15.630  0.9984  0.1830 -0.2837
  819MPD2    H112055   1.620   4.198  15.828 -1.4777  1.0063 -0.0432
  819MPD2    H212056   1.250   4.052  15.697  0.2342  0.7913  0.3398
  819MPD2    H312057   1.385   4.231  15.799  1.6100 -0.0073  1.8963
  819MPD2     N12058   1.773   4.012  15.722 -0.0583  0.0776  0.3370
  819MPD2    H512059   1.817   3.927  15.689 -1.8400 -0.0249 -1.7690
  819MPD2    N112060   1.343   3.833  15.580 -0.2730 -0.4655 -0.2985
  819MPD2    H712061   1.243   3.851  15.580  0.0882  1.5269 -0.0425
  820MPD2     C12062   0.561   3.852  15.208  0.4758  0.0615  0.1150
  820MPD2    C112063   0.594   3.874  15.345  0.3444 -0.0785  0.2667
  820MPD2    C212064   0.686   3.795  15.402  0.0295 -0.3292  0.2898
  820MPD2    C312065   0.747   3.691  15.335  0.1800 -0.2493  0.3663
  820MPD2    C412066   0.718   3.671  15.207 -1.0292 -0.3811 -0.0617
  820MPD2    C512067   0.627   3.753  15.141  0.0275 -1.1256 -0.2213
  820MPD2     H12068   0.730   3.812  15.499  0.5313 -3.5425  0.6349
  820MPD2    H112069   0.778   3.596  15.156  2.2040  1.5268  0.9759
  820MPD2    H212070   0.487   3.914  15.160 -0.4480 -0.1508  1.2540
  820MPD2    H312071   0.594   3.734  15.039 -0.7584  0.0198 -0.1805
  820MPD2     N12072   0.852   3.608  15.383 -0.6676 -0.5347  0.4617
  820MPD2    H512073   0.888   3.545  15.312  0.2050 -1.4139  1.6953
  820MPD2    N112074   0.530   3.986  15.409 -0.2705  0.3050 -0.0295
  820MPD2    H712075   0.488   4.053  15.346 -1.6122  1.0940  1.6872
  821MPD2     C12076   1.514   0.874  13.208  0.1891 -0.0203  0.1658
  821MPD2    C112077   1.634   0.852  13.278 -0.2340  0.1118  0.5020
  821MPD2    C212078   1.753   0.869  13.211 -0.4205 -0.1552 -0.2313
  821MPD2    C312079   1.752   0.908  13.077  0.1721  0.5284 -0.2551
  821MPD2    C412080   1.639   0.926  13.008  0.0190  0.3559 -0.7926
  821MPD2    C512081   1.519   0.916  13.074  0.2562 -0.5676  0.1420
  821MPD2     H12082   1.847   0.862  13.264 -1.1735  0.7698  1.2256
  821MPD2    H112083   1.638   0.953  12.903 -0.4270  0.8518 -0.6641
  821MPD2    H212084   1.415   0.874  13.252 -0.2907  0.7310 -0.8918
  821MPD2    H312085   1.435   0.946  13.014 -1.1127  0.4128  2.5279
  821MPD2     N12086   1.869   0.923  13.005 -0.0253  0.0674 -0.3135
  821MPD2    H512087   1.857   0.972  12.916 -2.2075 -1.7151 -0.9939
  821MPD2    N112088   1.634   0.813  13.408  0.3090  0.7233 -0.2783
  821MPD2    H712089   1.722   0.799  13.458 -0.6087 -0.8187  0.9190
  822MPD2     C12090   2.244   0.937  15.624  0.8318  0.3184 -0.2025
  822MPD2    C112091   2.227   0.877  15.747 -0.2380  0.3269 -0.4802
  822MPD2    C212092   2.201   0.957  15.857  0.3284 -0.5119 -0.2961
  822MPD2    C312093   2.188   1.090  15.849  0.7107 -0.2199 -0.7406
  822MPD2    C412094   2.212   1.148  15.729 -0.5211 -0.0353  0.9145
  822MPD2    C512095   2.242   1.073  15.617  0.2404  0.1861  0.4547
  822MPD2     H12096   2.194   0.914  15.956  0.8645 -0.4631 -0.2344
  822MPD2    H112097   2.209   1.256  15.715  1.1609 -0.1014  0.0658
  822MPD2    H212098   2.269   0.875  15.538  4.8963  1.0762  0.4023
  822MPD2    H312099   2.266   1.114  15.520  0.5664 -1.3254 -0.1019
  822MPD2     N12100   2.158   1.160  15.970 -0.4708  0.5300  0.5381
  822MPD2    H512101   2.132   1.112  16.056  1.3259  1.4062  1.5768
  822MPD2    N112102   2.243   0.740  15.769  0.5774 -0.0918  0.2797
  822MPD2    H712103   2.225   0.712  15.865 -0.7147  0.7617  0.2724
  823MPD2     C12104   1.992   1.142  16.787 -0.0189 -0.3642  0.2070
  823MPD2    C112105   2.003   1.086  16.659 -0.2535 -0.0581 -0.2150
  823MPD2    C212106   1.980   0.949  16.633 -0.2974  0.6620 -0.3873
  823MPD2    C312107   1.959   0.868  16.741 -0.0068  0.0041 -0.4374
  823MPD2    C412108   1.938   0.918  16.868 -0.3937 -0.0863  0.2008
  823MPD2    C512109   1.965   1.051  16.885  0.0859 -0.3173 -0.2318
  823MPD2     H12110   1.974   0.908  16.533  2.5573 -2.5126  0.7497
  823MPD2    H112111   1.901   0.859  16.952 -0.1370  1.1176  1.1462
  823MPD2    H212112   2.008   1.242  16.825  0.3333  0.3177 -1.7183
  823MPD2    H312113   1.960   1.088  16.987 -1.8295 -1.0654 -0.0546
  823MPD2     N12114   1.943   0.727  16.738  0.2120  0.1247 -0.2358
  823MPD2    H512115   1.911   0.686  16.825 -0.1289  0.1110 -0.3638
  823MPD2    N112116   2.025   1.178  16.554  0.0799 -0.1213  0.1493
  823MPD2    H712117   2.058   1.271  16.582 -1.7179 -0.4872  3.5685
  824MPD2     C12118   2.433   4.608  15.620  0.2098  0.2853 -0.7255
  824MPD2    C112119   2.527   4.701  15.665 -0.3240 -0.6158  0.4403
  824MPD2    C212120   2.661   4.669  15.678 -0.1498 -0.1056 -0.7472
  824MPD2    C312121   2.708   4.541  15.666  0.1949 -0.7622  0.1496
  824MPD2    C412122   2.615   4.443  15.645  0.0663 -0.3343 -0.6683
  824MPD2    C512123   2.483   4.482  15.624 -0.3278  0.3233  0.1042
  824MPD2     H12124   2.735   0.025  15.683  1.3719 -1.5732  0.0374
  824MPD2    H112125   2.646   4.339  15.635  1.1028  0.1035 -1.9839
  824MPD2    H212126   2.327   4.625  15.602 -0.1290 -2.4690 -1.2126
  824MPD2    H312127   2.419   4.402  15.591  0.8206 -1.6699  2.6611
  824MPD2     N12128   2.849   4.520  15.664  0.1055 -0.2582 -0.6839
  824MPD2    H512129   2.904   4.605  15.663 -0.9877  0.4804  1.8836
  824MPD2    N112130   2.501   0.114  15.694 -0.6878 -0.6588  0.4503
  824MPD2    H712131   2.576   0.165  15.740  0.5405 -0.5098 -1.6678
  825MPD2     C12132   3.358   4.570  15.009  0.0589 -0.2008  0.1998
  825MPD2    C112133   3.316   4.638  15.123 -0.7797 -0.1887 -0.1847
  825MPD2    C212134   3.305   0.054  15.102  0.5504 -0.4185  0.0341
  825MPD2    C312135   3.352   0.119  14.986 -0.0936 -0.0836  0.4371
  825MPD2    C412136   3.394   0.042  14.875 -0.4350 -0.4476  0.0284
  825MPD2    C512137   3.400   4.630  14.894 -0.1887  0.5248 -0.2984
  825MPD2     H12138   3.255   0.118  15.174  0.2271 -0.6455  0.0144
  825MPD2    H112139   3.422   0.074  14.775  1.6829  0.4578  0.9090
  825MPD2    H212140   3.346   4.463  15.023  1.1791 -0.0223  2.5494
  825MPD2    H312141   3.426   4.563  14.812 -0.4536  0.1410 -0.0638
  825MPD2     N12142   3.339   0.255  14.957  0.0863  0.0835  0.1912
  825MPD2    H512143   3.375   0.292  14.869  0.2965  1.6017  0.9238
  825MPD2    N112144   3.274   4.568  15.240 -0.6841  0.9956  0.4551
  825MPD2    H712145   3.281   4.466  15.239  0.4443  1.0640  0.6788
  826MPD2     C12146   2.775   0.233  13.491 -0.2074  0.3661 -0.1158
  826MPD2    C112147   2.673   0.203  13.399  0.2090 -0.1596 -0.2087
  826MPD2    C212148   2.548   0.262  13.432  0.1467  0.4344  0.9428
  826MPD2    C312149   2.536   0.342  13.546  0.0406  0.2628 -0.0649
  826MPD2    C412150   2.641   0.371  13.631  0.1623  0.3359  0.4922
  826MPD2    C512151   2.758   0.310  13.601 -0.6800 -0.1216  0.2286
  826MPD2     H12152   2.460   0.231  13.376 -0.3348  0.4806  1.6720
  826MPD2    H112153   2.635   0.419  13.728  1.8858  0.4699  0.5427
  826MPD2    H212154   2.879   0.208  13.472  0.0160  0.5994  0.7782
  826MPD2    H312155   2.843   0.334  13.664  0.3840 -0.2697 -1.1336
  826MPD2     N12156   2.414   0.405  13.580  0.1636  0.1818  0.4335
  826MPD2    H512157   2.419   0.474  13.655  0.8606 -1.2912  1.7301
  826MPD2    N112158   2.694   0.114  13.289 -0.0820 -0.0497  0.4594
  826MPD2    H712159   2.783   0.066  13.283  0.2003  0.6265 -0.8172
  827MPD2     C12160   4.245   1.881   9.971  0.2241 -0.0152  0.4773
  827MPD2    C112161   4.241   1.753  10.016 -0.2107 -0.2883  0.1648
  827MPD2    C212162   4.170   1.668   9.938  0.2607  0.1913  0.3237
  827MPD2    C312163   4.080   1.704   9.843  0.9762  0.3680 -0.3569
  827MPD2    C412164   4.086   1.835   9.798 -0.0138 -0.4073 -0.7958
  827MPD2    C512165   4.166   1.928   9.866 -0.3695 -0.0842 -0.0160
  827MPD2     H12166   4.162   1.562   9.955  1.2451 -0.0280 -0.5523
  827MPD2    H112167   4.025   1.881   9.722 -1.0759  0.7982  0.8074
  827MPD2    H212168   4.306   1.950  10.028  0.1807 -0.0736  0.5946
  827MPD2    H312169   4.163   2.032   9.834 -1.1155 -0.9894 -2.8327
  827MPD2     N12170   4.003   1.608   9.774 -0.3995 -0.2036  0.0952
  827MPD2    H512171   4.006   1.512   9.806  1.0781  0.3951  1.7910
  827MPD2    N112172   4.299   1.728  10.142 -0.2452 -0.2610 -0.4439
  827MPD2    H712173   4.359   1.795  10.189 -0.5231 -1.6339  1.9112
  828MPD2     C12174   2.120   1.282  12.315 -0.3925 -0.1250  0.4006
  828MPD2    C112175   2.088   1.257  12.188  0.6038  0.8054 -0.7004
  828MPD2    C212176   2.179   1.232  12.090 -0.8490  0.2361  0.1958
  828MPD2    C312177   2.315   1.232  12.121  0.1478  0.0965  0.0210
  828MPD2    C412178   2.351   1.253  12.251 -0.2866  0.2740 -0.8902
  828MPD2    C512179   2.255   1.268  12.348  0.7440 -0.2584  0.0502
  828MPD2     H12180   2.135   1.205  11.994 -0.0542  0.9145 -0.3592
  828MPD2    H112181   2.452   1.245  12.289 -1.4100  0.1013  2.1362
  828MPD2    H212182   2.056   1.306  12.399  0.9079 -0.2189  1.4285
  828MPD2    H312183   2.293   1.289  12.447  0.8116 -0.7794  0.1358
  828MPD2     N12184   2.420   1.208  12.029  0.2023 -0.2289 -0.4237
  828MPD2    H512185   2.511   1.197  12.072  0.8546 -0.3770 -1.8197
  828MPD2    N112186   1.953   1.247  12.146 -0.4014 -0.2426  0.0896
  828MPD2    H712187   1.939   1.239  12.046  2.7618  1.5506 -0.4823
  829MPD2     C12188   1.838   1.698  11.399 -0.0512 -0.2479  0.0534
  829MPD2    C112189   1.708   1.668  11.439  0.7236 -0.1154 -0.7641
  829MPD2    C212190   1.691   1.597  11.553  0.6744 -0.1887 -0.6302
  829MPD2    C312191   1.793   1.536  11.620  0.3884 -0.0534 -1.1768
  829MPD2    C412192   1.923   1.562  11.573  0.2261  0.1224  0.1096
  829MPD2    C512193   1.949   1.645  11.464 -0.1439 -0.4573 -0.5320
  829MPD2     H12194   1.587   1.579  11.578  0.7771  0.7602  0.4903
  829MPD2    H112195   2.011   1.514  11.613  0.5644  0.8737  0.2444
  829MPD2    H212196   1.859   1.753  11.308  1.4376 -0.6474  0.1522
  829MPD2    H312197   2.048   1.659  11.423 -0.9865 -0.0289 -2.3828
  829MPD2     N12198   1.780   1.457  11.740 -0.2165  0.2636 -0.3111
  829MPD2    H512199   1.865   1.447  11.795  0.2154 -1.5945 -1.3306
  829MPD2    N112200   1.604   1.720  11.364 -0.9168  0.3701 -0.1373
  829MPD2    H712201   1.628   1.745  11.268 -0.8628  0.8235 -0.0064
  830MPD2     C12202   2.597   3.868  15.693 -0.0014  0.1746 -0.6411
  830MPD2    C112203   2.484   3.913  15.630 -0.5456 -0.6954 -0.4012
  830MPD2    C212204   2.489   4.009  15.530  1.1287  0.7928 -0.0934
  830MPD2    C312205   2.612   4.068  15.512  0.1920 -0.4137 -0.1476
  830MPD2    C412206   2.726   4.024  15.577 -0.7654  0.2536  0.9022
  830MPD2    C512207   2.717   3.920  15.664  0.2141  0.5140 -0.0995
  830MPD2     H12208   2.401   4.048  15.480  0.8753  0.2249 -0.0919
  830MPD2    H112209   2.826   4.065  15.571 -0.3286 -0.9846 -0.3377
  830MPD2    H212210   2.583   3.785  15.761  2.6417  0.9369  0.8349
  830MPD2    H312211   2.805   3.885  15.716  1.2647  2.5537 -0.4770
  830MPD2     N12212   2.630   4.174  15.422 -0.9631  0.3690  0.7329
  830MPD2    H512213   2.724   4.213  15.433 -0.6924 -0.8120  2.5427
  830MPD2    N112214   2.358   3.858  15.681 -0.1422  0.2451  0.4186
  830MPD2    H712215   2.363   3.798  15.763  0.0791 -0.3823 -0.0478
  831MPD2     C12216   2.401   1.060  16.345  0.4683 -0.4497 -0.5034
  831MPD2    C112217   2.420   0.997  16.227 -0.3098 -0.2954 -0.8459
  831MPD2    C212218   2.359   0.880  16.196  0.2551 -0.3605  0.3884
  831MPD2    C312219   2.263   0.831  16.284 -0.3556  0.2070 -0.5550
  831MPD2    C412220   2.247   0.895  16.409  0.6053  0.3945  0.3954
  831MPD2    C512221   2.316   1.009  16.434 -0.5224 -0.2488 -0.3718
  831MPD2     H12222   2.376   0.849  16.093 -0.0113  0.3187  0.1418
  831MPD2    H112223   2.191   0.856  16.493  2.3530 -1.0446  0.8833
  831MPD2    H212224   2.452   1.151  16.374 -1.2499  0.3796 -0.0757
  831MPD2    H312225   2.300   1.063  16.527  0.5611  1.0215 -0.9352
  831MPD2     N12226   2.162   0.732  16.257  0.0418  0.2460 -0.1236
  831MPD2    H512227   2.102   0.712  16.336 -1.8057 -1.2481 -1.9064
  831MPD2    N112228   2.504   1.047  16.130 -0.2946  0.2759 -0.1930
  831MPD2    H712229   2.517   0.988  16.050  0.0790 -0.8673  0.7128
  832MPD2     C12230   0.730   1.795  17.168  0.2145  0.7594  0.3119
  832MPD2    C112231   0.714   1.933  17.143  1.2261  0.0041 -0.1493
  832MPD2    C212232   0.624   1.977  17.040 -0.0989  0.4637  0.6533
  832MPD2    C312233   0.568   1.878  16.957 -0.2879  0.4469  0.5695
  832MPD2    C412234   0.598   1.743  16.983  0.0643  0.3360 -0.0950
  832MPD2    C512235   0.667   1.701  17.088 -0.3491  0.3029  0.5183
  832MPD2     H12236   0.608   2.083  17.019 -2.0948 -0.1743 -1.0252
  832MPD2    H112237   0.561   1.664  16.920  0.9201  1.0524 -1.4923
  832MPD2    H212238   0.790   1.754  17.248 -0.5015 -0.8021  0.0442
  832MPD2    H312239   0.662   1.595  17.106 -0.9098 -0.2004 -2.7117
  832MPD2     N12240   0.471   1.895  16.857 -0.4472  0.0745  0.5457
  832MPD2    H512241   0.414   1.817  16.827 -2.1532  1.8718 -0.8641
  832MPD2    N112242   0.789   2.016  17.224 -0.1736  0.4208  0.2998
  832MPD2    H712243   0.845   1.976  17.299 -0.5021  1.9275  1.3390
  833MPD2     C12244   2.583   3.842  12.496  0.5224  0.3888 -0.9303
  833MPD2    C112245   2.664   3.897  12.397  0.4625  0.6522  0.3796
  833MPD2    C212246   2.738   3.813  12.319  0.0844  0.4959 -0.3360
  833MPD2    C312247   2.741   3.678  12.345  0.0361 -0.1712  0.0262
  833MPD2    C412248   2.673   3.627  12.449  0.2950 -0.4989  0.1494
  833MPD2    C512249   2.590   3.712  12.524  0.6721 -0.7542 -0.2028
  833MPD2     H12250   2.796   3.845  12.233 -0.4442  1.2402 -0.4217
  833MPD2    H112251   2.689   3.523  12.477  2.9377  0.1278  0.9297
  833MPD2    H212252   2.533   3.913  12.560  1.1255 -0.1259  0.1194
  833MPD2    H312253   2.547   3.671  12.615 -0.5447  1.9845  0.4549
  833MPD2     N12254   2.828   3.587  12.276  0.3401 -0.0111  0.1499
  833MPD2    H512255   2.824   3.492  12.309  1.7956 -0.6565 -1.5035
  833MPD2    N112256   2.676   4.038  12.397  0.0717 -0.5420  0.0936
  833MPD2    H712257   2.605   4.094  12.443 -0.0319  0.2834 -1.0864
  834MPD2     C12258   2.831   2.790  11.674  0.0149  0.2113 -0.0259
  834MPD2    C112259   2.942   2.852  11.628  0.2930  0.6889 -0.1123
  834MPD2    C212260   2.978   2.974  11.682  0.3499  0.2421  0.6841
  834MPD2    C312261   2.904   3.034  11.781 -0.9366  1.0668  0.0588
  834MPD2    C412262   2.793   2.972  11.818  0.4246  0.4375  0.2635
  834MPD2    C512263   2.761   2.847  11.769  0.0441 -0.7089  0.2724
  834MPD2     H12264   3.074   3.022  11.665  0.4409 -0.3335 -0.4442
  834MPD2    H112265   2.724   3.018  11.888  0.5669  2.4841 -0.9270
  834MPD2    H212266   2.803   2.689  11.645  1.4211 -0.1773 -0.0291
  834MPD2    H312267   2.681   2.787  11.811 -0.4462  0.3500  0.8483
  834MPD2     N12268   2.955   3.155  11.844  0.1892 -0.1144 -0.7950
  834MPD2    H512269   3.047   3.189  11.819  0.7529 -2.4930 -2.0068
  834MPD2    N112270   3.012   2.779  11.528 -0.3774  0.1146 -0.2850
  834MPD2    H712271   2.975   2.687  11.505 -0.4315 -0.0331  0.4151
  835MPD2     C12272   3.014   0.986  11.028 -0.0932 -0.9219  0.8951
  835MPD2    C112273   2.937   1.102  11.055 -0.2267  0.0205  0.3403
  835MPD2    C212274   2.967   1.181  11.162 -0.2273  0.6604  0.5871
  835MPD2    C312275   3.067   1.150  11.254  0.6674  0.2937  0.1297
  835MPD2    C412276   3.141   1.040  11.224 -0.2128 -0.0886  0.8450
  835MPD2    C512277   3.119   0.956  11.110 -0.3756 -0.4689 -0.3472
  835MPD2     H12278   2.895   1.257  11.191 -1.4613  0.2696 -1.4110
  835MPD2    H112279   3.218   1.003  11.291  2.4783  0.6823 -1.8166
  835MPD2    H212280   2.993   0.915  10.949 -0.3608 -1.8285  1.7854
  835MPD2    H312281   3.172   0.862  11.095 -1.0960 -0.7972 -0.8527
  835MPD2     N12282   3.077   1.225  11.373  0.2107 -1.0840  0.3320
  835MPD2    H512283   3.001   1.288  11.393  1.9914  1.5099 -1.0946
  835MPD2    N112284   2.828   1.146  10.982  0.1496  0.2361  0.5703
  835MPD2    H712285   2.784   1.230  11.018  1.8244 -0.1664  3.5867
  836MPD2     C12286   2.571   1.390  11.544 -0.4876  0.2322 -0.7640
  836MPD2    C112287   2.637   1.431  11.651  0.4218  0.2969 -0.5864
  836MPD2    C212288   2.570   1.482  11.761  0.7604 -0.4551 -0.6708
  836MPD2    C312289   2.434   1.509  11.752  0.2807  0.2520 -0.0406
  836MPD2    C412290   2.374   1.474  11.632  0.1435  0.1772  0.0903
  836MPD2    C512291   2.436   1.418  11.532  0.0582  1.0082 -0.3459
  836MPD2     H12292   2.630   1.524  11.841  0.9500 -0.5660 -0.7543
  836MPD2    H112293   2.267   1.482  11.616  0.2197  0.6763 -0.1629
  836MPD2    H212294   2.627   1.353  11.459  0.2698 -0.4636  0.0439
  836MPD2    H312295   2.376   1.409  11.442  0.3073  1.3389 -0.5456
  836MPD2     N12296   2.356   1.559  11.864  0.3964  0.0636 -0.3706
  836MPD2    H512297   2.258   1.577  11.847  0.4059  0.2442 -0.2282
  836MPD2    N112298   2.779   1.403  11.658  0.2314 -0.5059 -0.0264
  836MPD2    H712299   2.824   1.374  11.571 -0.2830  1.5998 -0.9908
  837MPD2     C12300   1.945   0.979   9.531 -0.2429  0.5193  0.2652
  837MPD2    C112301   1.853   0.994   9.635  0.4004  0.6849 -0.0769
  837MPD2    C212302   1.819   1.120   9.676  0.7333  0.3174 -0.1260
  837MPD2    C312303   1.875   1.231   9.609  0.0298 -1.0233  0.2312
  837MPD2    C412304   1.967   1.209   9.512  0.3509  0.4037 -0.2828
  837MPD2    C512305   2.003   1.084   9.470  0.0894  0.8175 -0.1194
  837MPD2     H12306   1.740   1.137   9.748  0.7574 -0.4621  0.0868
  837MPD2    H112307   2.019   1.294   9.469  0.2094  0.8562  0.4424
  837MPD2    H212308   1.979   0.881   9.497 -0.0956  0.6719 -0.0296
  837MPD2    H312309   2.079   1.060   9.396 -0.1613 -0.5514  0.0771
  837MPD2     N12310   1.823   1.357   9.651  0.7216  0.0707  0.1711
  837MPD2    H512311   1.766   1.359   9.734 -0.3168 -2.8377 -0.4748
  837MPD2    N112312   1.786   0.889   9.697  0.0457  0.3465  0.4204
  837MPD2    H712313   1.727   0.910   9.776  0.5721  0.8622  0.6750
  838MPD2     C12314   0.332   0.061  11.407  0.1045 -0.2926 -0.6225
  838MPD2    C112315   0.317   4.657  11.430  0.2737 -0.1865 -0.5657
  838MPD2    C212316   0.252   4.622  11.543 -0.3162 -0.0751 -0.1768
  838MPD2    C312317   0.212   4.711  11.639  0.5946 -0.4536 -0.6410
  838MPD2    C412318   0.223   0.128  11.610  0.9322 -0.2053 -0.1314
  838MPD2    C512319   0.295   0.159  11.498  0.2473  0.4191 -0.0377
  838MPD2     H12320   0.232   4.517  11.559 -2.4243  0.3700  0.0697
  838MPD2    H112321   0.197   0.211  11.676 -0.1901 -1.3322  0.8642
  838MPD2    H212322   0.370   0.103  11.315 -0.7760 -0.3328 -1.0000
  838MPD2    H312323   0.298   0.264  11.471  0.3561  0.5745  0.5670
  838MPD2     N12324   0.131   4.678  11.749  0.1380 -0.4171 -0.1032
  838MPD2    H512325   0.076   0.030  11.788  1.7272 -0.1527  1.6294
  838MPD2    N112326   0.357   4.558  11.341  0.4260 -0.4278  0.4589
  838MPD2    H712327   0.320   4.465  11.355  0.8458 -1.0972 -2.8730
  839MPD2     C12328   4.440   3.997  10.856  0.3189 -0.1804  0.3401
  839MPD2    C112329   4.496   3.993  10.983 -0.2743  0.4644 -0.2628
  839MPD2    C212330   4.610   4.062  11.009 -0.4122  0.2804 -0.2661
  839MPD2    C312331   4.688   4.121  10.908 -0.5229 -0.7332 -0.4303
  839MPD2    C412332   4.635   4.116  10.784  0.1461 -0.0927 -0.7674
  839MPD2    C512333   4.510   4.066  10.760  0.0226 -0.5131 -0.2835
  839MPD2     H12334   4.641   4.069  11.113 -0.5032  0.0115 -0.2206
  839MPD2    H112335   4.684   4.162  10.699  0.7082  1.0690  0.1867
  839MPD2    H212336   4.343   3.957  10.830  0.0489 -0.3827  1.6767
  839MPD2    H312337   4.464   4.081  10.663 -1.5301  2.3239  0.8614
  839MPD2     N12338   0.088   4.186  10.938 -0.2257  0.2731  0.5410
  839MPD2    H512339   0.144   4.210  10.857  1.5015 -1.9408  1.0874
  839MPD2    N112340   4.449   3.901  11.080  0.1711  0.4043  0.1896
  839MPD2    H712341   4.492   3.912  11.171  0.4357  0.7258  0.0235
  840MPD2     C12342   0.250   1.653  10.372  0.5511 -0.1538  0.1600
  840MPD2    C112343   0.158   1.724  10.439 -0.8113 -0.7997 -0.7210
  840MPD2    C212344   0.206   1.837  10.506  0.6642  0.8273 -0.2906
  840MPD2    C312345   0.341   1.860  10.522 -0.0288  0.5852 -0.1924
  840MPD2    C412346   0.434   1.775  10.462 -0.4239  0.2995  0.3165
  840MPD2    C512347   0.384   1.674  10.389 -0.4973  0.0632  0.1217
  840MPD2     H12348   0.133   1.899  10.555  0.9868  1.1998 -0.2780
  840MPD2    H112349   0.542   1.784  10.472 -0.1953 -0.7797 -1.0527
  840MPD2    H212350   0.214   1.573  10.309 -1.4221  0.8501  0.0148
  840MPD2    H312351   0.453   1.607  10.340 -1.1917  1.0508 -2.2065
  840MPD2     N12352   0.388   1.952  10.613  0.0353  0.7456  0.1593
  840MPD2    H512353   0.487   1.975  10.608  0.3062 -0.3881  0.3903
  840MPD2    N112354   0.026   1.669  10.437  0.3244  0.7640 -0.6682
  840MPD2    H712355   0.012   1.579  10.394 -0.5050 -0.8183  2.9071
  841MPD2     C12356   3.672   1.516  14.933  0.1694  0.0940  0.0145
  841MPD2    C112357   3.696   1.519  14.795  1.0513  0.5162 -0.9597
  841MPD2    C212358   3.737   1.637  14.737 -0.6929  0.4838 -0.6369
  841MPD2    C312359   3.783   1.739  14.817 -0.0169 -0.1287  0.0457
  841MPD2    C412360   3.777   1.730  14.955 -0.4239 -0.4394 -0.3341
  841MPD2    C512361   3.713   1.623  15.011 -0.8798 -0.7505 -0.7887
  841MPD2     H12362   3.768   1.633  14.633  1.8189 -5.1598  0.2811
  841MPD2    H112363   3.809   1.805  15.027 -0.6985  0.6659 -1.3646
  841MPD2    H212364   3.640   1.431  14.992 -1.6902  1.1152  0.4937
  841MPD2    H312365   3.689   1.623  15.117  1.2156  1.7952 -0.3063
  841MPD2     N12366   3.834   1.864  14.770 -0.1120 -0.4816 -0.0166
  841MPD2    H512367   3.880   1.928  14.833 -2.6083  0.7895  0.5257
  841MPD2    N112368   3.686   1.404  14.709  0.0509 -0.5755 -0.2727
  841MPD2    H712369   3.717   1.413  14.613 -0.3643 -0.1755 -0.3677
  842MPD2     C12370   4.639   2.390  16.551 -0.6310  0.3513  0.6540
  842MPD2    C112371   4.501   2.397  16.559  0.3928 -0.5882  0.3621
  842MPD2    C212372   4.436   2.317  16.650 -0.7475 -0.3036  0.5402
  842MPD2    C312373   4.506   2.245  16.744 -0.3114 -0.3991 -0.2228
  842MPD2    C412374   4.645   2.241  16.737 -0.5725 -0.6882  0.6623
  842MPD2    C512375   4.706   2.301  16.633  0.2561  0.0454 -0.3791
  842MPD2     H12376   4.328   2.309  16.640 -0.4843  0.8988 -3.3531
  842MPD2    H112377   4.703   2.176  16.801  1.1095 -1.6522 -1.8541
  842MPD2    H212378   4.697   2.449  16.481 -2.8529  1.4465 -0.2698
  842MPD2    H312379   0.091   2.303  16.634  0.2072  0.6890  3.8160
  842MPD2     N12380   4.452   2.159  16.842 -0.8778 -0.6125 -0.3311
  842MPD2    H512381   4.515   2.114  16.907  0.0621  0.4879 -0.4970
  842MPD2    N112382   4.436   2.477  16.457  0.2972 -0.4464  0.4110
  842MPD2    H712383   4.500   2.531  16.399 -0.6699 -0.8992 -1.0786
  843MPD2     C12384   2.295   2.598   1.009  0.3705  0.7724  0.3804
  843MPD2    C112385   2.292   2.489   0.925  0.9045 -0.2376  0.0357
  843MPD2    C212386   2.335   2.492   0.798 -0.6153  1.1524  0.0845
  843MPD2    C312387   2.386   2.613   0.747  0.1759  0.1652 -0.5491
  843MPD2    C412388   2.367   2.726   0.829 -0.6825 -0.4443  0.2828
  843MPD2    C512389   2.325   2.722   0.957 -0.5430 -0.2829  0.1741
  843MPD2     H12390   2.331   2.402   0.738 -1.8000  0.3895  1.3149
  843MPD2    H112391   2.401   2.822   0.791 -0.1063 -0.3114  1.1350
  843MPD2    H212392   2.273   2.595   1.115  2.8719 -0.5752  0.8701
  843MPD2    H312393   2.309   2.811   1.017  1.7224 -0.0394  0.3954
  843MPD2     N12394   2.467   2.608   0.624 -0.0069  0.0789  0.0124
  843MPD2    H512395   2.472   2.520   0.573  2.0377 -0.7961  1.7183
  843MPD2    N112396   2.245   2.359   0.966 -0.3618  0.2900  0.3117
  843MPD2    H712397   2.254   2.285   0.896 -2.3787  1.1080 -0.8210
  844MPD2     C12398   0.407   1.767  16.421 -0.3094  0.1278  0.2099
  844MPD2    C112399   0.424   1.646  16.486 -0.3998  0.1257  0.0886
  844MPD2    C212400   0.533   1.625  16.569 -0.4172 -0.1472  0.3417
  844MPD2    C312401   0.619   1.729  16.597 -0.4187 -0.2311 -0.2296
  844MPD2    C412402   0.595   1.851  16.530  0.5894 -0.3384  0.1633
  844MPD2    C512403   0.491   1.865  16.443 -0.3939  0.0234 -0.0403
  844MPD2     H12404   0.551   1.536  16.629  1.5330  1.1176  1.6292
  844MPD2    H112405   0.652   1.942  16.546 -1.4423  0.8570  0.4788
  844MPD2    H212406   0.323   1.789  16.356  1.6018  2.8682 -1.3310
  844MPD2    H312407   0.482   1.960  16.392 -0.2332 -0.6375 -1.3210
  844MPD2     N12408   0.723   1.710  16.689  0.2198  0.3362 -0.1824
  844MPD2    H512409   0.727   1.627  16.746 -0.8008 -0.0015 -0.6037
  844MPD2    N112410   0.332   1.537  16.467 -0.3843 -0.2383  0.1968
  844MPD2    H712411   0.361   1.442  16.490  0.2381 -0.4278 -1.3396
  845MPD2     C12412   1.216   2.533  16.987 -0.2270  0.0385 -0.3747
  845MPD2    C112413   1.100   2.508  16.913  0.0933  0.0432  1.2123
  845MPD2    C212414   1.045   2.378  16.917 -0.1482  0.0660  0.0302
  845MPD2    C312415   1.117   2.269  16.969  0.1119  0.2622  0.4195
  845MPD2    C412416   1.241   2.294  17.027  0.2648  0.8366 -0.4897
  845MPD2    C512417   1.284   2.424  17.042  0.0823  1.0000 -0.6134
  845MPD2     H12418   0.947   2.356  16.877  0.7224  1.0929 -2.7045
  845MPD2    H112419   1.309   2.222  17.070 -1.7326  0.4939  2.0825
  845MPD2    H212420   1.257   2.632  17.002  0.7196 -0.5846  1.1344
  845MPD2    H312421   1.386   2.434  17.076  0.0177  1.8683 -0.6759
  845MPD2     N12422   1.056   2.143  16.960 -0.4243  0.0437 -0.4254
  845MPD2    H512423   0.972   2.137  16.904 -0.7563  0.1355  0.0573
  845MPD2    N112424   1.019   2.614  16.863  0.9493 -0.9740 -0.3311
  845MPD2    H712425   0.926   2.585  16.833  0.7052  1.7736 -2.2621
  846MPD2     C12426   2.207   3.221  13.375 -0.3942  0.4981  0.3316
  846MPD2    C112427   2.168   3.346  13.420 -0.1387 -0.3353  0.0023
  846MPD2    C212428   2.159   3.371  13.564  0.1468  0.7513 -0.1639
  846MPD2    C312429   2.202   3.275  13.658  0.3425  0.0538  0.2997
  846MPD2    C412430   2.247   3.151  13.606  0.3239  0.0437  0.1417
  846MPD2    C512431   2.242   3.125  13.470  1.0038  0.1077 -0.4534
  846MPD2     H12432   2.110   3.456  13.610 -1.1744 -0.3406  0.4434
  846MPD2    H112433   2.274   3.074  13.676  1.1738 -0.4714 -0.7502
  846MPD2    H212434   2.192   3.197  13.270  0.8453  0.0574  0.2603
  846MPD2    H312435   2.272   3.029  13.431  0.9663 -0.8839  1.9452
  846MPD2     N12436   2.208   3.304  13.798 -0.0372 -0.6747  0.4514
  846MPD2    H512437   2.177   3.395  13.832 -2.1603 -1.0334 -0.5245
  846MPD2    N112438   2.133   3.454  13.342 -0.0948 -0.6882  0.1911
  846MPD2    H712439   2.145   3.543  13.388  1.7872 -0.1145 -1.4245
  847MPD2     C12440   1.834   4.111  14.481 -0.2017 -0.8892  0.6228
  847MPD2    C112441   1.929   4.199  14.434  0.1203 -0.0376 -0.6487
  847MPD2    C212442   2.062   4.159  14.436 -0.2900  0.0122  0.3816
  847MPD2    C312443   2.097   4.035  14.460 -0.7967 -0.0521 -0.6270
  847MPD2    C412444   2.001   3.942  14.494  0.0375  0.0681 -1.0844
  847MPD2    C512445   1.870   3.980  14.502  0.4668  0.2996  0.1890
  847MPD2     H12446   2.134   4.239  14.427 -0.9498  0.6471  0.7685
  847MPD2    H112447   2.024   3.840  14.524  0.9418  0.7042  0.3538
  847MPD2    H212448   1.728   4.133  14.485  0.0611  0.7210 -0.9069
  847MPD2    H312449   1.791   3.914  14.536 -0.6951  0.9816 -1.2025
  847MPD2     N12450   2.233   4.005  14.466 -0.5558  0.1119 -0.2187
  847MPD2    H512451   2.296   4.083  14.449 -1.7137  0.8683 -1.0423
  847MPD2    N112452   1.903   4.335  14.406 -0.4580 -0.1376 -0.5593
  847MPD2    H712453   1.979   4.387  14.364 -1.7414  1.3210 -1.1140
  848MPD2     C12454   0.053   2.295  16.270 -0.3751  0.1192  1.0394
  848MPD2    C112455   0.195   2.271  16.271 -0.6458  0.0769 -0.3756
  848MPD2    C212456   0.279   2.346  16.190  0.1800 -0.6921  0.3711
  848MPD2    C312457   0.224   2.443  16.108 -0.2409 -0.9371 -0.6501
  848MPD2    C412458   0.084   2.455  16.102  0.4323  0.8505 -0.0086
  848MPD2    C512459   0.002   2.377  16.176 -0.4462 -0.6040 -0.4264
  848MPD2     H12460   0.387   2.335  16.200  0.5355  2.3464 -0.0684
  848MPD2    H112461   0.034   2.522  16.033 -0.0405 -2.0281 -2.4890
  848MPD2    H212462   4.708   2.227  16.318  1.4682 -2.4094  0.0618
  848MPD2    H312463   4.619   2.399  16.174  0.1849  2.5470  0.1667
  848MPD2     N12464   0.295   2.510  16.018 -0.0453 -0.3251 -0.1017
  848MPD2    H512465   0.236   2.573  15.964  1.8488  0.3515 -1.3890
  848MPD2    N112466   0.251   2.184  16.372 -0.2174  0.4196  0.1026
  848MPD2    H712467   0.342   2.207  16.409  0.3609  0.6794 -1.4545
  849MPD2     C12468   4.149   1.966  13.904 -0.2719 -0.3869  0.2498
  849MPD2    C112469   4.237   2.065  13.946  0.7231  0.1261 -0.1530
  849MPD2    C212470   4.324   2.033  14.045  0.4551 -0.4486  0.2358
  849MPD2    C312471   4.320   1.911  14.112 -0.2837  0.0656  0.0607
  849MPD2    C412472   4.236   1.814  14.076 -0.2403 -0.7349 -0.7117
  849MPD2    C512473   4.151   1.843  13.970  0.5989  0.1321  0.0704
  849MPD2     H12474   4.393   2.111  14.077  0.8616 -0.5042 -0.5251
  849MPD2    H112475   4.231   1.719  14.127 -1.1895 -0.5318 -0.4188
  849MPD2    H212476   4.086   1.990  13.819  0.8274  0.9892 -0.1830
  849MPD2    H312477   4.102   1.767  13.910  0.8158 -1.4499  1.8835
  849MPD2     N12478   4.405   1.879  14.217  0.1487 -0.5221  0.3022
  849MPD2    H512479   4.416   1.782  14.248  0.7388  0.2269  2.4318
  849MPD2    N112480   4.249   2.178  13.863 -0.3572 -0.0140  0.0860
  849MPD2    H712481   4.197   2.180  13.776  0.1710  1.2969 -0.2091
  850MPD2     C12482   2.114   0.427  14.655  0.0211  0.5938 -0.2194
  850MPD2    C112483   2.114   0.516  14.764  0.1751  0.1484  0.0387
  850MPD2    C212484   2.234   0.544  14.822  0.5805  1.0501 -0.0337
  850MPD2    C312485   2.351   0.484  14.779  0.4070 -0.2547 -0.1937
  850MPD2    C412486   2.346   0.392  14.678  0.0911  0.0560  0.1604
  850MPD2    C512487   2.226   0.369  14.614  0.5275 -0.0651 -0.1597
  850MPD2     H12488   2.243   0.621  14.898  0.2691 -0.3560  1.4181
  850MPD2    H112489   2.436   0.337  14.653 -1.1393 -1.6144 -0.5870
  850MPD2    H212490   2.019   0.431  14.604 -0.9031  1.4103  1.5700
  850MPD2    H312491   2.223   0.297  14.532 -1.9425  0.5828 -0.6337
  850MPD2     N12492   2.476   0.499  14.846 -0.0537 -0.5771  0.0905
  850MPD2    H512493   2.553   0.463  14.790  1.2005  1.5945  0.3819
  850MPD2    N112494   1.986   0.566  14.803  0.5654 -0.2576  0.2189
  850MPD2    H712495   1.912   0.542  14.738  0.6215 -1.0149  0.4293
  851MPD2     C12496   2.583   0.464  15.408 -0.3956  0.2348  0.2514
  851MPD2    C112497   2.487   0.413  15.328  0.0173  0.2353 -0.1981
  851MPD2    C212498   2.491   0.280  15.295  0.1482  0.1369 -0.0235
  851MPD2    C312499   2.592   0.200  15.339 -0.6107 -0.4119 -0.1833
  851MPD2    C412500   2.692   0.255  15.421  0.2890 -0.2018  0.3441
  851MPD2    C512501   2.686   0.381  15.449 -0.2341  0.1104  0.8049
  851MPD2     H12502   2.410   0.231  15.242 -1.6873  1.0025  1.9374
  851MPD2    H112503   2.770   0.194  15.465  1.7473 -1.1414 -3.5795
  851MPD2    H212504   2.563   0.566  15.438 -0.9115  0.3551 -0.5301
  851MPD2    H312505   2.749   0.429  15.523  0.0682  2.4650 -0.9721
  851MPD2     N12506   2.586   0.069  15.305 -0.4048  0.4836 -0.3602
  851MPD2    H512507   2.513   0.028  15.246  0.4738  0.4241 -1.4189
  851MPD2    N112508   2.383   0.500  15.290  0.1969  0.3771 -0.0283
  851MPD2    H712509   2.395   0.599  15.306  1.8062  0.1629  0.1099
  852MPD2     C12510   2.056   2.372   9.961 -0.8252  0.7120 -0.6265
  852MPD2    C112511   2.145   2.416  10.062  0.3749 -0.7407  0.4532
  852MPD2    C212512   2.183   2.549  10.051 -0.4250 -0.1101  0.2117
  852MPD2    C312513   2.140   2.629   9.947 -0.8055 -0.6136  0.0238
  852MPD2    C412514   2.060   2.581   9.852  0.0877  0.4053  0.0263
  852MPD2    C512515   2.012   2.452   9.866  0.0162  0.3286  0.5187
  852MPD2     H12516   2.244   2.588  10.131 -0.8703  2.3878 -0.6345
  852MPD2    H112517   2.036   2.644   9.767 -0.9080  1.1189  0.8312
  852MPD2    H212518   2.017   2.272   9.949  1.5012 -0.4071  1.2167
  852MPD2    H312519   1.945   2.417   9.789 -0.4547 -0.9139  1.4938
  852MPD2     N12520   2.178   2.766   9.953 -0.6406 -0.2934  0.3203
  852MPD2    H512521   2.246   2.803  10.020 -0.8302 -1.0723  0.9399
  852MPD2    N112522   2.180   2.333  10.174 -0.2474  0.4294  0.1330
  852MPD2    H712523   2.249   2.364  10.242 -1.8118 -1.3546  2.5120
  853MPD2     C12524   3.524   3.475  12.198  0.1245  0.0878  0.6348
  853MPD2    C112525   3.595   3.373  12.258  0.5747  0.0944  0.8748
  853MPD2    C212526   3.666   3.278  12.174 -0.0771 -0.5678 -0.1541
  853MPD2    C312527   3.653   3.289  12.037 -0.1889  0.5928  0.0899
  853MPD2    C412528   3.585   3.395  11.987  0.7376 -0.2030  0.3035
  853MPD2    C512529   3.518   3.485  12.060  0.3280 -0.2146 -0.0809
  853MPD2     H12530   3.708   3.189  12.221  0.1745 -0.6054 -0.4484
  853MPD2    H112531   3.589   3.421  11.881  0.3645 -1.6904 -0.0743
  853MPD2    H212532   3.471   3.553  12.251 -0.4702 -0.8153  1.3691
  853MPD2    H312533   3.464   3.562  12.007 -0.9330 -1.7360 -1.0052
  853MPD2     N12534   3.718   3.204  11.943  0.1697  0.5328 -0.8044
  853MPD2    H512535   3.703   3.204  11.843  1.1357 -1.6285 -0.9492
  853MPD2    N112536   3.605   3.379  12.397 -0.0248 -0.2103  0.0976
  853MPD2    H712537   3.538   3.446  12.433  1.7969  1.9371 -0.5196
  854MPD2     C12538   0.845   2.627  12.491 -0.3398 -0.7741 -0.8624
  854MPD2    C112539   0.932   2.611  12.390  0.0979  0.0848  0.5391
  854MPD2    C212540   1.043   2.527  12.412  0.2976 -0.3734 -0.0186
  854MPD2    C312541   1.058   2.460  12.539 -0.3838  0.3298  0.1877
  854MPD2    C412542   0.970   2.496  12.637  0.9991  0.0865 -0.7397
  854MPD2    C512543   0.864   2.573  12.613 -0.8546 -0.1474 -0.2643
  854MPD2     H12544   1.116   2.508  12.334  1.5070  1.1226  0.7442
  854MPD2    H112545   0.986   2.455  12.736  1.0221  0.9820 -0.3741
  854MPD2    H212546   0.756   2.685  12.473  0.2224  0.2125 -0.4376
  854MPD2    H312547   0.796   2.599  12.693 -0.3073  0.6154 -0.0437
  854MPD2     N12548   1.155   2.367  12.568 -0.0342 -0.3663  0.1516
  854MPD2    H512549   1.160   2.344  12.667 -0.1315  0.8152  0.4348
  854MPD2    N112550   0.887   2.667  12.265 -1.0248  0.4315 -0.0307
  854MPD2    H712551   0.792   2.703  12.267 -1.6567 -1.3860  2.5939
  855MPD2     C12552   1.905   2.380  13.167  0.1307  0.0084 -0.4077
  855MPD2    C112553   1.771   2.361  13.194 -0.4919  0.3588 -0.3144
  855MPD2    C212554   1.695   2.319  13.081 -0.7746 -0.1706 -0.3893
  855MPD2    C312555   1.749   2.307  12.955  0.0348  0.1826 -0.2506
  855MPD2    C412556   1.879   2.322  12.936  0.2357 -0.1353  0.4343
  855MPD2    C512557   1.960   2.356  13.044  0.0297  0.5653  0.5016
  855MPD2     H12558   1.588   2.311  13.097 -0.7385 -0.4165 -0.2688
  855MPD2    H112559   1.928   2.297  12.842  0.7498 -0.8220  0.8853
  855MPD2    H212560   1.970   2.406  13.250 -1.0292 -0.9548  0.7967
  855MPD2    H312561   2.064   2.377  13.022  0.0367  1.0084  0.9776
  855MPD2     N12562   1.676   2.255  12.849  0.4573 -0.7800  0.1363
  855MPD2    H512563   1.723   2.235  12.762  0.5163  0.1546 -0.0478
  855MPD2    N112564   1.709   2.361  13.321 -0.2372 -0.6933  0.6271
  855MPD2    H712565   1.613   2.328  13.330  0.4929 -3.1333 -0.4021
  856MPD2     C12566   2.925   3.658  13.995 -0.5845 -0.2116  0.0043
  856MPD2    C112567   2.991   3.783  14.013  0.0132  0.2297 -0.5695
  856MPD2    C212568   2.925   3.904  13.986  0.1703 -0.4549 -0.6599
  856MPD2    C312569   2.797   3.896  13.927  0.0468  0.4556  0.5510
  856MPD2    C412570   2.738   3.776  13.911 -0.1102 -0.4401  0.4148
  856MPD2    C512571   2.795   3.656  13.952 -0.1252 -0.1665 -0.4897
  856MPD2     H12572   2.978   3.995  14.013  1.2436 -1.1495 -0.4204
  856MPD2    H112573   2.639   3.762  13.870  0.4738 -0.8671 -0.8612
  856MPD2    H212574   2.977   3.567  14.021 -2.2670 -0.6307  1.8889
  856MPD2    H312575   2.751   3.559  13.930  2.1231 -1.7480  1.8901
  856MPD2     N12576   2.726   4.019  13.911  0.3696  0.6290  0.4919
  856MPD2    H512577   2.640   4.004  13.859  1.5484  1.9928 -1.8517
  856MPD2    N112578   3.125   3.790  14.073  0.1590  0.6395 -0.4949
  856MPD2    H712579   3.161   3.709  14.122 -1.7491 -0.1688 -0.4455
  857MPD2     C12580   4.284   1.077  13.230 -0.2297 -0.1603 -0.2443
  857MPD2    C112581   4.417   1.082  13.194  0.3188  0.5222  0.1211
  857MPD2    C212582   4.503   1.166  13.260 -0.7012 -0.0613 -0.0273
  857MPD2    C312583   4.461   1.256  13.349 -0.6713  0.2254 -0.1110
  857MPD2    C412584   4.328   1.265  13.375  0.7759 -0.3983 -0.3853
  857MPD2    C512585   4.245   1.170  13.322  0.4712  0.0296  0.3788
  857MPD2     H12586   4.609   1.165  13.234 -0.4983  2.5643  0.7607
  857MPD2    H112587   4.283   1.342  13.437  0.2187 -0.6297 -0.5029
  857MPD2    H212588   4.206   1.016  13.187  0.5078 -0.6961 -0.8165
  857MPD2    H312589   4.142   1.179  13.355 -0.1267  1.2149 -1.8244
  857MPD2     N12590   4.555   1.344  13.411 -0.1833 -0.5648  1.1125
  857MPD2    H512591   4.653   1.337  13.387 -0.2281  3.3365 -0.1348
  857MPD2    N112592   4.463   0.983  13.107  0.3131 -0.1869 -0.4926
  857MPD2    H712593   4.402   0.912  13.068  1.3188 -0.8454 -0.8697
  858MPD2     C12594   0.338   4.629  16.568  0.5162  0.1513 -0.8531
  858MPD2    C112595   0.458   4.561  16.570 -0.2911 -0.4940 -0.1111
  858MPD2    C212596   0.560   4.598  16.650  0.4193  0.2279 -0.6678
  858MPD2    C312597   0.535   4.696  16.749 -0.6880  0.0266 -0.1086
  858MPD2    C412598   0.413   0.035  16.752 -0.1174 -0.6120 -0.2210
  858MPD2    C512599   0.326   0.016  16.644 -0.1262  0.3683 -0.4952
  858MPD2     H12600   0.656   4.549  16.638  0.5932  0.6922 -1.1758
  858MPD2    H112601   0.380   0.107  16.826 -0.1979 -0.0408 -0.8158
  858MPD2    H212602   0.260   4.599  16.499  0.4921  2.0123 -1.6383
  858MPD2    H312603   0.244   0.086  16.634 -1.1101 -0.7491 -0.1942
  858MPD2     N12604   0.632   0.002  16.846 -0.4180 -0.0236  0.2032
  858MPD2    H512605   0.598   0.059  16.923 -0.9436 -0.5431  0.3576
  858MPD2    N112606   0.490   4.460  16.472  0.0401 -0.0071  0.1701
  858MPD2    H712607   0.590   4.441  16.482  0.7702  2.5585 -2.3701
  859MPD2     C12608   4.376   1.925  15.309 -0.7622  0.6776 -0.1822
  859MPD2    C112609   4.306   1.969  15.204 -0.2978 -0.4856 -0.3614
  859MPD2    C212610   4.240   1.880  15.113  0.5460 -0.2742 -0.2653
  859MPD2    C312611   4.250   1.741  15.117  0.9024  0.9860  0.3686
  859MPD2    C412612   4.332   1.698  15.221  0.8710  0.0287 -0.4457
  859MPD2    C512613   4.389   1.786  15.312  0.6366  0.2670 -0.2819
  859MPD2     H12614   4.184   1.920  15.030  1.1453  0.5851 -0.2622
  859MPD2    H112615   4.351   1.593  15.239  0.3876  0.0810  0.3551
  859MPD2    H212616   4.423   1.983  15.387 -0.1932 -1.2447  0.9038
  859MPD2    H312617   4.460   1.748  15.385  2.0193  0.9347 -1.2713
  859MPD2     N12618   4.191   1.646  15.028  0.3242  0.2487  0.4872
  859MPD2    H512619   4.230   1.553  15.035 -0.5792 -0.0290  2.0722
  859MPD2    N112620   4.313   2.106  15.186 -0.1702  0.8079  0.4899
  859MPD2    H712621   4.386   2.155  15.236  1.1599 -0.7350  0.0509
  860MPD2     C12622   2.695   2.142  11.460 -0.1342  0.0386 -0.3923
  860MPD2    C112623   2.660   2.208  11.572 -0.4816 -0.0573 -0.9247
  860MPD2    C212624   2.526   2.203  11.609  0.2761 -0.2653  0.0482
  860MPD2    C312625   2.433   2.140  11.534  0.9598 -0.3344  0.5546
  860MPD2    C412626   2.466   2.085  11.407 -0.5495 -0.4618  0.1820
  860MPD2    C512627   2.597   2.092  11.378  1.1786 -0.5639  0.5850
  860MPD2     H12628   2.492   2.250  11.700 -2.7871  0.4611 -1.4748
  860MPD2    H112629   2.400   2.046  11.330 -0.6665  1.1393 -0.5202
  860MPD2    H212630   2.798   2.126  11.429  0.3205 -2.0728  2.1481
  860MPD2    H312631   2.628   2.047  11.285 -1.9783  0.8977 -1.1472
  860MPD2     N12632   2.301   2.146  11.586 -0.2075  0.8922 -0.7578
  860MPD2    H512633   2.286   2.195  11.674 -0.4740  0.4723 -0.5702
  860MPD2    N112634   2.746   2.276  11.662  0.0780  0.5389  0.2065
  860MPD2    H712635   2.700   2.320  11.741  2.1074 -0.2294  1.8026
  861MPD2     C12636   1.184   0.747  10.877  0.1784  0.4226  0.8166
  861MPD2    C112637   1.075   0.687  10.948 -0.3810  0.7586 -0.4842
  861MPD2    C212638   0.949   0.703  10.897 -0.4482  0.3574 -0.1211
  861MPD2    C312639   0.929   0.769  10.780  0.3115 -0.4073 -0.4178
  861MPD2    C412640   1.034   0.820  10.704  0.4340 -0.1329 -1.0843
  861MPD2    C512641   1.159   0.807  10.756  0.0701  0.1387  0.0886
  861MPD2     H12642   0.864   0.654  10.942 -0.3589  0.3067 -0.0087
  861MPD2    H112643   1.030   0.880  10.614 -0.8734 -0.5577 -1.3161
  861MPD2    H212644   1.285   0.759  10.914  0.3591  0.2794  0.3653
  861MPD2    H312645   1.246   0.842  10.702  0.4787 -1.3050 -0.2113
  861MPD2     N12646   0.801   0.785  10.720  0.0944 -0.6379  0.3526
  861MPD2    H512647   0.729   0.755  10.786 -0.2884 -1.1651 -0.3116
  861MPD2    N112648   1.086   0.615  11.071  0.1035 -0.0961 -0.5031
  861MPD2    H712649   0.996   0.598  11.114 -0.7776 -2.8626 -3.4737
  862MPD2     C12650   0.393   0.712   9.973  0.6729  0.0560 -0.2370
  862MPD2    C112651   0.488   0.671  10.060 -0.1795 -0.2326 -1.0958
  862MPD2    C212652   0.569   0.562  10.024  0.5918 -0.2757 -0.2204
  862MPD2    C312653   0.553   0.490   9.902 -0.4200 -0.4421  0.0463
  862MPD2    C412654   0.464   0.539   9.814  0.1859  0.0214 -0.0963
  862MPD2    C512655   0.392   0.649   9.843 -0.0594  0.2446 -0.2266
  862MPD2     H12656   0.638   0.531  10.101 -0.5554 -2.1021  0.0777
  862MPD2    H112657   0.439   0.487   9.723 -1.7965  1.0263 -0.1163
  862MPD2    H212658   0.327   0.796   9.993  1.5873  0.7787 -0.2420
  862MPD2    H312659   0.314   0.685   9.777 -1.0898 -0.0431  0.8325
  862MPD2     N12660   0.633   0.377   9.868 -0.4823  0.4389 -0.3511
  862MPD2    H512661   0.616   0.341   9.775  3.4996 -1.4721 -0.3372
  862MPD2    N112662   0.504   0.728  10.184  0.0607  0.7328 -0.3790
  862MPD2    H712663   0.585   0.699  10.238  0.3080  1.5134 -0.3311
  863MPD2     C12664   3.827   4.017  16.926  0.5285 -0.2381 -0.0147
  863MPD2    C112665   3.859   3.941  16.819  0.7102 -0.3852 -0.1192
  863MPD2    C212666   3.918   3.817  16.826  0.5462 -0.0699  0.2559
  863MPD2    C312667   3.954   3.768  16.951 -0.2612 -0.4889 -0.1813
  863MPD2    C412668   3.913   3.840  17.061 -0.0313 -0.2191  0.7277
  863MPD2    C512669   3.847   3.960  17.044 -0.2491 -0.3006 -0.1667
  863MPD2     H12670   3.938   3.759  16.737  0.5589 -0.7392  0.6927
  863MPD2    H112671   3.918   3.803  17.162  0.5896 -2.7454 -0.2377
  863MPD2    H212672   3.779   4.114  16.914 -3.4651 -1.8709  2.8832
  863MPD2    H312673   3.830   4.029  17.126  0.2164 -1.2122  0.6985
  863MPD2     N12674   4.017   3.640  16.965 -0.3015 -0.2261  0.3592
  863MPD2    H512675   4.036   3.608  17.060  0.6830  0.0611  0.2546
  863MPD2    N112676   3.815   3.994  16.695  0.4827  0.6029 -0.3062
  863MPD2    H712677   3.761   4.080  16.698  1.4682  1.1642  1.5455
  864MPD2     C12678   4.107   0.053  17.288 -0.0856  0.1888 -0.4956
  864MPD2    C112679   4.145   0.014  17.161  0.7848 -0.3129 -0.2486
  864MPD2    C212680   4.229   0.101  17.087  0.0380  0.0035 -0.4837
  864MPD2    C312681   4.274   0.224  17.140  0.3631 -0.2812  0.4338
  864MPD2    C412682   4.219   0.264  17.267 -0.4257 -0.2560 -0.1440
  864MPD2    C512683   4.140   0.178  17.336 -0.3394 -0.4778 -0.5321
  864MPD2     H12684   4.267   0.059  16.995 -1.5426 -0.5819 -0.8642
  864MPD2    H112685   4.246   0.361  17.309 -3.6882  0.3557  0.5296
  864MPD2    H212686   4.053   4.705  17.348 -0.8964 -0.4229 -1.9421
  864MPD2    H312687   4.110   0.199  17.438  0.4780 -2.2521  0.0747
  864MPD2     N12688   4.358   0.314  17.072 -0.3111 -0.9449 -0.0723
  864MPD2    H512689   4.348   0.409  17.105  0.9698 -1.4182  1.6618
  864MPD2    N112690   4.098   4.616  17.105  0.6144  0.1023  0.3781
  864MPD2    H712691   4.046   4.557  17.169  0.5269 -1.1545 -0.8678
  865MPD2     C12692   4.490   0.863  16.389  0.1750  0.4732  0.1882
  865MPD2    C112693   4.448   0.748  16.446 -0.4506 -0.6036  0.2516
  865MPD2    C212694   4.419   0.742  16.578 -0.2334  0.5999  0.4310
  865MPD2    C312695   4.436   0.855  16.660 -0.7541 -0.6802 -0.4579
  865MPD2    C412696   4.473   0.977  16.602 -0.7491 -0.2653  0.4788
  865MPD2    C512697   4.499   0.974  16.469 -0.3126  0.3123  0.5207
  865MPD2     H12698   4.386   0.646  16.617 -2.4875  0.8616 -0.8278
  865MPD2    H112699   4.487   1.067  16.661  1.7899  0.2879 -0.9527
  865MPD2    H212700   4.508   0.856  16.283 -1.3547 -0.6514  0.0095
  865MPD2    H312701   4.536   1.065  16.422  0.9700 -1.5665 -2.1315
  865MPD2     N12702   4.425   0.858  16.804 -0.3962 -0.2238 -0.1715
  865MPD2    H512703   4.418   0.949  16.848 -1.8697 -0.0803 -0.6826
  865MPD2    N112704   4.472   0.629  16.376 -0.1476 -0.7952 -0.2558
  865MPD2    H712705   4.500   0.639  16.279  0.2497 -0.0302 -0.0583
  866MPD2     C12706   1.243   1.261  11.683 -0.1322 -0.5278  0.1601
  866MPD2    C112707   1.275   1.268  11.547  0.0331  0.4076 -0.4620
  866MPD2    C212708   1.183   1.239  11.455  0.5775 -0.1798 -0.0873
  866MPD2    C312709   1.056   1.203  11.492 -0.1506 -0.0286  0.2279
  866MPD2    C412710   1.025   1.183  11.625  0.3282 -0.2109  0.4324
  866MPD2    C512711   1.124   1.205  11.718 -0.2310  0.2855  0.5082
  866MPD2     H12712   1.209   1.249  11.350 -0.3822 -0.3494 -0.3367
  866MPD2    H112713   0.930   1.141  11.655  0.4938 -1.3373 -0.6193
  866MPD2    H212714   1.321   1.268  11.759  0.9121  0.0585 -0.9610
  866MPD2    H312715   1.108   1.187  11.823 -1.0610 -0.0121  0.3317
  866MPD2     N12716   0.966   1.159  11.389  0.0665  0.6040 -0.1458
  866MPD2    H512717   0.887   1.104  11.421  1.2400 -1.4074 -0.7514
  866MPD2    N112718   1.405   1.304  11.516 -0.4596  0.2929  0.7639
  866MPD2    H712719   1.463   1.310  11.599  1.9552 -0.5210 -0.8519
  867MPD2     C12720   3.186   0.575  16.418 -0.6907 -0.7771  0.6788
  867MPD2    C112721   3.236   0.518  16.530 -0.2549 -0.5351 -0.3889
  867MPD2    C212722   3.259   0.600  16.643  0.5567  0.2152 -0.0149
  867MPD2    C312723   3.264   0.737  16.630 -0.1789 -1.0807  0.1613
  867MPD2    C412724   3.227   0.794  16.507 -0.2351 -0.5590 -0.4793
  867MPD2    C512725   3.182   0.709  16.406 -0.6520  0.0612  0.3580
  867MPD2     H12726   3.302   0.547  16.727 -2.4068 -1.6512  0.3339
  867MPD2    H112727   3.234   0.902  16.502 -0.0009 -0.3533  3.7975
  867MPD2    H212728   3.151   0.515  16.334  0.0067  0.6354 -0.6089
  867MPD2    H312729   3.151   0.753  16.312  1.6565  0.9210 -0.0081
  867MPD2     N12730   3.296   0.831  16.735  0.6560 -0.4833  0.2358
  867MPD2    H512731   3.308   0.927  16.705  0.8011 -0.2290  1.1336
  867MPD2    N112732   3.264   0.374  16.518  0.2534 -0.0754  0.2685
  867MPD2    H712733   3.235   0.336  16.428 -0.4227 -2.6955  1.5932
  868MPD2     C12734   0.604   0.047  12.905 -0.5952  0.3773 -0.5414
  868MPD2    C112735   0.565   4.658  12.977  0.0437 -0.1174  0.0629
  868MPD2    C212736   0.461   4.655  13.071  0.0937  0.1674 -0.5003
  868MPD2    C312737   0.408   0.054  13.104 -0.6024  0.1471  0.6159
  868MPD2    C412738   0.447   0.172  13.037  0.3306 -0.8650  0.5727
  868MPD2    C512739   0.546   0.168  12.935 -0.2410  0.4874  0.0367
  868MPD2     H12740   0.439   4.563  13.124  2.4958  1.6498  3.1096
  868MPD2    H112741   0.422   0.274  13.061  3.4327  0.1404 -0.3919
  868MPD2    H212742   0.684   0.037  12.833 -0.6681  1.5242 -0.7760
  868MPD2    H312743   0.593   0.258  12.896 -0.2599  0.5358  0.1262
  868MPD2     N12744   0.307   0.054  13.202  0.1501 -0.2065  0.0692
  868MPD2    H512745   0.288   4.683  13.235 -2.0933  0.2218 -0.0369
  868MPD2    N112746   0.633   4.542  12.941  0.8576  0.7467  0.1506
  868MPD2    H712747   0.706   4.555  12.872  0.2523  1.8102 -0.2861
  869MPD2     C12748   1.361   1.010   2.015  0.1528 -0.0387  0.5407
  869MPD2    C112749   1.236   1.053   1.983 -0.0022 -0.0030  0.3706
  869MPD2    C212750   1.221   1.183   1.936 -0.2993  0.4194 -0.4814
  869MPD2    C312751   1.333   1.261   1.902 -0.9646  0.6751  0.1906
  869MPD2    C412752   1.454   1.222   1.948  0.6294  0.2033 -0.3342
  869MPD2    C512753   1.464   1.097   1.994  0.4955  0.6992  0.6061
  869MPD2     H12754   1.119   1.212   1.913 -0.9070 -0.3881  1.1339
  869MPD2    H112755   1.534   1.295   1.949 -0.1969  1.1279 -1.2509
  869MPD2    H212756   1.381   0.911   2.054 -1.1660 -1.1011 -1.5069
  869MPD2    H312757   1.562   1.069   2.029  0.1062 -2.0878 -0.5712
  869MPD2     N12758   1.323   1.388   1.835 -0.0348 -0.7696 -0.6009
  869MPD2    H512759   1.410   1.436   1.816 -0.9604  0.7992 -0.8504
  869MPD2    N112760   1.125   0.964   2.006  0.0279  0.3886  1.3505
  869MPD2    H712761   1.144   0.873   2.046  0.2783  0.1315  0.6460
  870MPD2     C12762   4.667   1.075   1.141 -0.7774  0.3948  0.3345
  870MPD2    C112763   0.070   1.061   1.185 -0.2289 -0.3390  0.3645
  870MPD2    C212764   0.178   1.133   1.124  0.2283  0.1143  0.0051
  870MPD2    C312765   0.153   1.229   1.020  0.1247  0.2744 -0.7493
  870MPD2    C412766   0.022   1.235   0.986 -0.1371 -0.8763  0.5758
  870MPD2    C512767   4.644   1.165   1.043 -0.1309 -0.3686  0.1828
  870MPD2     H12768   0.276   1.128   1.169 -0.2954 -0.2265  1.1121
  870MPD2    H112769   4.717   1.298   0.902 -1.0844 -0.5068  1.1792
  870MPD2    H212770   4.581   1.021   1.181 -1.8665  0.1791 -2.3090
  870MPD2    H312771   4.542   1.179   1.012 -0.5979 -0.0391  1.8625
  870MPD2     N12772   0.255   1.316   0.968 -0.0341 -0.5459  0.0027
  870MPD2    H512773   0.352   1.286   0.978  0.8870  1.7010 -2.1431
  870MPD2    N112774   0.085   0.968   1.296 -0.0004  0.2452 -0.0546
  870MPD2    H712775   0.005   0.921   1.338  0.3953 -0.4461 -0.0775
  871MPD2     C12776   1.839   0.151  16.167  0.1830 -0.2084  0.3081
  871MPD2    C112777   1.901   0.110  16.282 -0.0340 -0.2569  0.1531
  871MPD2    C212778   1.982   4.719  16.279  0.6199  0.2618 -0.3840
  871MPD2    C312779   2.012   4.650  16.165  0.1120  0.5005 -0.4839
  871MPD2    C412780   1.936   4.686  16.050 -0.0827 -0.3363  0.3300
  871MPD2    C512781   1.858   0.079  16.051  0.8197 -0.5483 -0.1703
  871MPD2     H12782   2.024   4.687  16.374  0.4295  3.0501  0.6576
  871MPD2    H112783   1.943   4.628  15.958 -0.4381 -1.9843  1.3372
  871MPD2    H212784   1.777   0.239  16.169 -2.0752 -1.7108 -2.9349
  871MPD2    H312785   1.806   0.118  15.964  2.1155 -0.2970 -0.8193
  871MPD2     N12786   2.105   4.543  16.180 -0.2315 -0.8927 -0.0873
  871MPD2    H512787   2.139   4.523  16.274 -1.6531 -0.1453  0.5868
  871MPD2    N112788   1.885   0.194  16.391 -0.1535  0.1037 -0.6296
  871MPD2    H712789   1.842   0.285  16.383  1.3293  0.7683 -1.0597
  872MPD2     C12790   3.110   2.793  13.950 -0.1429 -0.4340  0.1408
  872MPD2    C112791   3.037   2.902  13.976  0.3636 -0.6197 -0.9142
  872MPD2    C212792   2.908   2.891  14.013 -0.1273  0.2309 -0.0524
  872MPD2    C312793   2.850   2.765  14.042  0.0829 -0.9780 -0.0742
  872MPD2    C412794   2.929   2.654  14.015  1.0953  0.7402  1.2792
  872MPD2    C512795   3.052   2.669  13.965 -0.3021 -0.0594 -0.0623
  872MPD2     H12796   2.842   2.976  14.024 -1.7601 -1.0297 -0.1897
  872MPD2    H112797   2.889   2.554  14.007  1.5905  0.5027  1.8735
  872MPD2    H212798   3.214   2.792  13.918  0.1564 -1.1136  1.1436
  872MPD2    H312799   3.114   2.582  13.946  1.2221  0.9718  0.1382
  872MPD2     N12800   2.716   2.742  14.072 -0.6333 -0.0856  0.2837
  872MPD2    H512801   2.696   2.644  14.091 -2.8016  0.6593  1.8294
  872MPD2    N112802   3.084   3.040  13.979  0.1955 -0.2961  0.2246
  872MPD2    H712803   3.025   3.122  13.987 -0.0422 -0.2925 -1.5041
  873MPD2     C12804   3.901   1.726   0.173  0.0204 -0.1932 -0.0368
  873MPD2    C112805   3.881   1.758   0.310  0.1217  0.1731 -0.1122
  873MPD2    C212806   3.794   1.680   0.382 -0.5193  0.9179 -0.8491
  873MPD2    C312807   3.723   1.573   0.328 -0.4553  0.3985 -0.5605
  873MPD2    C412808   3.739   1.548   0.194 -0.1969  0.1737  0.4591
  873MPD2    C512809   3.819   1.628   0.121  0.0542  0.3097 -0.5178
  873MPD2     H12810   3.785   1.703   0.487 -0.1836  1.0381 -0.8466
  873MPD2    H112811   3.679   1.475   0.141 -0.1469  0.3242  0.1969
  873MPD2    H212812   3.961   1.785   0.105 -1.1200  1.0930  0.0715
  873MPD2    H312813   3.818   1.608   0.014 -2.1961 -0.3745 -0.3747
  873MPD2     N12814   3.634   1.492   0.400 -0.1842 -0.2209 -0.0034
  873MPD2    H512815   3.594   1.414   0.348 -1.4586 -0.0657  0.7539
  873MPD2    N112816   3.958   1.868   0.365  1.0014 -0.0920  0.1726
  873MPD2    H712817   4.012   1.926   0.302 -1.6005  1.8897 -0.2127
  874MPD2     C12818   4.474   3.011  15.810  0.9465  0.1965  0.1666
  874MPD2    C112819   4.527   2.920  15.899  0.3649 -0.6393 -0.1540
  874MPD2    C212820   4.665   2.891  15.898 -0.3821  0.0947 -0.1339
  874MPD2    C312821   0.022   2.956  15.808 -0.0856  0.0839 -0.2681
  874MPD2    C412822   4.693   3.055  15.728 -0.1004  0.7355 -0.2257
  874MPD2    C512823   4.566   3.083  15.733 -0.2132 -0.5809 -0.7076
  874MPD2     H12824   4.701   2.822  15.973 -0.1570  0.4923  0.1195
  874MPD2    H112825   0.031   3.120  15.666  0.8634 -0.0298 -0.0865
  874MPD2    H212826   4.369   3.033  15.800  1.0664  0.7927  0.1708
  874MPD2    H312827   4.538   3.174  15.681 -0.3590  0.1955  0.7347
  874MPD2     N12828   0.156   2.922  15.771  0.1453 -0.3838  0.1949
  874MPD2    H512829   0.206   2.984  15.708  0.1635 -0.8901 -0.2845
  874MPD2    N112830   4.428   2.862  15.980  0.2534  0.4249  0.6108
  874MPD2    H712831   4.335   2.900  15.972  0.0233 -0.1969  0.2925
  875MPD2     C12832   0.712   1.085  14.296 -0.4724  1.1653 -0.6087
  875MPD2    C112833   0.603   1.131  14.359  0.3984 -0.0651  0.3827
  875MPD2    C212834   0.622   1.195  14.482  0.3085  0.4056  0.0894
  875MPD2    C312835   0.748   1.215  14.528 -0.4133  0.2161  0.8885
  875MPD2    C412836   0.857   1.166  14.464  0.2686  0.2913  0.6210
  875MPD2    C512837   0.844   1.096  14.345 -0.7799  0.1738 -0.5438
  875MPD2     H12838   0.538   1.237  14.537 -0.9257 -3.8763  1.4927
  875MPD2    H112839   0.951   1.164  14.517  0.5434 -1.9796  0.0784
  875MPD2    H212840   0.707   1.031  14.202 -0.4018 -0.9838  0.6383
  875MPD2    H312841   0.927   1.046  14.297 -1.3714 -1.2394 -0.0856
  875MPD2     N12842   0.773   1.290  14.645 -0.0485  0.1626 -0.4032
  875MPD2    H512843   0.866   1.314  14.676  0.1884 -2.1609  0.7060
  875MPD2    N112844   0.477   1.130  14.305  0.6947  0.5296  0.3885
  875MPD2    H712845   0.399   1.175  14.352  2.6732  1.5142  2.7089
  876MPD2     C12846   4.341   2.551  15.795 -0.6587 -0.8479  0.2729
  876MPD2    C112847   4.471   2.510  15.786  0.7505 -0.2431 -0.2244
  876MPD2    C212848   4.503   2.388  15.856  0.1571 -0.1467  0.0095
  876MPD2    C312849   4.421   2.334  15.954  0.1692 -0.1097  0.5752
  876MPD2    C412850   4.290   2.384  15.959  0.2313 -0.3632 -0.6012
  876MPD2    C512851   4.254   2.493  15.888 -0.2785 -0.1163  0.2597
  876MPD2     H12852   4.604   2.350  15.848 -0.3952 -1.4082 -0.9300
  876MPD2    H112853   4.226   2.342  16.036  2.3107  0.5510  1.6069
  876MPD2    H212854   4.314   2.644  15.746  1.3528 -1.2275 -1.5848
  876MPD2    H312855   4.159   2.541  15.907 -0.4219  0.1708 -1.2086
  876MPD2     N12856   4.480   2.233  16.028 -0.2295  0.7300  0.0910
  876MPD2    H512857   4.574   2.202  16.004  0.5480  1.0310  2.6802
  876MPD2    N112858   4.559   2.577  15.700  0.1393  0.4115 -0.4946
  876MPD2    H712859   4.523   2.663  15.660 -1.2194  0.3143  0.5272
  877MPD2     C12860   4.464   2.956  15.127 -0.0476  0.2334  0.4186
  877MPD2    C112861   4.598   2.920  15.112  0.6364  0.9813  0.1391
  877MPD2    C212862   4.660   2.936  14.990  0.1252  0.6084 -0.1229
  877MPD2    C312863   4.588   2.995  14.883  0.2393  0.1318 -0.3963
  877MPD2    C412864   4.459   3.028  14.900  0.2554 -0.1399  0.3140
  877MPD2    C512865   4.401   3.013  15.021 -0.0334 -0.2240  0.3226
  877MPD2     H12866   0.042   2.910  14.983 -0.1374 -0.6940  0.8029
  877MPD2    H112867   4.399   3.065  14.817  1.3117  1.7835  0.3911
  877MPD2    H212868   4.403   2.957  15.216  0.1922 -0.4150  0.5887
  877MPD2    H312869   4.299   3.045  15.038  0.5341  0.7656  1.8693
  877MPD2     N12870   4.655   3.005  14.758 -0.0441 -0.6322 -0.4965
  877MPD2    H512871   4.601   3.045  14.682  0.6644  1.2897  0.0121
  877MPD2    N112872   4.678   2.876  15.220 -0.5465  0.1920  0.0350
  877MPD2    H712873   0.048   2.840  15.206 -0.6178  0.1778 -0.3836
  878MPD2     C12874   4.251   2.716  13.034 -0.1321  0.1564 -0.2103
  878MPD2    C112875   4.361   2.633  13.020 -0.4299  0.2021  0.4324
  878MPD2    C212876   4.397   2.547  13.128 -0.5210 -0.9019  0.0206
  878MPD2    C312877   4.326   2.551  13.244 -0.3536  0.3334  0.5295
  878MPD2    C412878   4.214   2.627  13.253 -0.0224 -0.1736 -0.3552
  878MPD2    C512879   4.188   2.722  13.157 -0.2857 -0.3629  0.3269
  878MPD2     H12880   4.495   2.503  13.121  0.3282  1.0545 -0.3705
  878MPD2    H112881   4.152   2.632  13.342 -2.2334  2.2583 -2.0510
  878MPD2    H212882   4.235   2.796  12.963  1.9005 -1.6082 -2.6601
  878MPD2    H312883   4.119   2.800  13.186  0.1038  0.0442  0.1650
  878MPD2     N12884   4.374   2.474  13.356 -0.4579  0.3540  0.1506
  878MPD2    H512885   4.461   2.422  13.346 -0.1397  0.7981  0.5837
  878MPD2    N112886   4.454   2.663  12.914  0.0484  0.1267 -0.2248
  878MPD2    H712887   4.428   2.742  12.856 -1.0545  0.6591  1.0064
  879MPD2     C12888   0.533   3.266  16.683 -0.7372  0.4560 -0.0125
  879MPD2    C112889   0.418   3.232  16.745 -0.3518 -0.3694 -0.0896
  879MPD2    C212890   0.313   3.186  16.664 -0.5650  0.0728  0.5753
  879MPD2    C312891   0.322   3.194  16.518  1.0014 -0.5292 -0.4188
  879MPD2    C412892   0.447   3.229  16.461 -0.4081  0.4978  0.7394
  879MPD2    C512893   0.556   3.264  16.544 -0.0298  0.0534 -0.4384
  879MPD2     H12894   0.218   3.158  16.706  0.5388 -4.3280  0.1544
  879MPD2    H112895   0.462   3.248  16.356  0.1185 -0.9790  0.5553
  879MPD2    H212896   0.626   3.293  16.733 -2.3670  1.7481  2.3163
  879MPD2    H312897   0.650   3.286  16.494 -1.4183 -0.1265 -3.1610
  879MPD2     N12898   0.213   3.163  16.434  0.1247  0.1610  0.3329
  879MPD2    H512899   0.236   3.171  16.336 -0.5039 -0.9622  0.0975
  879MPD2    N112900   0.402   3.243  16.881 -0.3021  0.2090  0.0718
  879MPD2    H712901   0.471   3.306  16.920 -0.1893  0.1688 -0.0644
  880MPD2     C12902   1.530   0.477   0.421  0.4695 -0.1630 -0.3287
  880MPD2    C112903   1.394   0.515   0.427 -0.2348 -0.1417  0.1548
  880MPD2    C212904   1.300   0.416   0.435  1.0066 -0.0789  0.0606
  880MPD2    C312905   1.329   0.276   0.448 -0.6435 -0.1472  0.3458
  880MPD2    C412906   1.468   0.234   0.441 -1.0188  0.1305 -0.8988
  880MPD2    C512907   1.560   0.341   0.426 -0.1425  0.3046  0.2588
  880MPD2     H12908   1.194   0.441   0.436  0.6788 -1.3573 -1.0431
  880MPD2    H112909   1.497   0.130   0.437 -3.1488 -0.4365 -1.4666
  880MPD2    H212910   1.608   0.551   0.413 -1.4591  1.6349 -2.3974
  880MPD2    H312911   1.664   0.314   0.409  0.2976  3.1893 -1.7541
  880MPD2     N12912   1.225   0.187   0.475  0.5191  0.1520  0.4617
  880MPD2    H512913   1.134   0.229   0.489  0.2690  0.0589 -0.9402
  880MPD2    N112914   1.363   0.656   0.423  0.3757  0.1333 -0.0191
  880MPD2    H712915   1.439   0.717   0.397  0.2233  1.2222  2.1131
  881MPD2     C12916   1.732   1.308  17.604  0.2458  0.2387 -0.0799
  881MPD2    C112917   1.666   1.200  17.567  0.8762 -0.2694 -0.0316
  881MPD2    C212918   1.548   1.167  17.628  0.1840  0.2270 -0.5314
  881MPD2    C312919   1.523   1.217   0.057  0.7077  0.2093  0.6971
  881MPD2    C412920   1.585   1.331   0.098 -0.1382 -0.9357  0.7861
  881MPD2    C512921   1.689   1.374   0.025  0.0521  0.1009  0.0185
  881MPD2     H12922   1.496   1.081  17.587  0.4948  1.0730 -2.7390
  881MPD2    H112923   1.565   1.373   0.195  1.7206  0.2845  0.6551
  881MPD2    H212924   1.820   1.342  17.550  0.6016  0.9630  0.9529
  881MPD2    H312925   1.740   1.464   0.059 -1.8105  1.6496 -1.2828
  881MPD2     N12926   1.418   1.162   0.137 -0.3785  0.1867  0.4753
  881MPD2    H512927   1.408   1.211   0.226 -0.9123  0.2507  0.3813
  881MPD2    N112928   1.695   1.156  17.437  0.8404  0.0365 -0.6051
  881MPD2    H712929   1.769   1.204  17.385 -0.5360  1.3865 -1.3348
  882MPD2     C12930   4.454   3.350  14.342  0.0205 -0.5144 -0.5486
  882MPD2    C112931   4.445   3.210  14.303  0.2691 -0.0452 -0.1912
  882MPD2    C212932   4.321   3.150  14.267 -0.3639 -0.8861 -0.3457
  882MPD2    C312933   4.207   3.226  14.277 -0.3727 -0.2781  0.4771
  882MPD2    C412934   4.215   3.360  14.325  0.0846  0.5687  0.5236
  882MPD2    C512935   4.334   3.419  14.345 -0.1396  0.1763 -0.3237
  882MPD2     H12936   4.324   3.045  14.239 -1.1684 -1.9325  3.4330
  882MPD2    H112937   4.129   3.426  14.323 -0.0359  0.3619 -1.6632
  882MPD2    H212938   4.545   3.405  14.358  0.6580 -1.8067  0.2481
  882MPD2    H312939   4.337   3.523  14.375  0.2080  1.2006 -3.8804
  882MPD2     N12940   4.073   3.173  14.260  0.9239  0.3339 -0.0004
  882MPD2    H512941   3.992   3.226  14.291  0.8727 -0.5329  1.3481
  882MPD2    N112942   4.569   3.138  14.307  0.4213  0.0153 -0.2658
  882MPD2    H712943   4.652   3.192  14.329  0.7859 -0.6834  0.0733
  883MPD2     C12944   1.929   3.162  16.612  0.6326 -0.0835  0.2646
  883MPD2    C112945   1.975   3.174  16.480 -0.0274  0.1569 -0.5122
  883MPD2    C212946   2.107   3.170  16.461 -0.3773  0.7352  0.3870
  883MPD2    C312947   2.192   3.134  16.564 -0.3090  0.1030  0.5493
  883MPD2    C412948   2.144   3.110  16.694  1.3834  0.2678 -0.7684
  883MPD2    C512949   2.016   3.127  16.718  0.2598 -0.0296  0.3728
  883MPD2     H12950   2.150   3.201  16.367 -1.2418  0.3073 -0.1478
  883MPD2    H112951   2.203   3.078  16.779  1.4612  0.4907 -0.7388
  883MPD2    H212952   1.822   3.161  16.628  1.0843  0.5186  3.4508
  883MPD2    H312953   1.970   3.111  16.816 -1.8556  1.3620 -0.3796
  883MPD2     N12954   2.333   3.137  16.534 -0.0470  0.7313  0.4830
  883MPD2    H512955   2.360   3.165  16.440 -1.2231  1.3810  0.3316
  883MPD2    N112956   1.897   3.186  16.362  0.1830 -0.3310  0.7467
  883MPD2    H712957   1.939   3.187  16.269  1.0590 -1.1101  1.1285
  884MPD2     C12958   3.367   3.520  15.073  0.1683 -0.6126  0.3909
  884MPD2    C112959   3.355   3.653  15.029 -0.6838 -0.3800 -0.3931
  884MPD2    C212960   3.255   3.729  15.089 -0.4832  0.0845  0.2019
  884MPD2    C312961   3.164   3.675  15.184 -0.1628 -0.1997  0.8219
  884MPD2    C412962   3.169   3.541  15.213 -0.7969 -0.9532 -0.3047
  884MPD2    C512963   3.278   3.472  15.167  0.6611  0.2746  0.2840
  884MPD2     H12964   3.262   3.834  15.064  0.6745 -0.3748 -1.4455
  884MPD2    H112965   3.112   3.494  15.292 -0.7102  1.1296  1.0025
  884MPD2    H212966   3.451   3.456  15.049  1.2498  0.0803  2.2934
  884MPD2    H312967   3.308   3.373  15.199  1.6946  0.7291  0.7392
  884MPD2     N12968   3.077   3.767  15.253 -0.3412 -0.0986 -0.1274
  884MPD2    H512969   3.089   3.864  15.227  4.4256 -0.9367 -1.0563
  884MPD2    N112970   3.440   3.710  14.933 -0.6087 -0.0874  0.2127
  884MPD2    H712971   3.430   3.809  14.910  2.0370  0.0911 -0.1672
  885MPD2     C12972   2.405   3.679   0.314  0.1850  0.1179 -0.1316
  885MPD2    C112973   2.274   3.643   0.305  0.5439  0.1344 -0.0394
  885MPD2    C212974   2.203   3.688   0.193  0.6003 -0.3634  0.0961
  885MPD2    C312975   2.263   3.756   0.086  1.1089 -0.0461  0.5505
  885MPD2    C412976   2.391   3.787   0.101 -0.0900  0.7783 -0.3721
  885MPD2    C512977   2.461   3.751   0.213  0.0595 -0.2350 -0.9327
  885MPD2     H12978   2.097   3.664   0.194  0.5950 -0.3193  0.8643
  885MPD2    H112979   2.444   3.839   0.021 -1.5622  0.2466 -1.6912
  885MPD2    H212980   2.462   3.647   0.401  1.4530 -2.4299 -1.8807
  885MPD2    H312981   2.563   3.784   0.225 -0.5745  1.4776 -0.2142
  885MPD2     N12982   2.193   3.800  17.662  0.6652 -0.5410  0.5141
  885MPD2    H512983   2.244   3.852  17.592 -0.5366 -0.7174 -0.4915
  885MPD2    N112984   2.211   3.578   0.418  0.5905 -0.1227 -0.2742
  885MPD2    H712985   2.275   3.549   0.492 -0.2785 -1.8755 -0.2080
  886MPD2     C12986   2.942   2.224  15.305 -1.2418 -0.6494  0.4206
  886MPD2    C112987   3.078   2.241  15.297  0.3797 -0.1826  0.3249
  886MPD2    C212988   3.124   2.371  15.268  0.2926  0.2663  0.1668
  886MPD2    C312989   3.029   2.475  15.264  0.4213  0.0175  0.8292
  886MPD2    C412990   2.890   2.449  15.257  0.0364  0.0389  0.8065
  886MPD2    C512991   2.852   2.322  15.275 -0.1405 -0.3127 -0.1737
  886MPD2     H12992   3.231   2.384  15.265  0.3783 -0.9812 -2.0388
  886MPD2    H112993   2.816   2.526  15.245 -0.4540 -0.5219  0.2595
  886MPD2    H212994   2.898   2.124  15.313 -1.4132 -0.5136  1.2379
  886MPD2    H312995   2.749   2.300  15.252 -0.5985  0.3801  1.2390
  886MPD2     N12996   3.066   2.608  15.246 -0.7133 -0.5181  0.1561
  886MPD2    H512997   2.997   2.675  15.213 -0.9331 -0.1982  1.2387
  886MPD2    N112998   3.184   2.135  15.307 -0.5933 -0.1037 -0.3510
  886MPD2    H712999   3.282   2.164  15.307 -0.9189  0.9698  2.1246
  887MPD2     C13000   3.890   2.116  15.319 -0.4802  0.0556 -0.1356
  887MPD2    C113001   3.763   2.151  15.372  0.0551  0.1928 -0.3244
  887MPD2    C213002   3.757   2.264  15.451 -0.6633 -0.6012 -0.4067
  887MPD2    C313003   3.866   2.348  15.473 -0.4877  0.4570  0.3304
  887MPD2    C413004   3.986   2.295  15.433 -0.4402 -0.4820 -0.3915
  887MPD2    C513005   4.001   2.189  15.345 -0.3910 -0.5384 -0.5261
  887MPD2     H13006   3.666   2.286  15.505 -0.4246  1.8538 -1.0270
  887MPD2    H113007   4.081   2.338  15.464 -0.9088  0.9165 -0.9294
  887MPD2    H213008   3.903   2.024  15.263 -2.4249 -0.9197  0.9881
  887MPD2    H313009   4.096   2.145  15.317 -0.6985 -0.3996 -1.7788
  887MPD2     N13010   3.858   2.467  15.547  0.2972  0.4901  0.1784
  887MPD2    H513011   3.763   2.495  15.571 -0.9081 -2.6342 -0.9546
  887MPD2    N113012   3.643   2.081  15.354  0.1995 -0.2440  0.6673
  887MPD2    H713013   3.558   2.120  15.393 -1.8526 -3.0949 -0.9369
  888MPD2     C13014   1.056   2.324  14.638  0.9578  0.0722  0.2924
  888MPD2    C113015   1.060   2.341  14.778  0.1050  0.7927  0.7073
  888MPD2    C213016   1.150   2.436  14.824  0.3953  0.2490 -0.0856
  888MPD2    C313017   1.216   2.526  14.741 -0.0779 -0.3094  0.7188
  888MPD2    C413018   1.200   2.516  14.605  0.8316 -0.4225 -0.2823
  888MPD2    C513019   1.128   2.406  14.554  0.6016  0.4553 -0.5144
  888MPD2     H13020   1.159   2.452  14.931  2.9393 -0.1996 -0.2326
  888MPD2    H113021   1.225   2.595  14.535  0.6410 -2.8750 -3.1366
  888MPD2    H213022   0.998   2.244  14.593  0.4628  0.0888  0.9040
  888MPD2    H313023   1.123   2.397  14.446  1.0284 -1.3874 -0.3756
  888MPD2     N13024   1.265   2.644  14.802 -0.1172 -0.2842  0.0962
  888MPD2    H513025   1.255   2.652  14.903  2.5046 -0.1913  0.3371
  888MPD2    N113026   0.981   2.269  14.878  0.5762 -0.6982 -0.4735
  888MPD2    H713027   0.998   2.289  14.976  0.5169 -0.8432 -0.4346
  889MPD2     C13028   0.023   2.047  13.168  0.4482 -0.6191  0.1445
  889MPD2    C113029   0.061   2.044  13.303  1.6434  0.7567 -0.0643
  889MPD2    C213030   0.131   2.155  13.352  0.6413 -0.5538 -0.1849
  889MPD2    C313031   0.101   2.271  13.292  0.2223 -0.0685 -0.4582
  889MPD2    C413032   0.038   2.274  13.171 -0.0297 -0.0777 -0.2057
  889MPD2    C513033   0.005   2.165  13.106  0.2051 -0.6558  0.1155
  889MPD2     H13034   0.173   2.147  13.452 -0.6585  2.4995  0.6118
  889MPD2    H113035   0.022   2.362  13.110  1.4628  0.9795  0.9426
  889MPD2    H213036   4.706   1.958  13.122  0.2350 -0.0276 -0.8121
  889MPD2    H313037   4.688   2.169  13.006 -0.5056 -0.6697  0.3938
  889MPD2     N13038   0.122   2.389  13.361  0.1532 -0.1784 -0.1281
  889MPD2    H513039   0.175   2.383  13.448 -1.5838 -0.5574  0.8907
  889MPD2    N113040   0.073   1.922  13.369  0.4928 -0.4888  0.4550
  889MPD2    H713041   0.126   1.921  13.456  2.5807 -2.1536 -0.8362
  890MPD2     C13042   4.596   3.776  14.518  0.9810 -0.3179  0.3117
  890MPD2    C113043   4.572   3.815  14.647  0.2032 -0.2852 -0.9908
  890MPD2    C213044   4.577   3.717  14.743  0.3615  0.7235  0.0359
  890MPD2    C313045   4.605   3.583  14.724  0.4041  0.1462  0.3707
  890MPD2    C413046   4.621   3.544  14.591 -0.5800  0.4756 -0.3880
  890MPD2    C513047   4.614   3.643  14.494 -0.7289  0.1928  0.1568
  890MPD2     H13048   4.556   3.740  14.846  0.0457  1.2148 -0.1363
  890MPD2    H113049   4.634   3.441  14.559  0.0260  0.4377 -0.0023
  890MPD2    H213050   4.590   3.844  14.434  3.8641 -1.0551 -0.4773
  890MPD2    H313051   4.625   3.621  14.388 -3.0571 -1.2894  0.2313
  890MPD2     N13052   4.621   3.501  14.838  0.3982  0.1662  0.6455
  890MPD2    H513053   4.600   3.539  14.929  1.0245  5.2760 -1.3378
  890MPD2    N113054   4.523   3.947  14.668 -0.8406  0.4680 -0.3488
  890MPD2    H713055   4.504   3.997  14.582 -1.4089 -0.5134 -0.7971
  891MPD2     C13056   2.434   1.673  16.750  0.5608  0.3143 -0.2760
  891MPD2    C113057   2.358   1.786  16.727 -0.0872  0.3729 -0.3353
  891MPD2    C213058   2.411   1.909  16.757 -0.2108 -0.1838 -0.2021
  891MPD2    C313059   2.546   1.919  16.798 -0.0792 -0.1343  0.1162
  891MPD2    C413060   2.624   1.806  16.820  0.0496 -0.0208  0.4729
  891MPD2    C513061   2.566   1.685  16.798  0.6284 -0.5841  0.1722
  891MPD2     H13062   2.369   2.007  16.737 -0.8696 -0.4142  0.0657
  891MPD2    H113063   2.725   1.817  16.858  0.7448 -0.8028 -1.1654
  891MPD2    H213064   2.394   1.576  16.722 -0.5942  0.9967 -0.9767
  891MPD2    H313065   2.617   1.592  16.818 -0.5844 -1.5792 -1.3876
  891MPD2     N13066   2.596   2.049  16.816 -0.1533 -0.5743 -0.5360
  891MPD2    H513067   2.527   2.122  16.800  1.4642  1.0515 -0.0471
  891MPD2    N113068   2.230   1.766  16.668  0.5634 -0.0295  0.0424
  891MPD2    H713069   2.217   1.676  16.623  0.9590 -0.3878  0.6416
  892MPD2     C13070   3.546   3.135  14.925  0.1913 -0.1205 -0.2876
  892MPD2    C113071   3.473   3.191  14.823  0.5078  0.6148  0.6037
  892MPD2    C213072   3.514   3.172  14.687 -0.1109 -0.0299 -0.5362
  892MPD2    C313073   3.639   3.113  14.658 -0.9009  0.5795  0.5715
  892MPD2    C413074   3.716   3.067  14.764 -0.0906 -0.6334  0.4270
  892MPD2    C513075   3.666   3.077  14.897  0.1387  0.0762 -0.0524
  892MPD2     H13076   3.449   3.202  14.605 -0.4764  0.3325 -0.1089
  892MPD2    H113077   3.812   3.019  14.743  0.0638  0.5844 -1.5872
  892MPD2    H213078   3.505   3.132  15.025 -1.3221  0.3529 -0.8996
  892MPD2    H313079   3.712   3.040  14.988 -1.8121  0.7312  1.1738
  892MPD2     N13080   3.685   3.087  14.531 -0.3786 -0.3596  0.3324
  892MPD2    H513081   3.777   3.043  14.530  0.2068  0.9195 -1.6269
  892MPD2    N113082   3.351   3.259  14.845  0.4190 -0.1394  1.0098
  892MPD2    H713083   3.324   3.279  14.941  1.6069  1.3359  1.0432
  893MPD2     C13084   4.510   1.499   1.001 -0.4467 -0.4630  0.0728
  893MPD2    C113085   4.527   1.508   1.138 -0.3147 -0.5297 -0.4066
  893MPD2    C213086   4.428   1.553   1.223 -0.4471  0.0744 -0.6622
  893MPD2    C313087   4.306   1.590   1.158  0.1992 -0.1457 -0.9520
  893MPD2    C413088   4.294   1.576   1.024 -0.4938 -0.1811 -0.2635
  893MPD2    C513089   4.395   1.539   0.942 -0.2282 -0.3169 -0.1600
  893MPD2     H13090   4.445   1.544   1.330 -1.1554  0.7199 -0.4919
  893MPD2    H113091   4.201   1.606   0.977  0.6682  1.9618 -1.1966
  893MPD2    H213092   4.596   1.459   0.949 -0.0212  0.9122 -0.2966
  893MPD2    H313093   4.384   1.536   0.835 -0.3092 -1.5356 -0.1153
  893MPD2     N13094   4.212   1.665   1.224 -0.2893 -0.0773 -0.9991
  893MPD2    H513095   4.132   1.686   1.165  0.0769 -0.7602 -1.7322
  893MPD2    N113096   4.653   1.479   1.186  1.1033 -0.1321  0.4648
  893MPD2    H713097   0.011   1.476   1.125 -0.4042 -1.5858 -1.4488
  894MPD2     C13098   2.254   3.740   0.755  0.1321 -0.8303  0.3030
  894MPD2    C113099   2.338   3.710   0.861 -0.1930 -0.1760 -0.2963
  894MPD2    C213100   2.464   3.760   0.863 -0.1733 -0.3347  0.1127
  894MPD2    C313101   2.513   3.834   0.760 -0.4060 -0.1226  0.2641
  894MPD2    C413102   2.434   3.858   0.648 -0.3256 -0.1977  0.3513
  894MPD2    C513103   2.308   3.810   0.656  0.3706  0.8485 -0.1456
  894MPD2     H13104   2.528   3.754   0.951  0.6373  4.3538 -0.1761
  894MPD2    H113105   2.477   3.908   0.562 -0.7884 -0.5161 -0.0676
  894MPD2    H213106   2.148   3.723   0.746  0.3390 -1.6316 -0.5640
  894MPD2    H313107   2.242   3.813   0.570  0.5210 -0.7443 -0.3223
  894MPD2     N13108   2.648   3.881   0.777 -0.1422  0.5703 -0.4678
  894MPD2    H513109   2.700   3.841   0.854  0.2373  0.1020 -0.9677
  894MPD2    N113110   2.294   3.641   0.978  0.0660  0.6713 -0.2526
  894MPD2    H713111   2.360   3.620   1.052  0.0881  1.4716 -0.0436
  895MPD2     C13112   3.324   1.981  13.660  1.0081  0.7484 -0.4139
  895MPD2    C113113   3.271   2.047  13.551  0.0927  0.2596 -0.1172
  895MPD2    C213114   3.278   2.004  13.420  0.3782 -0.0317 -0.0218
  895MPD2    C313115   3.323   1.875  13.400  0.3877  0.5412  0.3804
  895MPD2    C413116   3.367   1.804  13.509  0.1588  0.0293 -0.2920
  895MPD2    C513117   3.375   1.856  13.632 -0.0258  0.0589  0.4326
  895MPD2     H13118   3.229   2.060  13.342 -0.3750  1.6713  1.6606
  895MPD2    H113119   3.403   1.703  13.493  0.5874 -0.1564  1.8175
  895MPD2    H213120   3.334   2.025  13.759  5.1754  0.9300 -0.9070
  895MPD2    H313121   3.415   1.792  13.710  0.2108 -2.0238 -1.4013
  895MPD2     N13122   3.321   1.813  13.274  0.2402  0.0221  0.4923
  895MPD2    H513123   3.356   1.718  13.279 -0.0704 -0.1853 -1.0737
  895MPD2    N113124   3.222   2.173  13.568  0.0451 -0.4637 -0.7815
  895MPD2    H713125   3.183   2.218  13.485 -0.0894  2.1353  0.7038
  896MPD2     C13126   3.942   4.455   1.810 -0.0782 -0.2912 -0.0770
  896MPD2    C113127   3.950   4.432   1.673  0.1271  0.0134  0.1195
  896MPD2    C213128   3.868   4.337   1.616  0.2549  0.2422  0.6796
  896MPD2    C313129   3.765   4.279   1.686  0.4019  0.1969 -0.7022
  896MPD2    C413130   3.751   4.319   1.819  0.6929 -0.1596  0.5885
  896MPD2    C513131   3.841   4.407   1.873 -0.0856  0.7233 -0.3676
  896MPD2     H13132   3.884   4.305   1.514  0.4591 -4.1123  2.0707
  896MPD2    H113133   3.681   4.273   1.888 -0.6918  1.3175  0.1916
  896MPD2    H213134   4.013   4.510   1.871  1.2441 -0.2577 -1.6516
  896MPD2    H313135   3.837   4.418   1.981  0.5137  0.2216 -0.2983
  896MPD2     N13136   3.692   4.182   1.619 -0.4809  1.3548  0.1107
  896MPD2    H513137   3.723   4.157   1.526  1.2897  1.0348  0.7960
  896MPD2    N113138   4.062   4.498   1.616  0.5124 -0.0155  1.0758
  896MPD2    H713139   4.124   4.552   1.675  0.1571  0.0652  1.3756
  897MPD2     C13140   1.482   1.663  10.005 -0.0373 -0.4199  0.6711
  897MPD2    C113141   1.591   1.732  10.056  0.4245 -0.3477 -0.1691
  897MPD2    C213142   1.570   1.861  10.097 -0.6128 -0.2673  0.5617
  897MPD2    C313143   1.451   1.929  10.080 -0.2009  0.7211  0.2744
  897MPD2    C413144   1.344   1.862  10.032 -0.3158  0.4842  0.3526
  897MPD2    C513145   1.358   1.726  10.004 -0.1546  0.3095 -0.2159
  897MPD2     H13146   1.651   1.931  10.119  0.8781 -1.8602  0.1507
  897MPD2    H113147   1.249   1.911  10.015  0.5359  1.1078 -2.5909
  897MPD2    H213148   1.476   1.561   9.970 -0.6432 -0.0607 -0.2765
  897MPD2    H313149   1.273   1.672   9.965  1.2258 -3.8287  2.4634
  897MPD2     N13150   1.453   2.067  10.122 -0.2251 -0.0052 -0.5452
  897MPD2    H513151   1.534   2.112  10.165  0.3155 -1.2674 -0.2283
  897MPD2    N113152   1.717   1.673  10.045  0.1671 -0.0764  0.5081
  897MPD2    H713153   1.712   1.580  10.005 -0.3629 -0.7753  2.1865
  898MPD2     C13154   2.966   2.669  17.342 -0.0374  0.3007  0.1279
  898MPD2    C113155   3.028   2.670  17.218  0.3225 -0.7672 -0.0238
  898MPD2    C213156   3.028   2.785  17.145 -0.1340 -0.7291  0.2673
  898MPD2    C313157   2.983   2.908  17.192 -0.5069  0.1782 -0.1772
  898MPD2    C413158   2.919   2.903  17.315 -0.4680  0.0025  0.1028
  898MPD2    C513159   2.915   2.786  17.387 -0.8263 -0.1102 -0.1533
  898MPD2     H13160   3.059   2.782  17.041 -1.3517 -2.7304 -0.0374
  898MPD2    H113161   2.877   2.988  17.368  0.2274  0.1869  0.3543
  898MPD2    H213162   2.957   2.583  17.406 -2.2330  0.6337  0.2370
  898MPD2    H313163   2.864   2.779  17.482 -0.1491  1.7612  0.3667
  898MPD2     N13164   3.010   3.022  17.111 -0.2230  0.7870  0.1655
  898MPD2    H513165   3.066   3.012  17.027 -0.2236  0.2697  0.2296
  898MPD2    N113166   3.088   2.550  17.173 -0.1896  0.2889  0.0454
  898MPD2    H713167   3.166   2.572  17.112 -1.1285 -0.9926 -1.6029
  899MPD2     C13168   4.144   2.884  17.273  0.3268  0.0575  0.5340
  899MPD2    C113169   4.085   3.009  17.270 -0.2970  0.3523 -0.3775
  899MPD2    C213170   3.964   3.023  17.340  0.3410 -0.5920 -0.0718
  899MPD2    C313171   3.900   2.918  17.391 -0.3668  0.0692 -0.7904
  899MPD2    C413172   3.953   2.796  17.376  0.1202  0.0199 -0.5525
  899MPD2    C513173   4.082   2.776  17.332  0.3108  0.3104  0.6566
  899MPD2     H13174   3.928   3.122  17.367  0.1195 -0.7685  0.2785
  899MPD2    H113175   3.900   2.713  17.422 -0.2389  0.2706 -0.5179
  899MPD2    H213176   4.233   2.864  17.215  1.5089  3.5490  1.1690
  899MPD2    H313177   4.127   2.677  17.326  1.5487  0.9077 -0.0317
  899MPD2     N13178   3.779   2.928  17.472 -0.0150 -0.2643 -0.7397
  899MPD2    H513179   3.745   2.846  17.521 -3.1562  1.2638 -0.4127
  899MPD2    N113180   4.157   3.123  17.215 -0.9255 -0.3886 -0.1504
  899MPD2    H713181   4.237   3.099  17.156 -0.5903  2.3628 -0.7976
  900MPD2     C13182   3.905   0.573  12.559  0.3890  0.0365 -0.1745
  900MPD2    C113183   3.861   0.452  12.506 -0.1461 -0.2846 -0.1375
  900MPD2    C213184   3.748   0.450  12.421  0.0427  0.8316 -0.9214
  900MPD2    C313185   3.683   0.568  12.388  0.0625  0.1179 -0.5845
  900MPD2    C413186   3.732   0.690  12.427 -0.1917 -0.0886 -0.0281
  900MPD2    C513187   3.838   0.684  12.517 -0.1619  0.9417  0.9657
  900MPD2     H13188   3.719   0.363  12.362  0.8507  1.4720 -2.2637
  900MPD2    H113189   3.687   0.782  12.393 -1.7932 -0.3142  1.4944
  900MPD2    H213190   3.985   0.575  12.632  1.6412 -0.4931 -1.5169
  900MPD2    H313191   3.870   0.779  12.559  1.3805  1.2920 -1.0131
  900MPD2     N13192   3.560   0.554  12.310  0.5250  0.8081 -0.3062
  900MPD2    H513193   3.532   0.461  12.278 -1.3642  1.0473  0.6195
  900MPD2    N113194   3.926   0.333  12.539 -0.2302  0.0206  0.1541
  900MPD2    H713195   4.010   0.348  12.594 -0.3121 -2.3626  0.9177
  901MPD2     C13196   3.613   4.015  12.511  0.0245 -0.3627  0.2350
  901MPD2    C113197   3.754   4.028  12.509 -0.7329  0.4354  0.0248
  901MPD2    C213198   3.803   4.151  12.541 -0.2512 -0.6333 -0.7381
  901MPD2    C313199   3.721   4.263  12.556  0.1900 -0.0332  0.4155
  901MPD2    C413200   3.588   4.253  12.541  0.7651  0.0557  0.1471
  901MPD2    C513201   3.538   4.126  12.528  0.6301  0.6034 -0.0021
  901MPD2     H13202   3.908   4.174  12.557 -0.9282  1.3870  0.8314
  901MPD2    H113203   3.516   4.334  12.539  0.3983 -0.2899 -0.7053
  901MPD2    H213204   3.573   3.918  12.483 -0.2889  0.5484 -2.4770
  901MPD2    H313205   3.431   4.113  12.516  0.2167  2.1621  2.0134
  901MPD2     N13206   3.796   4.384  12.578 -0.3361 -0.8289 -0.4118
  901MPD2    H513207   3.895   4.373  12.601 -0.3023 -0.2873 -0.3033
  901MPD2    N113208   3.841   3.922  12.488 -0.7401  0.3618  0.2563
  901MPD2    H713209   3.798   3.831  12.474 -1.2277  0.4613  1.1431
  902MPD2     C13210   2.655   2.854  12.317  0.3898 -0.1718  0.3955
  902MPD2    C113211   2.701   2.872  12.440  0.2230  0.2386 -0.7141
  902MPD2    C213212   2.824   2.925  12.468 -0.3900  0.2373 -0.1551
  902MPD2    C313213   2.907   2.956  12.363 -0.4642 -0.1139 -0.1226
  902MPD2    C413214   2.873   2.927  12.236  0.0091  0.0252  0.4465
  902MPD2    C513215   2.743   2.882  12.216 -0.5758  0.1706  0.6251
  902MPD2     H13216   2.856   2.957  12.567 -1.0184 -0.6700  0.3470
  902MPD2    H113217   2.932   2.949  12.148  1.5610 -1.7421  1.0553
  902MPD2    H213218   2.554   2.824  12.291  0.3988 -0.3343  0.5534
  902MPD2    H313219   2.708   2.862  12.116  1.8871 -0.9185 -0.0181
  902MPD2     N13220   3.032   3.023  12.380 -0.1342  0.2736 -0.0315
  902MPD2    H513221   3.079   3.057  12.297  2.0234 -0.6758  0.7818
  902MPD2    N113222   2.604   2.846  12.539 -0.0932  0.7771  0.1017
  902MPD2    H713223   2.519   2.816  12.491 -1.5312  0.3898  2.8792
  903MPD2     C13224   3.382   3.081  11.811  0.1491 -0.2800 -0.0437
  903MPD2    C113225   3.319   3.063  11.927 -0.4130  0.6343 -0.2829
  903MPD2    C213226   3.244   2.948  11.945  0.3896  0.0456  0.4911
  903MPD2    C313227   3.248   2.845  11.847  0.3930 -0.9470  0.0072
  903MPD2    C413228   3.321   2.864  11.733 -0.2052 -0.8728  0.6141
  903MPD2    C513229   3.379   2.988  11.717 -0.4378  0.5296  0.7455
  903MPD2     H13230   3.194   2.933  12.040  0.1638 -1.7272  0.0869
  903MPD2    H113231   3.322   2.795  11.650  1.4926  1.2373 -1.1278
  903MPD2    H213232   3.443   3.168  11.793  0.4077 -0.6283 -0.8498
  903MPD2    H313233   3.433   3.020  11.629 -1.5886  0.4866  0.0166
  903MPD2     N13234   3.182   2.728  11.870 -0.4234  0.0884 -0.1795
  903MPD2    H513235   3.117   2.734  11.948  0.2017  0.0301  0.3441
  903MPD2    N113236   3.334   3.164  12.027  0.2495 -0.0860 -0.1228
  903MPD2    H713237   3.407   3.234  12.015  0.4197 -0.4269 -1.0712
  904MPD2     C13238   3.160   1.775  13.984 -0.1761 -0.5578  0.3844
  904MPD2    C113239   3.135   1.908  13.976  0.3294  0.0662 -0.0770
  904MPD2    C213240   3.208   2.000  14.050 -0.6699 -0.3737  0.2235
  904MPD2    C313241   3.310   1.947  14.130  0.1852 -0.3709  0.2223
  904MPD2    C413242   3.345   1.812  14.135 -0.0319 -0.1881  0.7609
  904MPD2    C513243   3.261   1.731  14.064  0.2594  0.0410  0.6801
  904MPD2     H13244   3.196   2.105  14.027 -1.5700 -0.5416 -0.0639
  904MPD2    H113245   3.424   1.770  14.195  2.6250  1.0952 -1.8680
  904MPD2    H213246   3.105   1.697  13.931 -0.8843 -0.6790  1.2893
  904MPD2    H313247   3.284   1.625  14.068  1.1653  0.1624 -1.6781
  904MPD2     N13248   3.369   2.046  14.210 -0.1455  0.3972  0.3945
  904MPD2    H513249   3.320   2.134  14.220 -0.0437  0.6147 -0.9972
  904MPD2    N113250   3.044   1.968  13.886 -0.4986  0.0902  0.4407
  904MPD2    H713251   3.050   2.069  13.883  3.1948 -0.1271  0.0043
  905MPD2     C13252   2.652   2.227  13.143  0.5785 -0.4381  0.0673
  905MPD2    C113253   2.759   2.201  13.228  0.0357 -0.6812 -0.1195
  905MPD2    C213254   2.856   2.121  13.176 -0.3604 -0.7366 -0.3501
  905MPD2    C313255   2.857   2.074  13.046 -0.5442 -0.2203  0.1225
  905MPD2    C413256   2.745   2.098  12.968  0.9346  0.8325 -0.1356
  905MPD2    C513257   2.644   2.176  13.020  0.0610  0.4118  0.2740
  905MPD2     H13258   2.931   2.082  13.244 -0.1418 -1.5776 -1.0746
  905MPD2    H113259   2.737   2.059  12.867  0.0028  0.1362  0.2038
  905MPD2    H213260   2.581   2.300  13.181  1.4037 -0.0134  0.7884
  905MPD2    H313261   2.554   2.203  12.965  0.4564 -0.2530 -0.7000
  905MPD2     N13262   2.953   1.978  13.013 -0.2354 -0.2774 -0.3850
  905MPD2    H513263   3.028   1.974  13.081 -0.6598  2.0440  0.2060
  905MPD2    N113264   2.761   2.244  13.362  0.4317  0.4103  0.5236
  905MPD2    H713265   2.669   2.254  13.405  0.7788  1.6082  0.9829
  906MPD2     C13266   0.413   2.068  11.434 -0.4960 -0.1080  0.1088
  906MPD2    C113267   0.375   1.993  11.327  0.4123  0.5213  0.3239
  906MPD2    C213268   0.279   1.892  11.344  0.7946 -0.1644 -0.0829
  906MPD2    C313269   0.241   1.851  11.472  0.0525  0.6016  0.5548
  906MPD2    C413270   0.284   1.928  11.575  0.6151 -0.7512 -0.8561
  906MPD2    C513271   0.360   2.038  11.557  0.3659 -0.1763  0.3803
  906MPD2     H13272   0.238   1.844  11.256  1.0361  1.4612 -1.0766
  906MPD2    H113273   0.281   1.898  11.680  0.3922  1.2332 -0.3001
  906MPD2    H213274   0.481   2.152  11.425  0.2482 -0.5052  1.8903
  906MPD2    H313275   0.398   2.089  11.645  1.3824 -0.2355 -0.0191
  906MPD2     N13276   0.163   1.735  11.479  0.1414 -0.6683  0.8349
  906MPD2    H513277   0.161   1.682  11.392 -1.3393  0.6963  0.0365
  906MPD2    N113278   0.429   2.010  11.201 -0.2580 -0.3700  0.2870
  906MPD2    H713279   0.414   1.935  11.134 -0.9803 -1.0321  1.1714
  907MPD2     C13280   3.324   1.038  15.329  0.0521 -0.6364 -0.3425
  907MPD2    C113281   3.399   1.020  15.210  0.3005 -0.1578  0.6919
  907MPD2    C213282   3.507   1.100  15.177  0.1974  0.3258  0.5713
  907MPD2    C313283   3.527   1.212  15.249  0.1292 -0.0543  0.4817
  907MPD2    C413284   3.439   1.240  15.353 -0.0399 -0.0211 -0.5022
  907MPD2    C513285   3.348   1.146  15.400  0.2946 -0.2173  0.5516
  907MPD2     H13286   3.564   1.067  15.091  3.5096 -1.8246  3.5708
  907MPD2    H113287   3.454   1.319  15.426 -1.9154  0.6949 -0.8930
  907MPD2    H213288   3.241   0.981  15.369 -0.5437 -0.1481 -0.8694
  907MPD2    H313289   3.281   1.175  15.480  1.3299  1.0711  0.9556
  907MPD2     N13290   3.639   1.288  15.221  0.3056 -0.0825  0.3987
  907MPD2    H513291   3.708   1.265  15.151  2.9681  0.7964  2.7435
  907MPD2    N113292   3.377   0.904  15.131  0.3027  0.4728 -0.3050
  907MPD2    H713293   3.440   0.895  15.052  2.5090  1.5562  1.3368
  908MPD2     C13294   2.372   1.115   9.562 -0.9775 -0.2209  0.3315
  908MPD2    C113295   2.300   1.031   9.649  0.0971 -0.2446 -0.6146
  908MPD2    C213296   2.220   1.092   9.748 -0.1746 -0.1328 -0.8190
  908MPD2    C313297   2.217   1.228   9.753 -0.3395  0.3214 -0.5233
  908MPD2    C413298   2.288   1.306   9.672 -0.0608 -0.0188 -0.9477
  908MPD2    C513299   2.364   1.256   9.572 -0.3842  0.1534  0.8891
  908MPD2     H13300   2.169   1.040   9.829 -0.1327  1.3207  0.1297
  908MPD2    H113301   2.287   1.414   9.674  2.0358 -0.0563  2.1277
  908MPD2    H213302   2.430   1.082   9.476 -2.1693 -0.3797 -0.4181
  908MPD2    H313303   2.424   1.317   9.506  0.0424 -0.3253  0.8320
  908MPD2     N13304   2.136   1.292   9.852  0.6843  0.1885  0.2221
  908MPD2    H513305   2.087   1.233   9.918 -0.7929  0.8052 -0.3228
  908MPD2    N113306   2.320   0.892   9.641  0.1023 -0.4039 -0.5627
  908MPD2    H713307   2.370   0.857   9.559  1.0500 -0.4724  0.0374
  909MPD2     C13308   2.163   3.798  11.270 -0.0475 -0.0690 -0.1123
  909MPD2    C113309   2.123   3.913  11.204  0.8064 -0.4677 -0.1000
  909MPD2    C213310   2.028   3.994  11.271 -0.4498  0.2023  1.4235
  909MPD2    C313311   1.981   3.958  11.392  0.2618  0.6469  0.3353
  909MPD2    C413312   2.025   3.840  11.449  0.1227 -0.7599 -0.4720
  909MPD2    C513313   2.116   3.757  11.388 -0.5188 -0.4095  0.0014
  909MPD2     H13314   1.995   4.079  11.214 -0.5936  0.7118  2.2668
  909MPD2    H113315   1.986   3.807  11.544 -0.2776  0.9235 -0.0474
  909MPD2    H213316   2.235   3.730  11.227  0.6678  0.6606 -0.0682
  909MPD2    H313317   2.155   3.660  11.415  1.2879 -0.1661 -1.7147
  909MPD2     N13318   1.881   4.037  11.457  0.6208 -0.3776 -0.2944
  909MPD2    H513319   1.863   4.123  11.407 -1.6641 -1.4657 -1.3615
  909MPD2    N113320   2.174   3.959  11.087 -0.4018 -0.1837 -0.0210
  909MPD2    H713321   2.125   4.037  11.043 -1.1196 -1.0523 -0.7764
  910MPD2     C13322   2.629   1.630  16.055  0.6682  0.2254 -0.3252
  910MPD2    C113323   2.745   1.630  15.973  0.3137 -0.3544 -0.4229
  910MPD2    C213324   2.749   1.699  15.853 -0.4399 -0.7874 -0.1270
  910MPD2    C313325   2.630   1.752  15.805  0.7612 -0.0518 -0.3772
  910MPD2    C413326   2.517   1.750  15.881  0.2702  0.0821  0.3103
  910MPD2    C513327   2.519   1.694  15.999  0.2152 -0.1582  0.2272
  910MPD2     H13328   2.841   1.706  15.796  0.0203 -0.1549  0.6904
  910MPD2    H113329   2.427   1.793  15.841 -0.9991 -0.6049  2.4279
  910MPD2    H213330   2.609   1.592  16.155  0.6919 -1.2645 -0.8814
  910MPD2    H313331   2.426   1.686  16.053  1.8570 -0.4979  3.0362
  910MPD2     N13332   2.613   1.806  15.674  0.0991  0.5245  0.1249
  910MPD2    H513333   2.522   1.848  15.656 -0.3436 -0.3774  0.2699
  910MPD2    N113334   2.864   1.570  16.019 -0.7002  0.2697  0.1395
  910MPD2    H713335   2.942   1.566  15.955  0.0357  1.5182  0.9500
  911MPD2     C13336   0.577   1.538  16.127 -0.3338 -0.2361 -0.0824
  911MPD2    C113337   0.648   1.641  16.181 -0.5825  0.4022 -0.0267
  911MPD2    C213338   0.600   1.773  16.165 -0.2432  0.2515 -0.9536
  911MPD2    C313339   0.478   1.791  16.102 -0.2188 -0.6202 -0.5127
  911MPD2    C413340   0.414   1.683  16.049  0.7390  0.0940 -0.3005
  911MPD2    C513341   0.461   1.555  16.058  0.2054 -0.1028  0.3963
  911MPD2     H13342   0.631   1.864  16.214 -0.3731  0.2824 -0.9286
  911MPD2    H113343   0.327   1.698  15.985 -1.0868 -0.2327  2.0911
  911MPD2    H213344   0.612   1.435  16.131 -0.1882 -0.2543 -1.6734
  911MPD2    H313345   0.405   1.481  16.002  0.4446  1.2546 -1.6369
  911MPD2     N13346   0.407   1.908  16.087  0.0280 -0.3484 -0.0247
  911MPD2    H513347   0.311   1.891  16.059  0.3498  1.7767 -2.4173
  911MPD2    N113348   0.767   1.607  16.249 -0.6189 -0.1860 -0.0713
  911MPD2    H713349   0.799   1.510  16.254  0.4769  0.1663 -0.2910
  912MPD2     C13350   0.192   1.800  15.614 -0.2040  0.0049 -0.1093
  912MPD2    C113351   0.127   1.863  15.719  0.0681 -0.0205  0.3541
  912MPD2    C213352   0.071   1.777  15.811  0.3920  0.6743  0.2486
  912MPD2    C313353   0.106   1.642  15.814 -0.0548  0.3458 -0.3405
  912MPD2    C413354   0.170   1.586  15.706 -0.7672  0.9184  0.0133
  912MPD2    C513355   0.201   1.664  15.599  0.0352 -0.3662  0.9672
  912MPD2     H13356   0.013   1.828  15.887 -1.1831 -2.4177  1.1327
  912MPD2    H113357   0.199   1.482  15.696  1.3334  1.5306 -0.1673
  912MPD2    H213358   0.235   1.863  15.537 -0.1145 -2.6310 -2.1815
  912MPD2    H313359   0.239   1.615  15.511  0.5483  0.3678  0.7787
  912MPD2     N13360   0.086   1.563  15.929 -0.1844 -0.7431 -0.2152
  912MPD2    H513361   0.058   1.612  16.013 -2.4940  0.9057 -1.9334
  912MPD2    N113362   0.123   2.005  15.709  0.1352 -0.2123 -0.4674
  912MPD2    H713363   0.183   2.061  15.650 -0.6942  0.2372 -0.8905
  913MPD2     C13364   1.408   3.450   9.908  0.3103  0.0297 -0.0522
  913MPD2    C113365   1.486   3.385   9.995  0.1545 -0.3248  0.0997
  913MPD2    C213366   1.592   3.453  10.055  0.0589 -0.3752  0.8744
  913MPD2    C313367   1.635   3.575  10.008 -0.2141 -0.0928 -0.7059
  913MPD2    C413368   1.562   3.642   9.916  0.1418  0.1328  0.3291
  913MPD2    C513369   1.444   3.577   9.870 -0.0912  0.5141 -0.3988
  913MPD2     H13370   1.641   3.416  10.144  1.2517 -1.0073 -0.0443
  913MPD2    H113371   1.601   3.738   9.885 -1.0245 -0.2299 -2.2768
  913MPD2    H213372   1.323   3.407   9.856  2.1583  1.7580 -4.4929
  913MPD2    H313373   1.379   3.632   9.802 -0.2965 -0.5368 -1.0578
  913MPD2     N13374   1.741   3.647  10.066 -0.3786  0.3853  0.4714
  913MPD2    H513375   1.757   3.734  10.017  1.9466 -1.0383 -1.2793
  913MPD2    N113376   1.452   3.255  10.035 -0.5586  0.2055 -0.2234
  913MPD2    H713377   1.380   3.204   9.984  1.6906 -0.8338 -2.3189
  914MPD2     C13378   4.693   3.937  11.989  0.4117 -0.3288 -0.0773
  914MPD2    C113379   4.596   4.019  12.032  0.7166  0.0157 -0.2288
  914MPD2    C213380   4.504   3.978  12.124  0.5168  0.0552 -0.5505
  914MPD2    C313381   4.504   3.848  12.171  0.3132 -0.6543  0.1213
  914MPD2    C413382   4.600   3.761  12.120  0.5198 -0.3262 -0.4131
  914MPD2    C513383   4.694   3.807  12.033  0.5571  0.0277 -0.0948
  914MPD2     H13384   4.425   4.042  12.160 -0.4215 -1.2557 -0.2612
  914MPD2    H113385   4.610   3.656  12.143  0.1913 -0.2190  0.2116
  914MPD2    H213386   0.042   3.969  11.915 -0.6133  1.1578 -0.4150
  914MPD2    H313387   0.042   3.733  11.997 -0.0051 -0.4699 -0.1730
  914MPD2     N13388   4.389   3.806  12.250 -0.1739 -0.2305  0.7380
  914MPD2    H513389   4.313   3.871  12.233  0.6856  1.2025  2.3918
  914MPD2    N113390   4.607   4.156  11.990 -0.6913 -0.2488  0.0597
  914MPD2    H713391   4.683   4.175  11.925  0.0911 -1.0562  0.7403
  915MPD2     C13392   2.322   3.276  15.576  0.2126  0.9842  0.9607
  915MPD2    C113393   2.210   3.350  15.551  0.4658 -0.1451 -0.5719
  915MPD2    C213394   2.154   3.416  15.656 -0.1909  0.7715 -0.2316
  915MPD2    C313395   2.199   3.403  15.788  1.6166  0.0221  0.4224
  915MPD2    C413396   2.310   3.329  15.808  0.3743 -0.5317 -0.1344
  915MPD2    C513397   2.372   3.273  15.704 -0.1475 -0.4182 -0.4278
  915MPD2     H13398   2.064   3.476  15.643 -0.6738 -0.2743 -1.5702
  915MPD2    H113399   2.334   3.299  15.910 -1.5739  1.7973  1.0028
  915MPD2    H213400   2.372   3.234  15.489  0.6400  1.4116  1.0001
  915MPD2    H313401   2.464   3.217  15.715  0.2903  0.5152  0.6949
  915MPD2     N13402   2.127   3.470  15.895  0.0100 -0.6623  0.4051
  915MPD2    H513403   2.050   3.533  15.876  1.6657  0.5564 -2.2343
  915MPD2    N113404   2.178   3.371  15.413  0.2122 -0.1177 -0.1142
  915MPD2    H713405   2.236   3.323  15.345 -0.1598  2.4325 -2.2461
  916MPD2     C13406   4.279   1.778  15.819  0.3176 -0.1704  0.2936
  916MPD2    C113407   4.379   1.725  15.894  0.8376 -0.5510  0.1891
  916MPD2    C213408   4.466   1.635  15.823  0.2436 -0.5129 -0.0155
  916MPD2    C313409   4.448   1.596  15.695 -0.0310  0.2171 -0.7203
  916MPD2    C413410   4.324   1.634  15.631  0.1459  0.5919 -0.0643
  916MPD2    C513411   4.261   1.736  15.687  0.1104 -0.4623  0.6516
  916MPD2     H13412   4.556   1.604  15.874 -2.2085 -2.4439  3.1374
  916MPD2    H113413   4.295   1.609  15.529  0.2852  2.1112 -0.4668
  916MPD2    H213414   4.223   1.864  15.853 -0.4794 -0.0498 -1.3424
  916MPD2    H313415   4.174   1.785  15.645 -0.8936 -2.2812  0.5835
  916MPD2     N13416   4.541   1.516  15.628 -0.6345  0.3096 -0.1183
  916MPD2    H513417   4.627   1.500  15.678  0.0480 -0.3635 -1.5106
  916MPD2    N113418   4.411   1.779  16.025 -0.3198 -0.2550 -0.2862
  916MPD2    H713419   4.347   1.855  16.045 -1.6783 -1.7420  0.9290
  917MPD2     C13420   0.915   3.825  10.553  0.5163 -0.5560 -0.9473
  917MPD2    C113421   0.938   3.901  10.663  0.0979  0.3842 -0.6812
  917MPD2    C213422   1.033   4.004  10.650 -0.1083 -0.4078 -0.0491
  917MPD2    C313423   1.103   4.031  10.530  0.0543  0.2270 -0.3857
  917MPD2    C413424   1.073   3.950  10.421 -0.0588 -0.3149 -0.3580
  917MPD2    C513425   0.980   3.851  10.438 -0.7286  0.0375  0.2382
  917MPD2     H13426   1.061   4.054  10.742 -0.4533 -1.0318  0.3951
  917MPD2    H113427   1.128   3.957  10.328 -0.1957  4.2221 -0.1340
  917MPD2    H213428   0.847   3.740  10.560  0.0598  0.0482  2.0496
  917MPD2    H313429   0.948   3.795  10.351 -0.5923 -0.9759  0.8416
  917MPD2     N13430   1.200   4.128  10.515  0.7580 -0.4463  0.1491
  917MPD2    H513431   1.238   4.147  10.423 -0.3349  0.6812 -0.0683
  917MPD2    N113432   0.860   3.874  10.781  0.0649 -0.5088  0.1911
  917MPD2    H713433   0.787   3.804  10.775 -1.9245  1.7481 -1.7231
  918MPD2     C13434   0.484   4.334  11.617  0.3339 -0.4267  1.0510
  918MPD2    C113435   0.612   4.297  11.587 -0.6564  0.0068  0.6438
  918MPD2    C213436   0.646   4.225  11.476  0.2598 -0.4186  0.2751
  918MPD2    C313437   0.545   4.180  11.389 -0.4984 -0.3450  0.2684
  918MPD2    C413438   0.414   4.209  11.430 -0.2672 -0.2564  0.5400
  918MPD2    C513439   0.387   4.289  11.531 -0.9028 -0.4189 -0.0851
  918MPD2     H13440   0.748   4.198  11.455  0.0968 -0.4036 -0.5086
  918MPD2    H113441   0.329   4.156  11.388 -1.7079  2.1592  0.3757
  918MPD2    H213442   0.454   4.397  11.700  0.4934  0.6305  0.3109
  918MPD2    H313443   0.284   4.299  11.562 -0.7252  0.1473  0.3188
  918MPD2     N13444   0.575   4.099  11.274 -0.0973 -0.6261  0.4824
  918MPD2    H513445   0.674   4.096  11.251 -0.3611 -0.8961 -0.6254
  918MPD2    N113446   0.723   4.335  11.667  0.1955  0.1257 -0.2102
  918MPD2    H713447   0.812   4.293  11.644  0.2249  0.5394 -0.8342
  919MPD2     C13448   1.747   3.120  11.432 -0.4553  0.1927 -0.1253
  919MPD2    C113449   1.677   3.001  11.436  0.2662  0.2475 -0.4225
  919MPD2    C213450   1.591   2.969  11.331 -0.0153  0.0985 -0.3248
  919MPD2    C313451   1.559   3.061  11.233  0.0379  0.4682 -0.0032
  919MPD2    C413452   1.625   3.182  11.233 -0.2944  0.4877 -0.0915
  919MPD2    C513453   1.720   3.208  11.326 -0.0746 -0.5868 -0.2285
  919MPD2     H13454   1.538   2.875  11.338  1.8040 -1.0367 -1.6125
  919MPD2    H113455   1.606   3.262  11.163 -0.7442 -0.2048 -0.7729
  919MPD2    H213456   1.814   3.151  11.511 -1.9112 -0.5838  1.4408
  919MPD2    H313457   1.748   3.313  11.326 -0.5780 -0.4577  0.0573
  919MPD2     N13458   1.461   3.040  11.132 -0.0697 -0.0670 -0.3246
  919MPD2    H513459   1.436   3.111  11.064 -0.7213  0.1133  0.1030
  919MPD2    N113460   1.688   2.901  11.540  0.2384  0.4222  1.0793
  919MPD2    H713461   1.626   2.821  11.528  2.2940 -0.8553 -1.1025
  920MPD2     C13462   1.128   3.296  10.241  0.4718  0.2385  1.0162
  920MPD2    C113463   1.052   3.186  10.262  0.0388 -0.5785 -0.0570
  920MPD2    C213464   1.084   3.096  10.365  0.3533 -0.3685 -0.3450
  920MPD2    C313465   1.192   3.115  10.453 -0.3368  0.0220  0.3866
  920MPD2    C413466   1.269   3.220  10.413  0.4684 -0.2516  0.5442
  920MPD2    C513467   1.240   3.309  10.317 -0.3566  0.1255  0.0341
  920MPD2     H13468   1.015   3.015  10.388  1.9038 -2.0939 -1.8549
  920MPD2    H113469   1.361   3.246  10.462  2.7116 -1.3367 -3.0962
  920MPD2    H213470   1.099   3.365  10.163 -2.5528 -1.2207  0.8560
  920MPD2    H313471   1.305   3.394  10.303 -1.3857  0.4979 -2.4816
  920MPD2     N13472   1.213   3.024  10.563  0.1089 -0.3562  0.2558
  920MPD2    H513473   1.138   2.959  10.587  0.4152  0.1580  2.5287
  920MPD2    N113474   0.933   3.151  10.191  0.2554  0.4001 -0.7546
  920MPD2    H713475   0.885   3.069  10.227  0.7866 -0.4647 -2.0187
  921MPD2     C13476   1.486   2.068  16.735  0.3987 -0.5099 -0.4038
  921MPD2    C113477   1.510   1.940  16.692  0.1398  0.0676 -0.0641
  921MPD2    C213478   1.398   1.864  16.663 -0.3240 -0.2517 -0.5577
  921MPD2    C313479   1.269   1.902  16.683 -0.7381  0.5040  0.1189
  921MPD2    C413480   1.246   2.034  16.716  0.2297  0.1627 -0.5623
  921MPD2    C513481   1.354   2.110  16.751  0.4758  0.1536 -0.1084
  921MPD2     H13482   1.420   1.760  16.641 -0.7733 -0.6807  0.9788
  921MPD2    H113483   1.150   2.077  16.739  0.3984  1.4201 -2.1885
  921MPD2    H213484   1.566   2.136  16.759  0.8676 -0.5323 -1.9067
  921MPD2    H313485   1.331   2.213  16.773  0.6340 -0.3097  2.1599
  921MPD2     N13486   1.160   1.819  16.659 -0.1697  0.0160 -0.1361
  921MPD2    H513487   1.078   1.865  16.621 -2.0366 -2.5161  0.8723
  921MPD2    N113488   1.648   1.901  16.666 -0.2012  0.3576 -0.0970
  921MPD2    H713489   1.722   1.963  16.697  0.7242  0.8247 -3.2294
  922MPD2     C13490   2.418   4.208  16.750 -0.3231 -0.3288  0.1049
  922MPD2    C113491   2.352   4.295  16.841  0.2886  0.2995  0.6026
  922MPD2    C213492   2.286   4.239  16.951 -0.4710 -0.9331 -0.0911
  922MPD2    C313493   2.275   4.101  16.966 -0.1858  0.2029  0.0529
  922MPD2    C413494   2.323   4.024  16.865  0.0376  0.8447  0.2566
  922MPD2    C513495   2.401   4.075  16.767  0.0583 -1.0886 -0.4866
  922MPD2     H13496   2.242   4.306  17.025  0.3721 -0.3873 -0.0777
  922MPD2    H113497   2.308   3.916  16.868  0.2764  0.8136  0.3143
  922MPD2    H213498   2.473   4.245  16.663 -0.3729 -1.5439 -0.4393
  922MPD2    H313499   2.453   4.006  16.702 -2.2586 -2.1179 -1.2663
  922MPD2     N13500   2.182   4.048  17.061  0.2553  0.6650  0.4428
  922MPD2    H513501   2.157   3.950  17.057 -0.1193  0.6485  3.6990
  922MPD2    N113502   2.359   4.437  16.844 -0.6322 -0.0125  0.5775
  922MPD2    H713503   2.333   4.489  16.927  1.8577  1.8699  0.1844
  923MPD2     C13504   4.620   1.619   9.885  0.2018 -0.1621  0.4975
  923MPD2    C113505   4.560   1.741   9.861  0.4571  0.2163 -0.1653
  923MPD2    C213506   4.593   1.845   9.947 -0.5342 -0.4346 -0.6806
  923MPD2    C313507   4.685   1.821  10.054  0.8523  0.4249 -0.7604
  923MPD2    C413508   0.017   1.700  10.070 -0.1785 -0.0904 -0.0698
  923MPD2    C513509   4.708   1.603   9.984 -0.0052 -0.3830 -0.4126
  923MPD2     H13510   4.561   1.948   9.937  0.2972 -0.1271 -0.1643
  923MPD2    H113511   0.088   1.687  10.151  0.7379 -0.8015 -0.9920
  923MPD2    H213512   4.611   1.541   9.810 -0.3991 -0.4385  0.8601
  923MPD2    H313513   0.029   1.508  10.010  2.7475  1.4268  1.4594
  923MPD2     N13514   0.002   1.913  10.149 -0.1680  0.2019  0.3195
  923MPD2    H513515   0.073   1.876  10.212 -0.3037  1.0889  0.9958
  923MPD2    N113516   4.479   1.756   9.747  0.5198 -0.1538 -0.8395
  923MPD2    H713517   4.436   1.672   9.711 -0.8107  0.9200 -1.7624
  924MPD2     C13518   4.134   0.694  15.360 -0.4841 -0.7109  0.3769
  924MPD2    C113519   4.137   0.788  15.462  0.9690 -0.0679 -0.4037
  924MPD2    C213520   4.132   0.922  15.427 -0.4070  0.0592 -0.6464
  924MPD2    C313521   4.118   0.972  15.296 -0.0948 -0.2037  0.4824
  924MPD2    C413522   4.121   0.875  15.198 -0.1030  0.0299 -0.0582
  924MPD2    C513523   4.137   0.741  15.228  0.0333  0.2859 -0.1213
  924MPD2     H13524   4.143   0.993  15.509 -2.5046 -0.7531  0.3238
  924MPD2    H113525   4.127   0.905  15.094  0.9816  2.6764  0.7590
  924MPD2    H213526   4.153   0.592  15.391  1.8790  0.3878  2.5180
  924MPD2    H313527   4.151   0.669  15.148 -0.6392 -0.6172  0.5776
  924MPD2     N13528   4.100   1.114  15.263  0.4518 -0.3046  0.3291
  924MPD2    H513529   4.089   1.136  15.165  0.3841  2.6024  0.9977
  924MPD2    N113530   4.143   0.752  15.599 -0.6580  0.0125  0.4957
  924MPD2    H713531   4.141   0.834  15.659 -0.4968  1.2821 -1.2048
  925MPD2     C13532   2.390   2.519  14.713 -0.1148  0.3470  0.5122
  925MPD2    C113533   2.346   2.651  14.706 -0.0701 -1.1845 -0.4335
  925MPD2    C213534   2.269   2.701  14.820 -0.1519  0.3857 -0.0885
  925MPD2    C313535   2.263   2.628  14.935 -0.2975  0.8416 -0.3718
  925MPD2    C413536   2.318   2.505  14.939 -0.1621  0.4457  0.1825
  925MPD2    C513537   2.373   2.450  14.827 -0.1814 -0.4267  0.0509
  925MPD2     H13538   2.209   2.792  14.821 -0.1149  0.4031  0.9130
  925MPD2    H113539   2.307   2.438  15.023 -2.6328 -1.2022 -1.4835
  925MPD2    H213540   2.443   2.462  14.637 -0.3309  1.4702 -0.4866
  925MPD2    H313541   2.402   2.346  14.837 -2.6408 -1.2579 -1.2876
  925MPD2     N13542   2.199   2.674  15.055 -0.0701  0.5549 -0.3785
  925MPD2    H513543   2.200   2.607  15.132  0.4800  2.4567  1.2807
  925MPD2    N113544   2.363   2.727  14.589 -0.0681  0.3547  0.2206
  925MPD2    H713545   2.309   2.813  14.583  0.0193  0.2663 -1.7759
  926MPD2     C13546   1.247   1.130  13.511 -0.4805 -0.0766  0.3035
  926MPD2    C113547   1.238   1.267  13.532  0.0013  0.3075 -0.5906
  926MPD2    C213548   1.274   1.357  13.431 -0.8013  0.0905  0.2290
  926MPD2    C313549   1.320   1.311  13.309  0.0482  0.3276 -0.4976
  926MPD2    C413550   1.331   1.178  13.293 -0.0252 -0.6680 -0.5525
  926MPD2    C513551   1.307   1.088  13.392  0.6210  0.2270  0.1434
  926MPD2     H13552   1.243   1.461  13.440 -0.9712  0.0827 -0.2653
  926MPD2    H113553   1.352   1.140  13.194  2.5540 -1.0913  0.1694
  926MPD2    H213554   1.211   1.051  13.576 -0.3821  0.5957  1.1668
  926MPD2    H313555   1.294   0.982  13.375  0.1195  0.1294  1.1146
  926MPD2     N13556   1.351   1.395  13.198 -0.1748  0.3100 -0.1299
  926MPD2    H513557   1.403   1.360  13.117  0.5210 -1.0041  0.8808
  926MPD2    N113558   1.200   1.320  13.656  0.1612  0.4068 -0.5318
  926MPD2    H713559   1.184   1.421  13.654 -0.1250  0.4016  1.5062
  927MPD2     C13560   0.327   3.379   0.081  1.0513 -0.1200 -0.6417
  927MPD2    C113561   0.340   3.253   0.036  0.8517 -0.6868  0.3489
  927MPD2    C213562   0.424   3.239  17.621 -0.0234  0.3280 -0.3805
  927MPD2    C313563   0.488   3.344  17.561  0.2903 -0.4541  0.4058
  927MPD2    C413564   0.476   3.471  17.610 -0.0483 -0.2936  0.6249
  927MPD2    C513565   0.400   3.483   0.025  0.0721 -0.0535  0.3739
  927MPD2     H13566   0.435   3.142  17.575 -3.2324 -0.5305  0.6731
  927MPD2    H113567   0.520   3.554  17.556 -1.4576  1.6249  2.4321
  927MPD2    H213568   0.257   3.406   0.160  1.0355  1.1450 -1.0910
  927MPD2    H313569   0.388   3.579   0.073 -1.3691 -0.0423  0.0021
  927MPD2     N13570   0.567   3.320  17.447 -0.3733 -0.9585  0.1199
  927MPD2    H513571   0.576   3.223  17.418 -0.5660 -0.9282 -0.0391
  927MPD2    N113572   0.277   3.145   0.098  0.8135  0.2487 -0.2577
  927MPD2    H713573   0.204   3.159   0.167 -1.7988 -3.8353 -2.1775
  928MPD2     C13574   2.910   1.325  17.625 -0.3848  0.1273  0.9305
  928MPD2    C113575   2.975   1.380   0.038  0.0522 -0.9086  0.9376
  928MPD2    C213576   3.096   1.449   0.019 -0.2754  0.4199  0.0545
  928MPD2    C313577   3.138   1.465  17.585  0.1535  0.2784 -0.2274
  928MPD2    C413578   3.060   1.429  17.474  0.0257  1.0574 -0.0389
  928MPD2    C513579   2.949   1.354  17.498  0.5510 -0.5915 -0.6047
  928MPD2     H13580   3.157   1.489   0.100  2.0535 -0.6498 -1.1539
  928MPD2    H113581   3.091   1.453  17.373 -0.5614  0.4009 -0.3772
  928MPD2    H213582   2.814   1.276  17.632 -1.2555  1.7892  0.7547
  928MPD2    H313583   2.884   1.318  17.419 -0.8405  1.6848 -0.5085
  928MPD2     N13584   3.251   1.540  17.543  0.9002 -0.2166  0.5898
  928MPD2    H513585   3.265   1.577  17.450  1.7673  0.2396  0.9002
  928MPD2    N113586   2.928   1.349   0.165  0.0330  0.2395  0.9117
  928MPD2    H713587   2.862   1.272   0.172 -1.4917  1.6108  1.4640
  929MPD2     C13588   4.228   1.806  10.864 -0.6490 -0.2614 -0.0825
  929MPD2    C113589   4.117   1.742  10.817  0.2640 -0.1608 -0.4712
  929MPD2    C213590   4.080   1.756  10.688  0.1355 -0.2367 -0.2299
  929MPD2    C313591   4.159   1.827  10.601 -0.2754 -0.0348  0.8770
  929MPD2    C413592   4.273   1.885  10.647 -0.5352 -0.1804 -0.2348
  929MPD2    C513593   4.305   1.876  10.777  0.7417 -0.5090  0.4992
  929MPD2     H13594   3.994   1.702  10.650  1.7376 -0.9702 -2.7218
  929MPD2    H113595   4.343   1.934  10.580 -2.5645  0.9827 -1.4759
  929MPD2    H213596   4.275   1.792  10.961 -0.0845  0.3088 -0.2729
  929MPD2    H313597   4.388   1.937  10.809  1.0005 -1.4060  1.5262
  929MPD2     N13598   4.134   1.840  10.461  0.0196  0.4008 -0.0917
  929MPD2    H513599   4.198   1.903  10.413  0.8140  1.1689  1.9482
  929MPD2    N113600   4.035   1.675  10.910 -0.0610 -0.1917  0.0905
  929MPD2    H713601   4.062   1.687  11.007 -1.8790  0.7687  0.4909
  930MPD2     C13602   0.731   3.949  14.129 -0.8181  0.2322 -0.2178
  930MPD2    C113603   0.855   3.994  14.107  0.3061  0.3736 -0.1539
  930MPD2    C213604   0.883   4.030  13.977  0.4672  0.1941  0.1284
  930MPD2    C313605   0.785   4.031  13.872 -0.0029 -0.1716  0.2481
  930MPD2    C413606   0.663   3.984  13.911  0.8223 -0.4069 -0.4912
  930MPD2    C513607   0.642   3.935  14.027 -0.1061  0.0032  0.4607
  930MPD2     H13608   0.979   4.072  13.949  0.2571  1.7644  1.7942
  930MPD2    H113609   0.582   3.985  13.838  2.3301 -2.9961 -2.1966
  930MPD2    H213610   0.691   3.903  14.219  0.7358 -0.3100  0.1815
  930MPD2    H313611   0.544   3.905  14.060  0.2702 -0.1009  1.4945
  930MPD2     N13612   0.811   4.056  13.735  0.0315  0.7096 -0.2403
  930MPD2    H513613   0.732   4.069  13.672 -0.9232  0.2482  0.8566
  930MPD2    N113614   0.950   4.023  14.212  0.1845  1.0249 -0.3471
  930MPD2    H713615   0.910   4.046  14.303 -0.9115 -2.1111 -0.0310
  931MPD2     C13616   0.590   2.500   0.361 -0.0299  0.3486 -0.5530
  931MPD2    C113617   0.464   2.517   0.413  0.1137  0.5863  0.1406
  931MPD2    C213618   0.437   2.482   0.544  0.4709 -0.1702  0.3404
  931MPD2    C313619   0.537   2.426   0.627  0.1293  0.6567 -0.1343
  931MPD2    C413620   0.665   2.406   0.567 -0.2766 -1.0130 -0.2842
  931MPD2    C513621   0.691   2.443   0.438 -0.1809  0.3054  0.3731
  931MPD2     H13622   0.343   2.508   0.590  0.2984  0.0788 -0.1584
  931MPD2    H113623   0.737   2.341   0.615  0.3728  0.3650  0.6334
  931MPD2    H213624   0.628   2.538   0.266 -0.7965  1.2295 -0.5058
  931MPD2    H313625   0.787   2.419   0.394 -0.8206 -2.9680  0.7779
  931MPD2     N13626   0.497   2.388   0.758 -0.3725  0.1937  0.0834
  931MPD2    H513627   0.402   2.400   0.792 -0.0917 -0.3845  1.0753
  931MPD2    N113628   0.368   2.586   0.331  0.0399 -0.2690 -0.4140
  931MPD2    H713629   0.395   2.605   0.235 -0.2479  0.2977 -0.3773
  932MPD2     C13630   3.376   2.149  11.406 -0.7671  0.6654 -0.0480
  932MPD2    C113631   3.331   2.256  11.488  0.1153  0.4482 -0.0925
  932MPD2    C213632   3.360   2.248  11.630  0.4274 -0.1081  0.0213
  932MPD2    C313633   3.427   2.134  11.677  0.0627 -0.2262  0.2495
  932MPD2    C413634   3.460   2.025  11.600 -0.5768  0.1777  0.3080
  932MPD2    C513635   3.427   2.037  11.468  0.7407  0.5814  0.1673
  932MPD2     H13636   3.329   2.332  11.691 -1.9586 -1.3202  0.4850
  932MPD2    H113637   3.505   1.935  11.640  0.9772  0.8533  0.0819
  932MPD2    H213638   3.357   2.154  11.299 -1.2304  1.9650  0.0945
  932MPD2    H313639   3.442   1.950  11.405 -0.5380  0.6542 -0.2333
  932MPD2     N13640   3.466   2.111  11.808  0.2428  0.3408  0.2697
  932MPD2    H513641   3.523   2.028  11.824 -0.2392  0.2999  1.7474
  932MPD2    N113642   3.279   2.380  11.443  0.0975 -0.1127  0.3548
  932MPD2    H713643   3.273   2.459  11.507  0.2486 -0.2451  0.5288
  933MPD2     C13644   2.690   1.502   1.082  0.1340 -0.4842 -0.0374
  933MPD2    C113645   2.713   1.563   0.960 -0.0651  0.1080 -0.1111
  933MPD2    C213646   2.677   1.694   0.949 -0.0520 -0.3295 -0.6196
  933MPD2    C313647   2.623   1.765   1.051  0.3265 -0.4292  0.2419
  933MPD2    C413648   2.602   1.704   1.178  0.0386 -0.8525 -0.7361
  933MPD2    C513649   2.638   1.574   1.193 -0.6668  0.2594  0.0236
  933MPD2     H13650   2.674   1.752   0.857 -1.0717 -0.8204 -0.8944
  933MPD2    H113651   2.574   1.758   1.268 -1.4345  0.2147 -1.8527
  933MPD2    H213652   2.719   1.398   1.095 -1.1901 -0.8754 -0.1850
  933MPD2    H313653   2.628   1.521   1.287  0.0729  0.9247  0.4751
  933MPD2     N13654   2.579   1.900   1.032 -0.3364 -0.3290 -0.1631
  933MPD2    H513655   2.597   1.927   0.936 -2.0408  0.7895 -0.1532
  933MPD2    N113656   2.760   1.485   0.851 -0.0691  0.4638 -0.0988
  933MPD2    H713657   2.763   1.385   0.871 -0.6906  0.8640  1.9438
  934MPD2     C13658   3.981   4.042   1.863 -0.3451  0.0752  0.1547
  934MPD2    C113659   4.061   4.020   1.754 -0.6780 -0.1978 -0.4186
  934MPD2    C213660   4.018   3.909   1.666  0.6935 -0.0940 -0.2467
  934MPD2    C313661   3.906   3.829   1.698  0.1242  0.0887 -0.0449
  934MPD2    C413662   3.844   3.855   1.817  0.4967  0.1635 -0.2555
  934MPD2    C513663   3.883   3.956   1.898  0.2509  0.1350  0.3074
  934MPD2     H13664   4.072   3.891   1.574  1.9431  1.5470  0.1609
  934MPD2    H113665   3.757   3.796   1.846  0.4938 -1.1649 -2.9600
  934MPD2    H213666   4.001   4.128   1.926  1.7129  0.1284 -0.5637
  934MPD2    H313667   3.827   3.973   1.989 -0.0474 -0.8519  0.3080
  934MPD2     N13668   3.859   3.731   1.598  0.3153 -0.1404  0.6784
  934MPD2    H513669   3.915   3.711   1.515 -0.8135  0.9229 -0.3501
  934MPD2    N113670   4.173   4.098   1.718  0.1245  0.4624  0.0446
  934MPD2    H713671   4.206   4.081   1.623  0.8039  0.5496  0.2635
  935MPD2     C13672   4.307   3.355   0.966  0.1540  0.1560  0.6876
  935MPD2    C113673   4.191   3.289   0.950  0.1505 -0.3056 -0.3228
  935MPD2    C213674   4.085   3.320   1.029 -0.2448  0.4735 -0.0999
  935MPD2    C313675   4.085   3.434   1.114  0.4326 -0.4663 -0.2631
  935MPD2    C413676   4.212   3.490   1.129 -0.2416 -0.3765  0.2498
  935MPD2    C513677   4.322   3.453   1.052 -0.1886 -0.4348  0.0852
  935MPD2     H13678   3.994   3.261   1.021  0.6472 -1.2700  2.6127
  935MPD2    H113679   4.231   3.564   1.206 -4.3398  0.0309  0.8771
  935MPD2    H213680   4.393   3.331   0.905 -1.2339 -0.7585 -0.9345
  935MPD2    H313681   4.418   3.503   1.054 -0.1356 -0.4944 -0.8271
  935MPD2     N13682   3.986   3.479   1.205  0.1470 -0.3927  0.2643
  935MPD2    H513683   4.002   3.564   1.258  1.0699 -0.4876  0.1338
  935MPD2    N113684   4.182   3.178   0.862 -0.1763 -0.3469  0.7434
  935MPD2    H713685   4.095   3.128   0.846 -1.3453  1.2697  2.0564
  936MPD2     C13686   3.017   1.642  12.200 -0.0836 -0.0167  0.5774
  936MPD2    C113687   3.135   1.612  12.265  0.1111  0.6962  0.3318
  936MPD2    C213688   3.221   1.704  12.308  0.1217  0.0501  0.0808
  936MPD2    C313689   3.199   1.841  12.284  0.1858 -0.7208  0.0745
  936MPD2    C413690   3.076   1.885  12.233 -0.0113  0.3360  0.2277
  936MPD2    C513691   2.989   1.780  12.197 -0.0496 -0.4610 -0.3874
  936MPD2     H13692   3.307   1.671  12.365  0.4842 -0.6847 -0.8879
  936MPD2    H113693   3.045   1.987  12.215 -0.3785  0.0147 -0.9583
  936MPD2    H213694   2.940   1.571  12.170 -1.9277  2.1811  0.0713
  936MPD2    H313695   2.889   1.809  12.168 -0.5400 -2.2908 -0.4797
  936MPD2     N13696   3.295   1.939  12.315 -0.4296  0.4865  1.0746
  936MPD2    H513697   3.265   2.036  12.309 -1.1850 -0.0141 -3.5590
  936MPD2    N113698   3.169   1.484  12.306 -0.1056 -0.0563  0.2998
  936MPD2    H713699   3.261   1.476  12.348  0.1085 -3.2648 -0.7636
  937MPD2     C13700   1.664   2.189  11.532 -0.6319  0.3749 -0.3012
  937MPD2    C113701   1.766   2.285  11.520 -0.1942  0.9947 -0.0001
  937MPD2    C213702   1.860   2.268  11.420  0.0239 -0.4827  0.0600
  937MPD2    C313703   1.869   2.164  11.334 -0.4540 -0.2820 -0.5237
  937MPD2    C413704   1.780   2.066  11.360  0.1997 -0.1988 -0.0646
  937MPD2    C513705   1.680   2.077  11.453 -0.5632 -0.8314 -0.2571
  937MPD2     H13706   1.926   2.354  11.410 -1.3854  0.3850 -1.8191
  937MPD2    H113707   1.792   1.981  11.294  2.4041 -0.6773  0.9511
  937MPD2    H213708   1.577   2.194  11.596 -0.1195 -1.1263  0.5101
  937MPD2    H313709   1.601   2.005  11.471 -0.9375 -0.8079 -1.7825
  937MPD2     N13710   1.971   2.164  11.240  0.7769 -0.0891  0.2343
  937MPD2    H513711   2.027   2.249  11.236  1.0761 -0.2779  0.3403
  937MPD2    N113712   1.751   2.412  11.579 -0.0144  0.2082 -0.3156
  937MPD2    H713713   1.821   2.483  11.565  0.2363  0.1000  0.4037
  938MPD2     C13714   3.371   2.941   0.505 -0.4343 -0.6024 -0.3359
  938MPD2    C113715   3.369   3.047   0.591  0.1205 -0.6968 -0.2528
  938MPD2    C213716   3.299   3.045   0.707  0.2912 -0.4513  0.4135
  938MPD2    C313717   3.231   2.927   0.740 -0.1814  0.5906  0.4193
  938MPD2    C413718   3.235   2.820   0.658  0.5470  0.4968  0.6369
  938MPD2    C513719   3.302   2.825   0.535  0.5942 -0.0516 -0.6215
  938MPD2     H13720   3.292   3.128   0.775  3.0405  1.0129 -1.0725
  938MPD2    H113721   3.183   2.728   0.683 -1.1085  1.1406 -0.4037
  938MPD2    H213722   3.430   2.938   0.414 -0.0562  1.4316 -0.1698
  938MPD2    H313723   3.300   2.739   0.468 -0.9532 -1.1576  0.8156
  938MPD2     N13724   3.153   2.908   0.855 -0.0588  1.0510 -0.0377
  938MPD2    H513725   3.119   2.813   0.869  2.1910 -0.0088 -1.8522
  938MPD2    N113726   3.433   3.166   0.551 -0.0551 -0.2364  0.1402
  938MPD2    H713727   3.443   3.240   0.620 -1.1949  0.4328 -0.4076
  939MPD2     C13728   4.342   4.554   0.647  0.0475  0.2097  0.8105
  939MPD2    C113729   4.431   4.611   0.729 -1.0382 -0.2763 -0.4363
  939MPD2    C213730   4.565   4.621   0.688 -0.1061  0.2727 -0.6108
  939MPD2    C313731   4.601   4.558   0.571 -0.0178  0.0417  0.7263
  939MPD2    C413732   4.506   4.493   0.493 -0.5983 -0.3658  0.2735
  939MPD2    C513733   4.378   4.496   0.530  0.0706 -0.0001  0.5483
  939MPD2     H13734   4.637   4.677   0.747  2.1061 -1.3389 -1.8156
  939MPD2    H113735   4.536   4.445   0.401 -3.0765  1.0830 -1.2830
  939MPD2    H213736   4.236   4.560   0.669  0.0435 -0.7784  1.0550
  939MPD2    H313737   4.297   4.464   0.465  0.4356  0.1540  0.0147
  939MPD2     N13738   0.008   4.592   0.512 -0.1886 -0.1821 -0.1118
  939MPD2    H513739   0.045   4.674   0.559  0.5238 -0.1521 -0.7448
  939MPD2    N113740   4.386   4.655   0.852  0.3845 -0.2013 -0.0342
  939MPD2    H713741   4.288   4.632   0.868 -0.3414  1.9799 -1.3189
  940MPD2     C13742   4.186   1.717  13.269  0.6424 -0.4469  0.5379
  940MPD2    C113743   4.116   1.602  13.239  0.1300  0.2497  0.3243
  940MPD2    C213744   4.176   1.504  13.158  0.4186  0.8275 -0.6383
  940MPD2    C313745   4.305   1.523  13.109  0.8155  0.0288  0.2630
  940MPD2    C413746   4.380   1.631  13.158 -0.8302  0.4099 -0.0898
  940MPD2    C513747   4.317   1.737  13.225 -0.9165  0.1820 -0.0788
  940MPD2     H13748   4.119   1.414  13.138 -0.9346  1.4409  0.5274
  940MPD2    H113749   4.476   1.654  13.114 -0.5931  0.6178  0.5233
  940MPD2    H213750   4.156   1.797  13.336 -0.4658  0.0506 -0.5703
  940MPD2    H313751   4.371   1.829  13.246  0.8463 -1.2921  1.7843
  940MPD2     N13752   4.371   1.437  13.019  0.3134 -0.2838 -0.4973
  940MPD2    H513753   4.469   1.457  13.000 -0.3271  1.8116 -1.5266
  940MPD2    N113754   3.983   1.571  13.291 -0.0271  0.2155 -0.0429
  940MPD2    H713755   3.932   1.493  13.251  0.2930 -0.7960  1.5143
  941MPD2     C13756   3.454   4.477   9.367 -0.3284  0.0091  0.2392
  941MPD2    C113757   3.457   4.444   9.501 -0.3939 -0.1451  0.1531
  941MPD2    C213758   3.379   4.343   9.548  1.4371 -0.6415 -0.1398
  941MPD2    C313759   3.294   4.265   9.469  0.4628 -0.0438 -0.7659
  941MPD2    C413760   3.292   4.301   9.334  0.0120 -0.0912  0.1345
  941MPD2    C513761   3.372   4.403   9.288  0.2390  0.0501  0.3898
  941MPD2     H13762   3.382   4.330   9.656  0.4031  1.5404  0.1515
  941MPD2    H113763   3.244   4.235   9.262 -0.2180  1.0485 -0.7566
  941MPD2    H213764   3.509   4.560   9.322 -0.4649  0.1555  0.3403
  941MPD2    H313765   3.370   4.426   9.182 -1.9373 -0.0789  0.4068
  941MPD2     N13766   3.217   4.153   9.519  0.0898 -0.8596  0.4258
  941MPD2    H513767   3.145   4.120   9.456  1.0587 -1.6347 -0.2721
  941MPD2    N113768   3.536   4.514   9.592 -0.4538  0.4894 -0.0839
  941MPD2    H713769   3.527   4.478   9.686  1.4402  0.7073  0.1827
  942MPD2     C13770   3.075   0.991   8.776  0.4243  0.0727 -0.0633
  942MPD2    C113771   3.184   0.988   8.858  0.5397  0.5982  0.0338
  942MPD2    C213772   3.257   1.104   8.881 -0.1673  0.2134 -0.7429
  942MPD2    C313773   3.223   1.219   8.811 -0.3376 -0.5251  0.8352
  942MPD2    C413774   3.111   1.219   8.735 -0.2634 -0.4412  0.4864
  942MPD2    C513775   3.047   1.103   8.709  0.3858 -0.3750  0.3398
  942MPD2     H13776   3.336   1.093   8.955  0.4388  0.0061 -1.4196
  942MPD2    H113777   3.075   1.306   8.680  0.0778 -0.0512  0.8799
  942MPD2    H213778   3.018   0.903   8.750 -0.3351  0.1092  1.5285
  942MPD2    H313779   2.970   1.097   8.633 -0.4877  0.3079  1.1712
  942MPD2     N13780   3.304   1.336   8.820 -0.0932 -0.3076 -0.2546
  942MPD2    H513781   3.284   1.420   8.768  0.5372  0.6982  1.1177
  942MPD2    N113782   3.226   0.873   8.925 -0.3515 -0.6362  0.3786
  942MPD2    H713783   3.298   0.880   8.996  0.6056  1.9399 -0.8304
  943MPD2     C13784   3.272   4.578   9.873 -0.1171  0.1815  0.3220
  943MPD2    C113785   3.188   4.499   9.801 -0.5986  0.6123 -0.3295
  943MPD2    C213786   3.148   4.536   9.673  1.2926 -0.3095 -0.0637
  943MPD2    C313787   3.191   4.658   9.623 -0.4877 -0.7057 -0.3533
  943MPD2    C413788   3.279   0.019   9.696 -0.4203 -0.0450 -0.3153
  943MPD2    C513789   3.320   4.695   9.816 -0.8960  0.4693  0.4844
  943MPD2     H13790   3.080   4.480   9.610 -0.4591  3.3137 -1.4101
  943MPD2    H113791   3.306   0.118   9.660 -1.3916  0.4417  0.2961
  943MPD2    H213792   3.304   4.548   9.972 -3.1652  1.3228  1.6587
  943MPD2    H313793   3.390   0.035   9.869 -0.2896  0.1495  0.0641
  943MPD2     N13794   3.162   4.707   9.497 -0.1158  0.0353 -0.0612
  943MPD2    H513795   3.219   0.062   9.466  0.0230  0.8761  2.3271
  943MPD2    N113796   3.148   4.380   9.869 -0.4756  0.1958 -0.2658
  943MPD2    H713797   3.194   4.361   9.957 -3.8149 -0.1686  1.4122
  944MPD2     C13798   2.127   3.304  11.270 -0.1939  0.3257 -0.5600
  944MPD2    C113799   2.078   3.334  11.144 -0.4656  0.4746  0.3065
  944MPD2    C213800   1.971   3.418  11.132  0.9294 -0.4440  0.2200
  944MPD2    C313801   1.920   3.484  11.244 -0.0194  0.5188 -0.0888
  944MPD2    C413802   1.985   3.471  11.366 -0.2551 -0.7915  0.3725
  944MPD2    C513803   2.080   3.368  11.379 -0.2714  0.0305 -0.3118
  944MPD2     H13804   1.922   3.435  11.037  1.4840 -2.4627 -0.4260
  944MPD2    H113805   1.954   3.527  11.454 -3.7317 -0.0517 -1.3471
  944MPD2    H213806   2.196   3.221  11.282  0.1286  0.4164 -1.7665
  944MPD2    H313807   2.119   3.341  11.476 -0.2817 -1.1435 -0.6293
  944MPD2     N13808   1.821   3.579  11.233 -0.1172  0.6261  0.2244
  944MPD2    H513809   1.791   3.605  11.140  1.8266  0.0719 -0.5348
  944MPD2    N113810   2.134   3.267  11.035  0.0257  0.2643 -0.0942
  944MPD2    H713811   2.209   3.205  11.065  3.2663  3.3352 -1.8442
    1TCq1    O113812   4.043   0.148  14.070 -0.2049  0.1934  0.4077
    1TCq1    C113813   4.086   0.022  14.052 -0.1367 -0.1897  0.0197
    1TCq1    O213814   4.047   4.669  13.963 -1.1349 -0.4805 -0.2294
    1TCq1    C213815   4.130   4.699  14.182  0.2169 -0.2980  0.7578
    1TCq1    C313816   4.084   4.575  14.219  0.1704 -0.4602  0.2700
    1TCq1    C413817   4.110   4.532  14.348 -0.4041 -0.3782 -0.0241
    1TCq1    C513818   4.161   4.616  14.442 -0.0139 -0.4454 -0.1953
    1TCq1    C613819   4.216   0.014  14.397 -0.1575 -0.1403  0.7557
    1TCq1    C713820   4.210   0.051  14.266  0.4396  0.0499 -0.2247
    1TCq1    C813821   4.294   0.092  14.497 -0.0943 -0.6309 -0.4667
    1TCq1    O413822   4.323   0.029  14.604 -0.2325  0.0152  0.2109
    1TCq1    C913823   4.048   4.413  14.389  0.6602  0.2480  0.1333
    1TCq1    O513824   4.010   4.410  14.514 -0.4891 -0.4331 -0.5554
    1TCq1    O613825   4.037   4.320  14.304  0.2405  0.3945  0.7691
    1TCq1    H113826   4.081   0.181  14.154  1.4179 -0.7810  0.0599
    1TCq1    H213827   4.038   4.513  14.143  1.1271  0.0727 -0.7493
    1TCq1    H313828   4.147   4.591  14.547  0.2979  0.1223 -0.0208
    1TCq1    H413829   4.268   0.135  14.228 -3.2193  2.4321 -0.5746
    2MPD2     C13830   4.403   0.514  14.750  0.3221 -0.7864 -0.2715
    2MPD2    C113831   4.320   0.543  14.652  0.2742  0.7453  0.4124
    2MPD2    C213832   4.277   0.449  14.566  0.6246 -0.6951  0.1438
    2MPD2    C313833   4.336   0.322  14.562 -1.2684  0.0128  0.0933
    2MPD2    C413834   4.436   0.297  14.654  0.1976  0.1125 -0.7731
    2MPD2    C513835   4.472   0.396  14.738  0.2047  0.0554  0.0746
    2MPD2     H13836   4.214   0.479  14.484  0.6821 -0.0950  0.3163
    2MPD2    H113837   4.490   0.204  14.648 -0.8335 -0.5895  0.9671
    2MPD2    H213838   4.426   0.584  14.830  0.8307 -1.0449 -0.1924
    2MPD2    H313839   4.540   0.369  14.818 -0.4597 -2.0701 -0.0742
    2MPD2     N13840   4.283   0.221  14.473  0.4330 -0.1415 -0.1014
    2MPD2    H513841   4.222   0.243  14.396  1.1404 -4.0333 -1.7816
    2MPD2    N113842   4.274   0.683  14.641 -0.6722 -0.3988  0.7773
    2MPD2    H713843   4.317   0.743  14.710 -0.9458  0.9425 -0.2300
    3TMC2    C113844   4.166   0.877  14.562  0.7459 -0.2672 -0.0233
    3TMC2    C213845   4.255   0.950  14.641 -0.0632 -0.4634  0.1461
    3TMC2    C313846   4.279   1.080  14.597  0.0903  0.0417  0.0762
    3TMC2    C413847   4.103   0.934  14.453 -0.1480  0.2801 -0.1968
    3TMC2    C513848   4.153   1.055  14.403  0.0746  0.2590  0.0185
    3TMC2    C613849   4.235   1.132  14.480 -0.4261  0.6513 -0.7152
    3TMC2     C13850   4.177   0.731  14.553 -0.7058  0.0921 -0.6500
    3TMC2     O13851   4.087   0.679  14.488 -0.3450  0.1490  0.0775
    3TMC2     H13852   4.306   0.925  14.733 -0.3872 -0.2095  0.3913
    3TMC2    H113853   4.024   0.881  14.400  1.2756 -0.2264 -1.8317
    3TMC2    H213854   4.266   1.230  14.449 -1.5221  1.5002  0.8526
    3TMC2    C713855   4.091   1.113  14.282  0.2089  0.1941 -0.1392
    3TMC2    C813856   4.376   1.167  14.663 -0.4660 -0.5965 -0.8916
    3TMC2    O113857   3.994   1.058  14.231  0.3913  0.8485 -0.1625
    3TMC2    O213858   4.351   1.281  14.692 -0.2588  0.3377 -0.2589
    3TMC2    O513859   4.484   1.137  14.595 -0.6890 -0.8186  0.7124
    3TMC2    H513860   4.474   1.053  14.546  0.3983 -0.4282 -0.1692
    4MPD2     C13861   4.216   2.126  13.297 -0.5854  0.7082 -0.8191
    4MPD2    C113862   4.138   2.065  13.392 -0.0763 -0.5462 -0.4653
    4MPD2    C213863   4.193   2.015  13.508 -0.1344  0.5752 -0.3442
    4MPD2    C313864   4.333   2.017  13.522  0.2221 -0.4112 -0.0353
    4MPD2    C413865   4.415   2.072  13.429  0.2561  0.0185  0.7649
    4MPD2    C513866   4.354   2.122  13.309 -0.6248 -0.4613  0.1401
    4MPD2     H13867   4.134   1.961  13.581 -0.8746  0.0859 -1.3025
    4MPD2    H113868   4.523   2.069  13.427  0.2944  1.2490  0.6638
    4MPD2    H213869   4.168   2.170  13.210  0.2918 -2.3210 -2.8147
    4MPD2    H313870   4.415   2.148  13.223 -0.1018  2.1917  1.3029
    4MPD2     N13871   4.390   1.958  13.635 -0.1177  0.0433 -0.6680
    4MPD2    H513872   4.321   1.895  13.675 -2.2054  2.6905 -0.0919
    4MPD2    N113873   3.998   2.060  13.362 -0.1171 -0.1866 -0.5671
    4MPD2    H713874   3.981   2.116  13.279  0.6029  0.3279 -0.3628
    5TCq2    C113875   4.526   1.954  13.678  0.6198  0.2814  0.3998
    5TCq2    O213876   4.624   2.008  13.628 -0.0345 -0.5422  0.0756
    5TCq2    C213877   4.561   1.858  13.787  0.0026 -0.5626  0.2501
    5TCq2    C313878   4.693   1.848  13.801  0.0432 -0.3764 -0.7815
    5TCq2    C413879   0.031   1.730  13.858  0.2772 -0.7344  0.1081
    5TCq2    C513880   4.668   1.628  13.879  0.0991 -0.3040 -0.1247
    5TCq2    C613881   4.532   1.639  13.860 -0.3523 -0.0257  0.6428
    5TCq2    C713882   4.478   1.756  13.809  0.0916  0.2729 -0.2955
    5TCq2    C813883   4.451   1.553  13.949 -0.4088 -0.2550 -0.1372
    5TCq2    O413884   4.514   1.498  14.041 -0.8932 -0.3540  0.2553
    5TCq2    C913885   0.172   1.722  13.887  0.1628 -0.4103 -0.2412
    5TCq2    O513886   0.253   1.805  13.834  0.2323 -0.2219 -0.4646
    5TCq2    O613887   0.209   1.623  13.956  0.1679 -0.8118  0.1929
    5TCq2    H213888   0.044   1.925  13.784  0.1220 -0.3822 -0.4579
    5TCq2    H313889   4.713   1.541  13.926 -1.2723 -1.4131 -0.8308
    5TCq2    H413890   4.374   1.776  13.830 -0.3595 -0.2087 -2.0521
    6MPD1     C13891   2.765   3.266  12.904  0.0750  0.4720  1.0364
    6MPD1    C113892   2.869   3.328  12.841 -0.1978 -0.4053  0.8212
    6MPD1    C213893   2.997   3.277  12.848 -0.6272  0.6500 -0.0049
    6MPD1    C313894   3.023   3.167  12.932  0.3479  0.3035 -0.5153
    6MPD1    C413895   2.913   3.105  12.996  0.5775  0.8646  0.3570
    6MPD1    C513896   2.786   3.152  12.976  0.3677 -0.0180  0.8150
    6MPD1     H13897   3.085   3.317  12.799  2.0663 -3.5580  1.3458
    6MPD1    H113898   2.930   3.004  13.031  0.0804  0.2572 -1.1523
    6MPD1    H213899   2.661   3.290  12.885  0.4304  1.1234 -0.0596
    6MPD1    H313900   2.701   3.103  13.024  0.0578 -0.5027 -0.2326
    6MPD1     N13901   3.148   3.109  12.956  0.3042 -0.2233  0.1108
    6MPD1    H513902   3.144   3.041  13.032 -2.1423 -0.3147 -0.0981
    6MPD1    N113903   2.838   3.428  12.748 -0.7502 -0.1100 -0.0568
    6MPD1    H613904   2.748   3.474  12.753 -2.1380 -2.7449 -0.4231
    6MPD1    H713905   2.907   3.501  12.733 -0.3313 -0.8180 -1.6865
    7MPD2     C13906   3.464   2.774  13.563 -0.1687 -0.3301 -0.8958
    7MPD2    C113907   3.441   2.716  13.438  0.6922 -0.1788  0.2119
    7MPD2    C213908   3.464   2.585  13.420  0.0401  0.5094 -0.4297
    7MPD2    C313909   3.503   2.503  13.520 -0.4627  0.5562  0.1351
    7MPD2    C413910   3.512   2.556  13.644  0.2338  0.7712  0.0860
    7MPD2    C513911   3.510   2.689  13.664  0.0390 -0.5819  0.5743
    7MPD2     H13912   3.460   2.552  13.317  0.0773  0.4944 -0.4265
    7MPD2    H113913   3.547   2.488  13.720 -0.4623  0.4365  0.1005
    7MPD2    H213914   3.462   2.880  13.583 -2.9685 -0.3177 -1.1964
    7MPD2    H313915   3.544   2.745  13.750 -0.6205  1.6817 -0.6440
    7MPD2     N13916   3.524   2.363  13.509 -0.1567  0.0563  0.8051
    7MPD2    H513917   3.545   2.318  13.598 -0.6112 -1.9424 -0.1192
    7MPD2    N113918   3.419   2.788  13.315 -0.5057  0.2099 -0.5426
    7MPD2    H713919   3.398   2.740  13.228  0.0475  0.3961 -0.7759
    8TMC3    C113920   3.560   2.158  13.387 -0.4608  0.3977  0.4530
    8TMC3    C213921   3.683   2.123  13.447  0.4166  0.3740 -0.4760
    8TMC3    C313922   3.770   2.039  13.378  0.0255  0.4689 -0.3560
    8TMC3    C413923   3.536   2.105  13.258 -0.3792 -0.1827  0.1315
    8TMC3    C513924   3.634   2.038  13.192 -0.5242  0.0559  0.9418
    8TMC3    C613925   3.745   1.997  13.253 -0.0840 -0.2722 -0.2475
    8TMC3     C13926   3.513   2.291  13.389  0.5091 -0.0478  0.1696
    8TMC3     O13927   3.464   2.335  13.284 -0.2213  0.1449  0.1973
    8TMC3     H13928   3.707   2.167  13.543  2.3228 -0.2036 -0.6830
    8TMC3    H113929   3.439   2.115  13.211  0.3891 -0.6413 -1.5429
    8TMC3    H213930   3.825   1.963  13.188  1.8954 -0.2327  2.1548
    8TMC3    C713931   3.657   2.098  13.066  0.2188  0.3414  0.0840
    8TMC3    C813932   3.896   2.014  13.445 -0.1469  0.1594  0.2289
    8TMC3    O113933   3.686   2.024  12.977 -0.5021 -0.1249  0.1574
    8TMC3    O213934   3.893   2.022  13.567  0.1877 -0.0953 -0.2461
    9TMC3    C113935   3.384   3.090  12.977  0.2116  0.0759  0.0161
    9TMC3    C213936   3.457   3.012  12.898  0.1478  0.2359 -0.1749
    9TMC3    C313937   3.504   2.894  12.958 -0.3927 -0.1677 -0.0147
    9TMC3    C413938   3.364   3.055  13.110  0.3382  0.0294 -0.1800
    9TMC3    C513939   3.435   2.954  13.165 -0.3692 -0.4974  0.0375
    9TMC3    C613940   3.511   2.877  13.090 -0.5654 -0.2737  0.3576
    9TMC3     C13941   3.270   3.155  12.911 -0.4089  0.2068  0.3960
    9TMC3     O13942   3.295   3.216  12.810 -0.2852  0.1639  0.2252
    9TMC3     H13943   3.452   3.037  12.793 -0.8520 -0.8868 -0.4024
    9TMC3    H113944   3.291   3.106  13.173  0.8566  0.0166  0.4301
    9TMC3    H213945   3.579   2.802  13.128  2.6845  1.3284 -2.3133
    9TMC3    C713946   3.420   2.924  13.306 -0.1371 -0.4363  0.6110
    9TMC3    C813947   3.568   2.806  12.864  0.0703 -0.1954  0.1308
    9TMC3    O113948   3.386   3.006  13.386  0.1236 -0.2558 -0.6139
    9TMC3    O213949   3.623   2.844  12.760 -0.4236 -0.3988 -0.1839
   10MPD2     C13950   3.712   2.313  12.858 -0.4326  0.8080  0.3029
   10MPD2    C113951   3.640   2.333  12.974  0.5342  0.1705  0.0760
   10MPD2    C213952   3.586   2.461  12.987 -0.3236  0.4604  0.1650
   10MPD2    C313953   3.614   2.560  12.896 -0.1704 -0.3852 -0.3229
   10MPD2    C413954   3.692   2.541  12.790  0.0690  0.8321  0.3359
   10MPD2    C513955   3.747   2.422  12.779  0.2278  0.6621 -0.3882
   10MPD2     H13956   3.519   2.475  13.072 -1.0360  0.6540 -0.4230
   10MPD2    H113957   3.713   2.617  12.715 -0.2230  0.4160 -0.1647
   10MPD2    H213958   3.763   2.219  12.838  1.9509  1.8148  1.5979
   10MPD2    H313959   3.816   2.415  12.695  1.2150 -2.4733  0.6899
   10MPD2     N13960   3.553   2.684  12.923  0.0153  0.5511 -0.2570
   10MPD2    H513961   3.486   2.678  12.999 -0.1050  1.9427 -0.2514
   10MPD2    N113962   3.618   2.230  13.070 -0.1418 -0.2609 -0.6710
   10MPD2    H713963   3.580   2.268  13.156  0.6072 -0.5808 -0.2041
   11MPD2     C13964   4.021   1.316  14.080 -0.6600 -0.4438 -0.3135
   11MPD2    C113965   4.145   1.303  14.125  0.2266  0.9829  0.0447
   11MPD2    C213966   4.250   1.372  14.064  0.4731 -0.3074 -0.3066
   11MPD2    C313967   4.224   1.471  13.967  0.0580 -0.0076 -0.4883
   11MPD2    C413968   4.095   1.485  13.925 -0.3849 -0.8627  0.4327
   11MPD2    C513969   3.997   1.404  13.979  0.2769  0.5956 -0.2086
   11MPD2     H13970   4.348   1.361  14.110  0.8052 -1.7989 -1.3816
   11MPD2    H113971   4.080   1.555  13.844  2.1279  1.6317  2.1498
   11MPD2    H213972   3.940   1.248  14.107 -1.7730  0.6525 -0.8912
   11MPD2    H313973   3.897   1.441  13.960 -0.0072 -0.7908 -1.3812
   11MPD2     N13974   4.326   1.544  13.906 -0.0675  0.0894  0.3549
   11MPD2    H513975   4.293   1.603  13.830 -0.3232  0.2195  0.5658
   11MPD2    N113976   4.173   1.206  14.226 -0.5168  0.2834 -0.3954
   11MPD2    H713977   4.271   1.187  14.245 -0.6712  1.2294  1.3420
    1MPD1     C13978   1.734   2.083  16.257 -0.4679 -0.8939  0.6073
    1MPD1    C113979   1.671   2.104  16.372  0.1663  0.9519 -0.0090
    1MPD1    C213980   1.740   2.151  16.487  0.8139  0.0620 -0.0576
    1MPD1    C313981   1.875   2.168  16.475 -0.0616 -0.6435  0.3622
    1MPD1    C413982   1.934   2.137  16.359  0.0478 -0.1216 -0.1304
    1MPD1    C513983   1.863   2.106  16.250  0.5108 -0.9254  0.0158
    1MPD1     H13984   1.693   2.175  16.581  1.0496  1.2550 -0.2367
    1MPD1    H113985   2.040   2.157  16.348  0.1336 -0.1212  0.7063
    1MPD1    H213986   1.673   2.046  16.176  0.2550 -1.5918  0.3828
    1MPD1    H313987   1.901   2.107  16.149  0.5480  2.3015  0.0903
    1MPD1     N13988   1.960   2.207  16.576 -0.2041 -0.3549 -0.3391
    1MPD1    H513989   2.060   2.211  16.560  0.3996 -0.4601  3.3530
    1MPD1    N113990   1.530   2.068  16.369 -0.4351  0.6364 -0.0442
    1MPD1    H613991   1.479   2.118  16.297 -4.7868 -2.4792  0.8975
    1MPD1    H713992   1.483   2.087  16.458  1.8540  1.6019  0.9638
    2MPD1     C13993   2.130   3.025  17.290  0.3367 -0.1258  0.1846
    2MPD1    C113994   2.215   3.047  17.181  0.8212 -0.1597 -0.4449
    2MPD1    C213995   2.207   2.949  17.077 -0.4033  0.2449 -0.6371
    2MPD1    C313996   2.131   2.831  17.091  0.0776 -0.1763  0.2452
    2MPD1    C413997   2.052   2.811  17.198  0.2683 -0.4350 -0.0051
    2MPD1    C513998   2.061   2.907  17.297  0.3786 -0.3621 -0.6529
    2MPD1     H13999   2.257   2.964  16.982  1.6713 -0.7364  0.3113
    2MPD1    H114000   1.994   2.721  17.215  1.5740 -1.1835  0.5199
    2MPD1    H214001   2.114   3.103  17.363  0.7610  1.5557 -1.5194
    2MPD1    H314002   1.992   2.900  17.380  0.4498 -1.7885 -0.7279
    2MPD1     N14003   2.134   2.738  16.986  0.1741 -0.6119  0.6158
    2MPD1    H514004   2.194   2.764  16.908 -0.2718  2.0869  1.1724
    2MPD1    N114005   2.287   3.165  17.158 -0.9655 -0.0489 -0.1973
    2MPD1    H614006   2.370   3.144  17.103  0.3686  2.2887  0.9071
    2MPD1    H714007   2.304   3.228  17.236 -1.4305 -2.1364  1.5862
    3TMC3    C114008   2.085   2.519  16.891 -0.5869 -0.2689 -0.1020
    3TMC3    C214009   2.215   2.521  16.848  0.4131  0.0183 -0.0791
    3TMC3    C314010   2.249   2.420  16.757  0.1380 -0.3467  0.4885
    3TMC3    C414011   1.997   2.423  16.849  0.1718 -0.6955 -0.3684
    3TMC3    C514012   2.033   2.326  16.763 -0.0265  0.2838  0.0681
    3TMC3    C614013   2.158   2.329  16.710 -0.4726  0.2351  0.2514
    3TMC3     C14014   2.044   2.625  16.980  0.0577 -0.1160 -0.0632
    3TMC3     O14015   1.938   2.599  17.033  0.2760  0.0030  0.0672
    3TMC3     H14016   2.297   2.582  16.885 -2.6297  2.7917  2.1264
    3TMC3    H114017   1.902   2.432  16.900  0.3008  1.0607 -0.4675
    3TMC3    H214018   2.196   2.253  16.644  0.7824  1.4971 -0.4848
    3TMC3    C714019   1.923   2.264  16.697  0.6184 -0.0123 -0.0492
    3TMC3    C814020   2.390   2.402  16.712  0.0142 -0.0794  0.5221
    3TMC3    O114021   1.816   2.276  16.757 -0.0040  0.1442 -0.1665
    3TMC3    O214022   2.417   2.288  16.687  0.1573  0.1991 -0.5173
    4MPD1     C14023   2.839   2.534  16.520  0.2188 -0.0171  0.6433
    4MPD1    C114024   2.784   2.652  16.570 -0.2541  0.1591 -0.2489
    4MPD1    C214025   2.652   2.638  16.620  0.9915 -0.0996  0.3786
    4MPD1    C314026   2.586   2.518  16.628 -0.7910  0.2461  0.5818
    4MPD1    C414027   2.641   2.409  16.568  0.0437 -0.3840  0.9066
    4MPD1    C514028   2.767   2.418  16.517  0.3668  0.6464  0.7340
    4MPD1     H14029   2.602   2.728  16.655  0.1326 -0.6735  0.6102
    4MPD1    H114030   2.595   2.311  16.569  0.5742 -0.6233  1.6971
    4MPD1    H214031   2.939   2.523  16.480 -0.5295 -0.9317 -0.9811
    4MPD1    H314032   2.821   2.331  16.482  0.1807  2.2996 -3.7098
    4MPD1     N14033   2.463   2.517  16.694  0.4863 -0.4405  0.6895
    4MPD1    H514034   2.424   2.604  16.727 -0.0014  0.1015 -1.3585
    4MPD1    N114035   2.852   2.771  16.532 -0.4949 -0.1825  0.4694
    4MPD1    H614036   2.840   2.846  16.599  1.4471  1.0449 -0.5473
    4MPD1    H714037   2.951   2.744  16.529 -0.9838 -1.5225 -3.2684
    1TCq1    O114038   4.613   2.533  12.257  0.2610  0.3129 -0.1550
    1TCq1    C114039   4.522   2.629  12.231  0.2054 -0.5142 -0.5054
    1TCq1    O214040   4.534   2.747  12.258 -0.6731  0.5781 -0.3377
    1TCq1    C214041   4.391   2.567  12.224  0.0546 -0.1268 -0.4388
    1TCq1    C314042   4.373   2.445  12.293 -0.4657  0.4750  0.5173
    1TCq1    C414043   4.256   2.375  12.279 -0.4123  0.6529 -0.4064
    1TCq1    C514044   4.152   2.443  12.224 -0.6065  0.2520 -0.6376
    1TCq1    C614045   4.161   2.572  12.169  0.1340  0.0424  0.0749
    1TCq1    C714046   4.285   2.639  12.168  0.2140 -0.1014 -0.2562
    1TCq1    C814047   4.046   2.651  12.143 -0.0157 -0.4950 -0.4695
    1TCq1    O414048   4.052   2.772  12.160  0.0608 -0.3760 -0.5025
    1TCq1    C914049   4.238   2.261  12.371 -0.2275 -0.0177 -0.4535
    1TCq1    O514050   4.123   2.211  12.382 -0.1454  0.4317  0.2941
    1TCq1    O614051   4.337   2.232  12.434  0.4176  0.0108  0.5764
    1TCq1    H114052   4.584   2.447  12.220 -1.2996  0.6863  0.2095
    1TCq1    H214053   4.453   2.395  12.347  0.2720  2.6032  1.3842
    1TCq1    H314054   4.056   2.399  12.247 -0.2915 -0.2485 -0.2943
    1TCq1    H414055   4.292   2.738  12.125  2.3805  0.5080  1.5281
    2MPD1     C14056   3.568   2.680  11.952 -0.1105  0.4603 -0.2598
    2MPD1    C114057   3.619   2.561  11.917  0.2533 -0.0753  0.9033
    2MPD1    C214058   3.742   2.523  11.972  0.2945 -0.2106 -0.4454
    2MPD1    C314059   3.820   2.606  12.056 -0.0424  0.7356 -0.5314
    2MPD1    C414060   3.763   2.733  12.088 -0.6358 -0.3625  0.1656
    2MPD1    C514061   3.633   2.756  12.044 -0.0894  0.3921  0.2117
    2MPD1     H14062   3.786   2.430  11.935 -1.4400 -1.1617 -0.1053
    2MPD1    H114063   3.812   2.809  12.147  0.1444 -0.5373 -0.2623
    2MPD1    H214064   3.481   2.722  11.903 -0.5384 -1.2531 -0.9439
    2MPD1    H314065   3.581   2.848  12.069  0.0812 -0.1610  2.6001
    2MPD1     N14066   3.954   2.569  12.079 -0.0885 -0.2723  0.2563
    2MPD1    H514067   3.987   2.480  12.043  0.5427 -0.2559  0.8045
    2MPD1    N114068   3.562   2.491  11.807 -0.6322  0.4204  0.0074
    2MPD1    H614069   3.464   2.509  11.787 -0.8811 -0.6771  0.2345
    2MPD1    H714070   3.575   2.390  11.805  3.0206  0.8619  0.3484
    1TCq1    O114071   1.603   0.974   0.896  0.7393 -0.6718  0.5437
    1TCq1    C114072   1.586   1.017   1.021  0.3401  0.6511  1.0810
    1TCq1    O214073   1.486   1.004   1.093  0.1104  0.1494  0.3000
    1TCq1    C214074   1.702   1.101   1.047  0.0489 -0.7522 -0.3446
    1TCq1    C314075   1.739   1.126   1.181 -0.3891 -0.3307  1.2573
    1TCq1    C414076   1.824   1.229   1.214 -0.2318 -0.0047 -0.3364
    1TCq1    C514077   1.898   1.291   1.118 -0.1568 -0.6312  0.0896
    1TCq1    C614078   1.848   1.274   0.988 -0.1878  0.3763 -0.2915
    1TCq1    C714079   1.755   1.181   0.953 -0.1487  0.0930 -0.1625
    1TCq1    C814080   1.927   1.333   0.877  0.5330  0.3192  0.0210
    1TCq1    O414081   2.004   1.425   0.894 -0.3718  0.0853 -0.3474
    1TCq1    C914082   1.880   1.225   1.345 -0.9976  0.8232 -0.0756
    1TCq1    O514083   1.960   1.318   1.373 -0.4452 -0.2056 -0.3330
    1TCq1    O614084   1.837   1.133   1.421 -0.1185  0.4303 -0.1043
    1TCq1    H114085   1.685   1.007   0.854  0.1654  3.0725  2.3534
    1TCq1    H214086   1.677   1.077   1.255 -0.0753 -2.0216  0.3994
    1TCq1    H314087   1.976   1.356   1.157 -0.1202 -0.0574 -0.9463
    1TCq1    H414088   1.706   1.192   0.856  1.9430  0.9512 -1.1160
    2MPD1     C14089   2.135   1.274   0.403  0.3416 -0.8374  0.4143
    2MPD1    C114090   2.064   1.164   0.428  0.4496  0.0302 -0.0409
    2MPD1    C214091   1.997   1.166   0.551  0.1961  0.1529 -0.1354
    2MPD1    C314092   2.006   1.265   0.649  0.0023  0.4856 -0.0111
    2MPD1    C414093   2.101   1.364   0.627  0.0963 -0.2578 -0.5655
    2MPD1    C514094   2.155   1.369   0.503  0.2473  0.1919  0.2954
    2MPD1     H14095   1.928   1.085   0.572 -0.3599  0.6667  0.0367
    2MPD1    H114096   2.123   1.442   0.699  2.2226  1.0829 -2.7049
    2MPD1    H214097   2.185   1.291   0.308  0.9402 -3.3582  0.2817
    2MPD1    H314098   2.216   1.454   0.474  1.5805 -0.7543  0.3064
    2MPD1     N14099   1.922   1.256   0.762  0.6349 -0.2327  0.5218
    2MPD1    H514100   1.865   1.172   0.767  0.6527 -0.3326 -0.9576
    2MPD1    N114101   2.033   1.068   0.334 -0.4053  0.1795  0.5334
    2MPD1    H614102   2.002   0.984   0.381 -0.1150 -0.0699  0.2741
    2MPD1    H714103   2.111   1.032   0.279 -1.4727  0.3145 -1.0770
    1MPD1     C14104   0.818   1.514  11.654 -0.2919  0.1761  0.5630
    1MPD1    C114105   0.789   1.514  11.789  0.6996  0.4428  0.0191
    1MPD1    C214106   0.782   1.643  11.847 -0.1179  0.1060 -0.6062
    1MPD1    C314107   0.808   1.758  11.768 -0.2968 -0.7777  0.2878
    1MPD1    C414108   0.837   1.747  11.632 -0.9850  0.0290 -0.5274
    1MPD1    C514109   0.840   1.623  11.574  0.3129 -0.1478 -0.0212
    1MPD1     H14110   0.754   1.652  11.951 -1.0946  2.0402 -1.0378
    1MPD1    H114111   0.852   1.829  11.563  0.6156 -0.4516 -0.7747
    1MPD1    H214112   0.813   1.415  11.609 -0.7297  0.5917 -0.3080
    1MPD1    H314113   0.850   1.599  11.469 -2.4902 -0.9920 -0.0864
    1MPD1     N14114   0.802   1.883  11.833 -0.2675 -0.9866  0.0246
    1MPD1    H514115   0.771   1.887  11.929 -0.0042  1.0285  0.0280
    1MPD1    N114116   0.744   1.399  11.856  0.0895 -0.3190  0.1350
    1MPD1    H614117   0.765   1.309  11.814 -0.5510 -1.2869  1.9086
    1MPD1    H714118   0.791   1.404  11.946  1.0170 -3.6642 -0.1694
    2MPD1     C14119   4.303   1.531  11.653  0.3433 -0.4029 -0.3920
    2MPD1    C114120   4.396   1.630  11.686 -0.0942  0.2303 -0.3168
    2MPD1    C214121   4.433   1.710  11.581  0.3601  0.2190  0.1549
    2MPD1    C314122   4.377   1.703  11.454 -0.6428 -0.0706 -0.3429
    2MPD1    C414123   4.274   1.619  11.433  0.0068 -0.5411  0.0188
    2MPD1    C514124   4.239   1.536  11.530  0.2037 -0.0260 -1.2917
    2MPD1     H14125   4.502   1.790  11.604 -0.9997  1.2195  0.8062
    2MPD1    H114126   4.224   1.622  11.337  1.8609 -0.1762 -0.9298
    2MPD1    H214127   4.269   1.456  11.723 -1.5224  1.5866  0.8632
    2MPD1    H314128   4.162   1.466  11.502  3.3021 -3.9344 -0.0230
    2MPD1     N14129   4.412   1.782  11.342  0.0176 -0.1064 -0.1822
    2MPD1    H514130   4.358   1.759  11.259  0.1939 -1.1296 -0.0062
    2MPD1    N114131   4.467   1.631  11.805  0.8182 -0.2542  0.3445
    2MPD1    H614132   4.419   1.574  11.875  0.3065  0.0745  0.2658
    2MPD1    H714133   4.472   1.723  11.848  0.6156 -0.2594  0.3781
    3MPD1     C14134   0.172   1.376  10.636  0.6094 -0.1429  0.0772
    3MPD1    C114135   0.268   1.472  10.674  0.1159 -0.1165  0.3277
    3MPD1    C214136   0.226   1.576  10.761 -0.2072  0.5274 -0.4936
    3MPD1    C314137   0.094   1.579  10.822 -0.4265 -0.0610 -0.0650
    3MPD1    C414138   0.005   1.491  10.771  0.8166 -0.7260 -0.3561
    3MPD1    C514139   0.045   1.391  10.687 -0.5275  0.2851 -0.3669
    3MPD1     H14140   0.308   1.642  10.787  0.0044 -0.1527  0.5716
    3MPD1    H114141   4.625   1.485  10.803  0.7395 -0.2422 -0.5089
    3MPD1    H214142   0.188   1.290  10.572  3.0060  0.2553  0.1464
    3MPD1    H314143   4.692   1.321  10.654  0.0712 -0.9780  0.9827
    3MPD1     N14144   0.060   1.671  10.925 -0.2750 -0.1183 -0.5340
    3MPD1    H514145   0.135   1.704  10.984  0.3211 -0.8122 -0.9065
    3MPD1    N114146   0.401   1.460  10.625 -0.0725 -0.7039  0.2085
    3MPD1    H614147   0.405   1.425  10.530  1.4503 -2.8131  1.0563
    3MPD1    H714148   0.457   1.545  10.632  1.1057 -1.5422  0.8275
    4MPD2     C14149   0.317   2.423  11.827 -0.1398  0.4893  0.2838
    4MPD2    C114150   0.450   2.458  11.811 -0.5501  0.7348 -0.2614
    4MPD2    C214151   0.469   2.553  11.712 -0.8145 -0.4141  0.2822
    4MPD2    C314152   0.373   2.605  11.632 -0.3176 -0.5093 -0.4181
    4MPD2    C414153   0.243   2.570  11.656 -0.1864  0.3737 -0.3584
    4MPD2    C514154   0.217   2.482  11.756  0.4134  0.9243  0.1103
    4MPD2     H14155   0.575   2.574  11.704 -1.1371  0.9071 -0.4888
    4MPD2    H114156   0.157   2.611  11.604  0.4642  2.0257 -0.1354
    4MPD2    H214157   0.278   2.348  11.895 -0.8498  0.1460 -0.5038
    4MPD2    H314158   0.115   2.451  11.775  0.5271  0.3279 -0.2478
    4MPD2     N14159   0.408   2.684  11.521  0.4484 -0.3971  0.2613
    4MPD2    H514160   0.333   2.707  11.457  0.6468  2.9050  1.2237
    4MPD2    N114161   0.555   2.414  11.893  0.3835  0.7757  0.1329
    4MPD2    H714162   0.647   2.453  11.875  0.9253 -1.0501 -1.0442
    5TMC3    C114163   0.691   2.260  11.979 -0.1572  0.1100 -0.5441
    5TMC3    C214164   0.718   2.133  11.936 -0.2406 -0.5756  0.0053
    5TMC3    C314165   0.847   2.109  11.892 -1.2063 -0.1734 -0.4031
    5TMC3    C414166   0.773   2.365  11.962 -0.4514 -0.0645 -0.3566
    5TMC3    C514167   0.897   2.342  11.909  0.1977 -0.2628 -0.3214
    5TMC3    C614168   0.932   2.220  11.870  0.4228 -0.1579  0.1558
    5TMC3     C14169   0.554   2.290  11.949  0.0312  0.1062  1.3050
    5TMC3     O14170   0.466   2.207  11.957 -0.0346 -0.6214  0.2399
    5TMC3     H14171   0.639   2.065  11.906 -1.0012  0.3695 -0.1415
    5TMC3    H114172   0.757   2.465  12.003 -1.2170 -0.4990  0.4207
    5TMC3    H214173   1.029   2.200  11.826 -0.3185 -1.4274 -0.8821
    5TMC3    C714174   0.914   2.442  11.805  0.9577 -0.6406  0.2707
    5TMC3    C814175   0.853   2.004  11.789  0.0988  0.2116 -0.4890
    5TMC3    O114176   0.807   2.499  11.791 -0.0873 -0.6081 -0.6015
    5TMC3    O214177   0.910   2.020  11.683  0.0039  0.2980 -0.0493
    6TMC3    C114178   4.539   1.928  11.220  0.2586 -0.7896  0.4585
    6TMC3    C214179   4.541   1.827  11.124 -0.1755  0.3298  0.5164
    6TMC3    C314180   4.647   1.831  11.031  0.1236 -0.0425 -0.0878
    6TMC3    C414181   4.637   2.026  11.227  0.6563  0.7050 -1.0193
    6TMC3    C514182   0.010   2.017  11.128 -0.0234 -0.6223 -0.3448
    6TMC3    C614183   0.024   1.922  11.034 -0.2338  0.4576  0.0715
    6TMC3     C14184   4.496   1.887  11.351  0.0658  1.1700 -0.1884
    6TMC3     O14185   4.554   1.935  11.452  0.1093  0.5519  0.9653
    6TMC3     H14186   4.477   1.739  11.129  1.7475 -1.2691 -2.1907
    6TMC3    H114187   4.630   2.105  11.301 -0.4018 -0.2176 -0.1177
    6TMC3    H214188   0.095   1.920  10.951  1.5416 -2.7629  1.6609
    6TMC3    C714189   0.077   2.151  11.112  0.2932  0.0263  0.0775
    6TMC3    C814190   4.654   1.723  10.937  0.1527  0.2012 -0.2625
    6TMC3    O114191   0.094   2.219  11.212  0.4807 -1.1114 -0.2840
    6TMC3    O214192   4.550   1.679  10.889  0.0953 -0.0805 -0.3629
    7MPD2     C14193   1.110   2.662  11.378  0.0764 -0.0566 -0.5782
    7MPD2    C114194   0.984   2.674  11.437  0.1095  0.9743  0.1928
    7MPD2    C214195   0.950   2.600  11.548 -0.1805 -0.4622 -0.1299
    7MPD2    C314196   1.047   2.512  11.605 -0.6886  0.0216  0.0177
    7MPD2    C414197   1.172   2.503  11.545  0.1464 -0.1297 -0.0060
    7MPD2    C514198   1.202   2.573  11.429 -0.6604 -0.2942 -0.2524
    7MPD2     H14199   0.853   2.608  11.595  0.0531 -3.3438  0.8695
    7MPD2    H114200   1.224   2.410  11.564  0.1097  0.2009  1.7935
    7MPD2    H214201   1.149   2.717  11.293  2.5722 -0.7506  0.0962
    7MPD2    H314202   1.296   2.574  11.375 -2.4618 -0.4714 -3.4068
    7MPD2     N14203   1.027   2.439  11.728  0.1455 -0.2214  0.7162
    7MPD2    H514204   1.107   2.381  11.753 -1.0947 -1.6669  1.3877
    7MPD2    N114205   0.883   2.758  11.382  0.6888  0.1159  0.1134
    7MPD2    H714206   0.800   2.752  11.442  1.2222 -0.2893  0.8111
    8TMC3    C114207   0.735   2.848  11.239  0.4289 -0.4719 -0.7105
    8TMC3    C214208   0.685   2.782  11.130 -0.2154 -0.0084  0.3757
    8TMC3    C314209   0.569   2.705  11.147  0.5220 -0.5947  0.6745
    8TMC3    C414210   0.663   2.865  11.355 -0.0651 -0.1639 -0.1022
    8TMC3    C514211   0.542   2.800  11.360 -0.1711 -0.7502 -0.6681
    8TMC3    C614212   0.502   2.719  11.264  0.8670 -0.3272 -0.1923
    8TMC3     C14213   0.870   2.808  11.260  0.3236 -0.9715 -0.0620
    8TMC3     O14214   0.937   2.788  11.158 -0.4912  0.1092  0.2386
    8TMC3     H14215   0.741   2.771  11.038 -0.2754 -2.1710  0.6014
    8TMC3    H114216   0.703   2.931  11.431  1.0615 -1.5938  0.5538
    8TMC3    H214217   0.408   2.665  11.266  0.0590  1.0555 -0.4484
    8TMC3    C714218   0.525   2.747  11.496 -0.6110  0.6375  0.1831
    8TMC3    C814219   0.521   2.624  11.041 -0.1508  0.0916  0.1960
    8TMC3    O114220   0.612   2.774  11.584  0.1867  0.1744 -0.3902
    8TMC3    O214221   0.568   2.643  10.928  0.0330  0.0200  0.2939
    9MPD2     C14222   0.343   2.493  10.849  0.4525  0.2210 -0.4463
    9MPD2    C114223   0.350   2.460  10.982 -0.3330 -0.0983  0.4619
    9MPD2    C214224   0.265   2.360  11.030  0.3004 -0.4244 -0.4000
    9MPD2    C314225   0.180   2.289  10.946  0.3895 -0.6247 -0.1257
    9MPD2    C414226   0.186   2.324  10.814 -0.4085 -0.0106  0.0576
    9MPD2    C514227   0.267   2.425  10.767  0.3336  0.0633 -1.2367
    9MPD2     H14228   0.278   2.335  11.135 -0.4094  1.0652  0.0469
    9MPD2    H114229   0.119   2.276  10.743  1.8519 -0.6058 -1.6947
    9MPD2    H214230   0.387   2.583  10.807  0.4573  0.3885 -0.0843
    9MPD2    H314231   0.265   2.454  10.662 -1.1455  0.5964 -1.0535
    9MPD2     N14232   0.111   2.176  10.982  0.0610 -1.0771  0.0475
    9MPD2    H514233   0.082   2.116  10.906 -0.2785  0.8055 -1.3136
    9MPD2    N114234   0.428   2.529  11.073 -0.2765  0.1313  0.3774
    9MPD2    H714235   0.422   2.503  11.171  1.8776 -0.3121  0.4007
    1MPD1     C14236   4.065   0.252  16.819 -0.6667  0.5698  0.1720
    1MPD1    C114237   4.143   0.323  16.724  0.5087  0.1846 -0.0025
    1MPD1    C214238   4.117   0.455  16.704  0.6366  0.4011 -0.2207
    1MPD1    C314239   4.045   0.529  16.794  0.5859  0.3125 -0.7976
    1MPD1    C414240   3.992   0.463  16.902  0.7168  0.7104  0.0239
    1MPD1    C514241   3.992   0.324  16.913  0.0096 -0.1244  1.3845
    1MPD1     H14242   4.174   0.504  16.625 -0.2259  3.9437  1.3785
    1MPD1    H114243   3.950   0.521  16.983 -1.9434  0.1580 -0.9346
    1MPD1    H214244   4.066   0.146  16.839 -5.0615  0.5757  0.4371
    1MPD1    H314245   3.950   0.277  17.001  1.8646 -3.9875  0.1808
    1MPD1     N14246   4.036   0.670  16.789  0.1239 -1.1766  0.0200
    1MPD1    H514247   3.995   0.718  16.869 -0.2497 -0.2463 -0.7280
    1MPD1    N114248   4.222   0.249  16.633 -0.0490 -0.0337  0.3768
    1MPD1    H614249   4.275   0.176  16.680  0.7154 -0.9443 -1.8928
    1MPD1    H714250   4.288   0.306  16.580  0.6320  0.2203  1.5141
    2MPD1     C14251   4.285   1.475  17.288  0.2747  0.3617  0.1478
    2MPD1    C114252   4.297   1.514  17.154  0.1917 -0.0267 -0.4312
    2MPD1    C214253   4.228   1.451  17.055  0.1835  0.5304  0.4844
    2MPD1    C314254   4.157   1.339  17.088 -0.9802 -0.4730 -0.2305
    2MPD1    C414255   4.147   1.296  17.221  0.2130  0.1998 -0.2871
    2MPD1    C514256   4.210   1.363  17.320  0.0166 -0.4275 -0.3814
    2MPD1     H14257   4.232   1.482  16.952  0.9883 -2.2155 -0.3169
    2MPD1    H114258   4.089   1.208  17.247 -1.1450  0.5595 -2.0766
    2MPD1    H214259   4.332   1.532  17.367  0.6578  2.0306 -1.2736
    2MPD1    H314260   4.199   1.350  17.428  0.1678 -1.9379 -0.5389
    2MPD1     N14261   4.115   1.266  16.971 -0.3709 -0.2877 -0.4620
    2MPD1    H514262   4.134   1.313  16.883  0.1785 -1.1214 -0.8015
    2MPD1    N114263   4.366   1.639  17.127  0.3019 -0.2351  0.1047
    2MPD1    H614264   4.446   1.659  17.187 -0.3616 -0.4088  1.0566
    2MPD1    H714265   4.403   1.644  17.033 -0.4642  2.3428 -0.0696
    3TCq2    C114266   4.067   1.139  16.980 -0.3713  0.6887  0.4502
    3TCq2    O214267   4.047   1.068  17.080  0.2515 -0.0602  0.6331
    3TCq2    C214268   4.055   1.082  16.850 -0.9770 -0.2856 -1.0690
    3TCq2    C314269   4.015   1.164  16.752 -0.0679 -0.1402 -0.2400
    3TCq2    C414270   4.014   1.112  16.625  0.3516  0.2115  0.8376
    3TCq2    C514271   4.023   0.977  16.603 -0.1410  0.4108  0.3922
    3TCq2    C614272   4.054   0.894  16.707  0.0685 -0.4064  0.0381
    3TCq2    C714273   4.072   0.945  16.830 -0.3753  0.4089 -0.6305
    3TCq2    C814274   4.053   0.749  16.680 -0.2426 -0.0364  0.7947
    3TCq2    O414275   4.061   0.711  16.564 -0.3992 -0.3399 -0.2364
    3TCq2    C914276   3.964   1.200  16.521 -0.8410 -0.0858  0.0648
    3TCq2    O514277   3.965   1.154  16.402 -0.3893  0.3775 -0.1732
    3TCq2    O614278   3.950   1.322  16.546 -0.0274  0.3687  0.2187
    3TCq2    H214279   4.015   1.272  16.760  0.3651 -0.1772  0.2246
    3TCq2    H314280   4.005   0.940  16.503  0.8752 -2.0243  1.1158
    3TCq2    H414281   4.114   0.881  16.908 -0.6707 -1.8279 -2.3227
    1TCq1    O114282   1.676   0.635  12.562  0.0346 -0.0629 -0.3017
    1TCq1    C114283   1.654   0.737  12.642 -0.3415  0.1960  0.3433
    1TCq1    O214284   1.547   0.797  12.659  0.4542 -0.3159  0.4297
    1TCq1    C214285   1.734   0.701  12.753 -0.1128  0.3648  0.9285
    1TCq1    C314286   1.674   0.636  12.860  0.0498  0.3651 -0.4082
    1TCq1    C414287   1.754   0.561  12.939  0.0220  0.5706  0.5007
    1TCq1    C514288   1.888   0.544  12.915  0.2657  0.0465 -0.0043
    1TCq1    C614289   1.943   0.604  12.801 -0.3798 -0.3440  0.2810
    1TCq1    C714290   1.869   0.685  12.716  0.4936 -0.1426  0.6238
    1TCq1    C814291   2.082   0.606  12.783  0.1176  0.3250  0.0515
    1TCq1    O414292   2.127   0.676  12.688 -0.1394 -0.0399 -0.0752
    1TCq1    C914293   1.683   0.501  13.052  0.8226  0.2649 -0.0008
    1TCq1    O514294   1.562   0.517  13.061  0.6695 -0.0577  0.1656
    1TCq1    O614295   1.740   0.425  13.132 -0.4329  0.1553 -0.5096
    1TCq1    H114296   1.713   0.556  12.607  0.7277  0.3203 -0.1879
    1TCq1    H214297   1.566   0.633  12.868 -0.0325 -0.1172 -1.6410
    1TCq1    H314298   1.941   0.485  12.989  1.6935  1.4440  0.0733
    1TCq1    H414299   1.909   0.748  12.637  0.5470  2.1476  2.4725
    2MPD2     C14300   2.363   0.522  12.724  0.0077  0.5921 -0.4739
    2MPD2    C114301   2.295   0.503  12.850 -0.4152 -0.0469 -0.5248
    2MPD2    C214302   2.377   0.477  12.956 -0.7122 -0.2178  0.4963
    2MPD2    C314303   2.512   0.469  12.946 -0.4301  1.0682 -0.5351
    2MPD2    C414304   2.575   0.490  12.826  0.5974 -0.0261  0.0296
    2MPD2    C514305   2.493   0.515  12.719  0.6867 -0.0769  0.2354
    2MPD2     H14306   2.334   0.457  13.053 -0.1450 -0.2419  0.7463
    2MPD2    H114307   2.683   0.495  12.819  0.5112 -0.4287 -1.6618
    2MPD2    H214308   2.302   0.547  12.638 -1.1747  0.8360  0.4276
    2MPD2    H314309   2.540   0.528  12.622  0.8622  1.7852  0.5731
    2MPD2     N14310   2.591   0.449  13.057  0.6871 -0.3403  0.1444
    2MPD2    H514311   2.548   0.460  13.149  1.3531  0.9420  0.3031
    2MPD2    N114312   2.155   0.539  12.878 -0.0585  0.4499  0.5822
    2MPD2    H714313   2.119   0.506  12.967 -1.3932  3.3995  1.1385
    3TCq1    O114314   2.726   0.723  13.573  0.0890 -0.4363  0.3029
    3TCq1    C114315   2.709   0.730  13.438  0.1338 -0.4183  1.0992
    3TCq1    O214316   2.610   0.781  13.394 -0.6723  0.1093  0.7855
    3TCq1    C214317   2.778   0.621  13.372  0.1727  0.1861  0.2409
    3TCq1    C314318   2.899   0.566  13.413 -0.0247  0.2734 -0.8835
    3TCq1    C414319   2.959   0.467  13.339  0.2240 -0.2659  0.0584
    3TCq1    C514320   2.906   0.423  13.223  0.5028 -0.1179  0.0772
    3TCq1    C614321   2.784   0.476  13.188  0.5164  0.0628  0.2827
    3TCq1    C714322   2.718   0.564  13.269 -0.0978 -0.4258 -0.2553
    3TCq1    C814323   2.725   0.429  13.064 -0.3654 -0.1193  0.3231
    3TCq1    O414324   2.799   0.387  12.973  0.3179  0.1114  0.0492
    3TCq1    C914325   3.090   0.418  13.368  0.4778 -0.1263  0.0699
    3TCq1    O514326   3.146   0.481  13.467 -0.3464  0.3356 -0.0657
    3TCq1    O614327   3.142   0.325  13.294  0.2855  0.1150 -0.1828
    3TCq1    H114328   2.807   0.675  13.600  1.3944  0.1742 -2.5128
    3TCq1    H214329   2.965   0.620  13.480  1.4826 -2.1789 -0.4195
    3TCq1    H314330   2.954   0.359  13.150  0.2548  0.9798 -1.0563
    3TCq1    H414331   2.618   0.601  13.247 -0.5573 -0.7903  1.1548
    1MPD2     C14332   2.307   1.794  14.973 -0.5091  0.3321 -0.0647
    1MPD2    C114333   2.258   1.671  14.936 -0.4759  0.6619  0.1408
    1MPD2    C214334   2.330   1.558  14.969 -0.5556  0.0376 -0.6830
    1MPD2    C314335   2.447   1.561  15.042  0.2842 -0.3657  0.0752
    1MPD2    C414336   2.492   1.684  15.084  0.0461  0.0125  0.0677
    1MPD2    C514337   2.425   1.801  15.048  0.5022 -0.1783  0.7687
    1MPD2     H14338   2.298   1.465  14.924  2.9292 -0.8023 -1.4161
    1MPD2    H114339   2.583   1.679  15.142  0.6881 -1.3272 -1.0639
    1MPD2    H214340   2.257   1.889  14.965  0.2721  0.6243 -1.4270
    1MPD2    H314341   2.462   1.897  15.083 -0.0693  0.1143  0.5763
    1MPD2     N14342   2.518   1.437  15.058 -0.2488  0.4668 -0.1394
    1MPD2    H514343   2.471   1.355  15.023 -0.9243  0.4936  0.6906
    1MPD2    N114344   2.136   1.671  14.871  1.1074  0.1047  0.0230
    1MPD2    H714345   2.107   1.763  14.840 -1.1339 -0.7583 -0.4206
    2TMC3    C114346   1.960   1.578  14.731  0.8144 -0.0516  0.2286
    2TMC3    C214347   1.887   1.462  14.729 -0.1563  0.0671  0.0849
    2TMC3    C314348   1.883   1.388  14.611  0.3767  0.9932  0.5572
    2TMC3    C414349   2.024   1.620  14.613  0.7995  0.1019 -0.6966
    2TMC3    C514350   2.007   1.553  14.495 -0.2693  0.2110 -0.2956
    2TMC3    C614351   1.934   1.445  14.491  0.8094 -0.2397  0.2450
    2TMC3     C14352   2.057   1.558  14.838 -0.8821  0.2698 -0.1109
    2TMC3     O14353   2.094   1.442  14.858 -0.0374  0.1499 -0.1807
    2TMC3     H14354   1.865   1.411  14.823 -0.5238 -0.2448 -0.1685
    2TMC3    H114355   2.070   1.718  14.610 -1.1049  1.0691  1.4431
    2TMC3    H214356   1.930   1.382  14.403  1.9739  1.9515 -1.3828
    2TMC3    C714357   2.054   1.620  14.370 -0.2404 -0.1794 -0.1919
    2TMC3    C814358   1.925   1.250  14.609  0.6568 -0.3480 -0.7793
    2TMC3    O114359   1.992   1.601  14.267  0.1452  0.1397  0.0793
    2TMC3    O214360   1.899   1.183  14.512 -0.2415 -0.0735 -0.3363
    3TCq1    O114361   3.099   1.703  14.600 -0.7371  0.2234  0.1186
    3TCq1    C114362   2.973   1.731  14.575  0.3739 -0.7472  0.2737
    3TCq1    O214363   2.876   1.670  14.619 -0.2532  0.4866 -0.8312
    3TCq1    C214364   2.966   1.820  14.463 -0.0244 -0.5368 -0.8304
    3TCq1    C314365   3.049   1.931  14.454  0.4445  0.3038  0.5335
    3TCq1    C414366   3.015   2.028  14.362 -0.0403  0.3811  0.6672
    3TCq1    C514367   2.909   2.011  14.277  0.2426  0.4118  0.3497
    3TCq1    C614368   2.827   1.900  14.293  0.0136 -0.2305 -0.1762
    3TCq1    C714369   2.849   1.809  14.393 -0.1567 -0.4304 -1.2429
    3TCq1    C814370   2.703   1.900  14.218  0.2800 -0.2137  0.1885
    3TCq1    O414371   2.707   1.969  14.118 -0.1244  0.2469 -0.2259
    3TCq1    C914372   3.088   2.149  14.357  0.2428 -0.7146 -0.5772
    3TCq1    O514373   3.084   2.212  14.247 -0.3581 -0.3947 -0.7237
    3TCq1    O614374   3.153   2.185  14.462  0.1500  0.5547 -0.2690
    3TCq1    H114375   3.167   1.750  14.547  0.0125  2.5658  3.1717
    3TCq1    H214376   3.131   1.939  14.525  0.0661 -0.4634  1.0573
    3TCq1    H314377   2.884   2.086  14.204 -0.0673 -1.3795 -1.3941
    3TCq1    H414378   2.782   1.724  14.401  1.6406 -1.8338 -1.0130
    4MPD2     C14379   2.421   1.879  14.114 -0.1395 -0.3299 -1.2446
    4MPD2    C114380   2.463   1.839  14.238  0.0745  0.2881  0.7588
    4MPD2    C214381   2.381   1.776  14.325  0.8825  0.0410  0.5931
    4MPD2    C314382   2.248   1.749  14.299 -0.0302 -0.2834 -0.6315
    4MPD2    C414383   2.202   1.787  14.173  0.0219 -0.0262  0.1240
    4MPD2    C514384   2.290   1.843  14.086  0.2061  0.3662 -0.1132
    4MPD2     H14385   2.417   1.749  14.424  2.2157  1.7337  0.5625
    4MPD2    H114386   2.103   1.761  14.138 -1.1191  2.2315  1.6743
    4MPD2    H214387   2.479   1.925  14.035  2.3758 -1.2948  0.0612
    4MPD2    H314388   2.266   1.862  13.983  0.2906 -0.8038 -0.3509
    4MPD2     N14389   2.169   1.691  14.396 -0.0559 -0.2107  0.1942
    4MPD2    H514390   2.216   1.672  14.484  0.9159  1.1739 -0.0152
    4MPD2    N114391   2.591   1.856  14.289  0.0827 -0.7896  0.0741
    4MPD2    H714392   2.597   1.823  14.384  0.8954 -0.2089  0.2293
    5TMC2    C114393   2.565   1.076  15.051  0.6718 -0.9616 -0.2873
    5TMC2    C214394   2.562   1.006  15.166  0.2020  0.3500 -0.1411
    5TMC2    C314395   2.590   1.080  15.282 -0.9001  0.1728 -0.8569
    5TMC2    C414396   2.627   1.197  15.050 -0.0171 -0.8021  0.5686
    5TMC2    C514397   2.652   1.271  15.164 -0.8529 -0.2560 -0.1828
    5TMC2    C614398   2.633   1.208  15.281 -0.1238 -0.3535  0.9435
    5TMC2     C14399   2.444   1.088  14.978 -0.5525  0.7266 -0.2971
    5TMC2     O14400   2.409   1.205  14.952 -0.1435 -0.1228 -0.0424
    5TMC2     H14401   2.523   0.905  15.168 -0.2874  0.5015 -2.1654
    5TMC2    H114402   2.634   1.235  14.949  0.7140  3.0398  2.0625
    5TMC2    H214403   2.636   1.263  15.374  2.1998 -0.9598  1.2058
    5TMC2    C714404   2.621   1.414  15.154 -0.1427 -0.3434 -0.3141
    5TMC2    C814405   2.584   1.021  15.416  0.2379  0.2596  0.0338
    5TMC2    O114406   2.671   1.492  15.231  0.3049 -0.1251 -1.1505
    5TMC2    O214407   2.648   1.063  15.513 -0.2643 -1.0893  0.0441
    5TMC2    O514408   2.501   0.918  15.408 -0.0761  0.0486 -0.4877
    5TMC2    H514409   2.456   0.945  15.325 -0.8746 -1.8624 -0.6630
    6MPD2     C14410   2.064   0.984  14.655  0.2244  0.1146 -0.1764
    6MPD2    C114411   2.082   1.090  14.735 -0.6238  0.2929 -0.6277
    6MPD2    C214412   2.176   1.086  14.840 -0.1308 -0.2858 -0.8752
    6MPD2    C314413   2.271   0.980  14.851 -0.5636 -0.1377  0.0031
    6MPD2    C414414   2.246   0.872  14.762 -0.2700 -0.1411  0.3718
    6MPD2    C514415   2.143   0.875  14.672  0.0552 -0.2445  0.7562
    6MPD2     H14416   2.178   1.175  14.903 -1.7103 -1.3328  0.6648
    6MPD2    H114417   2.321   0.794  14.758  2.7488  2.8326 -0.9711
    6MPD2    H214418   1.983   0.974  14.584 -0.4562 -1.8856  0.8955
    6MPD2    H314419   2.135   0.790  14.605  2.2385  0.8649 -0.8869
    6MPD2     N14420   2.384   0.974  14.939 -0.2878 -0.4073 -0.4003
    6MPD2    H514421   2.423   0.882  14.957 -1.6949 -0.8571  0.4153
    6MPD2    N114422   2.011   1.207  14.717  0.0769  0.0577 -0.1062
    6MPD2    H714423   2.032   1.285  14.779 -0.5362 -0.4769  0.7615
  945NH4     N114424   2.274   2.687   9.009  0.1558 -0.0908  0.2406
  945NH4     H214425   2.324   2.778   9.010 -0.1945  0.1008  0.2976
  945NH4     H314426   2.224   2.701   9.099  0.9493 -3.3611  1.1917
  945NH4     H414427   2.345   2.612   9.018  1.7569  1.2116 -1.5030
  945NH4     H514428   2.211   2.672   8.928  0.1855 -1.5207  0.4899
  946SOD     NA14429   0.951   2.697   0.778 -0.2490 -0.7187  0.2826
  947SOD     NA14430   1.643   3.549   9.285 -0.1598 -0.0456 -0.3605
  948SOD     NA14431   1.440   1.842   0.839 -0.4905  0.6697 -0.6221
  949SOD     NA14432   3.551   2.616  16.992  0.2240 -0.0347 -0.4996
  950SOD     NA14433   0.289   3.647   5.662 -0.2546 -0.2886  0.3046
  951SOD     NA14434   3.508   4.076  10.273  0.2365  0.4465 -0.2584
  952SOD     NA14435   3.741   2.170   3.863 -0.3756 -0.1408 -0.5094
  953SOD     NA14436   2.363   4.042   9.825  0.0521 -0.1276  0.1892
  954SOD     NA14437   3.012   4.366  12.801  0.6731 -0.4466  0.4590
  955SOD     NA14438   0.883   0.275  13.339  0.0657 -0.1313 -0.1843
  956SOD     NA14439   0.465   1.802  13.881  0.5328  0.0031  0.1490
  957SOD     NA14440   4.071   2.008  12.290  0.6174 -0.1252 -0.3232
  958SOD     NA14441   0.796   0.599  15.493  0.2676 -0.4033 -0.1464
  959SOD     NA14442   2.018   0.870  11.332  0.0229  0.1624 -0.3925
  960SOD     NA14443   2.752   1.407  12.305  0.1649 -0.0919 -0.3031
  961SOD     NA14444   1.040   3.175   3.146  0.0241  0.3232 -0.0675
  962SOD     NA14445   3.820   4.545  10.273 -0.3707  0.0121 -0.1550
  963SOD     NA14446   2.906   2.365   1.644  0.3287 -0.3554  0.3530
  964SOD     NA14447   1.798   3.682  10.762 -0.0008 -0.0430 -0.0282
  965SOD     NA14448   2.891   1.024   9.751 -0.2438 -0.1763 -0.1327
  966SOD     NA14449   1.988   0.777   9.923 -0.3026  0.2474  0.0050
  967SOD     NA14450   4.698   3.248   0.681  0.1333  0.3524  0.2083
  968SOD     NA14451   0.685   0.072   2.628  0.2034 -0.2970 -0.4603
  969SOD     NA14452   1.451   0.601  13.245 -0.0050 -0.3218 -0.2982
  970SOD     NA14453   1.946   1.577   3.237 -0.6107  0.2563  0.1327
  971SOD     NA14454   3.562   4.251  11.660  0.5062  0.5826  0.0949
  972SOD     NA14455   3.583   2.450  16.005 -0.3455 -0.4208 -0.2561
  973SOD     NA14456   3.532   4.667  10.284 -0.0322  0.5898  0.3706
  974SOD     NA14457   4.210   4.183  14.270 -0.4423  0.1467  0.1545
  975SOD     NA14458   1.599   4.316  14.858  0.5099 -0.2781  0.0796
  976SOD     NA14459   1.424   3.137  13.112  0.1890  0.1760 -0.1401
  977SOD     NA14460   3.162   1.384  14.894 -0.2750 -0.1636  0.0786
  978SOD     NA14461   3.601   0.042  13.055 -0.4614  0.0107 -0.0146
  979SOD     NA14462   1.007   3.417   6.519  0.0302 -0.2247  0.0394
  980SOD     NA14463   3.704   0.577  14.717  0.1518  0.1092  0.4187
  981SOD     NA14464   0.665   0.361   0.952  0.0510 -0.6011  0.0260
  982SOD     NA14465   3.428   4.382  10.114  0.2938 -0.2306  0.1091
  983SOD     NA14466   4.444   2.818   1.771 -0.3063  0.2505  0.1340
  984SOD     NA14467   0.002   1.154  14.722  0.3858 -0.4402 -0.4730
  985SOD     NA14468   1.400   0.295  10.740  0.8721  0.2370 -0.3266
  986SOD     NA14469   1.471   2.441  17.631 -0.1710 -0.0823  0.0633
  987SOD     NA14470   4.365   3.841  16.539  0.2377 -0.2307  0.0021
  988SOD     NA14471   2.967   1.588  13.695 -0.1484  0.2911  0.5403
  989SOD     NA14472   4.719   4.550   7.936 -0.0329 -0.3778 -0.3484
  990SOD     NA14473   3.920   3.976   0.551 -0.0540 -0.0116 -0.0981
  991SOD     NA14474   4.475   2.314  14.213  0.0237  0.2196 -0.0490
  992SOD     NA14475   3.715   0.980  11.513 -0.2148  0.2205 -0.0052
  993SOD     NA14476   3.641   0.580  14.416  0.2004  0.1476  0.0850
  994SOD     NA14477   1.483   4.535  16.296  0.0493  0.0934 -0.1688
  995SOD     NA14478   2.944   2.180   2.846 -0.0160  0.0735 -0.0373
  996SOD     NA14479   2.115   0.195  13.314  0.0436  0.0567  0.2111
  997SOD     NA14480   3.739   2.835   1.327 -0.2240  0.3387  0.2414
  998SOD     NA14481   4.671   2.026  12.556  0.3144 -0.8030  0.2718
  999SOD     NA14482   2.756   3.019  10.899 -0.3862  0.5188  0.0110
 1000SOD     NA14483   2.571   0.328  11.924 -0.6846 -0.2987 -0.4293
 1001SOD     NA14484   3.873   4.188  14.206 -0.0594  0.2223  0.2425
 1002SOD     NA14485   4.033   3.864   0.306 -0.2235 -0.3151  0.3044
 1003SOD     NA14486   0.497   1.793   3.164  0.3302 -0.2928  0.3726
 1004SOD     NA14487   3.684   0.723  15.480  0.0626  0.5605  0.0042
 1005SOD     NA14488   0.366   2.148   9.139  0.2470 -0.3865  0.5770
 1006SOD     NA14489   4.450   0.627  11.250  0.3164  0.0520 -0.3189
 1007SOD     NA14490   1.107   0.938  10.221  0.1954  0.0600  0.0247
 1008SOD     NA14491   0.133   0.327   0.515 -0.1054  0.4629 -0.1295
 1009SOD     NA14492   0.283   1.076  12.620 -0.2066  0.5894 -0.0964
 1010SOD     NA14493   2.481   1.849   1.768  0.0582  0.0495  0.1986
 1011SOL     OW14494   3.894   3.179   8.744 -0.1941  0.2170 -0.0691
 1011SOL    HW114495   3.971   3.227   8.715 -0.0977 -0.9345 -1.7137
 1011SOL    HW214496   3.897   3.099   8.691 -1.1370  0.6976 -0.8324
 1012SOL     OW14497   1.666   2.232   7.296 -0.2030 -0.2369 -0.3442
 1012SOL    HW114498   1.649   2.311   7.245 -1.0430 -0.0599  0.2110
 1012SOL    HW214499   1.580   2.192   7.283  0.4578 -1.1765 -1.9240
 1013SOL     OW14500   4.330   4.039  10.026  0.5372  0.0079 -0.5186
 1013SOL    HW114501   4.358   3.948  10.032 -1.1019 -0.4357  0.3138
 1013SOL    HW214502   4.408   4.087   9.997  0.1426  1.1588  0.3242
 1014SOL     OW14503   1.212   3.198   9.523 -0.3057  0.5238  0.3010
 1014SOL    HW114504   1.175   3.136   9.460  0.1575  1.4118 -0.8424
 1014SOL    HW214505   1.150   3.270   9.531 -1.0338 -0.0128 -0.4744
 1015SOL     OW14506   2.886   0.052   4.103 -0.2684 -0.2693 -0.0146
 1015SOL    HW114507   2.811   0.032   4.047 -0.5706  1.3445 -0.2068
 1015SOL    HW214508   2.847   0.095   4.179  4.2921  0.8633  1.6660
 1016SOL     OW14509   2.897   0.892   6.787 -0.5836 -0.3133 -0.0711
 1016SOL    HW114510   2.862   0.804   6.782 -1.7562  0.2344 -1.4012
 1016SOL    HW214511   2.848   0.929   6.860  1.3941  0.0041  1.0943
 1017SOL     OW14512   3.995   3.865  13.959 -0.5090  0.3518  0.1444
 1017SOL    HW114513   3.969   3.857  14.050  0.4737  0.1294  0.4053
 1017SOL    HW214514   3.915   3.862  13.906 -1.0638  0.0218  1.0033
 1018SOL     OW14515   2.929   2.844   9.938 -0.2681  0.1098  0.5110
 1018SOL    HW114516   2.974   2.760   9.946  2.3124  1.4435 -0.1103
 1018SOL    HW214517   2.936   2.872  10.029 -1.1193  2.4406 -0.1637
 1019SOL     OW14518   4.163   3.391  10.171 -0.2767  0.1757 -0.0698
 1019SOL    HW114519   4.184   3.439  10.251  0.5728  1.3321 -0.9776
 1019SOL    HW214520   4.197   3.446  10.100  1.4976  1.6689  1.9399
 1020SOL     OW14521   2.612   3.548   7.451 -0.0740 -0.8215 -0.0696
 1020SOL    HW114522   2.590   3.481   7.385 -0.1469 -1.4299  0.5728
 1020SOL    HW214523   2.606   3.624   7.392 -1.1423  0.3667  1.5826
 1021SOL     OW14524   1.792   2.742   8.821  0.7296 -0.0667 -0.3529
 1021SOL    HW114525   1.722   2.699   8.771 -0.7724 -0.0348  1.7449
 1021SOL    HW214526   1.766   2.835   8.822 -0.1384 -0.3183  0.5389
 1022SOL     OW14527   3.697   4.277   4.202 -0.0797 -0.8797  0.4436
 1022SOL    HW114528   3.680   4.318   4.287  1.5359  1.9554 -0.6157
 1022SOL    HW214529   3.633   4.206   4.203  1.9675 -2.7441 -1.0575
 1023SOL     OW14530   3.436   1.357   7.427 -0.0823 -0.3495  0.1046
 1023SOL    HW114531   3.360   1.311   7.390  0.1611 -0.7457  0.0995
 1023SOL    HW214532   3.489   1.368   7.348 -3.5742  3.8720 -1.6839
 1024SOL     OW14533   3.967   2.314   9.799 -0.1678  0.4443 -1.0824
 1024SOL    HW114534   3.879   2.289   9.773 -0.3748  2.0006 -1.8830
 1024SOL    HW214535   3.971   2.298   9.893 -2.1575 -1.0212 -1.2656
 1025SOL     OW14536   1.383   1.855   7.491  0.1020 -0.1976 -0.1488
 1025SOL    HW114537   1.381   1.794   7.564 -1.1529  2.4586  2.0570
 1025SOL    HW214538   1.370   1.796   7.416 -2.3711  1.2018 -0.8422
 1026SOL     OW14539   4.345   2.169   0.376 -0.1703  0.6803  0.0190
 1026SOL    HW114540   4.302   2.237   0.429 -0.7438  2.0076 -2.1392
 1026SOL    HW214541   4.306   2.184   0.290  0.0710  1.9804  0.1415
 1027SOL     OW14542   4.462   2.226   5.860 -0.1193 -0.1552  0.0453
 1027SOL    HW114543   4.420   2.166   5.922 -0.4231 -0.3356 -0.3383
 1027SOL    HW214544   4.384   2.234   5.806 -1.6336  2.5509  2.6167
 1028SOL     OW14545   2.981   0.120  15.318 -0.1674 -0.3081 -0.1978
 1028SOL    HW114546   3.051   0.065  15.351  1.5234  2.1158  0.2707
 1028SOL    HW214547   2.912   0.063  15.351  0.9345 -1.7801 -0.4530
 1029SOL     OW14548   2.162   1.307   8.825  0.0907 -0.1764  0.1300
 1029SOL    HW114549   2.239   1.349   8.863 -2.3188  1.6827  2.8905
 1029SOL    HW214550   2.171   1.339   8.735  1.1205  0.6182  0.5177
 1030SOL     OW14551   3.617   2.338   1.366  0.1037  0.0800 -0.1115
 1030SOL    HW114552   3.686   2.378   1.418 -0.4153  0.7331  0.0791
 1030SOL    HW214553   3.658   2.315   1.283 -0.2887  0.7135 -0.4756
 1031SOL     OW14554   0.542   2.361  16.691 -1.0051  0.0292  1.0149
 1031SOL    HW114555   0.520   2.281  16.739  0.2222  0.3811  2.1768
 1031SOL    HW214556   0.518   2.425  16.757  2.7597  1.8386  0.6538
 1032SOL     OW14557   0.596   0.272  15.339  0.7669 -0.0630  0.0933
 1032SOL    HW114558   0.505   0.286  15.312  0.6227 -0.9739  0.1233
 1032SOL    HW214559   0.593   0.182  15.369 -2.6698 -1.1676 -3.4613
 1033SOL     OW14560   0.999   0.944   3.431 -0.0223 -0.2615  0.2988
 1033SOL    HW114561   0.948   1.012   3.474  0.4733  0.8749 -0.9212
 1033SOL    HW214562   0.951   0.865   3.455 -0.8543  0.3366  0.6067
 1034SOL     OW14563   0.513   4.332   5.301 -0.5067  0.6171  0.8298
 1034SOL    HW114564   0.606   4.321   5.280 -0.3055  0.8557  1.6096
 1034SOL    HW214565   0.509   4.286   5.385  0.5517 -1.8742 -0.4689
 1035SOL     OW14566   3.218   2.343  12.586 -0.2552 -0.2461  0.7497
 1035SOL    HW114567   3.168   2.424  12.598 -0.4534 -0.3369  0.5595
 1035SOL    HW214568   3.296   2.380  12.625 -1.5499  2.6641  0.6063
 1036SOL     OW14569   0.885   2.137   7.617 -0.4342 -0.0102 -0.2111
 1036SOL    HW114570   0.868   2.129   7.523  0.0790 -1.2512 -0.2013
 1036SOL    HW214571   0.867   2.048   7.648  1.2775  0.1130  1.1818
 1037SOL     OW14572   1.006   3.859   5.076 -0.2878  0.4544 -0.0385
 1037SOL    HW114573   1.075   3.797   5.053 -1.2402 -0.2470 -1.0132
 1037SOL    HW214574   1.053   3.942   5.066  1.9716 -1.0621 -1.8679
 1038SOL     OW14575   0.362   0.561   2.692 -0.0666  0.1521 -0.4020
 1038SOL    HW114576   0.351   0.467   2.700 -0.6376  0.1672 -1.0018
 1038SOL    HW214577   0.450   0.573   2.729  1.5447 -0.3072 -4.0147
 1039SOL     OW14578   2.058   2.531   5.662 -1.1012  0.1340  0.2713
 1039SOL    HW114579   2.026   2.620   5.650 -0.4368  0.0752 -1.7947
 1039SOL    HW214580   2.090   2.524   5.573  0.3752 -0.5627  0.8541
 1040SOL     OW14581   3.588   2.297   6.373  0.1786 -0.0967  0.1686
 1040SOL    HW114582   3.611   2.337   6.290 -0.4180 -1.2811 -0.5699
 1040SOL    HW214583   3.496   2.321   6.385 -0.4982 -1.6151 -2.0753
 1041SOL     OW14584   3.956   3.420   9.863  0.0657  0.0791  0.0307
 1041SOL    HW114585   3.901   3.495   9.843  0.6185  0.6357  0.6280
 1041SOL    HW214586   4.000   3.402   9.779 -1.7718  2.5941 -1.4576
 1042SOL     OW14587   1.088   1.761   4.910  0.8280 -0.3822 -0.2491
 1042SOL    HW114588   1.095   1.735   4.818 -0.2200 -3.3213  0.4741
 1042SOL    HW214589   1.017   1.824   4.900  2.2476  1.7454  2.9480
 1043SOL     OW14590   2.208   0.106  12.862 -0.5495 -0.2505 -0.4405
 1043SOL    HW114591   2.248   0.056  12.790  0.4615  0.5296 -0.4177
 1043SOL    HW214592   2.191   0.194  12.828 -1.5735  0.4749  1.9892
 1044SOL     OW14593   4.484   3.370   3.729  0.3505 -0.0802  0.2801
 1044SOL    HW114594   4.462   3.278   3.741  0.1951 -0.1198 -0.3157
 1044SOL    HW214595   4.399   3.410   3.748 -0.4081  0.4393 -4.0910
 1045SOL     OW14596   3.981   4.479  10.421 -0.0141  0.2871  0.6061
 1045SOL    HW114597   3.936   4.416  10.478 -0.5025 -0.6394 -0.8271
 1045SOL    HW214598   4.063   4.504  10.463 -1.2588  1.4389  2.3891
 1046SOL     OW14599   1.611   0.645   5.016 -0.5066 -0.3950  0.4783
 1046SOL    HW114600   1.610   0.619   4.924  3.4200  0.1060  0.2752
 1046SOL    HW214601   1.707   0.648   5.023 -0.5123  0.2148  0.3022
 1047SOL     OW14602   2.527   2.983   8.929  0.1896  0.1529 -0.8228
 1047SOL    HW114603   2.521   2.949   9.018 -0.7474  2.2815 -0.0674
 1047SOL    HW214604   2.436   3.008   8.918 -0.1652 -1.4682 -1.5284
 1048SOL     OW14605   3.349   0.343   8.770 -0.6048  0.9153  0.0049
 1048SOL    HW114606   3.395   0.303   8.697 -1.4438  1.7617 -1.0022
 1048SOL    HW214607   3.354   0.273   8.835 -0.8739 -0.4307 -1.4268
 1049SOL     OW14608   2.647   2.325   8.262 -0.4302 -0.6250 -0.1506
 1049SOL    HW114609   2.652   2.388   8.190  2.2515  0.3458  0.8948
 1049SOL    HW214610   2.659   2.378   8.340  0.5612 -1.1096  0.0251
 1050SOL     OW14611   2.748   1.924   7.166 -0.5977 -0.2812  0.3174
 1050SOL    HW114612   2.761   1.897   7.075  1.1947  0.4201  0.3752
 1050SOL    HW214613   2.686   1.997   7.164 -0.8925 -0.5440 -0.2894
 1051SOL     OW14614   1.643   0.274   7.924 -0.0652 -0.4175  0.2983
 1051SOL    HW114615   1.568   0.326   7.951  0.2256 -1.2158  2.6476
 1051SOL    HW214616   1.660   0.219   8.001 -0.8894 -2.6114 -1.0751
 1052SOL     OW14617   3.926   0.936   2.732 -0.4200 -0.5503 -0.6829
 1052SOL    HW114618   3.878   0.863   2.693 -0.1359 -1.3513  0.4901
 1052SOL    HW214619   3.885   0.944   2.818  0.1122 -0.2237 -0.4640
 1053SOL     OW14620   0.807   1.243   4.546  0.1873  0.2830 -0.2295
 1053SOL    HW114621   0.798   1.275   4.457 -2.0633  0.5282  0.0737
 1053SOL    HW214622   0.885   1.191   4.526 -1.9896 -2.0742 -2.5255
 1054SOL     OW14623   3.444   3.595   3.847  0.1173 -0.2108 -0.3202
 1054SOL    HW114624   3.498   3.663   3.887 -2.6774  0.7671  1.8196
 1054SOL    HW214625   3.413   3.646   3.772  1.5610 -1.0349 -1.4511
 1055SOL     OW14626   0.420   4.629  10.405  0.0315 -0.4906  0.3556
 1055SOL    HW114627   0.495   4.596  10.354  0.3606  0.5304  0.1769
 1055SOL    HW214628   0.388   4.688  10.338 -1.8302  0.4703  2.1088
 1056SOL     OW14629   1.305   3.180   4.845  0.0949 -0.4778 -0.1659
 1056SOL    HW114630   1.217   3.206   4.818  0.0109  0.9801  1.5495
 1056SOL    HW214631   1.291   3.099   4.895  2.2949 -0.3425  0.6324
 1057SOL     OW14632   3.922   3.514  15.593  0.9573 -0.5234 -0.7463
 1057SOL    HW114633   3.918   3.563  15.511  0.8045  1.9100  0.7183
 1057SOL    HW214634   3.899   3.576  15.663  0.3065 -0.8358 -0.6801
 1058SOL     OW14635   1.235   0.912  17.495  0.2094  0.8695 -0.3235
 1058SOL    HW114636   1.263   0.825  17.468  0.8670  0.3599  2.0036
 1058SOL    HW214637   1.276   0.925  17.581 -0.9294  1.0033  0.1977
 1059SOL     OW14638   4.720   4.375   6.475 -0.0835 -0.1538 -0.6043
 1059SOL    HW114639   4.633   4.359   6.512  0.7162  1.2431  1.9133
 1059SOL    HW214640   0.032   4.287   6.485  0.3742  0.3099  1.8757
 1060SOL     OW14641   0.560   1.749  12.666  0.0539  0.4733  0.0397
 1060SOL    HW114642   0.478   1.766  12.712  0.7261 -0.8434  1.7308
 1060SOL    HW214643   0.614   1.775  12.741 -1.6295  1.4087  0.9362
 1061SOL     OW14644   1.403   4.372  14.988  0.1379 -0.0949  0.1430
 1061SOL    HW114645   1.348   4.304  15.026 -0.3829  1.7301  2.6121
 1061SOL    HW214646   1.340   4.422  14.936 -0.8268  0.0770  1.4801
 1062SOL     OW14647   2.067   3.316  12.808 -0.3478 -0.7977  0.6444
 1062SOL    HW114648   2.095   3.314  12.900  0.0862 -2.1885  0.4841
 1062SOL    HW214649   2.153   3.315  12.767 -0.2541  1.8004  0.8069
 1063SOL     OW14650   3.193   4.272  15.151 -0.5374 -0.0818 -0.0713
 1063SOL    HW114651   3.171   4.283  15.058  0.6379  2.2000 -0.0797
 1063SOL    HW214652   3.108   4.279  15.192 -1.1466  0.4503 -1.4067
 1064SOL     OW14653   2.521   0.168   2.822  0.6873  0.4397  0.5205
 1064SOL    HW114654   2.528   0.234   2.891 -2.8594  0.2385  1.0917
 1064SOL    HW214655   2.443   0.206   2.783  1.1756  1.7077  0.7858
 1065SOL     OW14656   4.161   2.037   9.032 -0.0953 -0.0227  0.5956
 1065SOL    HW114657   4.110   1.980   8.974  0.0157  0.5047 -0.0168
 1065SOL    HW214658   4.093   2.054   9.097  1.8131 -1.1274  2.8761
 1066SOL     OW14659   2.610   2.808   6.688  0.1357  0.0668  0.0134
 1066SOL    HW114660   2.541   2.771   6.743 -0.4276 -0.5528 -1.1223
 1066SOL    HW214661   2.658   2.855   6.756  1.8092 -0.8368 -0.5495
 1067SOL     OW14662   1.206   3.440  17.660  0.5504 -0.2209 -0.0683
 1067SOL    HW114663   1.189   3.353  17.624  0.7418 -0.5595  0.6616
 1067SOL    HW214664   1.124   3.482  17.633  0.4267 -0.1434  0.4137
 1068SOL     OW14665   3.523   1.041  11.364  0.0206 -0.9830 -0.0398
 1068SOL    HW114666   3.556   1.107  11.303 -1.9847  0.7199  0.7486
 1068SOL    HW214667   3.451   1.087  11.407  2.4364  2.6164  0.1602
 1069SOL     OW14668   4.511   2.482   2.528  0.6731  0.1487  0.3198
 1069SOL    HW114669   4.561   2.562   2.509  0.6801  0.2427  0.7285
 1069SOL    HW214670   4.570   2.410   2.505  0.8766  0.6648 -0.8083
 1070SOL     OW14671   0.770   3.575   7.817 -0.5000  0.3368  0.0910
 1070SOL    HW114672   0.750   3.665   7.842  0.5153  0.6834 -0.3231
 1070SOL    HW214673   0.682   3.537   7.814 -0.4543  0.3010 -0.8979
 1071SOL     OW14674   3.614   3.673   7.175 -0.1384 -0.2646  0.0535
 1071SOL    HW114675   3.682   3.733   7.207  0.1954 -0.4547 -0.2915
 1071SOL    HW214676   3.549   3.739   7.152 -0.6901  0.1161  2.7087
 1072SOL     OW14677   0.692   3.258   1.994  0.4172  0.1281 -1.1396
 1072SOL    HW114678   0.733   3.225   1.914  1.5491  2.3161 -1.4803
 1072SOL    HW214679   0.705   3.351   1.977 -0.9286  0.3952 -0.6459
 1073SOL     OW14680   3.329   2.083  10.901  0.0826  0.0589 -0.0800
 1073SOL    HW114681   3.314   2.004  10.850  1.1959  0.3993 -0.9223
 1073SOL    HW214682   3.272   2.147  10.858 -1.3793 -0.7983  0.5794
 1074SOL     OW14683   2.785   4.292  16.877 -0.4067 -0.4920 -0.0169
 1074SOL    HW114684   2.741   4.237  16.813  0.3253 -1.9404  0.7131
 1074SOL    HW214685   2.733   4.263  16.953 -0.2540 -0.7643 -0.0143
 1075SOL     OW14686   1.196   2.461   9.773 -0.3674 -0.3728  0.1635
 1075SOL    HW114687   1.182   2.541   9.722 -2.2795 -0.3569  0.6987
 1075SOL    HW214688   1.165   2.483   9.861  0.6148  1.4129  0.0756
 1076SOL     OW14689   3.889   3.425  10.142 -0.9028 -0.4530 -0.5206
 1076SOL    HW114690   3.978   3.428  10.177 -0.9566 -0.5321 -0.3754
 1076SOL    HW214691   3.900   3.388  10.055 -1.2069  0.4298 -0.9349
 1077SOL     OW14692   0.391   0.764   4.026 -0.3890 -0.1562  0.2119
 1077SOL    HW114693   0.372   0.765   4.120 -1.1609  2.1976  0.0242
 1077SOL    HW214694   0.446   0.842   4.023 -0.0762 -0.4433 -1.4419
 1078SOL     OW14695   2.013   0.488  10.971  0.2079  0.4010  0.0358
 1078SOL    HW114696   2.108   0.504  10.973  0.1468  0.4924  2.5501
 1078SOL    HW214697   1.987   0.550  10.904 -0.2111  0.3923  0.1926
 1079SOL     OW14698   0.793   3.162  12.728 -0.0283 -0.6499  0.3793
 1079SOL    HW114699   0.849   3.206  12.791 -0.4453 -0.1040  0.3675
 1079SOL    HW214700   0.767   3.238  12.675  0.1968 -0.2970  0.7793
 1080SOL     OW14701   0.077   2.927   8.513 -0.2066 -0.1890  0.0265
 1080SOL    HW114702   0.146   2.992   8.498  1.6868 -1.8137  1.7445
 1080SOL    HW214703   0.072   2.937   8.608 -1.2040  0.5967 -0.1089
 1081SOL     OW14704   0.410   1.884   9.538  0.0454 -0.0028 -0.0336
 1081SOL    HW114705   0.381   1.795   9.521 -0.0664  0.5352 -2.5599
 1081SOL    HW214706   0.504   1.865   9.528 -0.8716 -3.9698 -0.9290
 1082SOL     OW14707   1.110   0.712   5.222 -0.3230  0.6115 -0.1335
 1082SOL    HW114708   1.203   0.710   5.246 -1.3793  0.7016  3.9463
 1082SOL    HW214709   1.114   0.671   5.136 -1.6885  1.9159 -0.8114
 1083SOL     OW14710   2.935   2.190   7.777  0.2722 -0.3708 -0.2691
 1083SOL    HW114711   2.865   2.250   7.753  0.0642 -0.0113  1.2888
 1083SOL    HW214712   2.905   2.164   7.864 -0.6051  2.5932  0.3032
 1084SOL     OW14713   3.725   4.108  11.165 -0.2391  0.9470  0.1212
 1084SOL    HW114714   3.775   4.051  11.224 -1.4095 -1.3443 -1.0844
 1084SOL    HW214715   3.798   4.136  11.110  0.8419 -0.0770  1.0385
 1085SOL     OW14716   1.073   2.284   4.108 -0.6226  0.1637  0.0161
 1085SOL    HW114717   1.122   2.360   4.139  0.4618 -0.5718  0.1079
 1085SOL    HW214718   1.129   2.238   4.045  0.5042 -1.1832  2.0173
 1086SOL     OW14719   3.937   3.652  16.015 -0.5584  0.8420  0.5791
 1086SOL    HW114720   4.014   3.670  16.069  1.9536 -1.6091 -2.2010
 1086SOL    HW214721   3.872   3.676  16.080  0.6339 -0.8843  2.4179
 1087SOL     OW14722   2.415   1.408   3.948  0.2294  0.4017 -0.3618
 1087SOL    HW114723   2.369   1.407   3.864 -0.7992 -0.7107  0.2076
 1087SOL    HW214724   2.417   1.315   3.972 -0.4917  0.6127  0.5243
 1088SOL     OW14725   2.925   1.408   5.467 -0.0976 -0.1896 -0.0883
 1088SOL    HW114726   3.011   1.371   5.488  0.1229  0.7215  0.6278
 1088SOL    HW214727   2.869   1.348   5.516 -0.3786  1.2848  1.4119
 1089SOL     OW14728   0.052   1.661  14.748 -0.0003 -0.2888 -0.0823
 1089SOL    HW114729   0.071   1.650  14.841 -0.9203 -0.1338  0.1225
 1089SOL    HW214730   0.112   1.729  14.718 -2.1968  1.9936  0.7509
 1090SOL     OW14731   1.241   1.291   5.603 -0.3403 -0.0586  0.3778
 1090SOL    HW114732   1.177   1.234   5.561 -0.7430  0.5802  0.1156
 1090SOL    HW214733   1.192   1.364   5.642 -1.3018 -0.2527 -0.4859
 1091SOL     OW14734   1.664   1.751   3.166 -0.6631 -0.2058 -0.1804
 1091SOL    HW114735   1.724   1.760   3.240  2.3712  0.3623 -2.7310
 1091SOL    HW214736   1.703   1.672   3.127  0.2858 -0.3059  0.9779
 1092SOL     OW14737   1.137   2.133   4.620 -0.2870 -0.5324  0.7606
 1092SOL    HW114738   1.199   2.205   4.634 -0.1071 -0.8319  1.5318
 1092SOL    HW214739   1.064   2.185   4.586  0.4187 -0.2505 -0.3247
 1093SOL     OW14740   4.071   2.709   6.485 -0.2673  0.0345  0.7412
 1093SOL    HW114741   4.044   2.711   6.577 -0.2520 -1.6148  0.7952
 1093SOL    HW214742   3.985   2.717   6.444  0.7080 -0.9380 -1.5187
 1094SOL     OW14743   2.657   3.049   8.707  0.7135 -0.4191 -0.1287
 1094SOL    HW114744   2.618   3.035   8.794  1.9618  2.6089  0.9212
 1094SOL    HW214745   2.694   2.961   8.705  0.9404 -0.3043 -0.9110
 1095SOL     OW14746   4.260   3.160   3.062  0.2360  0.4327 -0.5485
 1095SOL    HW114747   4.217   3.074   3.070  0.5850  0.5904  3.2696
 1095SOL    HW214748   4.311   3.165   3.143  1.2523 -2.0053 -1.0286
 1096SOL     OW14749   2.743   1.845   6.139 -0.0523  0.1460 -0.0085
 1096SOL    HW114750   2.776   1.929   6.108 -1.4937  0.9668  0.6582
 1096SOL    HW214751   2.806   1.812   6.203  2.3608  0.2991 -2.3331
 1097SOL     OW14752   1.982   2.816   5.288  0.7071 -0.4081 -0.7585
 1097SOL    HW114753   2.003   2.907   5.269 -0.9485 -0.1521 -1.3233
 1097SOL    HW214754   1.977   2.816   5.384 -3.6565 -0.3393 -0.9907
 1098SOL     OW14755   2.678   0.788   7.212 -0.2071 -0.0309  0.1641
 1098SOL    HW114756   2.607   0.752   7.264 -2.9826  2.5236 -1.8250
 1098SOL    HW214757   2.733   0.834   7.275 -0.6448 -0.2518  0.7056
 1099SOL     OW14758   2.401   1.569  12.737  0.5397 -0.6120  0.4922
 1099SOL    HW114759   2.349   1.524  12.804  3.5286 -1.7416  2.0852
 1099SOL    HW214760   2.359   1.539  12.657 -0.1657 -1.4951  1.1876
 1100SOL     OW14761   2.177   3.444   5.138 -0.0514  0.5324  0.3622
 1100SOL    HW114762   2.138   3.446   5.225 -0.1120 -1.3318  0.3798
 1100SOL    HW214763   2.144   3.366   5.093  0.0370  1.2428 -0.9345
 1101SOL     OW14764   4.229   1.483   7.374 -0.1133  0.0164  0.0988
 1101SOL    HW114765   4.175   1.406   7.390 -1.1613  0.5237 -1.0111
 1101SOL    HW214766   4.220   1.521   7.461  0.2041 -0.8216  0.4971
 1102SOL     OW14767   1.228   3.579   6.382 -0.3417  0.1569  0.6569
 1102SOL    HW114768   1.185   3.624   6.310  0.1695  0.5855  0.6158
 1102SOL    HW214769   1.276   3.647   6.429 -1.0504 -1.8563  4.3035
 1103SOL     OW14770   0.967   1.228  16.546 -0.0786  0.1843 -0.4144
 1103SOL    HW114771   1.027   1.206  16.475  0.1789 -0.7960  0.1143
 1103SOL    HW214772   0.905   1.282  16.496 -0.6633 -1.4383 -1.4394
 1104SOL     OW14773   3.498   1.353   1.844 -0.3151  0.3486 -0.3358
 1104SOL    HW114774   3.577   1.306   1.819  0.4972  1.6940 -0.3106
 1104SOL    HW214775   3.472   1.297   1.918  2.0610  1.7546  1.5603
 1105SOL     OW14776   3.245   1.223  10.055  0.5914  0.0570  0.2205
 1105SOL    HW114777   3.270   1.289   9.990  0.0564  0.3976  0.3661
 1105SOL    HW214778   3.328   1.184  10.085 -0.2052 -2.5334 -0.9017
 1106SOL     OW14779   0.098   2.004   5.875 -0.1053 -0.5972  0.5177
 1106SOL    HW114780   0.157   2.061   5.926  1.2951 -0.0858 -1.6630
 1106SOL    HW214781   0.031   2.070   5.857  0.1096 -0.1826  1.2200
 1107SOL     OW14782   3.573   0.183   2.501 -0.7976 -0.2709  0.9175
 1107SOL    HW114783   3.523   0.226   2.570 -1.1905 -0.5441  0.8004
 1107SOL    HW214784   3.661   0.220   2.510 -1.1869  0.9677 -0.3987
 1108SOL     OW14785   0.896   0.363   0.943 -0.1162  0.5460 -0.0105
 1108SOL    HW114786   0.955   0.396   0.876  1.1195 -0.1350  0.7358
 1108SOL    HW214787   0.918   0.270   0.949  0.5504  0.6705 -0.6277
 1109SOL     OW14788   2.574   3.419  10.893 -0.2590 -0.3513  0.0865
 1109SOL    HW114789   2.495   3.462  10.924 -0.2127 -1.0780  1.1742
 1109SOL    HW214790   2.559   3.332  10.929 -3.0661 -0.3364 -1.0312
 1110SOL     OW14791   0.911   4.088  11.221  0.1590 -0.8415  0.3847
 1110SOL    HW114792   0.935   4.092  11.128 -0.5703  1.6326  0.3030
 1110SOL    HW214793   0.952   4.169  11.251 -2.2133  1.5548 -2.8306
 1111SOL     OW14794   1.515   3.062  13.569  0.4169  0.4206  0.0191
 1111SOL    HW114795   1.482   3.149  13.588  2.0614  1.2626 -0.9226
 1111SOL    HW214796   1.546   3.019  13.649  1.1739  1.2346  0.1630
 1112SOL     OW14797   4.673   1.283   4.266 -0.7295 -0.7283 -0.1026
 1112SOL    HW114798   4.620   1.361   4.284  0.5845  0.3935 -1.0536
 1112SOL    HW214799   4.663   1.218   4.335 -2.2163  1.3161  1.6136
 1113SOL     OW14800   1.330   3.999  13.918 -0.2887  0.0076  0.2816
 1113SOL    HW114801   1.318   3.917  13.869 -1.9517 -0.2729  1.1771
 1113SOL    HW214802   1.254   3.989  13.974  1.2068  1.1791  2.5183
 1114SOL     OW14803   3.815   3.239   3.949  0.6074 -0.3700  0.1138
 1114SOL    HW114804   3.861   3.166   3.991  0.8447 -0.3772 -0.1580
 1114SOL    HW214805   3.842   3.223   3.859 -0.1900  1.1927 -0.4029
 1115SOL     OW14806   1.016   3.861   6.983 -0.2746 -0.2951 -0.0771
 1115SOL    HW114807   1.106   3.840   6.959 -0.4302 -0.9070 -0.1208
 1115SOL    HW214808   1.026   3.954   6.964  0.2481 -0.1321  1.0110
 1116SOL     OW14809   1.756   0.126   5.010  0.0673  0.9328 -0.0621
 1116SOL    HW114810   1.742   0.205   5.062 -0.2065  0.1852  0.9842
 1116SOL    HW214811   1.848   0.111   5.032  0.5404  3.6285 -0.2692
 1117SOL     OW14812   1.848   1.151   8.270 -0.6870  0.1297  0.2861
 1117SOL    HW114813   1.890   1.139   8.356  0.7853 -0.7630 -0.5656
 1117SOL    HW214814   1.797   1.072   8.255  0.0310 -0.0598 -1.1412
 1118SOL     OW14815   3.558   1.646   6.692  0.2641 -0.2468  0.2787
 1118SOL    HW114816   3.569   1.604   6.606 -0.0907  0.8846 -0.3068
 1118SOL    HW214817   3.591   1.733   6.671  1.5123 -0.4716  1.2889
 1119SOL     OW14818   0.590   2.706   6.060  0.2155  0.1705 -0.2355
 1119SOL    HW114819   0.510   2.756   6.075  0.5733  1.1834 -1.7911
 1119SOL    HW214820   0.557   2.661   5.982  0.7811 -1.0174  0.1953
 1120SOL     OW14821   3.698   3.294  17.690 -0.3484  0.0409 -0.6119
 1120SOL    HW114822   3.677   3.381   0.029 -0.7483 -0.4366  0.3604
 1120SOL    HW214823   3.787   3.319  17.664 -0.7579  0.9578 -1.1114
 1121SOL     OW14824   2.851   4.310   7.551  0.2149 -0.3892  0.6594
 1121SOL    HW114825   2.917   4.269   7.606 -0.8888 -1.0126  1.5229
 1121SOL    HW214826   2.794   4.365   7.606 -1.3880 -1.5729  0.1929
 1122SOL     OW14827   0.485   1.251   2.785  0.1455  0.0184 -0.3517
 1122SOL    HW114828   0.493   1.190   2.711 -0.4815 -0.2159 -0.2271
 1122SOL    HW214829   0.539   1.202   2.846  0.1240  1.3034  0.6997
 1123SOL     OW14830   4.718   3.582  12.448  0.1668 -0.4369  0.1612
 1123SOL    HW114831   4.711   3.655  12.510  2.7799 -0.4719  0.4627
 1123SOL    HW214832   4.631   3.576  12.408  1.1012  0.3461 -1.9552
 1124SOL     OW14833   2.907   3.047   2.576 -0.4760 -0.7846 -0.1025
 1124SOL    HW114834   2.826   2.998   2.562  0.6023 -2.0436 -2.0484
 1124SOL    HW214835   2.874   3.136   2.587 -0.0686 -0.3927 -1.9346
 1125SOL     OW14836   2.050   0.164  14.945  0.1439  0.2145 -0.0117
 1125SOL    HW114837   2.087   0.141  14.860  2.1315 -0.3835  1.0339
 1125SOL    HW214838   1.987   0.232  14.920 -1.2317 -0.5679  1.3262
 1126SOL     OW14839   3.738   0.203  10.561 -0.0849  0.1450  0.1824
 1126SOL    HW114840   3.670   0.268  10.578  1.5628  1.5872  1.2662
 1126SOL    HW214841   3.787   0.203  10.643  0.4231  0.6968 -0.1122
 1127SOL     OW14842   3.168   1.619  14.854 -0.2179  0.0020 -0.0274
 1127SOL    HW114843   3.182   1.595  14.762 -2.4568 -2.2279  0.2059
 1127SOL    HW214844   3.121   1.702  14.846  2.3174  1.4764  0.3445
 1128SOL     OW14845   2.873   2.783   3.668 -0.3673 -0.8315  0.0686
 1128SOL    HW114846   2.950   2.731   3.645  1.7735  2.7055 -0.7035
 1128SOL    HW214847   2.926   2.852   3.706 -1.0657 -0.2688  0.0334
 1129SOL     OW14848   2.006   2.617   7.566 -0.3305  0.1088  0.2846
 1129SOL    HW114849   1.962   2.634   7.650  1.0304 -0.7776  1.1890
 1129SOL    HW214850   1.998   2.699   7.518  0.2237 -0.8432 -1.4471
 1130SOL     OW14851   2.894   1.650   7.721 -0.2737  0.4172  0.3119
 1130SOL    HW114852   2.895   1.679   7.813  0.6534  3.8115 -0.7746
 1130SOL    HW214853   2.984   1.669   7.696  0.1974  0.3310  1.9271
 1131SOL     OW14854   4.675   3.836   7.892  0.0852 -0.3591 -0.2031
 1131SOL    HW114855   4.699   3.754   7.850  2.9906  1.2903 -1.7908
 1131SOL    HW214856   4.585   3.843   7.861  0.1816  1.9799  0.0395
 1132SOL     OW14857   2.129   2.070   6.046  0.0511  0.0708 -0.3589
 1132SOL    HW114858   2.170   2.153   6.022  1.5543 -1.2573 -2.4095
 1132SOL    HW214859   2.057   2.090   6.106 -0.2817 -2.1336 -0.0210
 1133SOL     OW14860   3.374   2.851   4.290 -0.1420  0.2679  0.0614
 1133SOL    HW114861   3.448   2.802   4.326 -1.9685 -1.6940  1.0885
 1133SOL    HW214862   3.399   2.942   4.309  0.0254  0.4571 -1.0183
 1134SOL     OW14863   2.448   2.884   7.660 -0.7406 -0.2308  0.2774
 1134SOL    HW114864   2.530   2.867   7.707 -0.9771  0.5566  0.9832
 1134SOL    HW214865   2.460   2.823   7.588 -0.6557  2.1412 -1.7148
 1135SOL     OW14866   2.221   0.845   5.646  0.0522  0.7461 -0.0875
 1135SOL    HW114867   2.231   0.933   5.611  4.4222  0.6041  0.8668
 1135SOL    HW214868   2.233   0.798   5.563 -0.2425  0.6200 -0.0611
 1136SOL     OW14869   1.503   0.331   1.010 -0.1227 -0.1385 -0.2136
 1136SOL    HW114870   1.501   0.363   0.920 -0.8280  2.1194  0.5919
 1136SOL    HW214871   1.560   0.393   1.056 -1.5836  2.2840 -1.6480
 1137SOL     OW14872   1.962   1.672   2.042  0.3866  0.0301  0.2321
 1137SOL    HW114873   1.883   1.706   2.084  0.7844  0.4993  0.5953
 1137SOL    HW214874   2.024   1.744   2.029  0.1034  0.1942 -0.2133
 1138SOL     OW14875   2.057   1.846   5.931  0.6851  0.4759  0.0193
 1138SOL    HW114876   2.015   1.889   5.856  0.2052  1.1651  0.6756
 1138SOL    HW214877   2.101   1.922   5.969  1.5500  1.2007 -2.4150
 1139SOL     OW14878   1.740   4.160  14.775 -0.2095  0.2305 -0.0680
 1139SOL    HW114879   1.704   4.126  14.694  0.7461  0.0448 -0.4132
 1139SOL    HW214880   1.816   4.105  14.794 -0.4401 -0.2732 -0.5960
 1140SOL     OW14881   1.880   4.310   2.897  0.4320  0.2943 -0.1506
 1140SOL    HW114882   1.821   4.383   2.876  1.3425  0.4846 -2.0609
 1140SOL    HW214883   1.970   4.343   2.895  1.5155 -2.7487 -1.1529
 1141SOL     OW14884   1.160   3.599   1.604 -0.3373 -0.2146 -0.6664
 1141SOL    HW114885   1.124   3.533   1.663  1.1915  1.3896  2.1209
 1141SOL    HW214886   1.251   3.567   1.607 -0.2256 -0.0175 -2.2516
 1142SOL     OW14887   1.503   2.936   7.404  0.0118  0.0805 -0.3774
 1142SOL    HW114888   1.413   2.963   7.382 -0.6497 -0.2500  1.9466
 1142SOL    HW214889   1.513   2.847   7.370 -0.3763 -0.1869  0.1967
 1143SOL     OW14890   1.047   0.453   0.727 -0.3771  0.0016 -0.4004
 1143SOL    HW114891   1.064   0.496   0.644  3.6163  0.5725  0.7043
 1143SOL    HW214892   1.119   0.492   0.777 -0.2221 -0.2526 -0.4276
 1144SOL     OW14893   0.155   1.831   4.420  0.7632  0.2459 -0.3521
 1144SOL    HW114894   0.085   1.869   4.367  0.8453  1.2212  0.2491
 1144SOL    HW214895   0.117   1.843   4.507 -2.6644 -0.6147 -1.6967
 1145SOL     OW14896   4.664   3.353  17.136  0.0017  0.7307  0.4339
 1145SOL    HW114897   4.636   3.304  17.059  0.5730 -1.6471  1.7453
 1145SOL    HW214898   4.585   3.343  17.190 -0.7701  0.4526 -0.7405
 1146SOL     OW14899   0.963   2.360   7.073  0.3996  0.1242  0.0145
 1146SOL    HW114900   0.898   2.328   7.136 -2.2971 -0.6482 -3.2036
 1146SOL    HW214901   0.998   2.436   7.119  3.4256 -0.8725 -0.6137
 1147SOL     OW14902   2.283   2.990   0.062 -0.0838  0.6052  0.5126
 1147SOL    HW114903   2.374   3.013   0.082  0.4808 -1.0784 -0.1165
 1147SOL    HW214904   2.280   2.895   0.076 -1.2693  0.8869  2.2548
 1148SOL     OW14905   2.554   0.423  12.349 -0.3314  0.2887 -0.0371
 1148SOL    HW114906   2.647   0.398  12.354 -0.9219 -1.2156  3.0561
 1148SOL    HW214907   2.574   0.516  12.344  0.3251  0.0565 -1.7668
 1149SOL     OW14908   1.732   3.254   5.146 -0.1114  0.3564  0.6078
 1149SOL    HW114909   1.727   3.305   5.065  0.0899  1.1014  1.0609
 1149SOL    HW214910   1.665   3.187   5.133  1.0658 -0.6363 -0.3063
 1150SOL     OW14911   1.504   0.475   4.162  0.0341 -0.5207  0.2353
 1150SOL    HW114912   1.447   0.404   4.191 -1.1741  0.0640 -0.6901
 1150SOL    HW214913   1.482   0.479   4.069 -3.1885 -1.0568  0.9703
 1151SOL     OW14914   2.469   1.210   8.619  0.0878 -0.3021  0.6138
 1151SOL    HW114915   2.415   1.135   8.643  0.1054 -1.5449 -3.2782
 1151SOL    HW214916   2.512   1.232   8.702  2.2733  0.1697 -0.6264
 1152SOL     OW14917   1.973   3.902   8.630  0.8792 -0.1226  0.1940
 1152SOL    HW114918   2.016   3.976   8.673  0.6015  0.8814 -1.2901
 1152SOL    HW214919   2.029   3.895   8.553 -0.8371  2.6790 -1.2979
 1153SOL     OW14920   1.796   4.482   3.347 -0.0379  0.3947  0.0295
 1153SOL    HW114921   1.758   4.394   3.349  1.0870 -0.1182 -1.2795
 1153SOL    HW214922   1.718   4.535   3.360  0.2712  0.8190  0.1465
 1154SOL     OW14923   0.260   4.469  13.272 -0.2527 -0.0492 -0.3247
 1154SOL    HW114924   0.246   4.427  13.357 -0.5010  0.4439 -0.1180
 1154SOL    HW214925   0.300   4.405  13.214 -0.8024 -0.6348 -0.0550
 1155SOL     OW14926   1.732   2.850   4.517  0.0129  0.5793  0.2214
 1155SOL    HW114927   1.757   2.772   4.567 -0.0886  0.7354  0.5160
 1155SOL    HW214928   1.807   2.855   4.457 -0.7066 -0.4533 -0.7547
 1156SOL     OW14929   2.399   1.405   2.877 -0.1935  0.2670 -0.3755
 1156SOL    HW114930   2.347   1.383   2.800 -0.1896 -0.1678 -0.2556
 1156SOL    HW214931   2.344   1.481   2.896  2.0186  2.1373 -1.5866
 1157SOL     OW14932   1.104   1.808   1.870 -0.3009 -0.4308  0.0332
 1157SOL    HW114933   1.100   1.904   1.876 -0.0026 -0.4084 -0.1021
 1157SOL    HW214934   1.015   1.776   1.858 -0.1579 -0.5354 -0.7100
 1158SOL     OW14935   1.148   2.282  11.334 -0.0391 -0.1233  0.0791
 1158SOL    HW114936   1.115   2.324  11.413 -0.5016  0.4819 -0.4389
 1158SOL    HW214937   1.067   2.276  11.284  0.7331  1.1738 -1.3200
 1159SOL     OW14938   0.925   2.039   6.560  0.2739 -0.2800  1.0719
 1159SOL    HW114939   0.969   2.001   6.636  1.5215 -1.0824 -0.0251
 1159SOL    HW214940   0.880   1.963   6.521  0.8361 -0.1136  0.0771
 1160SOL     OW14941   4.568   2.753   6.216 -0.7315  0.3494 -0.0855
 1160SOL    HW114942   4.540   2.836   6.178 -2.2638 -0.0242  0.2458
 1160SOL    HW214943   4.489   2.706   6.242 -1.8015  2.5217  0.5886
 1161SOL     OW14944   0.427   3.962   7.784  0.3920 -0.2992  0.3623
 1161SOL    HW114945   0.358   3.975   7.850  3.0675  0.9604  2.9093
 1161SOL    HW214946   0.462   4.051   7.784  0.5923 -0.3799  1.4902
 1162SOL     OW14947   1.313   2.419   7.850  0.5122  0.1421 -0.1274
 1162SOL    HW114948   1.256   2.400   7.925  0.1742  0.2867 -0.3484
 1162SOL    HW214949   1.258   2.420   7.772 -0.5286  0.1176  0.6148
 1163SOL     OW14950   1.212   4.670   2.395  0.7907 -0.9450  0.8614
 1163SOL    HW114951   1.256   0.030   2.409  0.4786 -0.4825 -0.9303
 1163SOL    HW214952   1.132   4.706   2.357  0.7749  0.7138  2.5126
 1164SOL     OW14953   4.175   3.203   8.594  0.3742 -0.3349  0.2186
 1164SOL    HW114954   4.108   3.223   8.529  1.1061  1.0174 -0.1276
 1164SOL    HW214955   4.165   3.110   8.613 -1.2950 -0.2953 -0.5300
 1165SOL     OW14956   4.705   3.319   6.670  0.2553  0.1254  0.0995
 1165SOL    HW114957   4.664   3.401   6.696 -1.0342 -1.8372  4.2114
 1165SOL    HW214958   4.633   3.269   6.631 -0.8935  1.5248  0.4363
 1166SOL     OW14959   0.384   4.034  10.208 -0.1758 -0.6780 -0.3459
 1166SOL    HW114960   0.345   3.955  10.247  0.3539 -2.3676 -3.2724
 1166SOL    HW214961   0.421   4.070  10.289  0.9178  1.3794 -1.7764
 1167SOL     OW14962   3.520   1.800   2.371  0.1458 -0.4251 -0.4506
 1167SOL    HW114963   3.548   1.861   2.303  0.3411  1.8282  1.6453
 1167SOL    HW214964   3.503   1.853   2.448  0.1276 -0.2221 -0.5946
 1168SOL     OW14965   1.546   0.790  10.512 -0.4920  0.0624  0.1895
 1168SOL    HW114966   1.495   0.861  10.475  0.1635  0.0582 -0.7290
 1168SOL    HW214967   1.631   0.834  10.510 -1.2447  1.5152  0.6825
 1169SOL     OW14968   2.588   0.740   1.383  0.1597  0.2745  0.0162
 1169SOL    HW114969   2.621   0.671   1.441  0.0434 -1.4670 -1.9944
 1169SOL    HW214970   2.601   0.818   1.436 -1.0415  0.1722  0.4722
 1170SOL     OW14971   0.997   2.831   4.479 -0.2039  0.5677  0.0902
 1170SOL    HW114972   1.085   2.830   4.440 -0.6622  1.8132 -0.9569
 1170SOL    HW214973   1.015   2.891   4.552 -1.8125 -0.8635  1.6583
 1171SOL     OW14974   0.156   1.372   6.771  0.9282  0.2852 -0.4393
 1171SOL    HW114975   0.068   1.361   6.735  0.2496  3.2627  0.2784
 1171SOL    HW214976   0.181   1.281   6.783  0.4206  0.0945 -0.8307
 1172SOL     OW14977   3.161   0.606   4.498 -0.0638 -0.0365 -0.1918
 1172SOL    HW114978   3.172   0.548   4.574 -0.0440  0.8791  0.5009
 1172SOL    HW214979   3.103   0.670   4.539 -1.7468 -0.7137 -1.4931
 1173SOL     OW14980   4.163   2.504   7.699 -0.1289 -0.5329 -0.0580
 1173SOL    HW114981   4.158   2.472   7.609 -1.7478 -0.0490 -0.1472
 1173SOL    HW214982   4.223   2.578   7.693 -0.1407 -0.6591 -1.8589
 1174SOL     OW14983   2.311   4.239   2.416 -0.0978  0.1108  0.3813
 1174SOL    HW114984   2.273   4.306   2.360  0.7631 -0.9962 -1.5211
 1174SOL    HW214985   2.401   4.272   2.417 -0.6221  1.5268  0.7098
 1175SOL     OW14986   4.075   3.786   5.369  0.3366  0.0199 -0.6226
 1175SOL    HW114987   4.046   3.824   5.452 -1.8743 -1.4815 -0.7138
 1175SOL    HW214988   4.045   3.698   5.391  0.0855  0.3651  0.4281
 1176SOL     OW14989   2.853   4.306   0.129 -0.5249 -0.4032 -0.1951
 1176SOL    HW114990   2.904   4.366   0.075  0.0990  0.8834  1.8191
 1176SOL    HW214991   2.775   4.357   0.148  0.3159  1.3091 -1.3174
 1177SOL     OW14992   3.753   0.166  17.401 -0.0603 -0.3177 -0.4728
 1177SOL    HW114993   3.773   0.254  17.432 -0.8170  0.1590 -1.3285
 1177SOL    HW214994   3.726   0.189  17.313 -0.8924  0.4591 -0.0128
 1178SOL     OW14995   2.889   2.593   8.623 -0.3546 -0.2212 -0.2857
 1178SOL    HW114996   2.956   2.525   8.619 -0.1821 -0.1046  0.8288
 1178SOL    HW214997   2.910   2.633   8.538 -0.2229  1.0579  0.3546
 1179SOL     OW14998   1.483   0.578   7.177 -0.0200 -0.0778  0.1892
 1179SOL    HW114999   1.528   0.500   7.210 -1.8376 -0.0247  2.8205
 1179SOL    HW215000   1.528   0.646   7.228 -0.1882  2.0273 -2.4690
 1180SOL     OW15001   3.673   4.485   7.446 -0.2146  0.7495  0.4707
 1180SOL    HW115002   3.606   4.533   7.398 -3.6973 -0.9964  3.5212
 1180SOL    HW215003   3.714   4.434   7.376 -1.7613  0.0871  0.0537
 1181SOL     OW15004   3.111   3.317   4.619 -0.0103 -0.1950 -0.1504
 1181SOL    HW115005   3.044   3.287   4.557 -0.6398  2.4262 -0.7643
 1181SOL    HW215006   3.163   3.238   4.630 -1.9398 -1.4840 -0.1992
 1182SOL     OW15007   0.468   1.292   1.871  0.8846 -0.5426 -0.1208
 1182SOL    HW115008   0.464   1.258   1.782  0.4292  0.9541 -0.6857
 1182SOL    HW215009   0.436   1.382   1.862 -2.2153 -1.3964  2.2189
 1183SOL     OW15010   4.364   3.695   7.161 -0.0297  0.6921 -0.0025
 1183SOL    HW115011   4.360   3.789   7.173  0.1378  0.5623  1.0429
 1183SOL    HW215012   4.273   3.664   7.150 -0.1696  0.2879  2.1703
 1184SOL     OW15013   3.465   2.279  11.023  0.2295 -0.1163 -0.3509
 1184SOL    HW115014   3.401   2.320  11.081  0.1328 -1.0863  0.2288
 1184SOL    HW215015   3.425   2.195  11.003  0.1114 -0.3098  0.7014
 1185SOL     OW15016   1.047   0.549  14.704  0.2540  0.0501  0.5198
 1185SOL    HW115017   1.057   0.497  14.624 -1.5493 -0.0810  0.3911
 1185SOL    HW215018   0.953   0.536  14.711  0.2426  0.4765  1.0951
 1186SOL     OW15019   3.308   0.708  16.028  0.0451  0.5845  0.1377
 1186SOL    HW115020   3.378   0.745  16.082 -0.1728  0.1886  0.6880
 1186SOL    HW215021   3.359   0.693  15.948 -1.7981  0.7478 -1.0597
 1187SOL     OW15022   0.838   4.378   8.874  0.4306 -0.0498 -1.0296
 1187SOL    HW115023   0.907   4.371   8.941 -0.3515  0.9719 -0.1071
 1187SOL    HW215024   0.830   4.288   8.842 -0.6723 -0.4529  0.3940
 1188SOL     OW15025   3.465   2.635   6.742  0.4815  0.0662 -0.2032
 1188SOL    HW115026   3.388   2.675   6.782  0.8967 -1.1103  1.7441
 1188SOL    HW215027   3.540   2.667   6.793 -0.4305  0.1034  1.0872
 1189SOL     OW15028   0.471   3.850  17.282 -0.0846 -0.1007 -0.3296
 1189SOL    HW115029   0.509   3.901  17.210 -1.7658  1.8985  0.2144
 1189SOL    HW215030   0.445   3.773  17.232  0.3735 -0.1507 -0.4897
 1190SOL     OW15031   2.479   0.479  10.730  0.2631  0.2896  0.4762
 1190SOL    HW115032   2.538   0.414  10.767 -0.0195  0.5996  1.4709
 1190SOL    HW215033   2.412   0.422  10.694 -0.4739  0.1358  2.1227
 1191SOL     OW15034   0.311   2.047   7.480  0.0892  0.0166 -0.2425
 1191SOL    HW115035   0.396   2.033   7.439  0.2924  2.7466 -0.7086
 1191SOL    HW215036   0.291   2.133   7.443  1.4463 -0.2526 -1.6238
 1192SOL     OW15037   3.506   0.259  13.119  0.6517 -0.1576  0.2173
 1192SOL    HW115038   3.438   0.325  13.106 -0.7590 -1.9049 -1.3127
 1192SOL    HW215039   3.466   0.230  13.201  0.3974  1.6019  0.7105
 1193SOL     OW15040   4.130   2.797   3.568  0.4466 -0.2535 -0.1655
 1193SOL    HW115041   4.197   2.821   3.504  0.0657  0.4554 -0.2962
 1193SOL    HW215042   4.061   2.853   3.533  0.6977  1.2342  1.7197
 1194SOL     OW15043   2.930   1.669   1.743 -0.0843  0.7141 -0.5447
 1194SOL    HW115044   2.958   1.582   1.771 -0.8068  0.5826 -0.2114
 1194SOL    HW215045   2.965   1.680   1.655  0.1659 -0.3650 -0.5772
 1195SOL     OW15046   4.010   4.471   4.047 -0.1140  0.0182  0.5916
 1195SOL    HW115047   4.036   4.479   3.955 -1.9952 -0.3674  0.0047
 1195SOL    HW215048   4.049   4.547   4.090 -0.3257  0.5903 -0.2289
 1196SOL     OW15049   3.201   0.961   1.683 -0.2209  0.0475 -0.4151
 1196SOL    HW115050   3.122   0.925   1.725 -0.9062  1.3082 -0.6254
 1196SOL    HW215051   3.243   0.877   1.663 -1.3795 -1.1226  1.9474
 1197SOL     OW15052   3.635   4.080   3.659  0.0428 -0.0485  0.3519
 1197SOL    HW115053   3.550   4.050   3.691 -0.2306  1.5077  1.1060
 1197SOL    HW215054   3.605   4.108   3.573 -0.2953 -0.3005  0.3879
 1198SOL     OW15055   1.011   3.633   6.058  0.8350 -0.3708  0.1356
 1198SOL    HW115056   1.074   3.625   5.986 -0.1413 -0.7861 -0.6795
 1198SOL    HW215057   1.053   3.705   6.104 -1.7981  0.5646  1.1035
 1199SOL     OW15058   3.788   2.882   5.171  0.3657 -0.0304 -0.0042
 1199SOL    HW115059   3.827   2.838   5.096 -2.0451  1.8875 -2.3869
 1199SOL    HW215060   3.702   2.842   5.162 -0.0882  0.8647  0.3379
 1200SOL     OW15061   3.745   0.139   7.717  0.2663 -0.3843 -0.1208
 1200SOL    HW115062   3.756   0.232   7.695 -0.0972  0.1256  1.8334
 1200SOL    HW215063   3.707   0.109   7.635 -0.5289  2.4239 -0.7907
 1201SOL     OW15064   2.109   0.721   8.592  0.1014  0.2454 -0.5287
 1201SOL    HW115065   2.164   0.660   8.543  0.8592  1.4073 -1.1368
 1201SOL    HW215066   2.027   0.675   8.611 -0.9872  2.1520 -0.5596
 1202SOL     OW15067   2.131   3.552   3.429  0.1557 -0.8756  0.2362
 1202SOL    HW115068   2.175   3.487   3.373  4.7159  3.7284 -1.5536
 1202SOL    HW215069   2.075   3.493   3.480  1.0943  1.5750  4.0722
 1203SOL     OW15070   3.482   4.074   3.151 -0.0913 -0.0453 -0.2102
 1203SOL    HW115071   3.460   4.100   3.240  1.1097  0.9747 -0.2190
 1203SOL    HW215072   3.403   4.023   3.137  0.4186 -0.3027 -2.1343
 1204SOL     OW15073   4.480   1.704   6.236 -0.0371 -0.3544  0.1763
 1204SOL    HW115074   4.493   1.793   6.202 -0.6956  0.5307  2.2507
 1204SOL    HW215075   4.554   1.667   6.187  1.2851  1.2591  0.9291
 1205SOL     OW15076   3.354   2.718   4.574 -0.0554  0.3688 -0.7163
 1205SOL    HW115077   3.343   2.698   4.667  1.7941  2.1895 -0.0919
 1205SOL    HW215078   3.435   2.769   4.578  0.9071 -1.0436 -2.0365
 1206SOL     OW15079   3.161   1.709   7.501 -0.2847 -0.4220 -0.2301
 1206SOL    HW115080   3.152   1.780   7.437  2.0313  0.1340  0.0617
 1206SOL    HW215081   3.115   1.643   7.448 -0.1996 -0.8122  0.1776
 1207SOL     OW15082   1.465   2.053   1.295  0.4386 -0.2117  0.2322
 1207SOL    HW115083   1.556   2.052   1.265 -0.0378 -2.4562 -1.1041
 1207SOL    HW215084   1.463   1.983   1.360  1.9261 -0.7030 -0.2412
 1208SOL     OW15085   0.274   1.542   6.584 -0.0104  0.1009  0.5794
 1208SOL    HW115086   0.217   1.489   6.639 -2.4510 -0.3358 -2.3712
 1208SOL    HW215087   0.210   1.610   6.560  0.5359  0.3308 -0.2330
 1209SOL     OW15088   3.844   0.958   6.697  0.4550  0.0692 -0.2639
 1209SOL    HW115089   3.765   1.013   6.696 -0.7754 -1.7095 -0.4496
 1209SOL    HW215090   3.820   0.899   6.769  1.6180 -0.7462 -0.5530
 1210SOL     OW15091   3.740   2.608   4.074 -0.2517  0.4265 -0.1420
 1210SOL    HW115092   3.753   2.566   3.989  2.8162  2.0197 -0.4482
 1210SOL    HW215093   3.803   2.679   4.074  0.5611 -0.2950 -2.5920
 1211SOL     OW15094   2.291   1.198   5.749 -0.4645  0.0798 -0.3437
 1211SOL    HW115095   2.304   1.157   5.664  0.3855  0.6442 -0.4956
 1211SOL    HW215096   2.217   1.252   5.721 -0.9526 -0.3522  0.0974
 1212SOL     OW15097   3.383   2.155   1.787 -0.7905  0.2097 -0.2971
 1212SOL    HW115098   3.407   2.246   1.767  0.4022 -0.6571 -2.7747
 1212SOL    HW215099   3.466   2.119   1.817 -0.2253  0.5681 -1.4153
 1213SOL     OW15100   0.477   1.369   6.568 -0.4927  0.3434 -0.5103
 1213SOL    HW115101   0.525   1.364   6.651 -1.2217 -0.8089 -0.1592
 1213SOL    HW215102   0.400   1.418   6.597 -1.5562 -1.0001 -1.0932
 1214SOL     OW15103   4.456   4.111  15.301 -0.6108  0.6456 -0.3841
 1214SOL    HW115104   4.536   4.057  15.307 -1.7443 -1.2886 -2.4879
 1214SOL    HW215105   4.407   4.046  15.251 -3.2341  1.5620  1.0523
 1215SOL     OW15106   1.560   0.534  11.405 -0.1451  0.2910 -0.0574
 1215SOL    HW115107   1.655   0.544  11.395  0.1926 -2.6152  0.2851
 1215SOL    HW215108   1.535   0.613  11.357 -2.0398 -0.7640 -0.8076
 1216SOL     OW15109   1.185   1.926   3.433 -0.3977 -0.2309  0.8246
 1216SOL    HW115110   1.168   1.905   3.525  1.8226 -3.3832  0.5138
 1216SOL    HW215111   1.180   1.838   3.396 -0.9429 -0.1574  0.7250
 1217SOL     OW15112   4.277   4.028  16.452 -0.4754 -0.8247  0.4209
 1217SOL    HW115113   4.257   4.095  16.387  0.2137  0.2042  1.2642
 1217SOL    HW215114   4.230   4.064  16.527  0.0291 -1.5843  1.1094
 1218SOL     OW15115   2.450   1.814   7.730 -0.0729  0.0083 -0.1345
 1218SOL    HW115116   2.486   1.773   7.651  1.7964  0.4342  0.4822
 1218SOL    HW215117   2.374   1.857   7.691 -1.0792 -1.8573 -0.2243
 1219SOL     OW15118   3.711   3.718  11.326  0.2894 -0.2393  0.1057
 1219SOL    HW115119   3.753   3.654  11.268 -1.9758  0.2735 -2.0997
 1219SOL    HW215120   3.678   3.656  11.391 -0.3051  0.9827  0.9766
 1220SOL     OW15121   4.538   0.131  16.575 -0.1273  0.2945 -0.4358
 1220SOL    HW115122   4.594   0.063  16.537  1.8941  0.5164  2.1697
 1220SOL    HW215123   4.480   0.085  16.636  0.9658  1.2208  1.2873
 1221SOL     OW15124   2.781   3.162   5.996 -0.0576 -0.7973 -0.5066
 1221SOL    HW115125   2.725   3.238   6.006 -1.0475 -1.5179 -0.5341
 1221SOL    HW215126   2.725   3.088   6.021 -1.3245  0.3105 -0.0862
 1222SOL     OW15127   4.170   0.162  12.027 -0.0690  0.7328  0.2036
 1222SOL    HW115128   4.092   0.137  11.978  2.9229 -2.8113 -2.7328
 1222SOL    HW215129   4.233   0.096  11.996 -0.6177 -0.3490  1.3809
 1223SOL     OW15130   0.407   1.086  13.760  0.2435  0.3555  0.3404
 1223SOL    HW115131   0.322   1.046  13.777  0.4707 -0.0053  0.6234
 1223SOL    HW215132   0.381   1.116  13.673 -0.7625  0.8815  0.8195
 1224SOL     OW15133   2.944   0.314  16.590 -0.2827  0.4985  0.3096
 1224SOL    HW115134   2.978   0.390  16.637  0.0846 -0.4392  1.5500
 1224SOL    HW215135   2.854   0.314  16.624  0.2951 -1.5277  1.8134
 1225SOL     OW15136   3.490   1.120  12.493 -0.1972 -0.5159 -0.2145
 1225SOL    HW115137   3.439   1.080  12.422 -1.6359 -1.8180  1.5455
 1225SOL    HW215138   3.577   1.139  12.457 -0.3359 -2.3525 -1.5311
 1226SOL     OW15139   3.181   2.233  12.353  0.1146  0.0479 -0.1398
 1226SOL    HW115140   3.178   2.255  12.446 -2.8169 -0.6521 -0.0696
 1226SOL    HW215141   3.178   2.320  12.315 -0.6439 -0.4219 -1.1564
 1227SOL     OW15142   1.161   0.660  13.569  0.1490 -0.6247  0.1341
 1227SOL    HW115143   1.175   0.584  13.513  0.4064  0.0326 -0.6909
 1227SOL    HW215144   1.233   0.712  13.535 -0.6746  0.1936 -0.3562
 1228SOL     OW15145   1.437   0.681  16.189 -0.0979  0.0295  0.2276
 1228SOL    HW115146   1.426   0.692  16.283 -0.0373  1.3002  0.0802
 1228SOL    HW215147   1.351   0.714  16.164  0.6669  1.7292 -0.1824
 1229SOL     OW15148   4.339   0.409   5.733 -0.2873  0.1226  0.1671
 1229SOL    HW115149   4.341   0.448   5.821  0.8432  2.1655 -0.7508
 1229SOL    HW215150   4.319   0.486   5.681 -0.5667  1.7497  2.6607
 1230SOL     OW15151   0.766   4.099   6.260  0.0920  0.2843 -0.0124
 1230SOL    HW115152   0.849   4.139   6.283  0.3454 -0.4085  0.2905
 1230SOL    HW215153   0.744   4.153   6.184  0.5549 -1.9820 -1.7565
 1231SOL     OW15154   2.231   1.240   7.317  0.5669 -0.1135  0.2531
 1231SOL    HW115155   2.277   1.284   7.389 -0.7821 -0.0840  1.0989
 1231SOL    HW215156   2.166   1.305   7.290  2.5778  1.5771 -0.5281
 1232SOL     OW15157   2.658   0.317   4.419  0.5810  0.4499 -0.4212
 1232SOL    HW115158   2.702   0.358   4.344  2.2433  0.2026  0.4164
 1232SOL    HW215159   2.649   0.387   4.483 -1.2709  0.8271 -1.0980
 1233SOL     OW15160   3.944   1.355   3.271  0.3497 -0.3176  0.2843
 1233SOL    HW115161   4.032   1.323   3.252  0.1571  0.4427 -1.9043
 1233SOL    HW215162   3.891   1.295   3.219 -0.0372 -1.5327  2.0585
 1234SOL     OW15163   1.311   3.943   3.425  0.2155  0.1190 -0.1307
 1234SOL    HW115164   1.335   3.868   3.372  2.4144  0.7573 -0.0298
 1234SOL    HW215165   1.247   3.986   3.368 -0.6873 -0.6069  0.3390
 1235SOL     OW15166   0.449   3.012   9.163 -0.0882  0.0039  0.0529
 1235SOL    HW115167   0.357   3.037   9.177  0.0424 -0.4518  1.7798
 1235SOL    HW215168   0.445   2.919   9.142 -0.6715  0.1488 -0.4966
 1236SOL     OW15169   1.612   0.550  15.077 -0.2227  0.3940  0.3954
 1236SOL    HW115170   1.683   0.588  15.024  0.3841 -0.2159  0.7768
 1236SOL    HW215171   1.541   0.594  15.031 -0.8940  0.1517  1.2079
 1237SOL     OW15172   0.498   0.102   4.309 -0.6014  0.4074 -0.8550
 1237SOL    HW115173   0.417   0.151   4.315  0.8384  2.4063  1.9889
 1237SOL    HW215174   0.496   0.084   4.215 -1.0113  0.3022 -0.8251
 1238SOL     OW15175   1.218   3.986   6.381 -0.0581 -0.1292  0.6626
 1238SOL    HW115176   1.228   3.928   6.457  0.7990  0.5760  1.0875
 1238SOL    HW215177   1.303   4.029   6.374  0.4954 -1.1805  0.9853
 1239SOL     OW15178   0.910   3.435  11.033  0.4594 -0.7132  0.6921
 1239SOL    HW115179   0.871   3.513  11.072  0.6730  0.2011 -0.9136
 1239SOL    HW215180   0.837   3.375  11.051 -1.3283  1.2946  0.0821
 1240SOL     OW15181   1.426   3.699  14.204 -0.8585 -0.5819 -0.2713
 1240SOL    HW115182   1.378   3.683  14.123 -0.8066  3.3279 -1.0884
 1240SOL    HW215183   1.501   3.640  14.197 -1.5041 -1.6652  1.8847
 1241SOL     OW15184   1.356   0.271  10.518 -0.1276  0.0973  0.4843
 1241SOL    HW115185   1.292   0.255  10.448  2.1486 -4.0411 -0.6810
 1241SOL    HW215186   1.434   0.296  10.469 -0.4984 -0.0800 -0.1980
 1242SOL     OW15187   2.086   3.454   5.525  0.5393  0.7342  0.3187
 1242SOL    HW115188   2.074   3.545   5.499 -1.2038  0.5705  0.5086
 1242SOL    HW215189   1.997   3.430   5.550  0.1149 -0.5291 -2.4326
 1243SOL     OW15190   0.597   3.581   1.700 -0.1596  0.0713 -0.1496
 1243SOL    HW115191   0.647   3.648   1.652  2.6373 -2.0187 -0.1496
 1243SOL    HW215192   0.510   3.618   1.685  0.4473  1.6089  0.1637
 1244SOL     OW15193   2.639   3.653   7.938  0.4948  0.3463 -0.0415
 1244SOL    HW115194   2.691   3.645   7.858  1.2070  0.5448  0.4066
 1244SOL    HW215195   2.641   3.562   7.969 -1.0548 -0.5405 -2.4961
 1245SOL     OW15196   3.747   3.898   7.274  0.3648  1.0706 -0.0651
 1245SOL    HW115197   3.690   3.946   7.334 -1.7126 -0.7483 -0.5899
 1245SOL    HW215198   3.826   3.947   7.295  0.3224  0.4187  1.5910
 1246SOL     OW15199   2.988   1.775   5.416  0.2370 -0.6352  0.6341
 1246SOL    HW115200   2.982   1.867   5.441  0.0825 -0.5728  0.3728
 1246SOL    HW215201   2.895   1.755   5.405 -0.6871  3.9876  0.1699
 1247SOL     OW15202   0.575   1.021   4.112  0.1128  0.2844  0.0643
 1247SOL    HW115203   0.522   1.064   4.045 -0.8016 -0.0507  0.5677
 1247SOL    HW215204   0.565   1.077   4.190 -1.1867  1.0203 -0.6185
 1248SOL     OW15205   1.623   1.561   4.843  0.6275  0.5127 -0.0515
 1248SOL    HW115206   1.637   1.468   4.861 -1.4566  0.0723 -0.6302
 1248SOL    HW215207   1.712   1.595   4.836  0.6898  0.6557  1.3231
 1249SOL     OW15208   2.198   1.106   0.841 -0.3194 -0.1648 -0.4705
 1249SOL    HW115209   2.195   1.105   0.937 -1.0930 -0.4329 -0.4961
 1249SOL    HW215210   2.190   1.200   0.824  2.2229  0.1315 -0.1059
 1250SOL     OW15211   0.491   2.139   9.679 -0.3337 -0.0997 -0.2023
 1250SOL    HW115212   0.540   2.145   9.597  2.5941  0.8905  1.6372
 1250SOL    HW215213   0.419   2.081   9.654 -1.5698  2.0148 -1.5367
 1251SOL     OW15214   1.527   0.162  12.850  0.2165 -0.3949 -0.7732
 1251SOL    HW115215   1.459   0.229  12.846  0.6778  0.0517 -1.2449
 1251SOL    HW215216   1.571   0.155  12.765  1.4935 -0.2173 -0.1239
 1252SOL     OW15217   1.694   1.166   7.473 -0.1031  0.2944 -0.3391
 1252SOL    HW115218   1.739   1.087   7.503  0.0550  0.7027  0.4935
 1252SOL    HW215219   1.628   1.182   7.540 -0.7847 -1.7527 -0.5113
 1253SOL     OW15220   0.030   4.139  11.740 -0.0128  0.5402  0.2542
 1253SOL    HW115221   0.124   4.126  11.749  0.0538  0.7865 -0.0796
 1253SOL    HW215222   0.015   4.129  11.646  1.1258  1.5408 -0.0360
 1254SOL     OW15223   1.434   4.282   2.057 -0.2316  0.2718 -0.3229
 1254SOL    HW115224   1.402   4.370   2.038  2.7841  1.8954  2.1567
 1254SOL    HW215225   1.360   4.226   2.083 -1.3958  2.1455  0.4178
 1255SOL     OW15226   3.869   3.361   0.659 -0.0864  0.0509  0.6181
 1255SOL    HW115227   3.902   3.443   0.625 -1.5006  0.5805  0.5054
 1255SOL    HW215228   3.869   3.308   0.579 -0.1945 -1.4677  1.6115
 1256SOL     OW15229   2.398   4.078  12.709  0.2894 -0.1469 -0.0672
 1256SOL    HW115230   2.363   3.998  12.749 -2.0491  0.9920  0.1203
 1256SOL    HW215231   2.357   4.072  12.622 -0.8095 -1.1579  0.5278
 1257SOL     OW15232   3.437   4.357  14.076  0.3009  0.3035  0.2347
 1257SOL    HW115233   3.433   4.429  14.014 -1.8776  0.6187  0.7556
 1257SOL    HW215234   3.364   4.301  14.050  0.1980  1.0441 -1.0717
 1258SOL     OW15235   3.227   0.487  14.054 -0.1572  0.4178  0.3234
 1258SOL    HW115236   3.315   0.525  14.053  0.2008 -0.3861  1.8808
 1258SOL    HW215237   3.242   0.409  14.002  0.2488  0.1100  0.8994
 1259SOL     OW15238   1.384   0.593   6.721 -0.3297  0.1154  0.8132
 1259SOL    HW115239   1.439   0.665   6.690 -2.4477  0.9105 -1.0980
 1259SOL    HW215240   1.311   0.651   6.744 -0.4264  1.1354 -2.0874
 1260SOL     OW15241   3.933   2.490   2.653 -0.0452 -0.1847  0.2640
 1260SOL    HW115242   3.854   2.503   2.600 -0.4113  0.4420  0.9682
 1260SOL    HW215243   3.971   2.412   2.612 -0.1922 -1.2241  2.1079
 1261SOL     OW15244   3.721   0.735   1.555 -0.1042  0.0010  0.1612
 1261SOL    HW115245   3.691   0.792   1.483 -0.4683 -3.1315 -2.1753
 1261SOL    HW215246   3.762   0.663   1.507  1.1671  0.0732  1.1763
 1262SOL     OW15247   4.215   3.106   6.740 -0.3595 -0.1472 -0.5034
 1262SOL    HW115248   4.161   3.053   6.681  0.0459  0.3700 -1.3443
 1262SOL    HW215249   4.154   3.171   6.775 -0.2414  0.8436 -2.1467
 1263SOL     OW15250   2.193   1.746   2.498 -0.4565  0.0220  0.3705
 1263SOL    HW115251   2.253   1.815   2.471  0.4741 -0.3601  1.4806
 1263SOL    HW215252   2.179   1.700   2.415 -0.3139 -0.6707  0.7333
 1264SOL     OW15253   2.593   0.355   6.274  0.1223 -0.2930 -0.5453
 1264SOL    HW115254   2.598   0.315   6.361 -0.4980 -1.5499 -1.0802
 1264SOL    HW215255   2.680   0.340   6.239  0.4868  1.3667 -0.3376
 1265SOL     OW15256   0.974   3.431   7.087  0.4011 -0.2423 -0.2884
 1265SOL    HW115257   0.883   3.401   7.089 -0.2173  1.6330 -0.0500
 1265SOL    HW215258   0.978   3.480   7.169 -0.5258 -0.0038 -0.3893
 1266SOL     OW15259   3.297   4.706   8.456 -0.0110 -0.7151 -0.4392
 1266SOL    HW115260   3.237   4.690   8.529 -0.9616  1.7776 -0.6607
 1266SOL    HW215261   3.353   0.037   8.511  0.2820 -0.2309 -1.2046
 1267SOL     OW15262   3.639   0.953  15.480  0.6551  0.5523  0.5014
 1267SOL    HW115263   3.624   1.002  15.561  0.3214 -0.0044  0.7769
 1267SOL    HW215264   3.601   1.009  15.412 -0.2357  0.1354  0.6630
 1268SOL     OW15265   3.239   1.708   1.746  0.1905  0.2805 -0.3508
 1268SOL    HW115266   3.317   1.666   1.709  1.0510  1.8966 -0.3972
 1268SOL    HW215267   3.246   1.686   1.839 -1.3126  2.9854  0.3927
 1269SOL     OW15268   3.074   0.774   3.813 -0.5144 -0.3800  0.3091
 1269SOL    HW115269   3.100   0.793   3.723 -2.3217  1.1647  0.0979
 1269SOL    HW215270   3.014   0.700   3.804 -1.7916  0.9232 -1.9013
 1270SOL     OW15271   4.228   2.020   2.671 -0.0413  0.6733  0.3035
 1270SOL    HW115272   4.208   2.031   2.578 -0.5374  0.3749  0.3747
 1270SOL    HW215273   4.146   2.033   2.720 -0.0601 -0.1018  0.4840
 1271SOL     OW15274   3.990   1.975  16.016  0.2411 -0.2072 -0.1560
 1271SOL    HW115275   3.996   2.016  15.930 -1.0134  2.6687  1.1014
 1271SOL    HW215276   3.899   1.946  16.004  0.6138 -1.7550  0.7608
 1272SOL     OW15277   3.973   4.133   7.557  0.9817  0.6952 -0.5134
 1272SOL    HW115278   3.939   4.084   7.632 -0.4997  0.4495 -1.3456
 1272SOL    HW215279   4.044   4.184   7.595  0.6831  0.9706 -0.3206
 1273SOL     OW15280   1.403   2.308   6.840 -0.3081  0.1219 -0.1807
 1273SOL    HW115281   1.437   2.222   6.814 -0.8471  0.1493 -0.9678
 1273SOL    HW215282   1.466   2.360   6.790 -0.2628  0.3829  0.1493
 1274SOL     OW15283   2.098   1.562   5.889  0.0961  0.8403  0.0132
 1274SOL    HW115284   2.164   1.570   5.957  0.2323 -0.0322 -0.0214
 1274SOL    HW215285   2.069   1.653   5.883 -1.4581  0.3503  0.1567
 1275SOL     OW15286   0.396   0.943   0.852 -0.0249  0.2146  0.1919
 1275SOL    HW115287   0.449   1.005   0.802  3.0367 -2.0359  0.6487
 1275SOL    HW215288   0.313   0.955   0.806 -0.0073 -3.0649 -0.7213
 1276SOL     OW15289   1.536   2.763  13.139  0.3440  0.0619 -0.0907
 1276SOL    HW115290   1.581   2.837  13.098 -0.3814 -0.4103 -1.7576
 1276SOL    HW215291   1.606   2.698  13.133  0.8206  0.5760 -0.1444
 1277SOL     OW15292   1.891   4.634   5.889  0.4272 -0.3940 -0.2857
 1277SOL    HW115293   1.965   4.591   5.932 -0.0709 -0.8171  0.1496
 1277SOL    HW215294   1.869   4.702   5.953  0.9005  0.6291 -1.2120
 1278SOL     OW15295   1.106   2.537  10.039  0.1755 -0.4619 -0.1324
 1278SOL    HW115296   1.016   2.527  10.008  0.4190 -2.2918 -0.2308
 1278SOL    HW215297   1.099   2.629  10.066 -1.5223 -0.3054 -1.1334
 1279SOL     OW15298   2.713   4.235   3.238 -0.0103  0.2133  0.1383
 1279SOL    HW115299   2.724   4.239   3.143  0.8192  1.0414  0.2738
 1279SOL    HW215300   2.797   4.271   3.267  0.2213 -0.3753  0.2021
 1280SOL     OW15301   1.073   4.037   4.041  0.0877  0.2171 -0.3046
 1280SOL    HW115302   1.100   4.095   4.112  1.0292 -1.6509  0.8760
 1280SOL    HW215303   1.082   4.083   3.958 -0.9063  1.4857  0.2854
 1281SOL     OW15304   0.358   2.883   6.067  0.1226  0.2275  0.1328
 1281SOL    HW115305   0.264   2.894   6.055  0.1571  0.7767  0.3658
 1281SOL    HW215306   0.363   2.873   6.162  0.4251 -0.9104 -0.0014
 1282SOL     OW15307   2.914   0.840  11.417 -0.1469  0.0441 -0.1294
 1282SOL    HW115308   2.949   0.837  11.506  1.8174 -0.3108 -0.9390
 1282SOL    HW215309   2.837   0.897  11.425 -1.7406 -2.2064  0.6700
 1283SOL     OW15310   4.268   1.162   1.968 -0.0704  0.4741 -0.6045
 1283SOL    HW115311   4.341   1.163   2.029 -1.7263 -1.9659  1.4105
 1283SOL    HW215312   4.245   1.069   1.967 -0.2664  0.5009  1.3020
 1284SOL     OW15313   2.613   2.497  13.970  0.1322 -0.1103  0.1580
 1284SOL    HW115314   2.661   2.482  13.889 -1.3191  1.6283 -1.0218
 1284SOL    HW215315   2.650   2.434  14.032 -1.5364 -1.0133  0.2138
 1285SOL     OW15316   2.222   1.930   2.742  0.0437  0.4795 -0.1585
 1285SOL    HW115317   2.171   1.854   2.712  1.2485  0.5799 -2.5217
 1285SOL    HW215318   2.310   1.892   2.736 -0.4238 -0.6403 -0.0335
 1286SOL     OW15319   4.191   3.849  16.686 -0.5983 -0.3918  0.1105
 1286SOL    HW115320   4.115   3.872  16.633  0.7322  0.0077 -1.6323
 1286SOL    HW215321   4.160   3.771  16.732 -0.1066 -0.1618  0.8214
 1287SOL     OW15322   3.370   2.370   4.835 -0.1511 -0.0175 -0.3658
 1287SOL    HW115323   3.390   2.462   4.854 -1.0485  0.3272 -1.1118
 1287SOL    HW215324   3.398   2.330   4.917 -2.3747 -2.9252 -1.0350
 1288SOL     OW15325   1.509   2.283   0.351  0.2171 -0.1938 -0.3766
 1288SOL    HW115326   1.536   2.339   0.423 -2.8817  3.3573 -1.9434
 1288SOL    HW215327   1.562   2.327   0.284  1.5491 -1.8389 -0.4048
 1289SOL     OW15328   1.213   4.702   6.351 -0.3945 -0.2552  0.8544
 1289SOL    HW115329   1.188   4.656   6.271 -0.9132  0.8278  0.3968
 1289SOL    HW215330   1.296   4.654   6.359  0.1664  0.6308  0.3261
 1290SOL     OW15331   3.877   2.042   3.374 -0.7547 -0.1084 -0.3116
 1290SOL    HW115332   3.879   2.045   3.279 -3.5943 -3.0248 -0.4562
 1290SOL    HW215333   3.898   2.133   3.396 -0.4768 -0.5201  1.1464
 1291SOL     OW15334   0.682   0.163  11.377  0.3392 -0.0426  0.8211
 1291SOL    HW115335   0.632   0.093  11.420  0.1190 -0.7986 -0.6804
 1291SOL    HW215336   0.630   0.239  11.404  1.6857  0.9641  0.5646
 1292SOL     OW15337   1.346   4.330   9.113  0.1718  0.2434  0.5073
 1292SOL    HW115338   1.418   4.300   9.057 -0.8783 -0.1995 -0.6295
 1292SOL    HW215339   1.379   4.416   9.137 -1.3301  1.7555 -2.9138
 1293SOL     OW15340   1.714   1.860   8.502 -1.0302 -0.1447  0.4974
 1293SOL    HW115341   1.771   1.869   8.425 -1.7935 -2.1821 -0.2982
 1293SOL    HW215342   1.772   1.869   8.578 -0.8957 -0.1474  0.3966
 1294SOL     OW15343   2.267   4.651   3.518  0.0513  0.2218  0.2506
 1294SOL    HW115344   2.204   4.585   3.488  0.2254 -0.7014  1.8882
 1294SOL    HW215345   2.285   4.700   3.438 -1.0969  0.8854  0.4034
 1295SOL     OW15346   3.826   1.899  15.624  0.2598  0.0845 -0.4948
 1295SOL    HW115347   3.837   1.893  15.529 -0.9063  0.0719 -0.6292
 1295SOL    HW215348   3.860   1.813  15.650 -1.2277 -0.6898 -1.1053
 1296SOL     OW15349   1.765   2.286   1.614 -0.3180 -0.4084  0.5051
 1296SOL    HW115350   1.818   2.212   1.646 -1.1584 -0.9422  0.6511
 1296SOL    HW215351   1.684   2.244   1.587  1.1364 -2.6895 -0.3588
 1297SOL     OW15352   1.129   0.189   3.890  0.4632 -0.1705  0.2276
 1297SOL    HW115353   1.184   0.122   3.931 -1.7589 -0.7485  2.2309
 1297SOL    HW215354   1.191   0.259   3.913  0.4062 -0.0461  0.0010
 1298SOL     OW15355   1.581   2.454   9.507  0.6960  0.7456 -0.6750
 1298SOL    HW115356   1.623   2.541   9.505 -1.8264  1.9712  0.2940
 1298SOL    HW215357   1.654   2.408   9.548 -0.9552 -0.8000  0.4864
 1299SOL     OW15358   4.419   3.848   7.812 -0.0279 -0.1573  0.6696
 1299SOL    HW115359   4.343   3.886   7.766  0.2944  0.7291  0.8561
 1299SOL    HW215360   4.392   3.757   7.814  1.6661 -0.7313 -1.9587
 1300SOL     OW15361   1.341   2.629   2.818  0.1428  0.0285  0.1390
 1300SOL    HW115362   1.375   2.713   2.786 -2.4394  1.3436  0.7981
 1300SOL    HW215363   1.284   2.602   2.745  0.7821  2.2477 -1.1988
 1301SOL     OW15364   1.094   0.766   5.909  0.1679  0.1545 -0.3306
 1301SOL    HW115365   1.187   0.757   5.887  0.7508  1.3625  1.6819
 1301SOL    HW215366   1.053   0.695   5.859 -0.9758  0.5175  0.0960
 1302SOL     OW15367   4.284   1.982   1.807  0.4413 -0.2121 -0.3699
 1302SOL    HW115368   4.256   2.029   1.728 -0.1506 -1.3470 -0.8342
 1302SOL    HW215369   4.373   1.961   1.780  0.8693  0.0496  0.8324
 1303SOL     OW15370   0.047   4.684   5.333  0.1184  0.0433  0.0434
 1303SOL    HW115371   0.032   4.603   5.381  2.4361  0.1810  1.0039
 1303SOL    HW215372   0.089   4.660   5.250  0.9410  0.3308  0.3748
 1304SOL     OW15373   3.886   0.489   6.264  0.3298 -0.3858 -0.0131
 1304SOL    HW115374   3.872   0.453   6.176 -1.8272  0.3676  0.0307
 1304SOL    HW215375   3.878   0.408   6.315 -0.1952 -0.7548 -0.6801
 1305SOL     OW15376   0.697   2.223   8.265  0.0037  0.7669  0.0914
 1305SOL    HW115377   0.613   2.180   8.278  1.3058 -1.3943  1.4473
 1305SOL    HW215378   0.717   2.194   8.176 -1.8095 -1.1476  0.3025
 1306SOL     OW15379   4.212   3.203   6.148 -0.6575  0.1440  0.1155
 1306SOL    HW115380   4.296   3.207   6.194 -0.0863 -1.0827 -0.8493
 1306SOL    HW215381   4.245   3.188   6.060 -2.1039  0.9347 -0.5766
 1307SOL     OW15382   4.026   0.050  10.566  0.3640 -0.1383  0.2124
 1307SOL    HW115383   4.106   0.059  10.514 -0.3455 -3.3842 -1.4077
 1307SOL    HW215384   3.965   0.022  10.498  0.9168  2.8757 -1.5169
 1308SOL     OW15385   4.354   2.550   7.152 -0.0512 -0.0854  0.4232
 1308SOL    HW115386   4.308   2.478   7.109 -1.2648  0.4422  0.8227
 1308SOL    HW215387   4.301   2.630   7.144 -0.9882 -0.8795 -1.2644
 1309SOL     OW15388   2.253   2.082   9.565  0.4068  0.2746  0.3175
 1309SOL    HW115389   2.279   2.088   9.657 -4.1622 -0.6617  1.6730
 1309SOL    HW215390   2.257   2.175   9.541  0.1308  0.3738  0.6667
 1310SOL     OW15391   0.568   4.295   5.642 -0.5264 -0.0148 -0.0608
 1310SOL    HW115392   0.610   4.378   5.664 -1.6368 -0.0550  2.2129
 1310SOL    HW215393   0.641   4.233   5.647 -1.3138 -1.0873 -1.7845
 1311SOL     OW15394   0.785   4.347   1.013  0.1527  0.4955 -0.2722
 1311SOL    HW115395   0.839   4.399   0.954  2.2269 -1.1412  0.1970
 1311SOL    HW215396   0.791   4.404   1.090 -0.3663 -2.4106  1.8993
 1312SOL     OW15397   2.215   2.541   2.454 -0.1955  0.4200  0.4288
 1312SOL    HW115398   2.267   2.541   2.534  1.1659  2.5466 -0.4405
 1312SOL    HW215399   2.207   2.636   2.443 -2.4706  0.1062 -0.6962
 1313SOL     OW15400   1.509   3.730   0.197  0.2621 -0.3982 -0.0427
 1313SOL    HW115401   1.478   3.808   0.243  1.1882 -1.0509  1.7059
 1313SOL    HW215402   1.604   3.737   0.210  0.4826  0.3447 -1.9988
 1314SOL     OW15403   0.050   0.196  10.031 -0.0893 -0.0328 -0.1643
 1314SOL    HW115404   0.131   0.191  10.081  1.2532  1.8718 -2.1482
 1314SOL    HW215405   0.040   0.286   9.998 -2.8146 -0.6897 -1.1460
 1315SOL     OW15406   1.482   4.417  14.632  0.0644  0.6143  0.5691
 1315SOL    HW115407   1.427   4.342  14.607 -0.9693  2.2000 -1.9417
 1315SOL    HW215408   1.565   4.393  14.591 -0.4381  0.4344 -0.3613
 1316SOL     OW15409   2.305   3.646   1.690 -0.0050 -0.2307 -0.0796
 1316SOL    HW115410   2.318   3.581   1.758 -1.3895 -1.1744 -0.7076
 1316SOL    HW215411   2.220   3.619   1.654 -0.8652  1.5014  0.6333
 1317SOL     OW15412   2.664   4.566   5.054  0.1087  0.6672  1.1781
 1317SOL    HW115413   2.589   4.605   5.009  1.1873  1.8342  0.3821
 1317SOL    HW215414   2.638   4.475   5.049 -4.0175  1.9355 -0.3840
 1318SOL     OW15415   2.952   4.532  10.075  0.4513  0.0282  0.8094
 1318SOL    HW115416   3.025   4.476  10.049 -0.1925 -0.5942  0.3594
 1318SOL    HW215417   2.936   4.595  10.004  0.2206  0.6826  1.4350
 1319SOL     OW15418   1.564   4.702   4.230 -0.2815  0.1779 -0.3425
 1319SOL    HW115419   1.649   4.659   4.242 -0.8696 -0.7193  0.6095
 1319SOL    HW215420   1.584   0.053   4.173 -0.4083 -0.9737 -1.8935
 1320SOL     OW15421   3.775   1.002   4.776 -0.0437  0.4693  0.3249
 1320SOL    HW115422   3.854   0.956   4.804 -0.3313  1.0613  2.0713
 1320SOL    HW215423   3.755   1.055   4.853  0.7467  0.5854  0.4494
 1321SOL     OW15424   2.681   0.659   6.451 -0.5404 -0.2969 -0.0586
 1321SOL    HW115425   2.652   0.750   6.451  2.7253  0.7142 -1.1847
 1321SOL    HW215426   2.600   0.619   6.418 -0.6580 -0.8948  0.9507
 1322SOL     OW15427   4.224   0.347   2.421 -0.1084  0.1667 -0.1472
 1322SOL    HW115428   4.194   0.257   2.428 -1.2767  0.5822  0.1153
 1322SOL    HW215429   4.314   0.318   2.407 -0.0855  0.8598 -1.4959
 1323SOL     OW15430   2.304   0.046  12.014  0.4441  0.0257 -0.2490
 1323SOL    HW115431   2.217   0.086  12.002  0.0538 -0.4137  1.1747
 1323SOL    HW215432   2.336   0.104  12.083 -0.9712 -1.6796  1.8221
 1324SOL     OW15433   0.252   1.857  14.766 -0.5248 -0.0021  0.0145
 1324SOL    HW115434   0.229   1.902  14.847  0.6697  0.0260  0.3416
 1324SOL    HW215435   0.336   1.820  14.793 -1.6053 -0.8679  2.1773
 1325SOL     OW15436   3.865   3.281   9.501  0.2110  0.1767 -0.5577
 1325SOL    HW115437   3.952   3.296   9.538  0.5909 -1.1057 -0.9313
 1325SOL    HW215438   3.843   3.190   9.518  0.5154  0.2555  0.2382
 1326SOL     OW15439   2.543   1.461  14.679  0.0166  0.1050  0.7782
 1326SOL    HW115440   2.473   1.398  14.661  0.3596 -0.8198  2.6890
 1326SOL    HW215441   2.594   1.470  14.598 -1.4248 -2.0697 -0.3724
 1327SOL     OW15442   3.599   4.548   1.672  0.1213 -0.2774  0.2423
 1327SOL    HW115443   3.595   4.582   1.582 -0.2278  0.5457  0.5718
 1327SOL    HW215444   3.684   4.568   1.711  0.3475  1.3142 -1.0662
 1328SOL     OW15445   2.907   3.671  16.155 -0.0775 -0.3556  0.0594
 1328SOL    HW115446   2.876   3.602  16.213  1.2839 -0.7986  0.2784
 1328SOL    HW215447   2.997   3.644  16.136 -0.0436 -0.6650  0.6482
 1329SOL     OW15448   3.647   0.062  16.279 -0.5714  0.4413  0.7208
 1329SOL    HW115449   3.626   0.149  16.313 -0.5282  0.7471 -0.0376
 1329SOL    HW215450   3.622   0.077  16.188  3.1365 -0.2175 -0.4180
 1330SOL     OW15451   4.717   4.486   4.507  0.6699 -0.0602 -0.0911
 1330SOL    HW115452   0.054   4.551   4.543  0.0357  1.7063 -2.2564
 1330SOL    HW215453   4.669   4.545   4.450  0.0806 -0.7219 -0.2850
 1331SOL     OW15454   1.157   1.564   2.321 -0.5784 -0.1760 -0.0543
 1331SOL    HW115455   1.127   1.551   2.231  1.6620 -1.0943 -0.6745
 1331SOL    HW215456   1.074   1.556   2.367 -1.3507  1.2460 -1.1944
 1332SOL     OW15457   1.848   2.081   6.489 -0.2769 -0.5909 -0.4613
 1332SOL    HW115458   1.905   2.014   6.526  2.0161  1.9189  0.5899
 1332SOL    HW215459   1.820   2.121   6.571  0.8293 -1.5492  0.3629
 1333SOL     OW15460   2.174   2.914   7.401  0.9134  0.3454  0.1325
 1333SOL    HW115461   2.110   2.846   7.376 -1.4476  2.0612  1.6050
 1333SOL    HW215462   2.157   2.979   7.333  0.6809  2.0202  1.8295
 1334SOL     OW15463   3.190   1.443   8.043  1.2005 -0.0382 -0.1993
 1334SOL    HW115464   3.119   1.379   8.040 -2.5819  4.2138 -1.6907
 1334SOL    HW215465   3.255   1.384   8.079  0.2426 -1.9592 -1.6412
 1335SOL     OW15466   4.036   0.654   5.152  0.2490 -0.1416 -0.4213
 1335SOL    HW115467   4.064   0.617   5.236  0.5906  0.6010 -0.2132
 1335SOL    HW215468   3.946   0.680   5.169 -1.1292 -4.2880 -1.2891
 1336SOL     OW15469   3.125   3.788   8.434 -0.4408  0.1699  0.1977
 1336SOL    HW115470   3.035   3.758   8.422  0.3467 -0.9845 -2.8637
 1336SOL    HW215471   3.135   3.864   8.377  2.3802  0.2876  0.8875
 1337SOL     OW15472   3.349   0.221   7.672 -0.2114  0.1692  0.2112
 1337SOL    HW115473   3.417   0.284   7.700  1.5106 -1.8251  0.4992
 1337SOL    HW215474   3.394   0.139   7.694  0.0996  0.6012  1.1994
 1338SOL     OW15475   1.250   4.709   4.876  0.3383  0.2805 -0.6242
 1338SOL    HW115476   1.277   4.645   4.811 -2.3540 -1.0013 -0.4939
 1338SOL    HW215477   1.332   0.007   4.920  1.5025 -0.0246 -2.6613
 1339SOL     OW15478   4.358   0.461   7.548 -0.2522 -0.0622  0.3699
 1339SOL    HW115479   4.300   0.463   7.472  2.2992  0.1579 -1.5388
 1339SOL    HW215480   4.437   0.507   7.521  0.3932 -0.4658  1.5437
 1340SOL     OW15481   2.229   3.869   9.724  0.3496  0.5902  1.0125
 1340SOL    HW115482   2.135   3.887   9.719  0.3163  0.4242  1.0206
 1340SOL    HW215483   2.228   3.775   9.703  0.2848  0.5226  1.3209
 1341SOL     OW15484   2.567   3.009  13.762  0.0986 -0.1128 -0.0413
 1341SOL    HW115485   2.606   2.976  13.842 -1.5045  3.0378  2.0445
 1341SOL    HW215486   2.479   3.029  13.796 -0.5544 -2.4160 -0.3684
 1342SOL     OW15487   0.662   1.877   8.253  0.3670  0.2502  0.2021
 1342SOL    HW115488   0.621   1.884   8.339  1.4998 -0.0769  0.7728
 1342SOL    HW215489   0.610   1.939   8.203 -2.0204  0.0619  2.4417
 1343SOL     OW15490   1.219   3.331   3.175  0.6615 -0.8168  0.1356
 1343SOL    HW115491   1.312   3.312   3.180  0.7735 -0.2779  0.1442
 1343SOL    HW215492   1.207   3.384   3.254  2.2493 -1.8629  1.0635
 1344SOL     OW15493   0.905   0.710   5.388 -0.2436 -1.0875 -0.1191
 1344SOL    HW115494   0.979   0.720   5.329 -0.8569 -0.1186 -0.7323
 1344SOL    HW215495   0.886   0.617   5.391 -2.0599 -0.7720 -1.4610
 1345SOL     OW15496   2.524   0.847  15.898  0.3147  0.1313 -0.1988
 1345SOL    HW115497   2.519   0.795  15.818  0.5988  0.4319 -0.4151
 1345SOL    HW215498   2.527   0.933  15.857 -0.0892 -0.0281 -0.5549
 1346SOL     OW15499   2.238   4.487  11.167  0.3837 -0.2555 -0.2524
 1346SOL    HW115500   2.150   4.481  11.132  1.8214 -2.6540 -3.4408
 1346SOL    HW215501   2.285   4.441  11.097 -0.7439 -3.7432  1.2900
 1347SOL     OW15502   0.363   2.739   9.085 -0.1421 -0.0584 -0.3632
 1347SOL    HW115503   0.345   2.667   9.145 -1.6022  1.5434  1.1312
 1347SOL    HW215504   0.285   2.734   9.029 -0.0685  1.1151 -0.5823
 1348SOL     OW15505   0.899   2.698   2.263 -0.2072  0.4716 -0.2738
 1348SOL    HW115506   0.853   2.716   2.345  1.6863  1.6035  0.5523
 1348SOL    HW215507   0.838   2.638   2.221  2.0944 -1.7523 -0.4828
 1349SOL     OW15508   4.362   0.436  10.276 -0.1018 -0.0300 -0.1859
 1349SOL    HW115509   4.395   0.517  10.236  2.5382  0.1538  2.3944
 1349SOL    HW215510   4.303   0.472  10.343  1.1253  0.5803  0.5616
 1350SOL     OW15511   2.285   2.561   6.386  0.3080  0.2643  0.4196
 1350SOL    HW115512   2.251   2.476   6.359  3.3229 -0.9505  0.3550
 1350SOL    HW215513   2.352   2.537   6.451 -0.0094 -0.3774  0.5124
 1351SOL     OW15514   2.208   0.816  11.443  0.0216 -0.4423  0.1759
 1351SOL    HW115515   2.293   0.795  11.405  0.3554  1.5840 -0.2254
 1351SOL    HW215516   2.227   0.851  11.530 -0.4042  0.7106 -0.1837
 1352SOL     OW15517   1.861   0.961   7.905 -0.1850  0.0649 -0.5103
 1352SOL    HW115518   1.852   0.894   7.972 -0.3580  0.8318  0.2450
 1352SOL    HW215519   1.803   1.029   7.941  2.0702  1.1419  1.1177
 1353SOL     OW15520   0.070   4.051   7.212 -0.1509 -0.2830  0.7314
 1353SOL    HW115521   0.057   4.139   7.246 -0.2770 -1.1700  2.9864
 1353SOL    HW215522   0.030   3.996   7.280  2.7735 -1.5032  1.4670
 1354SOL     OW15523   4.005   4.007   7.297  1.0980  0.5711 -0.2142
 1354SOL    HW115524   4.097   3.983   7.297  1.5255  2.2129  0.4133
 1354SOL    HW215525   3.987   4.002   7.390 -1.8543  0.1015 -0.7913
 1355SOL     OW15526   0.658   3.568  15.681  0.4405  0.3035 -0.1295
 1355SOL    HW115527   0.723   3.626  15.641  0.8010 -0.2710 -0.3622
 1355SOL    HW215528   0.689   3.482  15.654 -0.3103 -0.9930  3.2761
 1356SOL     OW15529   3.343   3.776   4.574  0.3390  0.5201  0.0666
 1356SOL    HW115530   3.365   3.766   4.481 -1.9948 -1.3672 -0.2687
 1356SOL    HW215531   3.430   3.803   4.604  0.4161  0.8912 -0.4777
 1357SOL     OW15532   2.651   2.926   6.124 -0.3337 -0.4314 -0.0346
 1357SOL    HW115533   2.691   2.839   6.117  1.2768  0.3978 -1.3457
 1357SOL    HW215534   2.590   2.935   6.051  1.2095 -0.3880 -1.3158
 1358SOL     OW15535   3.132   0.431   4.727  0.2368  0.0195  0.1585
 1358SOL    HW115536   3.058   0.481   4.761 -0.1339 -0.2985 -0.1828
 1358SOL    HW215537   3.202   0.428   4.794  0.6445  1.8472 -0.1990
 1359SOL     OW15538   4.667   0.627   2.611  0.0972  0.2050  0.8578
 1359SOL    HW115539   4.666   0.548   2.665 -1.5677 -0.2192  0.2209
 1359SOL    HW215540   4.685   0.597   2.523  3.3933 -2.1383  2.3311
 1360SOL     OW15541   2.577   1.265   4.310  0.4953 -0.4490  0.3758
 1360SOL    HW115542   2.598   1.303   4.395  0.9447  2.2386 -0.9431
 1360SOL    HW215543   2.526   1.338   4.274 -0.8057 -1.6292 -0.1868
 1361SOL     OW15544   4.543   3.929   9.527 -0.5287 -0.3385  0.1815
 1361SOL    HW115545   4.549   4.024   9.536  2.5069 -0.4854 -0.1267
 1361SOL    HW215546   4.591   3.920   9.445  2.4192  1.2136  1.7374
 1362SOL     OW15547   2.573   1.226  12.692 -0.0908  0.3783  0.0819
 1362SOL    HW115548   2.571   1.142  12.647 -1.0663 -0.2901  1.3779
 1362SOL    HW215549   2.481   1.251  12.684 -1.0125 -2.3106  2.2476
 1363SOL     OW15550   1.774   2.747  15.667 -0.3500  0.3482 -0.3304
 1363SOL    HW115551   1.714   2.693  15.719  0.5163  0.3213  0.6566
 1363SOL    HW215552   1.765   2.834  15.706  1.1287 -0.4003  1.6854
 1364SOL     OW15553   1.223   0.514  15.199  0.4187 -1.0163 -0.4569
 1364SOL    HW115554   1.284   0.560  15.141  0.9176 -0.4054  0.5714
 1364SOL    HW215555   1.254   0.425  15.185  0.1122 -1.3074  0.7300
 1365SOL     OW15556   1.016   0.873   8.757 -0.1025  0.2747  0.1813
 1365SOL    HW115557   1.066   0.872   8.838  3.0188 -1.0294 -1.7466
 1365SOL    HW215558   0.922   0.876   8.775 -0.2343 -1.8757 -0.2183
 1366SOL     OW15559   2.452   4.353   4.083 -0.0326  0.2431 -0.2834
 1366SOL    HW115560   2.460   4.290   4.011  0.2372 -0.8957  0.7631
 1366SOL    HW215561   2.514   4.422   4.057  1.2148 -0.8716 -0.2229
 1367SOL     OW15562   1.815   0.807   2.440 -0.1926  0.5814  0.1359
 1367SOL    HW115563   1.906   0.833   2.428 -0.8559  2.2805 -1.1817
 1367SOL    HW215564   1.767   0.840   2.364  1.5429  1.3738 -0.6167
 1368SOL     OW15565   4.667   3.292  12.309  0.6188  0.1070 -0.4870
 1368SOL    HW115566   4.633   3.205  12.329 -0.4132 -0.2502 -3.8019
 1368SOL    HW215567   4.646   3.345  12.386 -3.3292 -0.4139 -1.2145
 1369SOL     OW15568   3.629   4.049   5.488 -0.2669 -0.5932  0.1751
 1369SOL    HW115569   3.718   4.058   5.453 -0.7184  1.8291 -0.3677
 1369SOL    HW215570   3.594   4.057   5.399 -0.7797 -0.1950  0.4141
 1370SOL     OW15571   3.260   2.940   3.192 -0.1492 -0.0841 -0.5363
 1370SOL    HW115572   3.171   2.905   3.187  0.1162 -0.8676  0.1792
 1370SOL    HW215573   3.291   2.850   3.209 -1.0543 -0.2494  0.2327
 1371SOL     OW15574   2.785   4.017  17.669 -0.1889 -0.1921  0.1666
 1371SOL    HW115575   2.800   4.066   0.056  0.4697 -1.2478  0.6777
 1371SOL    HW215576   2.871   4.025  17.628 -1.4583 -0.6869 -2.5876
 1372SOL     OW15577   4.293   2.959   7.517 -0.1352 -0.0565  0.1906
 1372SOL    HW115578   4.303   3.018   7.443  0.2536  1.6673  1.6297
 1372SOL    HW215579   4.317   3.020   7.586 -0.0381  1.2682 -1.0054
 1373SOL     OW15580   3.883   2.088  14.990 -0.1218 -0.2505  0.2959
 1373SOL    HW115581   3.872   2.179  15.016  1.1689 -0.6150  2.1697
 1373SOL    HW215582   3.977   2.084  15.009  0.2506  0.9444 -1.3290
 1374SOL     OW15583   3.210   4.419   7.675  0.1092 -0.1031  0.1464
 1374SOL    HW115584   3.184   4.475   7.749  2.7952  0.7015  0.4595
 1374SOL    HW215585   3.149   4.347   7.691  1.9380 -2.4251 -3.5335
 1375SOL     OW15586   1.796   0.072   0.762  1.0001 -0.0081  0.4465
 1375SOL    HW115587   1.848   4.722   0.794 -0.3565 -2.6113 -3.2194
 1375SOL    HW215588   1.845   0.098   0.684 -1.5695  1.2132 -0.7866
 1376SOL     OW15589   2.992   1.023  15.141 -0.0112 -0.1562  0.3882
 1376SOL    HW115590   2.987   1.083  15.216  0.2023 -0.9693  1.0495
 1376SOL    HW215591   3.042   0.952  15.180  0.3057  0.6188  1.3939
 1377SOL     OW15592   0.184   0.249   5.031 -0.2907  0.0219  0.2270
 1377SOL    HW115593   0.182   0.288   4.944 -0.5079  1.4364  0.8714
 1377SOL    HW215594   0.198   0.325   5.087  2.5593 -0.0507 -0.3950
 1378SOL     OW15595   1.514   3.432   8.343  0.0565  0.3966  0.1456
 1378SOL    HW115596   1.490   3.493   8.413  1.4449  3.9146 -2.4430
 1378SOL    HW215597   1.595   3.409   8.388  0.5080 -0.0288 -0.9079
 1379SOL     OW15598   4.332   0.817   5.982  0.1620  0.4650  0.5276
 1379SOL    HW115599   4.417   0.861   5.969 -0.7836  2.1484 -0.0147
 1379SOL    HW215600   4.315   0.792   5.891 -0.4847  0.1474  0.7425
 1380SOL     OW15601   0.149   3.924   3.616 -0.0388 -0.2269 -0.2200
 1380SOL    HW115602   0.055   3.906   3.616  0.5053 -2.9523  0.5054
 1380SOL    HW215603   0.165   3.965   3.701 -0.1123  0.3111 -0.4631
 1381SOL     OW15604   4.354   1.136  10.765 -0.0483  0.0765 -0.2296
 1381SOL    HW115605   4.277   1.091  10.799  1.1088  0.9837  3.5785
 1381SOL    HW215606   4.413   1.105  10.834 -0.1076  1.3931  0.4156
 1382SOL     OW15607   1.927   3.026   6.912  0.0332 -0.1776  0.4526
 1382SOL    HW115608   1.902   3.041   7.003  0.6880 -0.5577  0.7020
 1382SOL    HW215609   1.875   2.950   6.888 -0.9710  0.6120  0.1448
 1383SOL     OW15610   0.062   2.620   6.302  0.0656 -0.1698 -0.6156
 1383SOL    HW115611   4.722   2.657   6.241 -0.0180 -0.7522 -0.8784
 1383SOL    HW215612   0.003   2.576   6.363 -0.4905  1.3911 -0.0201
 1384SOL     OW15613   2.954   2.369   2.704  0.2512  0.2273 -0.1389
 1384SOL    HW115614   2.934   2.353   2.612 -2.2826  1.6838  0.1650
 1384SOL    HW215615   3.035   2.415   2.686 -0.0513  0.0249 -1.9422
 1385SOL     OW15616   2.074   0.143   7.524 -0.5390  0.3647 -0.0871
 1385SOL    HW115617   2.043   0.208   7.460  0.3587 -1.0140 -1.9022
 1385SOL    HW215618   2.050   0.061   7.480 -0.5162 -0.0560  0.6994
 1386SOL     OW15619   4.627   1.595   6.051 -0.1002  0.3596  0.3452
 1386SOL    HW115620   4.676   1.519   6.019 -1.0898 -0.3443  0.5024
 1386SOL    HW215621   4.539   1.576   6.017  0.1002 -0.2761  0.1902
 1387SOL     OW15622   0.977   0.296   0.401  0.2099 -0.1277 -0.2827
 1387SOL    HW115623   0.896   0.348   0.399  1.4315  1.7723 -0.2785
 1387SOL    HW215624   1.014   0.303   0.313 -0.3216  2.3987 -0.3182
 1388SOL     OW15625   0.332   3.384   4.254  0.0775  0.0858 -0.0473
 1388SOL    HW115626   0.367   3.306   4.212 -1.4538 -0.2296 -0.7608
 1388SOL    HW215627   0.372   3.390   4.341 -0.6653  1.4981  0.1910
 1389SOL     OW15628   3.760   3.242   7.584 -0.0251  0.3568 -0.0461
 1389SOL    HW115629   3.700   3.207   7.649  1.4510  2.0103  2.2158
 1389SOL    HW215630   3.714   3.319   7.552  1.2060  1.4488  0.8026
 1390SOL     OW15631   0.001   1.866  12.710 -0.0779  0.2409  0.0037
 1390SOL    HW115632   4.642   1.830  12.743 -0.3245  0.5957 -0.2262
 1390SOL    HW215633   0.053   1.812  12.769  1.3621  0.3824 -1.1451
 1391SOL     OW15634   2.198   0.941   5.155 -0.2722 -0.5726  0.0486
 1391SOL    HW115635   2.235   0.880   5.091  0.2881  2.1515 -2.2577
 1391SOL    HW215636   2.143   0.991   5.094  0.3288  2.0423  1.6522
 1392SOL     OW15637   3.914   0.947   3.411 -0.0217  0.2713 -0.0114
 1392SOL    HW115638   3.982   0.896   3.456 -0.5718  0.2789  0.8203
 1392SOL    HW215639   3.840   0.918   3.464  0.9327  0.5201  1.4536
 1393SOL     OW15640   2.648   4.505   0.233  0.4293  0.1990  0.0765
 1393SOL    HW115641   2.623   4.562   0.305  0.4497  1.4045 -0.8759
 1393SOL    HW215642   2.732   4.548   0.215  0.7380 -1.0660 -1.5118
 1394SOL     OW15643   3.694   4.081  10.406 -0.1599 -0.0119  0.0787
 1394SOL    HW115644   3.670   4.041  10.489 -0.7941 -1.6881 -0.9124
 1394SOL    HW215645   3.774   4.122  10.439  0.2155 -0.2081 -0.5764
 1395SOL     OW15646   1.633   0.799   4.594  0.6007  0.1136  0.3678
 1395SOL    HW115647   1.672   0.884   4.573  1.8233 -0.6412 -0.3856
 1395SOL    HW215648   1.625   0.759   4.507 -0.3276 -1.2353  1.0710
 1396SOL     OW15649   2.887   0.068   1.975  0.0188 -0.0002 -0.5192
 1396SOL    HW115650   2.895   0.148   1.924 -1.0603 -1.1226 -2.4620
 1396SOL    HW215651   2.884   0.096   2.066  2.6816  0.9960 -0.7422
 1397SOL     OW15652   3.333   1.358  11.239  0.4793  0.7846 -0.3130
 1397SOL    HW115653   3.293   1.280  11.277  1.5681  0.1604 -0.4262
 1397SOL    HW215654   3.419   1.316  11.228  0.0819  0.0363 -0.5240
 1398SOL     OW15655   1.826   2.305   9.580  0.1381 -0.0530  0.4915
 1398SOL    HW115656   1.878   2.250   9.521  0.2594 -0.0172  0.5647
 1398SOL    HW215657   1.790   2.247   9.647  0.9330 -0.3480  0.6592
 1399SOL     OW15658   3.719   4.211  13.212 -0.2500  0.2632 -0.4559
 1399SOL    HW115659   3.784   4.144  13.234  0.8691  2.3426  2.6383
 1399SOL    HW215660   3.763   4.269  13.149  1.2675  3.7078  3.7449
 1400SOL     OW15661   0.611   0.366   5.205  0.1480  0.4332  0.0900
 1400SOL    HW115662   0.534   0.318   5.236  0.8148 -0.0861  0.9524
 1400SOL    HW215663   0.669   0.293   5.189 -0.7139  0.4780 -3.1246
 1401SOL     OW15664   2.444   4.020   2.109  0.0165  0.1706 -0.7793
 1401SOL    HW115665   2.509   3.978   2.052  3.0878  0.0099  2.8118
 1401SOL    HW215666   2.450   4.106   2.067  0.0204 -0.2601 -1.6445
 1402SOL     OW15667   3.216   1.714  11.556  0.3351  0.3420 -0.0464
 1402SOL    HW115668   3.204   1.809  11.557  0.3588  0.3357  1.0960
 1402SOL    HW215669   3.135   1.688  11.599  0.7459 -1.2105 -0.2108
 1403SOL     OW15670   0.579   3.630   5.218 -0.4911  0.0519 -0.4240
 1403SOL    HW115671   0.537   3.671   5.143 -2.9241 -0.4418  0.6939
 1403SOL    HW215672   0.529   3.549   5.232  1.0150 -0.5441  1.5940
 1404SOL     OW15673   1.464   2.009   2.670 -0.2387  0.0148  0.1608
 1404SOL    HW115674   1.455   2.038   2.579  0.8321 -0.3973 -0.0831
 1404SOL    HW215675   1.518   1.931   2.654  0.9674  0.9141 -0.1410
 1405SOL     OW15676   4.513   2.658   3.314  0.1602  0.0322 -0.0233
 1405SOL    HW115677   4.498   2.602   3.237 -0.3376 -0.8132  0.6870
 1405SOL    HW215678   4.583   2.717   3.287 -0.0432 -0.3821 -1.4748
 1406SOL     OW15679   3.691   3.597  13.718 -0.3544  0.2229  0.4111
 1406SOL    HW115680   3.782   3.569  13.717 -0.4472  0.0321 -2.4293
 1406SOL    HW215681   3.680   3.627  13.809  1.7190  1.0140  0.4048
 1407SOL     OW15682   3.803   2.451  16.045  0.1994  0.1869  0.2858
 1407SOL    HW115683   3.851   2.374  16.076  0.9140  0.7467  0.5549
 1407SOL    HW215684   3.832   2.519  16.104 -0.9477  1.0838 -0.1819
 1408SOL     OW15685   1.919   1.090   3.207  0.0392  0.1519 -0.3820
 1408SOL    HW115686   1.972   1.037   3.265 -1.2869 -1.7687 -0.9194
 1408SOL    HW215687   1.961   1.103   3.122  0.5882  1.5962  0.1018
 1409SOL     OW15688   1.287   3.761  12.887 -0.2700 -0.0668 -0.3223
 1409SOL    HW115689   1.355   3.812  12.842  0.6035 -0.4658  0.5384
 1409SOL    HW215690   1.216   3.825  12.897 -0.3215 -0.6246  2.8374
 1410SOL     OW15691   3.620   3.576   4.160  0.0625  0.0542  0.1332
 1410SOL    HW115692   3.596   3.667   4.177 -1.3486 -0.5767  1.4421
 1410SOL    HW215693   3.714   3.583   4.141 -0.0724 -2.1677 -1.3538
 1411SOL     OW15694   3.739   0.754   8.451  0.2499  0.4465 -0.8329
 1411SOL    HW115695   3.761   0.682   8.392 -2.2659 -1.0887  0.1043
 1411SOL    HW215696   3.708   0.695   8.519  4.0599 -0.6402 -0.0176
 1412SOL     OW15697   3.241   1.237  13.402 -0.2978  0.4728  0.3535
 1412SOL    HW115698   3.222   1.190  13.321  0.6212 -2.1756  1.6871
 1412SOL    HW215699   3.272   1.322  13.369  2.1737 -0.0955  1.2537
 1413SOL     OW15700   3.915   3.421   0.250  0.2840  0.1023  0.3802
 1413SOL    HW115701   3.828   3.427   0.209 -0.8173 -0.3339  2.6384
 1413SOL    HW215702   3.900   3.348   0.311  0.0070  0.1692  0.3940
 1414SOL     OW15703   3.579   0.011   4.305 -0.2676  0.2009  0.1737
 1414SOL    HW115704   3.537   4.703   4.385  0.8174  0.8085  0.9858
 1414SOL    HW215705   3.592   4.654   4.255  2.5906  1.2771 -0.8313
 1415SOL     OW15706   1.328   2.819   8.799 -0.1364 -0.3459  0.2534
 1415SOL    HW115707   1.262   2.757   8.830 -0.5761  0.5875  1.2076
 1415SOL    HW215708   1.394   2.753   8.777  0.1352 -0.4040  1.2443
 1416SOL     OW15709   0.413   4.349   1.836 -0.5138 -0.3826  0.1834
 1416SOL    HW115710   0.496   4.316   1.801  1.3421  3.6613  0.7656
 1416SOL    HW215711   0.389   4.422   1.780 -1.5258 -1.0688 -0.2854
 1417SOL     OW15712   3.957   4.401  11.187 -0.3508 -0.7212 -0.1922
 1417SOL    HW115713   3.957   4.496  11.185  1.4745 -0.6997  0.4174
 1417SOL    HW215714   3.878   4.388  11.239  1.5599  1.1481  3.1170
 1418SOL     OW15715   3.544   4.166   7.609 -0.4574  0.2700  0.6329
 1418SOL    HW115716   3.472   4.196   7.554 -0.1876  0.5909  0.4495
 1418SOL    HW215717   3.559   4.240   7.668 -0.2751 -0.3118  1.3078
 1419SOL     OW15718   2.966   0.847   5.602 -0.5045 -0.2360  0.7745
 1419SOL    HW115719   2.873   0.851   5.624 -0.4254  0.8715  0.8710
 1419SOL    HW215720   3.011   0.853   5.686 -0.5936  0.4290  0.7692
 1420SOL     OW15721   1.768   4.080   4.033  0.3856  0.8835  0.0239
 1420SOL    HW115722   1.689   4.031   4.060  0.7879  1.7790  2.8977
 1420SOL    HW215723   1.778   4.033   3.951  1.2192  1.7949 -0.3876
 1421SOL     OW15724   3.162   2.377   9.751 -0.9060 -0.1807 -0.1316
 1421SOL    HW115725   3.240   2.328   9.725  0.9843  2.4558  0.4609
 1421SOL    HW215726   3.102   2.308   9.725 -0.1437 -0.1866 -1.8659
 1422SOL     OW15727   2.414   3.722   8.279  0.1310 -0.6075 -0.1399
 1422SOL    HW115728   2.508   3.718   8.301 -0.1221  1.5402  1.3574
 1422SOL    HW215729   2.412   3.673   8.197 -0.1464  0.9159 -1.0350
 1423SOL     OW15730   4.178   2.092   5.760 -0.0116  0.4886  0.2251
 1423SOL    HW115731   4.250   2.073   5.700  0.1996 -0.5044  0.7914
 1423SOL    HW215732   4.198   2.012   5.809  0.2948 -0.1976 -1.0280
 1424SOL     OW15733   2.942   3.837   5.669 -0.0128 -0.1257 -0.4987
 1424SOL    HW115734   2.977   3.789   5.594  0.8184  2.7081 -1.9504
 1424SOL    HW215735   2.884   3.780   5.719  1.8618 -0.4313  1.3522
 1425SOL     OW15736   4.698   1.577   4.754  0.0870  0.2153  0.0919
 1425SOL    HW115737   0.049   1.519   4.738 -0.8176 -1.0222  0.4229
 1425SOL    HW215738   0.010   1.657   4.795 -2.6177  1.9735 -0.9963
 1426SOL     OW15739   3.121   1.496   4.129 -0.1402  0.3161 -0.5824
 1426SOL    HW115740   3.035   1.533   4.113 -0.6266 -0.6561 -0.1926
 1426SOL    HW215741   3.110   1.488   4.224  1.2851 -3.3788 -0.7179
 1427SOL     OW15742   3.631   0.362   1.194 -0.2887  0.2052  0.8117
 1427SOL    HW115743   3.619   0.304   1.270 -1.3658 -0.7342 -0.0780
 1427SOL    HW215744   3.620   0.305   1.118 -2.8309  1.5017  0.2024
 1428SOL     OW15745   3.635   1.186   7.581  0.3443  0.1960 -0.2924
 1428SOL    HW115746   3.631   1.215   7.672 -2.8936 -2.0856  0.2953
 1428SOL    HW215747   3.623   1.263   7.525 -0.1252 -0.7172 -1.4627
 1429SOL     OW15748   4.329   1.121   3.560 -0.4055 -0.3137 -0.3809
 1429SOL    HW115749   4.371   1.190   3.612 -2.7329  1.2836 -0.6272
 1429SOL    HW215750   4.246   1.127   3.606 -0.1902  1.3049 -0.1998
 1430SOL     OW15751   3.717   4.145  11.508 -0.2914 -0.2085 -0.0811
 1430SOL    HW115752   3.807   4.120  11.487 -1.1947 -3.3837 -0.2191
 1430SOL    HW215753   3.681   4.056  11.509 -1.1125  0.1059 -3.5366
 1431SOL     OW15754   3.174   4.581  13.798 -0.1717 -0.1238 -0.1944
 1431SOL    HW115755   3.246   4.541  13.846 -1.7729  0.0851  2.3684
 1431SOL    HW215756   3.121   4.506  13.772  0.3106  0.2088 -2.1398
 1432SOL     OW15757   4.487   2.192   4.021 -0.1809 -0.1464  0.5491
 1432SOL    HW115758   4.477   2.287   4.020  1.4861  0.0708  4.4003
 1432SOL    HW215759   4.563   2.180   3.964  0.4440  1.5072  1.0266
 1433SOL     OW15760   2.808   3.552   9.668  0.0846  0.0480 -0.0100
 1433SOL    HW115761   2.871   3.547   9.596  0.4759  2.7202  0.1657
 1433SOL    HW215762   2.783   3.644   9.667  1.5125  0.4178 -1.2700
 1434SOL     OW15763   2.436   1.567   8.570  0.2703 -0.7001  0.1489
 1434SOL    HW115764   2.392   1.649   8.592  1.3495 -0.4180  1.2290
 1434SOL    HW215765   2.507   1.556   8.633 -2.4624 -1.0494  3.1565
 1435SOL     OW15766   3.312   0.511   5.499 -0.1008  0.3344  0.3178
 1435SOL    HW115767   3.223   0.543   5.483 -0.7392 -0.5955  2.0619
 1435SOL    HW215768   3.314   0.507   5.594  1.1933  0.1514  0.2852
 1436SOL     OW15769   0.216   1.937  13.624 -0.1552 -0.7945  0.5787
 1436SOL    HW115770   0.229   1.884  13.702  0.0375 -2.3296 -0.5108
 1436SOL    HW215771   0.136   1.986  13.643  0.2728  1.1416 -2.4544
 1437SOL     OW15772   3.782   0.020   0.638 -0.7971 -0.2396  0.0954
 1437SOL    HW115773   3.869   0.052   0.664  0.2966 -2.0400 -1.4276
 1437SOL    HW215774   3.759   4.691   0.714 -0.8440 -1.1995 -0.5889
 1438SOL     OW15775   3.170   4.247  14.868 -0.5872  0.0405  0.1375
 1438SOL    HW115776   3.107   4.211  14.805  0.6779  1.3501 -1.8705
 1438SOL    HW215777   3.250   4.259  14.817 -0.8592 -1.9557 -0.7713
 1439SOL     OW15778   2.058   3.355  17.160  0.2938 -0.5180  0.0216
 1439SOL    HW115779   2.105   3.275  17.136  1.0521 -0.2344  0.5549
 1439SOL    HW215780   1.980   3.319  17.203 -0.0181  1.4374  1.0979
 1440SOL     OW15781   0.891   3.844   4.007  0.1493  0.2952  0.1958
 1440SOL    HW115782   0.950   3.914   4.035  0.1530  0.8132 -1.1001
 1440SOL    HW215783   0.934   3.814   3.927 -1.4449 -0.6644 -0.2930
 1441SOL     OW15784   1.747   1.478   3.154 -0.2049 -0.4348 -0.4376
 1441SOL    HW115785   1.751   1.416   3.081 -1.0612  0.3808 -1.1785
 1441SOL    HW215786   1.703   1.420   3.216  0.4427 -1.2761 -0.7681
 1442SOL     OW15787   4.015   1.417  12.492  0.2412  0.5261 -0.1439
 1442SOL    HW115788   3.963   1.380  12.563 -2.4388  0.7312 -1.9993
 1442SOL    HW215789   3.958   1.465  12.431  0.4630  0.7937 -0.1440
 1443SOL     OW15790   3.919   2.094   5.197  0.7223 -0.0858  0.4815
 1443SOL    HW115791   3.866   2.041   5.256  0.3275 -0.8454 -0.5513
 1443SOL    HW215792   3.939   2.023   5.135 -2.0874 -0.3846 -0.0643
 1444SOL     OW15793   0.851   1.419   9.115 -0.4023 -0.5807  0.3931
 1444SOL    HW115794   0.934   1.371   9.120  0.5403  0.8226 -1.7568
 1444SOL    HW215795   0.870   1.484   9.047  2.6560 -2.2150 -0.3432
 1445SOL     OW15796   3.201   0.662   6.641  0.2278  0.0062 -0.2171
 1445SOL    HW115797   3.245   0.585   6.677 -0.9585  0.7371  2.8314
 1445SOL    HW215798   3.216   0.725   6.712  1.2531 -0.7394  0.2253
 1446SOL     OW15799   0.422   2.173   2.527 -0.0751 -0.3043  0.3292
 1446SOL    HW115800   0.405   2.227   2.450 -0.6186  1.7897  1.9093
 1446SOL    HW215801   0.517   2.160   2.530  0.0692  0.5878 -0.3706
 1447SOL     OW15802   4.699   3.826   5.892  0.0976 -0.0448 -0.2525
 1447SOL    HW115803   4.715   3.902   5.836  0.8878  0.3344  0.4857
 1447SOL    HW215804   4.650   3.766   5.835  0.3242  0.2912 -0.7970
 1448SOL     OW15805   1.215   2.298   1.462 -0.7741 -0.1030  0.4807
 1448SOL    HW115806   1.170   2.325   1.542  0.0845  2.3113  0.1336
 1448SOL    HW215807   1.154   2.253   1.402 -1.5439  1.0287  0.4160
 1449SOL     OW15808   1.890   3.700   2.661  0.6065  0.0255  0.1434
 1449SOL    HW115809   1.812   3.645   2.673  1.5809 -1.9093 -2.4897
 1449SOL    HW215810   1.953   3.633   2.685  2.7256  1.5569 -1.1393
 1450SOL     OW15811   2.471   0.866   6.759 -0.0507  0.7859 -0.3089
 1450SOL    HW115812   2.494   0.775   6.773 -0.6568  0.5221 -1.0061
 1450SOL    HW215813   2.377   0.856   6.775  0.4411 -2.4184  0.5179
 1451SOL     OW15814   0.069   1.327   6.016 -0.0020 -0.6352  0.4915
 1451SOL    HW115815   0.160   1.340   5.987 -0.5928 -0.5112 -1.2909
 1451SOL    HW215816   0.070   1.249   6.071  1.1027  1.2498  3.1759
 1452SOL     OW15817   0.708   0.061  15.123 -0.2149  0.5422  0.2298
 1452SOL    HW115818   0.615   0.047  15.108  0.1002 -0.8168 -0.4081
 1452SOL    HW215819   0.708   0.121  15.198 -0.2555  0.7781  0.0417
 1453SOL     OW15820   4.293   1.071   0.423 -0.2997 -0.0059 -0.0451
 1453SOL    HW115821   4.384   1.090   0.401 -0.6757  1.2448 -0.5236
 1453SOL    HW215822   4.305   1.002   0.488 -0.4558 -1.5690 -1.6801
 1454SOL     OW15823   0.234   3.487  13.131  0.6159  0.2428  0.3934
 1454SOL    HW115824   0.177   3.552  13.089 -1.3532 -1.6356  0.1610
 1454SOL    HW215825   0.300   3.486  13.061  1.4826 -0.6396  1.2412
 1455SOL     OW15826   2.538   3.460   1.060 -0.0748  0.6569 -0.1413
 1455SOL    HW115827   2.590   3.509   0.997  0.6935  0.7936  0.5995
 1455SOL    HW215828   2.614   3.405   1.082 -1.5552 -1.1179  0.6139
 1456SOL     OW15829   1.877   2.409   3.643  0.0576 -0.0153  0.4300
 1456SOL    HW115830   1.890   2.455   3.726 -0.2458 -0.5204  0.7579
 1456SOL    HW215831   1.790   2.370   3.652  1.0089 -2.3975 -1.0647
 1457SOL     OW15832   3.434   2.909   5.784 -0.9502  0.1085 -0.1981
 1457SOL    HW115833   3.434   2.814   5.768  0.7734  0.3367 -1.4707
 1457SOL    HW215834   3.527   2.922   5.805 -1.3793  2.7114  0.0310
 1458SOL     OW15835   1.980   0.130  12.354 -0.0461 -0.0506  0.0293
 1458SOL    HW115836   2.027   0.206  12.390 -0.8982  1.0599 -1.1932
 1458SOL    HW215837   1.932   0.177  12.286 -0.9525 -0.7647  0.1781
 1459SOL     OW15838   4.254   0.466  16.137 -0.1223  0.0115 -0.2031
 1459SOL    HW115839   4.215   0.392  16.183 -1.5744  1.1989  0.4668
 1459SOL    HW215840   4.312   0.420  16.076  1.6535 -0.5317  1.9092
 1460SOL     OW15841   2.225   0.734   4.171  0.1767 -0.1336  0.5546
 1460SOL    HW115842   2.171   0.658   4.151  0.0523  0.0530  0.1871
 1460SOL    HW215843   2.293   0.685   4.218  2.3057  1.5581 -0.7163
 1461SOL     OW15844   0.276   0.514  14.275  0.7707  0.0992  0.2376
 1461SOL    HW115845   0.298   0.580  14.210  1.5741 -0.2562  0.1519
 1461SOL    HW215846   0.192   0.485  14.240 -0.6757  2.8111  1.4614
 1462SOL     OW15847   1.737   0.332   4.254 -0.4159  0.0450 -0.0442
 1462SOL    HW115848   1.765   0.304   4.167 -2.4029  0.5247 -0.8136
 1462SOL    HW215849   1.673   0.400   4.235 -0.4627 -0.0157 -0.1025
 1463SOL     OW15850   3.773   3.779   3.753 -0.3626 -0.5384 -0.4365
 1463SOL    HW115851   3.772   3.698   3.804 -0.9848  0.7631  1.6398
 1463SOL    HW215852   3.736   3.847   3.809 -0.4314 -1.7860  1.0417
 1464SOL     OW15853   4.564   2.634  14.662 -0.3047  0.5776 -0.6067
 1464SOL    HW115854   4.472   2.655  14.648 -0.7435 -1.3311 -0.6205
 1464SOL    HW215855   4.588   2.614  14.571 -1.9248 -0.2974 -0.8406
 1465SOL     OW15856   0.718   1.928   3.426  0.0858  0.1742 -0.1885
 1465SOL    HW115857   0.647   1.953   3.366  1.4962  4.2015 -0.1815
 1465SOL    HW215858   0.759   1.870   3.362 -2.0427 -1.4842 -0.0272
 1466SOL     OW15859   1.880   3.870   1.122 -0.7592  0.0143 -0.3313
 1466SOL    HW115860   1.843   3.937   1.180  1.0974  0.0308  0.8093
 1466SOL    HW215861   1.803   3.815   1.104  0.8677 -2.1142 -0.7312
 1467SOL     OW15862   2.445   3.997   8.473  0.1904 -0.2173 -0.4670
 1467SOL    HW115863   2.465   4.075   8.421  0.4234  0.2392  0.3112
 1467SOL    HW215864   2.517   3.942   8.441  0.5481 -0.3937  0.6369
 1468SOL     OW15865   1.929   0.860   8.441 -0.0593  0.5017 -0.0870
 1468SOL    HW115866   1.935   0.933   8.502  0.8407  0.1744  0.2139
 1468SOL    HW215867   2.001   0.812   8.481  0.3215  1.7010  0.6475
 1469SOL     OW15868   2.413   2.685   8.369  0.3736 -0.1352  0.3373
 1469SOL    HW115869   2.362   2.604   8.372  0.4677 -0.1275  2.4997
 1469SOL    HW215870   2.392   2.712   8.459  0.3261 -0.1723  0.3375
 1470SOL     OW15871   2.800   1.229   4.659 -0.2756 -0.0319 -0.4280
 1470SOL    HW115872   2.873   1.222   4.720 -0.4487  2.0137  0.0116
 1470SOL    HW215873   2.812   1.315   4.618  0.7053  0.2712  0.5215
 1471SOL     OW15874   0.501   0.794   7.187  0.2584  0.5295 -0.0370
 1471SOL    HW115875   0.414   0.829   7.207  0.4646  0.5855  0.7888
 1471SOL    HW215876   0.550   0.837   7.257  1.0879 -2.1525  1.0336
 1472SOL     OW15877   3.909   0.297   6.075 -0.6300  0.3677 -0.2811
 1472SOL    HW115878   3.946   0.343   5.999 -2.4849  2.6318  0.2176
 1472SOL    HW215879   3.988   0.282   6.127  0.9183  0.7211 -2.5074
 1473SOL     OW15880   4.677   3.314   0.008  0.6675 -0.5021 -0.3703
 1473SOL    HW115881   4.692   3.287  17.612  2.5866 -1.3858  0.2109
 1473SOL    HW215882   4.620   3.240   0.029  1.9638 -1.1822  0.7331
 1474SOL     OW15883   2.967   0.553  16.711 -0.0573  0.0424  0.4326
 1474SOL    HW115884   3.043   0.608  16.692 -2.0709  1.5020 -3.3047
 1474SOL    HW215885   2.948   0.561  16.805 -1.5857  2.1202 -0.0507
 1475SOL     OW15886   4.362   0.372  12.041  0.1771  0.0490 -0.1927
 1475SOL    HW115887   4.361   0.363  12.137  0.2949  2.0998  0.0027
 1475SOL    HW215888   4.285   0.428  12.025 -0.4501 -1.4598 -2.4474
 1476SOL     OW15889   2.090   3.084  11.556  0.6675  0.2464 -0.2918
 1476SOL    HW115890   2.015   3.090  11.615  0.5834  0.6056 -0.4355
 1476SOL    HW215891   2.128   3.168  11.582  1.0919  0.1092 -0.4681
 1477SOL     OW15892   1.702   2.643   2.271 -0.1154 -0.2451  0.2647
 1477SOL    HW115893   1.791   2.678   2.272  0.0389 -0.6092 -0.2919
 1477SOL    HW215894   1.674   2.700   2.199 -0.8172 -0.3417  0.4642
 1478SOL     OW15895   0.710   2.582   5.524 -0.2548 -0.1130  0.5337
 1478SOL    HW115896   0.640   2.641   5.551  0.2708  0.4097  0.7480
 1478SOL    HW215897   0.723   2.527   5.601 -0.3268 -0.7551  0.0890
 1479SOL     OW15898   1.821   3.664   8.573 -0.1619  0.5376 -0.4887
 1479SOL    HW115899   1.902   3.625   8.604 -1.1488  0.8930  2.5455
 1479SOL    HW215900   1.830   3.758   8.589 -2.0541 -0.1789  4.8703
 1480SOL     OW15901   2.599   0.732  15.652 -0.5858 -0.4495  0.1902
 1480SOL    HW115902   2.681   0.728  15.603  1.3451 -2.7593  3.5755
 1480SOL    HW215903   2.543   0.770  15.584  0.3798 -0.0123 -0.3561
 1481SOL     OW15904   1.201   2.294  13.063  0.0471  0.2067 -0.1492
 1481SOL    HW115905   1.269   2.354  13.031  0.9818 -1.1068 -0.6157
 1481SOL    HW215906   1.247   2.214  13.089  0.5635  1.0904  1.6973
 1482SOL     OW15907   4.286   3.298  15.932 -0.1875  0.1943 -0.2496
 1482SOL    HW115908   4.255   3.385  15.906  0.6621  0.8333  0.8900
 1482SOL    HW215909   4.376   3.322  15.953  0.1323  2.1484 -3.7792
 1483SOL     OW15910   4.188   2.960  16.953  0.0031 -0.9007  0.0660
 1483SOL    HW115911   4.175   3.014  16.874 -1.2174  0.2482  1.0500
 1483SOL    HW215912   4.103   2.974  16.995  1.1453  0.6433  1.8631
 1484SOL     OW15913   3.228   3.770   7.484 -0.8781  0.0207 -0.2555
 1484SOL    HW115914   3.209   3.833   7.554 -1.8309  0.3485 -0.8152
 1484SOL    HW215915   3.304   3.807   7.439 -0.0687 -1.2689  0.0571
 1485SOL     OW15916   1.620   3.026   8.170 -0.7727 -0.2184 -0.4833
 1485SOL    HW115917   1.536   3.071   8.156 -0.3640  0.9970  0.8945
 1485SOL    HW215918   1.634   2.996   8.080 -2.4812 -1.3321 -0.3819
 1486SOL     OW15919   0.444   0.879   6.265  0.3628 -0.2800  0.6305
 1486SOL    HW115920   0.371   0.818   6.275 -0.5992  1.0071  1.4899
 1486SOL    HW215921   0.515   0.819   6.241  0.2194 -0.3291  0.3200
 1487SOL     OW15922   3.355   1.635  15.095  0.0637 -0.4031 -0.1277
 1487SOL    HW115923   3.309   1.611  15.175  1.0009 -1.3855  0.1120
 1487SOL    HW215924   3.326   1.564  15.038 -1.5635 -0.2380  0.4961
 1488SOL     OW15925   4.483   2.388   2.042  0.3595  0.1192  0.1873
 1488SOL    HW115926   4.550   2.332   2.004  1.5494  1.9016 -0.3495
 1488SOL    HW215927   4.416   2.320   2.045  0.1012  0.3145 -1.1534
 1489SOL     OW15928   0.654   1.850   5.442 -0.4978  0.3708  0.0036
 1489SOL    HW115929   0.683   1.936   5.472 -2.3670  1.8796 -2.5321
 1489SOL    HW215930   0.721   1.841   5.374 -0.2509  1.0877  0.1549
 1490SOL     OW15931   3.252   2.855   5.568 -0.7369  0.6129 -0.1637
 1490SOL    HW115932   3.234   2.900   5.650  0.6323 -1.7988  1.4659
 1490SOL    HW215933   3.344   2.880   5.554 -0.2485 -0.8559  0.4158
 1491SOL     OW15934   3.327   0.902   3.860  0.0194  0.0128 -0.1858
 1491SOL    HW115935   3.296   0.938   3.943  0.9549  0.4946 -0.0492
 1491SOL    HW215936   3.250   0.868   3.815 -1.8214  1.6593  1.7344
 1492SOL     OW15937   2.026   1.318   0.057  0.1588 -0.4982  0.0199
 1492SOL    HW115938   1.999   1.234   0.020  0.2406  0.2008 -1.6319
 1492SOL    HW215939   2.121   1.305   0.060  0.2456  0.2213  0.3744
 1493SOL     OW15940   3.129   3.257   3.669  0.2715 -0.0994  0.4357
 1493SOL    HW115941   3.088   3.333   3.711 -1.1033 -0.2826 -0.5572
 1493SOL    HW215942   3.122   3.179   3.724  1.9113  0.9583  2.1444
 1494SOL     OW15943   3.780   3.299  15.503  0.0923  0.8765 -0.7001
 1494SOL    HW115944   3.815   3.297  15.414 -0.7263 -1.5653 -0.9592
 1494SOL    HW215945   3.858   3.337  15.544  0.8483 -1.7102  0.3125
 1495SOL     OW15946   1.067   2.967   6.043 -0.0286 -0.5043 -0.9951
 1495SOL    HW115947   1.148   2.926   6.074 -0.9303 -0.5242  1.3019
 1495SOL    HW215948   1.111   3.009   5.969 -1.1541  1.1877 -0.6808
 1496SOL     OW15949   1.264   2.466  13.740  0.7606  0.2645  0.4449
 1496SOL    HW115950   1.269   2.478  13.646 -1.0400 -1.0493  0.1844
 1496SOL    HW215951   1.301   2.550  13.767 -0.8052  0.9139  0.5592
 1497SOL     OW15952   4.438   2.363   0.773 -0.1250  0.0753 -0.4509
 1497SOL    HW115953   4.486   2.386   0.853 -0.5398  0.5968 -0.3479
 1497SOL    HW215954   4.455   2.440   0.720  0.5262 -0.4409 -0.9841
 1498SOL     OW15955   1.222   4.200  10.237  0.6280 -0.0903  0.2878
 1498SOL    HW115956   1.254   4.119  10.197 -1.6168 -0.0384 -1.6344
 1498SOL    HW215957   1.217   4.261  10.163  0.6895  0.7270  0.9629
 1499SOL     OW15958   1.558   1.187   2.299 -0.1260  0.1789  0.1881
 1499SOL    HW115959   1.545   1.215   2.390 -0.4113 -2.4008  0.9510
 1499SOL    HW215960   1.472   1.215   2.266 -0.0735  0.2976  0.1534
 1500SOL     OW15961   2.716   0.683  16.896 -0.0675 -0.0865  0.5310
 1500SOL    HW115962   2.714   0.678  16.800  1.8003 -0.8677  0.5301
 1500SOL    HW215963   2.725   0.777  16.911  1.1606  0.2200 -2.2389
 1501SOL     OW15964   0.861   1.649   5.929 -0.2054 -0.1453  0.0290
 1501SOL    HW115965   0.779   1.686   5.960 -0.0881 -1.5448  1.9878
 1501SOL    HW215966   0.881   1.721   5.869  1.3702  0.8322  1.7375
 1502SOL     OW15967   0.299   1.884  12.760 -0.6332  0.2367 -0.1816
 1502SOL    HW115968   0.245   1.962  12.745 -1.2525 -0.4460 -1.5780
 1502SOL    HW215969   0.239   1.813  12.782 -0.5160  0.3143  0.3818
 1503SOL     OW15970   2.380   3.091   6.549 -0.0889  0.2749 -0.4739
 1503SOL    HW115971   2.411   3.059   6.465  0.4422  2.2583 -1.0309
 1503SOL    HW215972   2.322   3.162   6.523  1.2291  1.1895 -0.9162
 1504SOL     OW15973   3.131   3.788   4.741  0.2309  0.5637 -0.0842
 1504SOL    HW115974   3.151   3.881   4.737  1.1322  0.4270  1.5237
 1504SOL    HW215975   3.204   3.760   4.686  0.9595  0.0090  1.1684
 1505SOL     OW15976   2.063   2.186   4.352  0.4683  0.3207  0.4634
 1505SOL    HW115977   2.090   2.110   4.404  4.2977  0.4935 -1.2766
 1505SOL    HW215978   2.053   2.251   4.422  0.3660  0.4533  0.3256
 1506SOL     OW15979   0.802   1.855  14.186 -0.6313 -0.2143 -0.1914
 1506SOL    HW115980   0.776   1.764  14.199  0.0340 -0.3235  0.3727
 1506SOL    HW215981   0.869   1.842  14.119 -0.7566  2.7467 -0.8942
 1507SOL     OW15982   2.661   3.395   6.021  0.2519  0.1118 -0.0688
 1507SOL    HW115983   2.608   3.434   5.951  0.3838  0.1499 -0.1477
 1507SOL    HW215984   2.697   3.473   6.065  0.3910 -0.7855  1.4212
 1508SOL     OW15985   1.057   0.273  11.079  0.0608  0.7556  0.1849
 1508SOL    HW115986   1.140   0.225  11.081 -1.9709 -2.7406 -0.2476
 1508SOL    HW215987   1.006   0.226  11.145  2.1250 -3.1774 -1.0721
 1509SOL     OW15988   1.658   3.042   7.607 -0.6149 -0.0084  0.6465
 1509SOL    HW115989   1.605   2.997   7.541  0.1955  0.2504 -0.1704
 1509SOL    HW215990   1.646   3.132   7.578  0.5783 -0.5762 -1.5513
 1510SOL     OW15991   1.388   0.089   5.352  0.0065  0.3344 -0.1261
 1510SOL    HW115992   1.446   0.164   5.344  0.4964 -0.1376 -1.0594
 1510SOL    HW215993   1.367   0.097   5.444  1.5150  1.5912  0.0988
 1511SOL     OW15994   0.059   3.193   7.743 -0.2030  0.1015  0.5080
 1511SOL    HW115995   0.058   3.285   7.718  3.3134  0.4853  1.6553
 1511SOL    HW215996   4.701   3.169   7.787 -0.8065 -0.4875 -0.9681
 1512SOL     OW15997   0.912   4.157   3.412  0.0907  0.2809  0.6388
 1512SOL    HW115998   0.975   4.227   3.433  1.0038 -0.0170 -1.0291
 1512SOL    HW215999   0.900   4.115   3.496 -0.2883  1.2083  1.0470
 1513SOL     OW16000   1.338   2.420   1.882  0.4986 -0.8484  0.6435
 1513SOL    HW116001   1.376   2.454   1.801 -1.9129  0.7884  0.1912
 1513SOL    HW216002   1.255   2.377   1.860  1.5443 -1.6741 -1.6545
 1514SOL     OW16003   0.011   4.391  16.348  0.0855  0.8194 -0.1761
 1514SOL    HW116004   4.723   4.296  16.351 -2.4113  1.0602 -2.0951
 1514SOL    HW216005   0.100   4.405  16.381 -0.2584  3.2036 -0.2693
 1515SOL     OW16006   2.561   2.129   7.220  0.0341 -0.5173 -0.2927
 1515SOL    HW116007   2.492   2.079   7.264 -0.6663  0.7032  0.0006
 1515SOL    HW216008   2.499   2.182   7.169 -1.4614 -0.9283  1.0712
 1516SOL     OW16009   4.186   2.029   4.214  0.0121 -0.1801  0.4976
 1516SOL    HW116010   4.274   2.010   4.182 -1.1620 -1.1597 -2.1044
 1516SOL    HW216011   4.149   2.062   4.133 -1.5178 -0.4815  1.0825
 1517SOL     OW16012   1.101   1.835   3.096 -0.0941  0.4813  0.3874
 1517SOL    HW116013   1.173   1.825   3.034 -0.2436 -1.4060  0.5252
 1517SOL    HW216014   1.156   1.812   3.172 -1.2922 -0.0494  1.0879
 1518SOL     OW16015   2.418   0.294   4.007  0.2024 -0.5083  0.2269
 1518SOL    HW116016   2.387   0.338   3.928  0.8872  2.1798  1.4935
 1518SOL    HW216017   2.468   0.358   4.056  1.0444 -0.2154 -1.0039
 1519SOL     OW16018   1.298   3.303  13.220 -0.1600  0.4579 -0.0208
 1519SOL    HW116019   1.351   3.382  13.230  0.5097  0.1666 -1.3005
 1519SOL    HW216020   1.282   3.265  13.307 -0.7590  0.2559 -0.2192
 1520SOL     OW16021   3.219   1.195   7.388  0.4209 -0.2116 -0.3355
 1520SOL    HW116022   3.181   1.169   7.304  1.6538  0.1235 -0.9999
 1520SOL    HW216023   3.136   1.225   7.425  1.7321  1.8225  0.9918
 1521SOL     OW16024   4.259   3.306   2.831 -0.8302  0.2060  0.3800
 1521SOL    HW116025   4.288   3.247   2.900  2.5879  0.2463 -1.0389
 1521SOL    HW216026   4.257   3.390   2.876  0.7858  0.8090 -0.6669
 1522SOL     OW16027   3.819   1.066   9.301 -0.3993 -0.0163 -0.3375
 1522SOL    HW116028   3.898   1.063   9.248  0.2735  0.9978  0.6145
 1522SOL    HW216029   3.767   1.138   9.266  0.6028  1.6794  1.6836
 1523SOL     OW16030   4.298   1.652   2.606  0.0198  0.1714 -0.0542
 1523SOL    HW116031   4.308   1.700   2.524 -0.1194 -0.8042 -0.6305
 1523SOL    HW216032   4.224   1.597   2.580  1.2906 -2.2740  1.4943
 1524SOL     OW16033   4.203   2.889   4.055 -0.7211 -0.0040  0.1520
 1524SOL    HW116034   4.287   2.934   4.052 -0.5258 -0.1061  4.2934
 1524SOL    HW216035   4.202   2.846   3.970 -1.4119  0.3811 -0.0389
 1525SOL     OW16036   0.880   4.022   5.665  0.1664 -0.2819  0.2971
 1525SOL    HW116037   0.819   3.951   5.684 -1.0969  0.4358 -1.0397
 1525SOL    HW216038   0.958   3.980   5.703 -0.2103 -2.5020 -1.3635
 1526SOL     OW16039   0.058   4.380   1.950  0.2332 -0.5342  0.2494
 1526SOL    HW116040   0.119   4.336   2.009 -1.0440 -1.4289  0.9036
 1526SOL    HW216041   4.697   4.337   1.966  0.0660 -0.3507 -0.1390
 1527SOL     OW16042   1.428   0.442   5.088 -0.1371 -0.2702  0.2806
 1527SOL    HW116043   1.439   0.511   5.153  1.8028  0.1101 -0.4585
 1527SOL    HW216044   1.452   0.472   5.001 -0.8376  0.0854  0.2143
 1528SOL     OW16045   3.793   3.675   4.932  0.0336  0.1674  0.2423
 1528SOL    HW116046   3.833   3.649   4.849  0.8452 -1.2729  1.0824
 1528SOL    HW216047   3.790   3.593   4.981  1.3773  0.6328  1.1305
 1529SOL     OW16048   1.576   4.459   5.123 -0.4557 -0.1585  0.1363
 1529SOL    HW116049   1.532   4.515   5.060 -1.2282 -0.8259  0.0800
 1529SOL    HW216050   1.572   4.516   5.200  2.3946 -1.2840  1.1194
 1530SOL     OW16051   4.665   2.187   4.437  0.3360  0.1055  0.0978
 1530SOL    HW116052   4.721   2.153   4.507  1.7426 -0.5351 -1.3404
 1530SOL    HW216053   4.610   2.243   4.492  2.0920  0.1442  1.8170
 1531SOL     OW16054   3.031   0.986   8.366 -0.2118  0.0574 -0.3876
 1531SOL    HW116055   2.981   0.909   8.339  0.9279 -0.2820 -1.5087
 1531SOL    HW216056   3.094   0.940   8.422 -0.7552  0.7148  0.7701
 1532SOL     OW16057   3.684   3.674  11.808  0.4880  0.2542  0.0491
 1532SOL    HW116058   3.734   3.755  11.800  1.0694 -0.0185  0.8972
 1532SOL    HW216059   3.599   3.716  11.821  1.0768  1.3451  0.3725
 1533SOL     OW16060   0.278   1.745   7.488  0.6010 -0.0566  0.1745
 1533SOL    HW116061   0.184   1.733   7.505 -0.1197  1.5759 -2.7275
 1533SOL    HW216062   0.287   1.840   7.497  1.5386 -0.1185 -0.0968
 1534SOL     OW16063   3.364   1.292  17.211  0.2706  0.0866 -0.6649
 1534SOL    HW116064   3.292   1.230  17.200 -0.9773  1.1756  1.2291
 1534SOL    HW216065   3.318   1.371  17.183 -2.1854 -0.8941  0.5704
 1535SOL     OW16066   1.759   1.911   4.883 -0.5750  0.1124  0.4458
 1535SOL    HW116067   1.732   1.924   4.792 -0.0963 -1.1135  0.1271
 1535SOL    HW216068   1.782   1.818   4.875 -1.1068 -0.1329  1.7613
 1536SOL     OW16069   3.739   0.817   4.107 -0.2521 -0.2883  0.5203
 1536SOL    HW116070   3.653   0.826   4.065  0.8120  1.7797 -1.2569
 1536SOL    HW216071   3.715   0.787   4.194 -0.9578  2.1530  1.1781
 1537SOL     OW16072   4.601   2.080   6.952 -0.0369 -0.0293  0.0281
 1537SOL    HW116073   4.508   2.080   6.927  0.1408 -0.0676 -0.6211
 1537SOL    HW216074   4.609   2.045   7.041 -0.3786  0.7662  0.3770
 1538SOL     OW16075   1.303   3.481  17.058  0.3162 -0.0747 -0.1018
 1538SOL    HW116076   1.362   3.444  17.123 -1.4431  0.4944  1.8169
 1538SOL    HW216077   1.249   3.531  17.119  1.2847  0.2750  0.4698
 1539SOL     OW16078   0.925   0.041   2.358  0.2678 -0.5082 -0.3005
 1539SOL    HW116079   0.957   0.130   2.372  1.4938 -0.4369 -3.6763
 1539SOL    HW216080   0.839   0.075   2.335  0.1327 -1.0683 -0.6416
 1540SOL     OW16081   2.315   3.139  15.269  0.5264 -0.2869  0.8972
 1540SOL    HW116082   2.303   3.061  15.323 -2.4661  0.0983  0.7601
 1540SOL    HW216083   2.408   3.137  15.244 -0.0650 -0.7748 -1.2482
 1541SOL     OW16084   0.230   4.631  15.199  0.1643 -0.3976 -0.0373
 1541SOL    HW116085   0.155   4.572  15.190 -0.5819  0.0491  3.1776
 1541SOL    HW216086   0.243   4.663  15.110 -1.0583  2.5002  0.8465
 1542SOL     OW16087   3.308   1.111   6.557 -0.4972  0.1517 -0.3583
 1542SOL    HW116088   3.224   1.135   6.596 -1.0604  0.5303 -1.8338
 1542SOL    HW216089   3.362   1.184   6.588  0.1433 -1.8865  3.3938
 1543SOL     OW16090   3.431   1.437  14.235  0.0916 -0.3658 -0.5758
 1543SOL    HW116091   3.500   1.489  14.194  0.2502  0.4545  0.7294
 1543SOL    HW216092   3.485   1.359  14.244  1.1108  0.2341 -1.4551
 1544SOL     OW16093   3.373   1.743   5.029 -0.6587  0.2502  0.0241
 1544SOL    HW116094   3.408   1.789   4.953  1.2335 -1.7919 -0.3304
 1544SOL    HW216095   3.322   1.817   5.061  0.1601  1.0144 -0.4448
 1545SOL     OW16096   0.386   1.980   5.980 -0.3188 -0.0962 -0.1853
 1545SOL    HW116097   0.351   1.895   5.954  0.8462 -0.7124  0.2322
 1545SOL    HW216098   0.424   2.023   5.903  1.2113  0.3313  0.8007
 1546SOL     OW16099   3.226   4.293  12.716 -0.0564  0.6065  0.1036
 1546SOL    HW116100   3.310   4.332  12.743  0.9006 -0.2875 -1.6090
 1546SOL    HW216101   3.237   4.202  12.743  0.6788 -0.0320 -2.3871
 1547SOL     OW16102   2.968   1.808   0.874 -0.2334  1.1902  0.5937
 1547SOL    HW116103   2.983   1.877   0.810  0.4402  0.7974  0.3266
 1547SOL    HW216104   2.912   1.745   0.829  1.0438  1.9208 -1.9993
 1548SOL     OW16105   4.128   0.333   8.136  0.5202 -0.1793  0.1083
 1548SOL    HW116106   4.130   0.286   8.220  2.2699  0.1254  0.2341
 1548SOL    HW216107   4.207   0.386   8.135 -0.3643  1.0462 -3.4187
 1549SOL     OW16108   1.496   0.397   2.513  0.3287  0.3007  0.0857
 1549SOL    HW116109   1.427   0.451   2.551 -0.2874  0.2060 -0.8960
 1549SOL    HW216110   1.547   0.466   2.469  0.1073  0.6241  0.3433
 1550SOL     OW16111   4.417   3.050   8.339  0.0329 -0.1390  0.5060
 1550SOL    HW116112   4.436   2.993   8.413 -0.8000  1.2098  1.7586
 1550SOL    HW216113   4.425   2.984   8.270 -1.2880 -0.9453  1.1268
 1551SOL     OW16114   0.505   2.873  10.823 -0.8654  0.7092  0.0071
 1551SOL    HW116115   0.411   2.888  10.832 -0.7807  1.1433  0.1758
 1551SOL    HW216116   0.510   2.782  10.855  2.8935  0.8708 -0.0608
 1552SOL     OW16117   4.259   2.344   2.602 -0.4149 -0.3074 -0.4285
 1552SOL    HW116118   4.228   2.268   2.554 -0.1127 -0.3092 -0.6217
 1552SOL    HW216119   4.335   2.369   2.548  0.2188  0.9674  1.0379
 1553SOL     OW16120   1.999   3.899   1.937 -0.1549  0.2830 -0.0091
 1553SOL    HW116121   2.043   3.898   1.852 -1.8844  0.2723 -0.9029
 1553SOL    HW216122   2.041   3.972   1.983 -1.7464 -0.8574  3.1937
 1554SOL     OW16123   2.585   1.912   0.683  0.0030 -0.0103  0.5508
 1554SOL    HW116124   2.595   2.007   0.687 -0.0345  0.0593 -1.2532
 1554SOL    HW216125   2.637   1.898   0.604 -0.7220 -0.9312  0.2416
 1555SOL     OW16126   2.384   4.576   5.753  0.1771 -0.4662 -0.3062
 1555SOL    HW116127   2.304   4.584   5.701 -0.7198  0.1750  1.1758
 1555SOL    HW216128   2.440   4.526   5.694 -0.3896 -1.6943  0.1776
 1556SOL     OW16129   3.915   2.541   7.497  0.4709 -0.0907  0.4608
 1556SOL    HW116130   4.001   2.502   7.477 -0.7137 -0.8291 -3.1457
 1556SOL    HW216131   3.932   2.635   7.497  0.9742 -0.1763 -0.7263
 1557SOL     OW16132   2.728   3.391   3.101 -0.3026  0.3856 -0.5343
 1557SOL    HW116133   2.688   3.440   3.173  0.2062 -2.4296  1.6692
 1557SOL    HW216134   2.653   3.351   3.057 -1.6596  0.8186  1.3655
 1558SOL     OW16135   3.999   3.119   7.525  0.0087  0.2966 -0.0199
 1558SOL    HW116136   3.926   3.175   7.551 -1.2801  0.4049 -3.7992
 1558SOL    HW216137   4.037   3.163   7.449 -1.7649 -0.1194 -1.1585
 1559SOL     OW16138   0.731   1.061  15.381  0.3043  1.0424 -0.2338
 1559SOL    HW116139   0.800   1.089  15.442  0.6939  1.3643 -0.8258
 1559SOL    HW216140   0.771   0.985  15.338  0.5311  0.7765  0.4490
 1560SOL     OW16141   1.244   2.591   5.190  0.0999  0.2031 -0.1280
 1560SOL    HW116142   1.195   2.670   5.167  2.0251  1.7142  0.9035
 1560SOL    HW216143   1.188   2.550   5.257 -0.9126  1.8484  0.0445
 1561SOL     OW16144   3.512   0.275   7.292 -0.1658 -0.3539 -0.2687
 1561SOL    HW116145   3.505   0.362   7.332 -1.2677 -0.6005  0.0633
 1561SOL    HW216146   3.557   0.300   7.211  0.5829  1.8718  0.8150
 1562SOL     OW16147   4.608   2.718   7.819 -0.2282 -0.0586 -0.1064
 1562SOL    HW116148   4.514   2.707   7.804 -0.0961 -0.8057 -0.4221
 1562SOL    HW216149   4.622   2.642   7.877 -1.0444  0.2948  0.5537
 1563SOL     OW16150   3.097   2.025  11.457 -0.5335 -0.3290 -0.0018
 1563SOL    HW116151   3.170   2.087  11.456 -0.4159 -0.5095 -2.0398
 1563SOL    HW216152   3.031   2.087  11.487 -0.5814  0.1008 -1.0165
 1564SOL     OW16153   1.156   0.810  15.351 -0.1851 -0.0065 -0.4629
 1564SOL    HW116154   1.170   0.865  15.274  2.9615  1.6500  1.3074
 1564SOL    HW216155   1.238   0.760  15.349 -0.0830  0.1465  0.2916
 1565SOL     OW16156   3.605   1.985   8.145  0.0378 -0.1726 -0.4150
 1565SOL    HW116157   3.585   2.029   8.062  1.9244  0.5437 -0.5035
 1565SOL    HW216158   3.533   2.006   8.204 -0.3074 -1.6740 -0.2968
 1566SOL     OW16159   3.951   1.512   2.997  0.1110  0.3314  0.1863
 1566SOL    HW116160   4.029   1.461   3.019 -1.0671 -1.4985  0.0593
 1566SOL    HW216161   3.970   1.528   2.904 -0.6688 -2.4949 -0.4456
 1567SOL     OW16162   4.586   3.438   1.408 -0.3756  0.2144  0.0846
 1567SOL    HW116163   4.559   3.381   1.480 -0.9533  1.4165  0.8278
 1567SOL    HW216164   4.607   3.364   1.351  1.6354  0.6342  0.2998
 1568SOL     OW16165   4.322   0.401   8.369  0.3487 -0.4957 -0.1000
 1568SOL    HW116166   4.261   0.473   8.351  0.8864 -0.8583 -3.4375
 1568SOL    HW216167   4.402   0.453   8.377 -2.0586  3.1624  0.2634
 1569SOL     OW16168   2.835   0.247   6.965  0.5454  0.1267  0.4898
 1569SOL    HW116169   2.801   0.297   6.891  1.2856 -1.2236 -0.7851
 1569SOL    HW216170   2.929   0.265   6.958  0.4577 -0.3279 -2.0724
 1570SOL     OW16171   4.631   0.594  11.861 -0.1038 -0.6142 -0.2251
 1570SOL    HW116172   4.646   0.637  11.945 -1.7842 -0.8008  0.1651
 1570SOL    HW216173   4.630   0.502  11.887  0.3606 -0.8936 -1.2336
 1571SOL     OW16174   0.489   3.446   6.168 -0.3064  0.3637 -0.3251
 1571SOL    HW116175   0.548   3.393   6.220 -1.5870  0.2741  1.0356
 1571SOL    HW216176   0.554   3.499   6.122  1.6090 -2.8752 -1.3877
 1572SOL     OW16177   4.533   3.762  16.387 -0.0593 -0.5713  0.2687
 1572SOL    HW116178   4.514   3.674  16.353 -1.5635  0.3067 -1.1058
 1572SOL    HW216179   4.508   3.817  16.314  1.6646 -1.4458 -0.9762
 1573SOL     OW16180   0.400   4.341   3.091  0.2512  0.0375 -0.4687
 1573SOL    HW116181   0.466   4.368   3.155 -0.5646 -0.8496  0.7345
 1573SOL    HW216182   0.416   4.410   3.027 -2.0656 -1.3913 -2.5670
 1574SOL     OW16183   1.526   4.681   4.960  0.1923 -0.6041  0.2790
 1574SOL    HW116184   1.590   0.020   4.996  1.8708 -2.0698 -0.1686
 1574SOL    HW216185   1.557   4.665   4.871  0.0158 -0.6461  0.2246
 1575SOL     OW16186   2.916   1.301   6.405  0.9985  0.3894 -0.1890
 1575SOL    HW116187   2.914   1.377   6.463  0.2013 -0.8136  1.3562
 1575SOL    HW216188   2.851   1.246   6.448  2.0511 -1.0329 -0.4266
 1576SOL     OW16189   0.144   0.347   1.537  0.1794 -0.0941  0.2691
 1576SOL    HW116190   0.094   0.316   1.462  1.0319  0.6560 -0.6189
 1576SOL    HW216191   0.231   0.356   1.498 -0.0098 -0.2342 -0.1942
 1577SOL     OW16192   3.101   4.441   1.369  0.6450 -0.7735 -0.3190
 1577SOL    HW116193   3.183   4.468   1.327  0.0832 -0.4845 -1.2368
 1577SOL    HW216194   3.060   4.410   1.288 -0.8899 -1.2767  0.6668
 1578SOL     OW16195   1.002   2.042   0.512  0.7233  0.7019  0.8589
 1578SOL    HW116196   0.993   2.108   0.580 -1.0831  1.6263 -0.2844
 1578SOL    HW216197   1.096   2.042   0.493  1.1055  0.5183  2.7707
 1579SOL     OW16198   2.125   4.010   3.090  0.0285  0.3795 -0.5025
 1579SOL    HW116199   2.165   4.090   3.124 -2.2371  2.1268 -1.9778
 1579SOL    HW216200   2.155   3.944   3.153 -2.4974 -0.4123 -0.1159
 1580SOL     OW16201   0.280   0.386   5.904 -0.5252 -0.5227 -0.4079
 1580SOL    HW116202   0.266   0.297   5.938  0.6994  0.6774  3.2774
 1580SOL    HW216203   0.371   0.385   5.874  0.2690 -2.3886  2.0917
 1581SOL     OW16204   0.032   3.432   9.803 -0.0826 -0.5764  0.0716
 1581SOL    HW116205   4.666   3.440   9.768  0.0054 -0.1155 -0.0461
 1581SOL    HW216206   0.039   3.348   9.849  0.1660 -0.5156  0.1452
 1582SOL     OW16207   2.592   2.816   7.048  0.4437 -0.8542 -0.1239
 1582SOL    HW116208   2.517   2.808   7.107  0.0957  0.2864 -0.4233
 1582SOL    HW216209   2.576   2.908   7.028  1.7929 -0.5820  0.0597
 1583SOL     OW16210   2.227   3.043   3.096  0.7158 -0.1080 -0.0385
 1583SOL    HW116211   2.208   2.987   3.171 -0.8871  0.3379 -0.1236
 1583SOL    HW216212   2.165   3.116   3.097  1.2487  0.3606 -0.7554
 1584SOL     OW16213   3.463   4.237   9.927 -0.4076  0.2929 -0.2216
 1584SOL    HW116214   3.432   4.168   9.986 -0.7951  1.5824  1.0821
 1584SOL    HW216215   3.413   4.211   9.850 -0.2456 -0.7349  0.0258
 1585SOL     OW16216   0.742   1.614   8.910  0.4797 -0.2210 -0.2146
 1585SOL    HW116217   0.818   1.668   8.932 -0.6745  1.2696  0.1433
 1585SOL    HW216218   0.671   1.675   8.928  1.0692  0.2703  0.4244
 1586SOL     OW16219   1.471   2.817   5.221  0.3728 -1.0254 -0.2705
 1586SOL    HW116220   1.535   2.752   5.249  2.5639  0.9298 -0.6142
 1586SOL    HW216221   1.529   2.893   5.211 -0.8927 -0.0996 -0.5307
 1587SOL     OW16222   3.680   3.925   8.483 -0.6684 -0.7209 -0.0482
 1587SOL    HW116223   3.592   3.930   8.446 -1.2057 -2.7494  0.9658
 1587SOL    HW216224   3.654   3.896   8.570 -1.7380 -0.8494 -0.4083
 1588SOL     OW16225   0.840   4.276   6.040  0.0517  0.0604  0.0338
 1588SOL    HW116226   0.880   4.251   5.956 -2.1647 -0.3780 -0.9040
 1588SOL    HW216227   0.753   4.296   6.005  0.8769  1.6436 -1.1227
 1589SOL     OW16228   4.105   0.773  17.502 -0.1099  0.0510  0.4878
 1589SOL    HW116229   4.153   0.691  17.498  0.6204  0.4760  0.5461
 1589SOL    HW216230   4.123   0.818  17.419  0.7797  1.4120  1.4030
 1590SOL     OW16231   2.956   2.047   5.205  0.4735 -0.2898  0.3878
 1590SOL    HW116232   2.883   2.084   5.155  1.4232  0.9917 -0.0445
 1590SOL    HW216233   2.970   2.110   5.275  1.2326  1.4292 -1.3011
 1591SOL     OW16234   4.583   0.437   5.561 -0.6669  0.4131 -0.0688
 1591SOL    HW116235   4.672   0.472   5.553 -0.0118 -1.3213 -0.3744
 1591SOL    HW216236   4.585   0.428   5.656  1.1027  1.2836 -0.0231
 1592SOL     OW16237   1.654   1.162   6.859  0.1837  0.0125  0.1946
 1592SOL    HW116238   1.711   1.128   6.928 -1.4753 -0.1651  1.5004
 1592SOL    HW216239   1.680   1.106   6.787  1.7220 -0.6742  1.2790
 1593SOL     OW16240   3.897   0.077   6.273 -0.6053  0.0261 -0.4631
 1593SOL    HW116241   3.963   0.042   6.213  0.5296  1.9659 -0.3512
 1593SOL    HW216242   3.846   4.721   6.286 -0.3842  0.0486  0.5291
 1594SOL     OW16243   2.652   0.125   0.765 -0.1455  0.3815 -0.7701
 1594SOL    HW116244   2.562   0.094   0.750 -0.0376 -1.1693  1.6802
 1594SOL    HW216245   2.702   0.064   0.712 -0.5271 -0.0311 -0.6629
 1595SOL     OW16246   2.245   3.506   2.945 -0.5104  0.9872  0.1798
 1595SOL    HW116247   2.199   3.541   2.869 -0.0104  0.6571 -0.2814
 1595SOL    HW216248   2.274   3.418   2.919  0.6656  1.1529  0.9130
 1596SOL     OW16249   2.180   3.298   6.478  0.2391 -0.2757 -0.8158
 1596SOL    HW116250   2.177   3.318   6.385  0.6193  0.0586 -0.7570
 1596SOL    HW216251   2.094   3.327   6.506  0.5626  0.3016 -0.4211
 1597SOL     OW16252   3.214   2.025   4.627  0.1866  0.3221  0.2519
 1597SOL    HW116253   3.194   2.023   4.533  0.0885 -0.3081  0.2869
 1597SOL    HW216254   3.190   2.116   4.639  2.1382  0.7558  0.8832
 1598SOL     OW16255   2.925   2.640  12.439 -0.1714  0.3866  0.2758
 1598SOL    HW116256   2.872   2.717  12.418 -0.2606  0.4200  0.6315
 1598SOL    HW216257   2.908   2.591  12.358  2.4828  1.0642 -0.7037
 1599SOL     OW16258   3.127   0.512   2.278  0.7549  0.4850 -0.0532
 1599SOL    HW116259   3.106   0.428   2.238  0.7726 -0.7032  2.4632
 1599SOL    HW216260   3.215   0.536   2.248  0.8084 -0.3970 -0.5976
 1600SOL     OW16261   1.145   1.971   5.804  0.6241  0.7280  0.7049
 1600SOL    HW116262   1.193   1.889   5.804 -2.6273 -1.1862  2.3001
 1600SOL    HW216263   1.104   1.953   5.889  2.9980 -0.7859  1.5309
 1601SOL     OW16264   4.208   2.987   2.794 -0.1438 -0.2875 -0.6040
 1601SOL    HW116265   4.178   2.965   2.882 -0.9284 -4.3544 -1.8990
 1601SOL    HW216266   4.198   3.082   2.795 -1.3900 -0.4341  0.7351
 1602SOL     OW16267   2.538   0.265   7.557  0.2953 -0.3725  0.0366
 1602SOL    HW116268   2.499   0.319   7.487  2.1862  0.1214 -0.6216
 1602SOL    HW216269   2.588   0.324   7.614 -2.0215  1.1325  0.5125
 1603SOL     OW16270   1.314   2.307   2.802 -0.6280 -0.0079 -0.3551
 1603SOL    HW116271   1.295   2.399   2.786  2.0594  1.0265  2.6125
 1603SOL    HW216272   1.316   2.271   2.713 -0.7320  1.5171 -0.9758
 1604SOL     OW16273   2.958   3.078   7.443 -0.1025 -0.2713 -0.3232
 1604SOL    HW116274   2.905   3.003   7.469  1.1516 -1.2047 -0.4683
 1604SOL    HW216275   3.037   3.032   7.416 -0.1440 -0.3642 -0.2868
 1605SOL     OW16276   2.953   3.392  17.632 -0.3183 -0.4151  0.1584
 1605SOL    HW116277   2.936   3.309  17.588  2.0681 -1.3852  1.0564
 1605SOL    HW216278   3.041   3.368  17.661 -0.8702 -0.6849  1.6316
 1606SOL     OW16279   2.743   1.712   3.093  0.7563 -0.3731 -0.6378
 1606SOL    HW116280   2.738   1.804   3.119  4.2959 -0.3936  0.1262
 1606SOL    HW216281   2.835   1.702   3.068  0.7204  2.1114 -1.7497
 1607SOL     OW16282   4.643   1.182  14.022  0.1138  0.1434 -0.3080
 1607SOL    HW116283   4.697   1.238  13.965  1.4991 -1.1012 -0.2201
 1607SOL    HW216284   4.585   1.145  13.955  0.0294 -0.0133 -0.1486
 1608SOL     OW16285   4.686   3.434   3.018  0.0619 -0.2256  0.1651
 1608SOL    HW116286   4.710   3.381   2.942  0.0209  0.8831 -0.6227
 1608SOL    HW216287   4.698   3.361   3.079 -0.2555 -0.2246  0.2280
 1609SOL     OW16288   0.368   2.069   6.246 -0.4192  0.0249 -0.2236
 1609SOL    HW116289   0.382   2.084   6.152  0.3767 -2.6647 -0.5595
 1609SOL    HW216290   0.297   2.005   6.232 -0.6088  0.1709  0.0955
 1610SOL     OW16291   3.427   0.249  11.927  0.5623 -0.6094  0.1779
 1610SOL    HW116292   3.472   0.284  12.004  3.1110 -0.9469 -1.1496
 1610SOL    HW216293   3.484   0.278  11.856  1.4336 -1.2383  0.6309
 1611SOL     OW16294   0.617   1.325   9.212  0.2043  0.0388  0.0557
 1611SOL    HW116295   0.551   1.378   9.256 -0.4829 -1.6427  1.0592
 1611SOL    HW216296   0.664   1.396   9.168 -1.5007  1.6320  0.8578
 1612SOL     OW16297   0.369   2.900   1.567  0.4296  0.4820  0.0664
 1612SOL    HW116298   0.290   2.891   1.514 -1.4504  1.4052  2.7763
 1612SOL    HW216299   0.439   2.910   1.502 -0.4997  1.6408 -0.7660
 1613SOL     OW16300   1.438   4.401  16.472  0.2301  0.9016 -0.5526
 1613SOL    HW116301   1.387   4.405  16.553  0.2727  0.2180 -0.4918
 1613SOL    HW216302   1.492   4.327  16.499 -0.0934  1.1729  0.8350
 1614SOL     OW16303   1.139   1.607   6.276  0.4085  0.2549  0.3977
 1614SOL    HW116304   1.181   1.525   6.301  3.0007  1.0087 -1.5092
 1614SOL    HW216305   1.054   1.570   6.253 -0.2517  1.4483  0.9027
 1615SOL     OW16306   0.494   2.259   4.089  0.2418 -1.0208  0.2142
 1615SOL    HW116307   0.450   2.174   4.085  0.6449 -1.2805  1.3245
 1615SOL    HW216308   0.451   2.297   4.166 -0.0901 -0.2376 -0.3616
 1616SOL     OW16309   1.656   2.335   0.816 -0.1245  0.1503  0.1046
 1616SOL    HW116310   1.639   2.366   0.905 -1.4449 -0.4470  0.0663
 1616SOL    HW216311   1.583   2.275   0.804  2.0259 -2.4095  0.0450
 1617SOL     OW16312   3.793   0.946   7.789  0.2291  0.3435  0.4409
 1617SOL    HW116313   3.754   1.033   7.799 -1.0945 -0.6056  3.5624
 1617SOL    HW216314   3.861   0.943   7.856  0.7200  0.8881 -0.0358
 1618SOL     OW16315   2.495   4.365   8.114  0.2032 -0.1381  0.1274
 1618SOL    HW116316   2.401   4.354   8.096 -0.6712  2.4215  3.0456
 1618SOL    HW216317   2.511   4.459   8.109  1.0804 -0.3726 -1.2958
 1619SOL     OW16318   0.163   2.861   3.332  0.2784  0.8394 -0.0642
 1619SOL    HW116319   0.125   2.863   3.244 -1.4916 -1.0630  0.6517
 1619SOL    HW216320   0.128   2.941   3.372  0.0635 -0.3799  2.1832
 1620SOL     OW16321   3.744   2.326  10.923  0.0247 -0.1851 -0.8078
 1620SOL    HW116322   3.650   2.324  10.939  0.4591 -1.2079  1.6343
 1620SOL    HW216323   3.776   2.387  10.990 -1.3773  0.8921 -1.1288
 1621SOL     OW16324   1.017   3.500   1.032 -0.1119  0.5754  0.5418
 1621SOL    HW116325   0.934   3.522   1.076 -0.5728 -3.2473  1.6179
 1621SOL    HW216326   1.042   3.592   1.024  1.4781  0.1311  0.4118
 1622SOL     OW16327   4.377   2.066   4.656  0.7359  0.4012  0.4843
 1622SOL    HW116328   4.285   2.092   4.659  1.3844  3.0499 -2.6071
 1622SOL    HW216329   4.377   2.004   4.583 -2.3318  2.2016 -1.0438
 1623SOL     OW16330   1.025   2.900   8.277  0.2300 -0.5256 -0.0419
 1623SOL    HW116331   1.006   2.858   8.361  1.2728 -1.1690 -0.1249
 1623SOL    HW216332   1.012   2.833   8.211  2.3556 -0.0518 -0.9448
 1624SOL     OW16333   1.994   2.374   4.567  0.3477 -0.0053  0.1465
 1624SOL    HW116334   2.068   2.379   4.627  1.1931  0.8601 -0.9704
 1624SOL    HW216335   1.984   2.466   4.544  1.1478 -0.2760 -1.3031
 1625SOL     OW16336   2.272   2.420  11.439  0.1824 -0.1023 -0.4349
 1625SOL    HW116337   2.292   2.474  11.516  0.4780  0.8816 -1.1929
 1625SOL    HW216338   2.290   2.465  11.356  1.1445 -0.6406 -0.5243
 1626SOL     OW16339   2.333   1.393   7.920 -0.1610  0.5561  0.3373
 1626SOL    HW116340   2.376   1.329   7.863 -0.0902  2.3998 -1.6763
 1626SOL    HW216341   2.406   1.455   7.924  1.3125 -1.0178 -1.4641
 1627SOL     OW16342   2.738   2.647  10.111 -0.4920  0.3356 -0.3473
 1627SOL    HW116343   2.832   2.667  10.113 -0.2491 -0.6895 -1.4425
 1627SOL    HW216344   2.698   2.728  10.080 -0.9399  0.2207 -0.0676
 1628SOL     OW16345   3.594   0.978   2.769 -0.5766 -0.2101 -0.0334
 1628SOL    HW116346   3.577   0.948   2.858 -1.0957  1.5481  0.4595
 1628SOL    HW216347   3.631   0.898   2.733 -0.9746  0.3145 -1.6362
 1629SOL     OW16348   3.328   2.226   3.008  0.5163 -0.0752 -0.0070
 1629SOL    HW116349   3.238   2.208   2.981  0.7070 -2.2033  0.7900
 1629SOL    HW216350   3.373   2.160   2.955 -0.9741 -0.1945 -1.1407
 1630SOL     OW16351   0.194   2.689   2.900 -0.0658  0.3878  0.3268
 1630SOL    HW116352   0.162   2.672   2.812  0.3750 -0.0536  0.2461
 1630SOL    HW216353   0.150   2.616   2.943  0.2015 -0.7365 -1.2984
 1631SOL     OW16354   3.429   4.460   4.792  0.1587  0.6253 -0.0697
 1631SOL    HW116355   3.439   4.496   4.880  1.0043  0.3288 -0.0433
 1631SOL    HW216356   3.507   4.407   4.774  1.3088  2.2545  0.0929
 1632SOL     OW16357   0.905   3.913   6.576 -0.4066  0.2200  0.3619
 1632SOL    HW116358   0.995   3.882   6.583 -1.1567 -1.9368  0.7013
 1632SOL    HW216359   0.919   4.007   6.588  0.5462  0.0985  0.1314
 1633SOL     OW16360   2.126   0.821   5.926 -0.2701  0.1781  0.0572
 1633SOL    HW116361   2.179   0.856   5.855 -1.7228  0.8352 -0.7091
 1633SOL    HW216362   2.198   0.794   5.983 -1.5386  0.4806  1.8176
 1634SOL     OW16363   0.011   3.160  12.667 -0.1336 -0.2734 -0.4922
 1634SOL    HW116364   0.022   3.209  12.749  1.2681 -1.1123 -0.1805
 1634SOL    HW216365   4.647   3.123  12.682  0.9634 -2.1128  1.4016
 1635SOL     OW16366   0.255   0.821   5.948 -0.6130  0.6089 -0.0265
 1635SOL    HW116367   0.328   0.762   5.967  0.0624  0.6404 -2.5015
 1635SOL    HW216368   0.284   0.871   5.872  0.8311 -0.9181 -0.4908
 1636SOL     OW16369   1.584   0.068   2.934  0.0511 -0.1732 -0.1936
 1636SOL    HW116370   1.521   0.062   2.863  1.2598  1.3149 -1.3881
 1636SOL    HW216371   1.664   0.092   2.888 -0.4117  0.0432 -0.8659
 1637SOL     OW16372   4.435   2.400   4.510 -0.6193  0.0037  1.0209
 1637SOL    HW116373   4.349   2.373   4.478 -0.2817  1.2969 -0.9955
 1637SOL    HW216374   4.414   2.441   4.594  2.4138 -1.4406  2.4931
 1638SOL     OW16375   1.947   2.756  17.604  0.6192  0.2343  0.0218
 1638SOL    HW116376   1.940   2.848  17.580  2.0506  0.6021  1.0232
 1638SOL    HW216377   1.884   2.761  17.675  0.5843  0.5954 -0.0377
 1639SOL     OW16378   4.007   1.702   7.916 -0.4204  0.1452  0.0143
 1639SOL    HW116379   4.085   1.756   7.932 -0.5826  0.6453 -0.8698
 1639SOL    HW216380   3.931   1.755   7.940  1.2212  3.0869 -1.2450
 1640SOL     OW16381   2.510   1.217   2.323  0.5248 -0.2235  0.1426
 1640SOL    HW116382   2.457   1.138   2.314 -0.3690  0.3688  0.2034
 1640SOL    HW216383   2.451   1.276   2.370 -1.7539 -0.8629 -1.8680
 1641SOL     OW16384   1.012   1.954   6.047  0.4306  0.0052  0.4058
 1641SOL    HW116385   0.996   1.875   6.098 -0.0609 -0.0573  0.1531
 1641SOL    HW216386   0.945   2.018   6.069 -0.5415 -0.7416 -0.4285
 1642SOL     OW16387   4.429   2.889   8.866  0.8445 -0.4549  0.0427
 1642SOL    HW116388   4.440   2.929   8.952 -1.0194  0.5508 -0.1920
 1642SOL    HW216389   4.388   2.960   8.816  0.6786  0.1248  1.0026
 1643SOL     OW16390   1.861   1.597   3.832 -0.2886  0.2211 -0.9846
 1643SOL    HW116391   1.774   1.560   3.848  0.7883 -1.0423  2.0774
 1643SOL    HW216392   1.840   1.668   3.771  0.7426  2.5046  1.3326
 1644SOL     OW16393   2.434   0.387   1.562 -0.3669 -0.5885 -0.0649
 1644SOL    HW116394   2.476   0.307   1.595 -0.5702 -1.3631 -1.6780
 1644SOL    HW216395   2.360   0.362   1.507  0.2716  0.2625 -1.3152
 1645SOL     OW16396   1.837   0.681   3.177 -0.2079 -0.0154 -0.3754
 1645SOL    HW116397   1.801   0.722   3.255  2.1839  0.3301  0.5595
 1645SOL    HW216398   1.906   0.626   3.214 -2.0535 -1.6166  0.6791
 1646SOL     OW16399   3.661   0.059   9.092  0.2186 -0.3960 -0.8410
 1646SOL    HW116400   3.584   0.116   9.100  0.1470 -0.4022 -1.5410
 1646SOL    HW216401   3.668   0.037   8.999  0.7156 -2.3201 -0.3428
 1647SOL     OW16402   2.564   0.497   8.358 -0.2271  0.1705  0.4444
 1647SOL    HW116403   2.641   0.554   8.358  2.2020 -3.1363 -0.9273
 1647SOL    HW216404   2.498   0.557   8.322  0.3899  0.4090 -0.2807
 1648SOL     OW16405   1.381   0.106   0.118  0.2409 -0.3214 -0.0796
 1648SOL    HW116406   1.315   0.172   0.142 -1.1088 -1.5205 -0.4686
 1648SOL    HW216407   1.465   0.138   0.150 -0.0509 -0.6422  1.0258
 1649SOL     OW16408   1.787   3.793  11.899  0.5461 -0.0400  1.0657
 1649SOL    HW116409   1.806   3.854  11.828 -1.6209 -1.2527 -0.5632
 1649SOL    HW216410   1.764   3.724  11.837 -4.2228  2.1221  0.3606
 1650SOL     OW16411   2.225   3.726   6.549 -0.1027 -0.5765 -0.4580
 1650SOL    HW116412   2.249   3.666   6.478  0.8101 -0.1166 -0.5423
 1650SOL    HW216413   2.162   3.786   6.509 -1.4314 -0.3647  1.9694
 1651SOL     OW16414   0.986   2.973   7.892 -0.7841  0.0647  0.9125
 1651SOL    HW116415   1.074   2.952   7.923 -0.2920 -0.5694 -0.8844
 1651SOL    HW216416   1.000   2.950   7.800 -1.4023 -0.4927  0.9546
 1652SOL     OW16417   2.805   1.332   2.477 -0.5227  0.6909  0.2691
 1652SOL    HW116418   2.829   1.287   2.396 -1.3539  0.2270  0.2793
 1652SOL    HW216419   2.772   1.254   2.520 -1.8150  0.6261 -0.8324
 1653SOL     OW16420   0.842   0.310  13.572 -0.3972  0.4944  0.6930
 1653SOL    HW116421   0.773   0.254  13.608 -0.1097 -1.0445 -1.1263
 1653SOL    HW216422   0.920   0.269  13.610  2.4377  2.9064 -2.4735
 1654SOL     OW16423   2.751   0.955  10.420  0.1412  0.2231 -0.2682
 1654SOL    HW116424   2.728   1.047  10.404  2.0751  0.5059 -1.3143
 1654SOL    HW216425   2.778   0.918  10.337  2.4078  1.6648 -0.1626
 1655SOL     OW16426   0.608   1.308   5.135  0.0816 -0.1701 -0.0445
 1655SOL    HW116427   0.619   1.286   5.043  1.0187 -1.2002  0.3147
 1655SOL    HW216428   0.545   1.380   5.132 -0.3569 -0.5619 -0.1978
 1656SOL     OW16429   3.404   0.515   1.276 -0.3834  0.1132  0.4505
 1656SOL    HW116430   3.363   0.498   1.191  1.1086 -1.5939  0.0674
 1656SOL    HW216431   3.483   0.461   1.270  1.2687  2.1211  4.0481
 1657SOL     OW16432   1.055   2.015  12.926  0.2527  0.1037  0.4690
 1657SOL    HW116433   1.071   2.000  13.019 -0.7784  0.1903  0.6647
 1657SOL    HW216434   1.080   1.927  12.900 -0.7394 -0.5523  1.6895
 1658SOL     OW16435   1.821   3.539   2.287  0.2630 -0.1254  0.6571
 1658SOL    HW116436   1.753   3.568   2.227 -3.6300 -1.2062  4.5948
 1658SOL    HW216437   1.890   3.596   2.252  0.5494 -1.7680 -1.4555
 1659SOL     OW16438   2.518   3.783   9.504 -0.2082  0.0472 -0.0963
 1659SOL    HW116439   2.462   3.710   9.528 -0.9240  0.3104 -0.9559
 1659SOL    HW216440   2.594   3.775   9.561 -0.7860 -1.1049  0.4992
 1660SOL     OW16441   0.918   3.754   5.753 -0.2106  0.4035 -0.2658
 1660SOL    HW116442   0.894   3.662   5.766  1.6345 -0.2190 -1.3201
 1660SOL    HW216443   1.011   3.751   5.733 -0.3524 -0.9951 -0.7341
 1661SOL     OW16444   3.709   3.557   8.185 -0.1608 -0.2883 -0.4757
 1661SOL    HW116445   3.771   3.486   8.169  1.3373  0.5702  1.4902
 1661SOL    HW216446   3.754   3.624   8.238 -1.5959 -0.2960  0.7477
 1662SOL     OW16447   1.616   4.247  11.084 -0.1404  0.0812  0.3214
 1662SOL    HW116448   1.603   4.320  11.023 -1.0688 -1.5383 -1.4123
 1662SOL    HW216449   1.691   4.278  11.135  0.6561 -1.1660 -0.0992
 1663SOL     OW16450   3.421   4.642   7.640  0.4588 -0.4984  0.3663
 1663SOL    HW116451   3.373   4.629   7.558  1.1993  1.2867 -0.3457
 1663SOL    HW216452   3.351   4.650   7.705  0.3882  1.2573  0.0786
 1664SOL     OW16453   4.696   3.982   1.833  0.1329 -0.1221 -0.2397
 1664SOL    HW116454   4.681   4.062   1.884  1.7821 -0.3790  0.6610
 1664SOL    HW216455   4.605   3.953   1.825  1.0629 -3.1010  0.2924
 1665SOL     OW16456   2.730   1.194   7.827  0.0525  0.2032 -0.1192
 1665SOL    HW116457   2.803   1.253   7.811 -1.3069  1.5923 -1.2567
 1665SOL    HW216458   2.770   1.107   7.827 -0.6131 -0.1084 -1.2716
 1666SOL     OW16459   0.647   1.785   9.271 -0.4118  0.0116  0.0268
 1666SOL    HW116460   0.607   1.737   9.198 -0.8391 -1.3341  1.1457
 1666SOL    HW216461   0.602   1.869   9.268 -0.9189 -0.1674  2.9369
 1667SOL     OW16462   1.181   0.697  15.654 -0.4931 -0.3143  0.1324
 1667SOL    HW116463   1.138   0.783  15.649 -0.6560 -0.3312  1.2784
 1667SOL    HW216464   1.269   0.732  15.635 -0.4048 -0.0448  1.0338
 1668SOL     OW16465   0.525   2.329   6.078  0.1837  0.1359 -0.6291
 1668SOL    HW116466   0.602   2.369   6.120  0.8666 -1.0084 -0.7870
 1668SOL    HW216467   0.487   2.282   6.152 -0.4902 -1.0605 -1.7414
 1669SOL     OW16468   1.128   2.830  13.675 -0.1356  0.3743  0.2591
 1669SOL    HW116469   1.097   2.895  13.737 -0.8596 -0.7572  1.0943
 1669SOL    HW216470   1.207   2.799  13.719  1.8154 -0.3195 -3.7783
 1670SOL     OW16471   1.139   2.507   7.650 -0.4674  0.7117 -0.4867
 1670SOL    HW116472   1.049   2.486   7.627 -1.1662  2.2564  0.9157
 1670SOL    HW216473   1.131   2.563   7.726  0.4479 -0.2391  0.3161
 1671SOL     OW16474   3.464   3.168   4.034  0.0290 -0.2036 -0.3383
 1671SOL    HW116475   3.404   3.240   4.016 -0.5006 -0.0317  2.2660
 1671SOL    HW216476   3.547   3.210   4.012 -0.7061  0.5956 -1.6250
 1672SOL     OW16477   3.418   3.966   4.932 -0.5521  0.2548 -0.8502
 1672SOL    HW116478   3.512   3.957   4.920 -0.1549 -0.0306  2.4908
 1672SOL    HW216479   3.384   3.878   4.947 -0.3722  0.2259 -0.6090
 1673SOL     OW16480   0.424   1.020  11.899 -0.4055  0.5862  0.1854
 1673SOL    HW116481   0.384   1.069  11.970 -1.4512  0.7003 -0.4834
 1673SOL    HW216482   0.406   0.930  11.927  2.6180 -0.2895 -0.6521
 1674SOL     OW16483   4.126   0.252   2.790 -0.1463  0.3580  0.0223
 1674SOL    HW116484   4.208   0.210   2.817 -0.1231  0.0091 -0.6083
 1674SOL    HW216485   4.094   0.175   2.744 -0.1828  0.7833 -0.6650
 1675SOL     OW16486   0.930   0.335   3.282 -0.4069 -0.0442 -0.1555
 1675SOL    HW116487   0.924   0.425   3.313  0.9562  0.6222 -1.8569
 1675SOL    HW216488   1.022   0.315   3.298 -0.2444  0.7556 -0.0938
 1676SOL     OW16489   1.744   1.094   4.816  0.2272  0.4023  0.2197
 1676SOL    HW116490   1.677   1.147   4.859 -1.2470 -0.6227 -0.8080
 1676SOL    HW216491   1.767   1.144   4.737  1.5146  1.0340  0.9890
 1677SOL     OW16492   4.235   3.684   9.123  0.2816  0.0487 -0.1207
 1677SOL    HW116493   4.252   3.764   9.075 -0.1941  0.9096  1.1378
 1677SOL    HW216494   4.315   3.633   9.111 -0.1207 -1.0300  1.7091
 1678SOL     OW16495   1.057   3.490   9.200  0.0541 -0.2160 -0.2022
 1678SOL    HW116496   1.043   3.561   9.138  2.0369 -0.2510 -0.6948
 1678SOL    HW216497   1.140   3.451   9.172 -1.3829 -2.5488 -1.2595
 1679SOL     OW16498   1.440   1.319  11.004 -0.3310  0.5084 -0.5983
 1679SOL    HW116499   1.418   1.307  11.097  3.4901  0.8899  0.3378
 1679SOL    HW216500   1.350   1.330  10.972 -0.9097 -0.1530  0.7803
 1680SOL     OW16501   1.361   1.011   7.594  0.0826  0.1554  0.4462
 1680SOL    HW116502   1.335   0.972   7.510 -1.3000 -0.1610  1.0214
 1680SOL    HW216503   1.387   1.100   7.571  0.0925  0.4524  1.6240
 1681SOL     OW16504   3.699   2.151   5.457 -0.3784  0.0338  0.2208
 1681SOL    HW116505   3.758   2.102   5.514 -1.3042  0.2128  1.3214
 1681SOL    HW216506   3.665   2.082   5.401 -0.0350 -1.6091  2.0332
 1682SOL     OW16507   2.964   3.917   8.713  0.1416 -0.1430  0.0220
 1682SOL    HW116508   2.926   3.837   8.750  1.6430 -1.3089 -0.9347
 1682SOL    HW216509   2.910   3.935   8.636  0.0416 -0.1721  0.0852
 1683SOL     OW16510   0.099   1.772   0.472 -0.0429  0.0984 -0.3946
 1683SOL    HW116511   0.057   1.716   0.537  0.0810 -0.3801 -0.7320
 1683SOL    HW216512   0.035   1.844   0.464 -2.2729 -1.9908 -1.3978
 1684SOL     OW16513   1.033   4.395  13.759  0.6147  0.6527  0.2221
 1684SOL    HW116514   1.066   4.345  13.833 -1.1661 -2.0864 -0.8437
 1684SOL    HW216515   0.940   4.408  13.782  0.3253  1.7455 -1.5329
 1685SOL     OW16516   1.252   3.509  14.050  0.7200  0.3493  0.4932
 1685SOL    HW116517   1.196   3.582  14.022  0.9065  0.0459 -0.6836
 1685SOL    HW216518   1.196   3.468  14.116 -0.1177 -0.1394 -0.5273
 1686SOL     OW16519   4.658   0.477  10.008  0.2990  0.9011  0.4153
 1686SOL    HW116520   4.675   0.571  10.012  0.6221  0.8223  0.8171
 1686SOL    HW216521   4.564   0.468   9.992  0.1734  1.2530  0.9806
 1687SOL     OW16522   0.536   3.721   4.949  0.1750  0.4775  0.1082
 1687SOL    HW116523   0.630   3.706   4.948  0.3129  1.8020 -3.6309
 1687SOL    HW216524   0.544   3.809   4.914 -0.3302 -0.1367 -1.5427
 1688SOL     OW16525   0.404   0.417   4.921  0.7290  0.3850  0.7629
 1688SOL    HW116526   0.334   0.474   4.890 -0.4649 -0.2856  2.2250
 1688SOL    HW216527   0.483   0.445   4.876 -0.8567  2.5009 -0.6742
 1689SOL     OW16528   0.846   3.470   1.241  0.2393 -0.0668 -0.1685
 1689SOL    HW116529   0.786   3.538   1.270 -0.4053 -0.0940 -1.4117
 1689SOL    HW216530   0.825   3.410   1.313 -0.3883  0.4771  0.0991
 1690SOL     OW16531   3.247   0.863   8.512  0.2502 -0.7529  0.1606
 1690SOL    HW116532   3.200   0.783   8.489 -1.0704 -0.5519  2.1071
 1690SOL    HW216533   3.300   0.838   8.589  0.5546 -0.0494  0.1729
 1691SOL     OW16534   0.121   3.867  10.531  0.5840  0.6343  0.2134
 1691SOL    HW116535   0.142   3.941  10.474  0.1236 -0.1442 -0.9571
 1691SOL    HW216536   0.152   3.892  10.618 -0.6415  1.2400  0.4724
 1692SOL     OW16537   4.167   3.598  10.329  0.4841  0.5013 -0.3917
 1692SOL    HW116538   4.226   3.665  10.362 -0.1073  1.6429 -1.6722
 1692SOL    HW216539   4.086   3.648  10.317  0.9142  0.9593 -1.3242
 1693SOL     OW16540   2.990   3.739  12.942  0.2641  0.0338 -0.4566
 1693SOL    HW116541   2.976   3.833  12.949  0.2317  0.0641 -0.9110
 1693SOL    HW216542   3.052   3.727  13.014  0.2195  2.5105 -0.0237
 1694SOL     OW16543   2.838   2.807  15.204 -0.5291  0.1745 -0.0256
 1694SOL    HW116544   2.811   2.861  15.130 -1.5179  2.7882  2.1993
 1694SOL    HW216545   2.901   2.864  15.249  1.7858 -0.0731 -3.0122
 1695SOL     OW16546   1.636   1.443   1.687  0.1746 -0.2795  0.3895
 1695SOL    HW116547   1.679   1.447   1.773  0.1104  2.8696  0.2666
 1695SOL    HW216548   1.679   1.363   1.657  0.4982 -0.8634  2.4051
 1696SOL     OW16549   2.109   4.521   9.076 -0.1810  0.6245  0.4627
 1696SOL    HW116550   2.111   4.611   9.042  0.0510  0.5118  0.1779
 1696SOL    HW216551   2.021   4.504   9.108 -0.1332 -0.0806  0.2010
 1697SOL     OW16552   2.430   3.821   6.723  0.0371  0.0316  0.2224
 1697SOL    HW116553   2.454   3.729   6.729  2.5911  0.6829 -0.0400
 1697SOL    HW216554   2.371   3.825   6.648  0.6680  0.9568 -0.2321
 1698SOL     OW16555   2.579   0.206   5.283  0.3867 -0.2773 -0.9117
 1698SOL    HW116556   2.515   0.238   5.347 -0.9339 -1.4451 -1.6472
 1698SOL    HW216557   2.575   0.111   5.289  0.8433 -0.1257  1.6378
 1699SOL     OW16558   0.039   2.102  11.875 -0.6867  0.4215  0.6589
 1699SOL    HW116559   0.057   2.122  11.783  0.7389  0.9530  1.0540
 1699SOL    HW216560   0.118   2.123  11.926 -0.8638  0.6359  0.8445
 1700SOL     OW16561   1.886   0.711  10.833  0.2598  0.2948 -0.4445
 1700SOL    HW116562   1.826   0.682  10.903  1.0222  0.0991  0.1307
 1700SOL    HW216563   1.834   0.751  10.764 -0.1434 -0.3081 -0.4966
 1701SOL     OW16564   2.333   2.153   0.710 -0.3347 -0.1653 -0.1699
 1701SOL    HW116565   2.321   2.058   0.704 -2.3001 -0.1213  2.8976
 1701SOL    HW216566   2.264   2.186   0.653  0.4578  1.6779 -0.0551
 1702SOL     OW16567   3.454   0.032   7.140  0.8691 -0.2330 -0.7409
 1702SOL    HW116568   3.495   0.110   7.177  0.9330 -1.1886  1.1888
 1702SOL    HW216569   3.379   0.061   7.088 -0.4097  0.3996  1.4427
 1703SOL     OW16570   0.936   0.753  12.996 -0.5233  0.6972  0.3321
 1703SOL    HW116571   0.857   0.704  12.973  0.5920 -0.5525 -0.8162
 1703SOL    HW216572   0.941   0.745  13.091  1.2892  3.5496  0.4566
 1704SOL     OW16573   4.300   4.496   8.059 -0.7541  0.4954 -0.2521
 1704SOL    HW116574   4.258   4.580   8.077 -0.1815  0.7415 -0.0671
 1704SOL    HW216575   4.317   4.457   8.145  2.0688  2.1909 -0.0438
 1705SOL     OW16576   0.474   2.137   1.793  0.7488  0.1415  0.1539
 1705SOL    HW116577   0.384   2.116   1.766  1.1290  0.1097 -1.0987
 1705SOL    HW216578   0.490   2.061   1.848 -0.2000  0.6197  1.0790
 1706SOL     OW16579   3.592   2.536  16.223  0.1132 -0.1798  0.1605
 1706SOL    HW116580   3.647   2.530  16.300  0.2828 -2.2683 -0.1323
 1706SOL    HW216581   3.499   2.538  16.247  0.4198  0.4826  1.2686
 1707SOL     OW16582   2.304   2.062  17.372  0.0907 -0.2155 -0.6734
 1707SOL    HW116583   2.334   2.149  17.397 -1.1249 -0.0850  0.3985
 1707SOL    HW216584   2.285   2.028  17.460  1.5537  1.2316  0.1908
 1708SOL     OW16585   0.696   1.984  10.579 -0.2398  0.1020  0.3253
 1708SOL    HW116586   0.746   2.047  10.631 -3.0136  2.5775  0.0046
 1708SOL    HW216587   0.739   1.988  10.494  2.5779  0.4042  1.7873
 1709SOL     OW16588   3.642   0.785   5.401 -0.3876 -0.3480  0.2941
 1709SOL    HW116589   3.661   0.854   5.465 -1.9551  1.8541 -1.6197
 1709SOL    HW216590   3.547   0.799   5.390 -0.1193  0.1270 -1.3987
 1710SOL     OW16591   3.442   1.939   7.324 -0.0568  0.8536  0.3421
 1710SOL    HW116592   3.438   1.844   7.330  0.2452  0.7824 -0.7331
 1710SOL    HW216593   3.516   1.960   7.382  0.0444 -1.4578  1.0404
 1711SOL     OW16594   2.039   3.280  14.712  0.2677 -0.4836  0.0858
 1711SOL    HW116595   2.121   3.275  14.663  0.7604  0.0077  0.8393
 1711SOL    HW216596   2.001   3.195  14.695  1.9555 -0.8318 -1.8915
 1712SOL     OW16597   1.982   2.050   3.363 -0.3215 -0.0763  0.3446
 1712SOL    HW116598   2.041   2.001   3.420 -0.7732 -1.3746 -0.2936
 1712SOL    HW216599   1.985   2.139   3.397  1.0873 -0.4475  1.1562
 1713SOL     OW16600   0.812   2.806   6.260  0.3278 -0.3810 -0.1967
 1713SOL    HW116601   0.742   2.741   6.252  0.6050 -0.5244 -1.4434
 1713SOL    HW216602   0.890   2.757   6.232  1.5207  0.5248  1.5952
 1714SOL     OW16603   3.885   0.220   6.996  0.0283 -0.0648  0.2142
 1714SOL    HW116604   3.885   0.141   6.942  1.1869 -0.5539  0.9259
 1714SOL    HW216605   3.973   0.259   6.990 -0.8722  2.1886  1.5034
 1715SOL     OW16606   2.170   3.086   1.595 -0.0430  0.0877  0.6378
 1715SOL    HW116607   2.136   3.155   1.653 -0.9359  0.4484 -0.3152
 1715SOL    HW216608   2.239   3.138   1.554 -0.8113 -1.1860 -2.2876
 1716SOL     OW16609   0.857   3.067   6.199 -0.3296 -0.3867  0.0657
 1716SOL    HW116610   0.922   3.054   6.130 -1.6472  0.5128 -1.3515
 1716SOL    HW216611   0.837   2.977   6.224 -2.8364 -0.7102 -3.1643
 1717SOL     OW16612   1.626   4.463   7.083  0.4338  0.7401  0.7811
 1717SOL    HW116613   1.573   4.436   7.158  0.7910  1.7204  1.3909
 1717SOL    HW216614   1.580   4.543   7.057 -0.6128 -0.0742  0.1861
 1718SOL     OW16615   4.642   1.012   3.858 -0.3242 -0.3719 -0.1215
 1718SOL    HW116616   4.683   1.097   3.840 -0.5556 -0.5141 -1.3121
 1718SOL    HW216617   4.715   0.960   3.893 -0.3590 -0.6281 -0.4284
 1719SOL     OW16618   1.877   2.136   4.612 -0.3332 -0.3045  0.6849
 1719SOL    HW116619   1.921   2.217   4.588 -1.8996  0.9872  2.1537
 1719SOL    HW216620   1.948   2.077   4.635  1.8373  1.7190 -0.7504
 1720SOL     OW16621   3.205   2.849   8.151  0.1705 -0.0247  0.2211
 1720SOL    HW116622   3.287   2.816   8.188  0.7692  0.2829 -0.8418
 1720SOL    HW216623   3.153   2.873   8.228 -0.6202  1.7926 -0.8821
 1721SOL     OW16624   2.621   0.999   6.013 -0.0724  0.3183 -0.5197
 1721SOL    HW116625   2.655   1.073   6.064 -1.4644 -0.7575  1.9852
 1721SOL    HW216626   2.619   1.036   5.925 -0.8830 -0.8955 -1.0128
 1722SOL     OW16627   0.755   3.598   4.103 -0.1015 -0.5389 -0.5453
 1722SOL    HW116628   0.766   3.693   4.099 -1.8245 -0.3987 -1.7941
 1722SOL    HW216629   0.666   3.598   4.137 -1.1109 -1.6478 -3.2237
 1723SOL     OW16630   4.705   4.469   9.530 -0.1729 -1.0367  0.3292
 1723SOL    HW116631   0.077   4.464   9.535 -0.2762 -1.3700  1.8458
 1723SOL    HW216632   4.687   4.554   9.490 -2.4331 -1.9604 -0.5902
 1724SOL     OW16633   2.149   3.591   7.035 -0.4299  0.1213  0.3400
 1724SOL    HW116634   2.135   3.569   6.942  0.9352  0.1154  0.1332
 1724SOL    HW216635   2.081   3.658   7.039 -0.9726 -0.4005 -0.1724
 1725SOL     OW16636   1.526   3.218   1.700  0.3320  0.2502  0.3414
 1725SOL    HW116637   1.601   3.167   1.668  0.7908  2.7005 -2.4752
 1725SOL    HW216638   1.450   3.162   1.685  0.6338 -0.5670  1.8291
 1726SOL     OW16639   2.029   0.023   8.696  0.0314 -0.0950  0.4682
 1726SOL    HW116640   2.012   0.085   8.625 -1.8649 -2.8936 -1.5470
 1726SOL    HW216641   2.079   0.080   8.754 -1.2952  2.0335 -0.4878
 1727SOL     OW16642   0.412   3.204   3.653  0.0093  0.2928 -0.2618
 1727SOL    HW116643   0.469   3.227   3.580 -0.5560  1.0869 -0.4532
 1727SOL    HW216644   0.384   3.292   3.677 -2.2184  0.1022 -2.2150
 1728SOL     OW16645   0.036   0.412   1.088 -0.5324 -0.0298  0.3857
 1728SOL    HW116646   0.032   0.326   1.130  0.3551  0.3791  1.2969
 1728SOL    HW216647   4.699   0.400   1.014  1.0348 -4.3777 -0.1869
 1729SOL     OW16648   4.624   4.485   3.165  0.0446 -0.8743 -0.1972
 1729SOL    HW116649   4.589   4.401   3.196 -2.6838 -0.0413 -0.9924
 1729SOL    HW216650   4.608   4.545   3.238  0.1670 -0.6920 -0.3215
 1730SOL     OW16651   0.261   4.522   8.540  0.9741  0.0001  1.1390
 1730SOL    HW116652   0.344   4.511   8.585  0.1579 -0.1545  2.6300
 1730SOL    HW216653   0.207   4.555   8.612 -1.9280  0.4847 -1.2269
 1731SOL     OW16654   2.434   3.647  15.865  0.7098 -0.2879 -0.2944
 1731SOL    HW116655   2.509   3.627  15.920  0.0576  0.7095  0.9633
 1731SOL    HW216656   2.452   3.582  15.797 -2.6284 -1.0841 -0.4126
 1732SOL     OW16657   4.071   2.927   7.883 -0.1733 -0.0522 -0.4765
 1732SOL    HW116658   4.034   2.964   7.963  0.1401  0.8373 -0.7416
 1732SOL    HW216659   4.149   2.877   7.910  0.7543  2.0294  0.6911
 1733SOL     OW16660   1.872   2.166  10.475  0.0509  0.1362 -0.2115
 1733SOL    HW116661   1.798   2.181  10.416  0.3313  0.4963 -0.4675
 1733SOL    HW216662   1.819   2.102  10.525  0.9407 -1.4680 -1.3303
 1734SOL     OW16663   0.352   3.573  16.457 -0.2113  0.6480  0.3302
 1734SOL    HW116664   0.345   3.535  16.369  1.2922 -0.8407  0.8547
 1734SOL    HW216665   0.294   3.515  16.507 -2.0234 -0.0061 -2.5135
 1735SOL     OW16666   3.946   1.911   8.633  0.2149 -0.1285 -0.1159
 1735SOL    HW116667   3.897   1.883   8.555 -0.8368  2.6974 -0.5081
 1735SOL    HW216668   3.942   2.007   8.635 -0.6872 -0.1678  0.0824
 1736SOL     OW16669   2.215   1.051   3.571 -0.4292 -0.2762  0.2789
 1736SOL    HW116670   2.245   0.968   3.535  2.0316  0.8736 -0.3107
 1736SOL    HW216671   2.290   1.086   3.618  0.0197 -1.1677  0.2175
 1737SOL     OW16672   0.199   3.505  11.019  0.1482 -0.0177  0.0388
 1737SOL    HW116673   0.271   3.558  11.051  0.9347 -1.1236  0.1164
 1737SOL    HW216674   0.190   3.433  11.082 -0.0925 -1.3538 -1.5226
 1738SOL     OW16675   3.030   0.331  14.170  0.5949  0.2783  0.3701
 1738SOL    HW116676   2.979   0.327  14.088 -0.6533 -0.7191  1.1880
 1738SOL    HW216677   3.081   0.409  14.152  0.8563  0.2961  1.2321
 1739SOL     OW16678   0.891   4.717   2.728 -0.0283  0.3863  0.2640
 1739SOL    HW116679   0.975   0.040   2.722  0.1242 -0.2038 -1.9104
 1739SOL    HW216680   0.914   4.635   2.771  1.6140  0.4399 -0.5363
 1740SOL     OW16681   2.516   2.242  17.430 -0.1334  0.4093  0.2444
 1740SOL    HW116682   2.577   2.287  17.488 -1.3457  0.3690  1.5325
 1740SOL    HW216683   2.581   2.238  17.359 -0.4345  0.6754 -0.0455
 1741SOL     OW16684   2.150   3.685   5.718  0.5520  0.3333  0.3460
 1741SOL    HW116685   2.202   3.720   5.790  0.9658  0.9060 -0.2334
 1741SOL    HW216686   2.216   3.677   5.650 -1.1438  0.0192 -1.2634
 1742SOL     OW16687   0.441   4.206  10.451  0.0859  0.1693 -0.0732
 1742SOL    HW116688   0.436   4.254  10.534 -0.3036 -1.4965  0.8648
 1742SOL    HW216689   0.522   4.155  10.451  0.1925  0.3375 -0.7347
 1743SOL     OW16690   2.231   2.188   9.292  0.4920  0.9889  0.4432
 1743SOL    HW116691   2.200   2.101   9.315  2.7915 -0.2087 -0.9965
 1743SOL    HW216692   2.148   2.233   9.308  0.2848  0.7357  0.0715
 1744SOL     OW16693   3.647   0.333  17.179 -0.0872  0.4838  0.0658
 1744SOL    HW116694   3.561   0.345  17.219 -0.8811 -1.6008 -0.9786
 1744SOL    HW216695   3.614   0.325  17.089  2.1826  0.7385 -0.7982
 1745SOL     OW16696   2.882   3.485   8.183 -0.2324 -0.2794  0.7464
 1745SOL    HW116697   2.962   3.465   8.134  0.1866 -2.2107  2.2434
 1745SOL    HW216698   2.858   3.403   8.225 -0.9894 -0.2435  0.3831
 1746SOL     OW16699   1.924   3.754   3.052  0.1301 -0.2663 -0.0429
 1746SOL    HW116700   1.985   3.817   3.014  1.4202 -1.1336  0.5783
 1746SOL    HW216701   1.838   3.775   3.016 -0.3460 -2.7702 -0.3580
 1747SOL     OW16702   1.809   3.574   1.955  0.0927 -0.0006 -0.4219
 1747SOL    HW116703   1.745   3.640   1.985 -0.1493  0.9063 -2.9486
 1747SOL    HW216704   1.751   3.498   1.954  0.9517 -0.6596  0.8104
 1748SOL     OW16705   2.706   2.316   6.280  0.3139  0.4333 -0.4181
 1748SOL    HW116706   2.774   2.334   6.346  0.8293 -0.9306 -0.5787
 1748SOL    HW216707   2.755   2.260   6.220 -0.3800 -0.7169  0.0908
 1749SOL     OW16708   4.594   0.666   6.358  0.1462  0.3578  0.0147
 1749SOL    HW116709   4.585   0.584   6.407  0.8168 -0.1082 -0.6384
 1749SOL    HW216710   4.605   0.632   6.269  2.2313  0.9342  0.0557
 1750SOL     OW16711   3.509   1.330   8.310  0.3612 -0.0530  0.5140
 1750SOL    HW116712   3.459   1.399   8.354 -1.1194  0.2890 -1.7141
 1750SOL    HW216713   3.449   1.283   8.253  1.0853 -0.3413 -0.0018
 1751SOL     OW16714   1.605   0.171   7.686 -0.0813  0.0406 -0.0808
 1751SOL    HW116715   1.681   0.182   7.630  0.4645  0.5348  0.7552
 1751SOL    HW216716   1.630   0.212   7.769  1.3182 -2.0926  0.5549
 1752SOL     OW16717   2.418   0.394   1.200  0.1122  0.0402 -0.4472
 1752SOL    HW116718   2.469   0.474   1.193  0.4470  0.0460  2.2930
 1752SOL    HW216719   2.332   0.436   1.207 -0.5915 -1.4964  0.0985
 1753SOL     OW16720   0.861   2.599   2.635 -0.1469  0.2658  0.0161
 1753SOL    HW116721   0.837   2.622   2.725 -0.0809  0.6156 -0.0537
 1753SOL    HW216722   0.822   2.672   2.587 -1.5682  1.4299  2.9337
 1754SOL     OW16723   2.980   2.105   3.676  0.2511 -0.1103 -0.5656
 1754SOL    HW116724   3.067   2.076   3.649 -0.4659 -1.1144 -1.8502
 1754SOL    HW216725   2.965   2.170   3.607 -1.4368  0.3857  0.2750
 1755SOL     OW16726   0.260   3.729   2.282 -0.1088  0.2205  0.1756
 1755SOL    HW116727   0.186   3.719   2.222  1.1846 -0.5513 -1.3193
 1755SOL    HW216728   0.241   3.798   2.345 -1.5483  0.1291 -0.1648
 1756SOL     OW16729   2.908   3.261  13.983 -0.0698  0.2726  0.0891
 1756SOL    HW116730   2.813   3.268  13.988  0.0620  1.9743  0.1418
 1756SOL    HW216731   2.935   3.278  13.893  2.3339  0.1518  0.7745
 1757SOL     OW16732   1.697   1.938   4.630 -0.6356  0.1278 -0.6906
 1757SOL    HW116733   1.761   1.995   4.587 -0.1968  1.0016  1.1012
 1757SOL    HW216734   1.618   1.992   4.619  0.0822  1.8468  2.5264
 1758SOL     OW16735   3.797   0.371   1.521 -0.0103  0.3040 -0.3777
 1758SOL    HW116736   3.846   0.337   1.596  1.1294  0.5789 -0.9947
 1758SOL    HW216737   3.864   0.407   1.462 -0.7148  1.4987 -0.4493
 1759SOL     OW16738   0.673   2.159   2.657 -0.4434  0.6974 -0.0645
 1759SOL    HW116739   0.669   2.092   2.726 -1.9101 -0.6246 -1.4188
 1759SOL    HW216740   0.756   2.196   2.686  0.1229 -0.5455 -0.1060
 1760SOL     OW16741   0.340   3.242   7.855  0.1927  0.2221 -0.1451
 1760SOL    HW116742   0.250   3.230   7.823  0.4493  0.4455 -0.9610
 1760SOL    HW216743   0.338   3.182   7.929 -3.1927  0.3452 -0.0944
 1761SOL     OW16744   2.111   4.188   4.014 -0.0823 -0.1049 -0.0724
 1761SOL    HW116745   2.128   4.144   4.097  1.2900 -1.1071 -0.8846
 1761SOL    HW216746   2.193   4.238   4.015  0.8422 -1.5762 -2.1373
 1762SOL     OW16747   3.998   2.614   1.867  0.0938  0.5670  0.0220
 1762SOL    HW116748   4.083   2.573   1.880 -0.3390  0.5431  2.6162
 1762SOL    HW216749   4.005   2.662   1.784  2.2290 -0.5720 -0.4348
 1763SOL     OW16750   0.276   1.144   2.084  0.3528  0.2657 -0.7639
 1763SOL    HW116751   0.333   1.069   2.068  0.5784  0.6352 -1.7231
 1763SOL    HW216752   0.198   1.102   2.122 -0.8638  2.1298 -1.1766
 1764SOL     OW16753   3.643   4.017   2.520  0.2337 -0.1646 -0.3965
 1764SOL    HW116754   3.666   4.109   2.511  3.5765 -0.9698  0.1197
 1764SOL    HW216755   3.662   4.018   2.614 -0.2584 -0.9653 -0.2895
 1765SOL     OW16756   4.720   1.718   7.434  0.1781 -0.1217  0.0964
 1765SOL    HW116757   4.712   1.814   7.431  3.0384  0.0959 -0.5069
 1765SOL    HW216758   4.632   1.701   7.469  0.6000 -0.1011  1.1433
 1766SOL     OW16759   0.749   4.338  13.782 -0.7740 -0.3080  0.3431
 1766SOL    HW116760   0.732   4.334  13.876  1.7360 -0.3092  0.8059
 1766SOL    HW216761   0.687   4.273  13.751  2.7045 -3.7340  0.5524
 1767SOL     OW16762   3.808   1.281   5.773 -0.4893 -0.3313  0.1286
 1767SOL    HW116763   3.854   1.199   5.757 -0.0714 -0.0737  0.0009
 1767SOL    HW216764   3.863   1.321   5.841 -2.0041 -0.4218  1.4188
 1768SOL     OW16765   2.065   2.616   6.614  0.5091  0.2928  0.5316
 1768SOL    HW116766   2.122   2.692   6.622 -0.5300  1.0985  0.3465
 1768SOL    HW216767   2.108   2.562   6.548 -1.4117 -2.1725  1.2794
 1769SOL     OW16768   3.445   0.760   2.468  0.1957  0.1359  0.5236
 1769SOL    HW116769   3.403   0.700   2.530  1.6649 -0.9018  0.5219
 1769SOL    HW216770   3.395   0.842   2.466 -0.7747 -0.5015 -0.9604
 1770SOL     OW16771   4.256   2.554   8.082 -0.3384  0.6270  0.0953
 1770SOL    HW116772   4.217   2.469   8.100  0.9365 -0.1693 -0.8882
 1770SOL    HW216773   4.285   2.579   8.169  0.0212 -0.2318  0.2213
 1771SOL     OW16774   1.794   0.321  10.092 -0.2268 -0.4374  0.2787
 1771SOL    HW116775   1.781   0.367  10.009 -1.3516  1.1624  1.3357
 1771SOL    HW216776   1.783   0.230  10.065  0.9813 -0.9893  1.6355
 1772SOL     OW16777   1.327   3.843   7.377 -0.7486 -0.1035  0.2145
 1772SOL    HW116778   1.410   3.797   7.370 -0.3337  0.1622  3.3835
 1772SOL    HW216779   1.284   3.766   7.413  0.0202 -1.1237 -1.0464
 1773SOL     OW16780   3.508   2.146   4.522  0.1553  0.3276 -0.0005
 1773SOL    HW116781   3.494   2.237   4.498  0.9254  0.6279  0.6687
 1773SOL    HW216782   3.428   2.101   4.495 -0.4068  1.8537 -0.8672
 1774SOL     OW16783   2.608   4.217   0.969  0.2476 -0.0662  0.0780
 1774SOL    HW116784   2.529   4.223   0.915  0.6644  0.6931 -0.4591
 1774SOL    HW216785   2.609   4.296   1.024  1.5636 -1.4256  2.0042
 1775SOL     OW16786   0.280   3.455  16.233 -0.4250  0.4550  0.3161
 1775SOL    HW116787   0.300   3.384  16.172 -2.0726 -1.5105  2.0723
 1775SOL    HW216788   0.235   3.525  16.186 -1.1736 -0.1569  0.1410
 1776SOL     OW16789   1.624   1.489   2.167  0.4425 -0.1322  0.6074
 1776SOL    HW116790   1.583   1.437   2.237  3.0471 -1.6873  0.9706
 1776SOL    HW216791   1.641   1.564   2.224  1.0362 -0.6360  1.1001
 1777SOL     OW16792   3.881   2.834   7.684  0.0101 -0.0340  0.3040
 1777SOL    HW116793   3.928   2.866   7.607 -1.4528 -0.3254 -0.7014
 1777SOL    HW216794   3.935   2.877   7.751 -1.2469 -0.3034  1.4745
 1778SOL     OW16795   4.492   2.665   4.279  0.5326 -0.1370 -0.3398
 1778SOL    HW116796   4.530   2.618   4.354 -0.4158 -1.2888 -0.5873
 1778SOL    HW216797   4.572   2.685   4.231  1.0962  0.7631  0.9653
 1779SOL     OW16798   4.043   0.277   5.350 -0.0015 -0.2178 -0.1843
 1779SOL    HW116799   4.007   0.276   5.261  1.4554  1.6424 -0.7978
 1779SOL    HW216800   4.066   0.370   5.353 -0.8039 -0.0848  1.6990
 1780SOL     OW16801   2.097   1.822   3.479 -0.1998 -0.3656  0.7806
 1780SOL    HW116802   2.111   1.753   3.545  0.3126 -1.1972 -0.2063
 1780SOL    HW216803   2.184   1.854   3.456 -0.4928 -0.0160  0.1705
 1781SOL     OW16804   2.726   2.751   6.449  0.3569 -0.1045  0.6118
 1781SOL    HW116805   2.693   2.779   6.535 -0.0275 -1.5183  0.9169
 1781SOL    HW216806   2.770   2.826   6.410 -0.8177  1.2413  1.8411
 1782SOL     OW16807   0.800   3.649   3.690  0.1779 -0.3120  0.3701
 1782SOL    HW116808   0.892   3.645   3.716 -0.3833 -0.5618  2.3443
 1782SOL    HW216809   0.777   3.575   3.747 -1.0298 -0.7655 -0.7184
 1783SOL     OW16810   1.416   0.947   4.745  0.3952 -0.0349  0.4707
 1783SOL    HW116811   1.435   1.034   4.708  0.5357  0.0935  0.8474
 1783SOL    HW216812   1.498   0.904   4.720  0.6287  0.5745  0.1795
 1784SOL     OW16813   1.367   0.758   5.887  0.4085  0.6415 -0.5307
 1784SOL    HW116814   1.407   0.825   5.831  1.3774  0.5076 -0.0006
 1784SOL    HW216815   1.422   0.745   5.964  0.7369 -0.6541 -0.9833
 1785SOL     OW16816   2.660   1.542   8.139 -0.5847 -0.0647  0.0955
 1785SOL    HW116817   2.583   1.541   8.081 -0.9763 -1.5627  0.6483
 1785SOL    HW216818   2.615   1.506   8.216  3.1932 -1.5151  1.5807
 1786SOL     OW16819   4.029   3.617   8.846 -0.2917 -0.1509  0.1639
 1786SOL    HW116820   3.983   3.565   8.912  2.3955  1.1906  3.0667
 1786SOL    HW216821   4.089   3.679   8.888 -1.8915  0.8748  0.9299
 1787SOL     OW16822   0.617   4.707   5.384 -0.6091  0.0603 -0.2639
 1787SOL    HW116823   0.564   4.705   5.304  0.0275  0.2099 -0.6951
 1787SOL    HW216824   0.696   4.660   5.357 -0.5820  0.8363 -1.5032
 1788SOL     OW16825   1.851   1.935   8.728  0.0656 -0.3372  0.1594
 1788SOL    HW116826   1.856   1.957   8.821  2.0042 -0.3850  0.0703
 1788SOL    HW216827   1.790   2.006   8.708 -0.1222  0.0348  2.0324
 1789SOL     OW16828   3.422   2.956  15.469  0.5170  0.1593  0.0668
 1789SOL    HW116829   3.505   2.954  15.516  0.2096 -3.6002  0.4687
 1789SOL    HW216830   3.378   2.874  15.490  1.4503 -0.8430 -1.9834
 1790SOL     OW16831   2.987   3.012   8.768  0.0984 -0.1526 -0.2749
 1790SOL    HW116832   2.956   2.968   8.847  3.2954 -0.1213  0.9874
 1790SOL    HW216833   2.950   3.100   8.779 -0.0150 -0.1052 -1.0245
 1791SOL     OW16834   3.409   2.691   8.283 -0.1839  0.3192 -0.1855
 1791SOL    HW116835   3.495   2.690   8.243  0.4114  1.0531  1.0794
 1791SOL    HW216836   3.419   2.624   8.351  0.9528 -0.8214 -1.5016
 1792SOL     OW16837   4.542   3.949  11.633 -0.0413  0.3120  0.0689
 1792SOL    HW116838   4.587   3.869  11.608 -0.3438  0.8515 -2.2205
 1792SOL    HW216839   4.524   3.935  11.726 -0.0983 -2.2288 -0.3325
 1793SOL     OW16840   3.042   0.491   8.220 -0.2165  0.2282  0.3763
 1793SOL    HW116841   2.957   0.507   8.179 -0.5150  0.2263  1.0005
 1793SOL    HW216842   3.095   0.484   8.141  0.9936 -1.7446  1.3801
 1794SOL     OW16843   0.206   3.099   9.289 -0.2724 -0.5068 -0.2125
 1794SOL    HW116844   0.253   3.071   9.367  1.0139  3.4079  0.4215
 1794SOL    HW216845   0.156   3.173   9.323  1.7946 -0.4732  2.6914
 1795SOL     OW16846   1.946   2.494   5.346  0.0537  0.5247  0.3294
 1795SOL    HW116847   2.036   2.525   5.355 -0.6912  2.2997  1.5787
 1795SOL    HW216848   1.949   2.467   5.254 -1.1880  3.5611 -0.6006
 1796SOL     OW16849   4.001   0.921   8.653 -0.0962  0.1550  0.1013
 1796SOL    HW116850   4.015   0.827   8.642 -1.7882 -0.0421 -0.4856
 1796SOL    HW216851   4.004   0.935   8.747 -1.3456  0.3228  0.1259
 1797SOL     OW16852   0.404   1.641   9.399 -0.4536 -0.7470 -0.0493
 1797SOL    HW116853   0.384   1.555   9.362 -1.1906 -0.0416 -1.3208
 1797SOL    HW216854   0.469   1.612   9.463 -2.6408 -0.6289  2.1965
 1798SOL     OW16855   0.637   3.232   4.630  0.4007 -0.0370 -0.3421
 1798SOL    HW116856   0.643   3.232   4.725  1.7374 -0.5762 -0.4239
 1798SOL    HW216857   0.661   3.140   4.619  1.4297  0.0292  1.3782
 1799SOL     OW16858   0.139   0.773   9.537  0.3465  0.1406  0.3932
 1799SOL    HW116859   0.205   0.732   9.481  0.5244  0.5318  0.3143
 1799SOL    HW216860   0.127   0.701   9.599 -2.3009  1.2348  1.1367
 1800SOL     OW16861   4.023   3.349   8.211  0.1151  0.0935  0.4292
 1800SOL    HW116862   4.106   3.324   8.252 -0.1352  0.9111  1.4184
 1800SOL    HW216863   4.043   3.440   8.187  1.3786 -0.4401 -0.5753
 1801SOL     OW16864   3.961   3.031  14.553 -0.0297 -0.7048 -0.3280
 1801SOL    HW116865   4.036   3.089  14.543  0.2879 -0.8296  1.3268
 1801SOL    HW216866   4.008   2.957  14.593 -1.1147 -1.0379  0.3520
 1802SOL     OW16867   4.591   4.656   3.378 -0.4921  0.1964  0.2945
 1802SOL    HW116868   4.589   4.616   3.464 -0.0296 -1.1130 -0.3146
 1802SOL    HW216869   4.621   0.023   3.392 -0.8635  0.0852  1.7306
 1803SOL     OW16870   3.391   0.056   4.024  0.4729  0.1058 -0.6075
 1803SOL    HW116871   3.387   0.149   4.005 -1.7043 -0.4337 -2.7987
 1803SOL    HW216872   3.302   0.030   4.051  0.3233 -1.3131 -2.4279
 1804SOL     OW16873   0.557   4.621   2.544 -0.2223  0.2777  0.5964
 1804SOL    HW116874   0.506   4.547   2.576 -2.9650  1.6364 -0.6272
 1804SOL    HW216875   0.556   4.614   2.448  1.4806  1.2714  0.5166
 1805SOL     OW16876   1.356   3.420  11.284  0.4067 -0.1673 -0.0888
 1805SOL    HW116877   1.400   3.338  11.260 -2.2959 -1.4047 -0.7979
 1805SOL    HW216878   1.273   3.402  11.241  0.2399  2.5601 -0.8738
 1806SOL     OW16879   2.350   0.559   7.587 -0.2025  0.3114 -0.7592
 1806SOL    HW116880   2.305   0.597   7.662 -0.0705  2.6645 -1.8744
 1806SOL    HW216881   2.278   0.533   7.530 -0.3055 -0.7664 -0.1351
 1807SOL     OW16882   2.074   2.587  13.378  0.3864 -0.6270 -0.1385
 1807SOL    HW116883   1.978   2.592  13.372  0.4119 -1.3469 -1.0857
 1807SOL    HW216884   2.083   2.494  13.398  1.2145 -0.0920  1.9375
 1808SOL     OW16885   0.995   0.433   4.452 -0.4210 -0.2206  0.0852
 1808SOL    HW116886   0.987   0.444   4.357 -0.1997  0.0887  0.1008
 1808SOL    HW216887   1.089   0.419   4.461 -0.4494 -1.4338 -1.4816
 1809SOL     OW16888   2.310   0.390   8.899 -0.2074  0.1999 -0.9450
 1809SOL    HW116889   2.233   0.440   8.873 -0.2588  0.3402 -0.5239
 1809SOL    HW216890   2.383   0.445   8.871 -0.5508  0.3365 -1.5684
 1810SOL     OW16891   2.522   0.630   2.329 -0.0171 -0.2371 -0.1445
 1810SOL    HW116892   2.475   0.547   2.331 -0.1849 -0.1854 -2.2036
 1810SOL    HW216893   2.608   0.592   2.315 -0.6079 -1.7472  0.3487
 1811SOL     OW16894   1.460   1.668  10.638  0.3466  0.2185 -0.8454
 1811SOL    HW116895   1.379   1.714  10.616 -0.1636 -1.6857 -2.8940
 1811SOL    HW216896   1.442   1.578  10.665  0.5209  0.3113 -0.4146
 1812SOL     OW16897   3.508   0.511  11.696 -0.4580  0.2138 -0.0117
 1812SOL    HW116898   3.557   0.476  11.770 -1.3321 -2.9119 -0.9092
 1812SOL    HW216899   3.492   0.598  11.733 -1.6021  0.1026 -0.2296
 1813SOL     OW16900   4.420   4.517   2.969 -0.2217  0.1002  0.2244
 1813SOL    HW116901   4.476   4.500   3.044 -0.2852 -0.0040  0.2480
 1813SOL    HW216902   4.485   4.565   2.917  0.5941 -2.3770 -1.0395
 1814SOL     OW16903   0.420   1.732  14.091 -0.3625  0.0948  0.1328
 1814SOL    HW116904   0.354   1.677  14.048  0.6747 -1.3652  0.4157
 1814SOL    HW216905   0.374   1.776  14.163  0.5825  1.2684  0.0215
 1815SOL     OW16906   0.746   3.048   4.900 -0.1609  0.0598  0.3527
 1815SOL    HW116907   0.659   3.038   4.862  0.5860  1.0327 -1.5893
 1815SOL    HW216908   0.741   3.136   4.938 -0.2314  0.1732  0.0836
 1816SOL     OW16909   4.249   2.782   1.911 -0.1657  0.1953 -0.2635
 1816SOL    HW116910   4.240   2.864   1.861 -0.0237 -0.6067 -1.6118
 1816SOL    HW216911   4.191   2.717   1.870 -0.7395  0.2521  0.4704
 1817SOL     OW16912   3.210   3.747   2.506  0.4744  0.3324 -0.1958
 1817SOL    HW116913   3.248   3.711   2.425 -1.0157  0.0714 -0.7906
 1817SOL    HW216914   3.143   3.809   2.476  1.0212  1.2632  0.5118
 1818SOL     OW16915   3.696   1.163   7.961 -0.3119  0.3060 -0.2922
 1818SOL    HW116916   3.714   1.179   8.054 -0.3828  1.0565 -0.4039
 1818SOL    HW216917   3.689   1.254   7.932 -0.4130  0.3807 -0.0360
 1819SOL     OW16918   0.243   2.631   6.817  0.2201  0.0718 -0.7949
 1819SOL    HW116919   0.305   2.581   6.870  2.9845  3.1969 -1.1291
 1819SOL    HW216920   0.276   2.718   6.837 -1.4366  0.2852  0.9797
 1820SOL     OW16921   0.645   3.376   1.463 -0.0720  0.4216 -0.0615
 1820SOL    HW116922   0.643   3.471   1.470 -3.2559  0.3601 -0.2287
 1820SOL    HW216923   0.570   3.364   1.405  0.0389  1.6440 -0.4583
 1821SOL     OW16924   1.792   2.737   1.872  0.4469  0.0237 -0.2907
 1821SOL    HW116925   1.747   2.677   1.813  0.4295 -0.2824  0.0387
 1821SOL    HW216926   1.830   2.804   1.815 -0.3565 -0.2179 -1.1010
 1822SOL     OW16927   3.420   0.878   0.266  0.6540  0.5048 -0.1970
 1822SOL    HW116928   3.377   0.847   0.346  1.1788  1.3474  0.4095
 1822SOL    HW216929   3.349   0.924   0.221 -1.0153 -1.3457  0.5576
 1823SOL     OW16930   2.971   3.547   0.922  0.0806  0.0704 -0.5054
 1823SOL    HW116931   3.009   3.504   0.998  2.0887  1.6908 -0.6047
 1823SOL    HW216932   3.036   3.531   0.854 -0.4971 -1.4219 -0.7253
 1824SOL     OW16933   2.310   2.465   2.692 -0.1641  0.1683  0.6637
 1824SOL    HW116934   2.346   2.485   2.778 -1.4565 -0.4691  1.3557
 1824SOL    HW216935   2.268   2.379   2.694  2.4408 -1.1157 -0.0237
 1825SOL     OW16936   1.902   3.630   5.207  0.1676  0.1734 -0.0499
 1825SOL    HW116937   1.924   3.563   5.141  0.1223 -0.3730  0.4929
 1825SOL    HW216938   1.811   3.655   5.190  0.4785  1.3788  0.0310
 1826SOL     OW16939   0.608   3.040   2.625  0.1305 -0.6959 -0.5023
 1826SOL    HW116940   0.528   3.064   2.671 -1.2433 -1.4806 -2.4757
 1826SOL    HW216941   0.601   3.097   2.548  0.6394  0.8456  0.5883
 1827SOL     OW16942   2.751   0.151  12.837 -0.1828  0.4166  0.1136
 1827SOL    HW116943   2.837   0.111  12.850  0.2711  1.4865  0.4358
 1827SOL    HW216944   2.769   0.239  12.873 -2.9098  0.6678  0.8943
 1828SOL     OW16945   2.515   2.478   1.830 -0.3111 -0.5240 -0.3140
 1828SOL    HW116946   2.429   2.520   1.822 -1.8202 -3.3773  0.6445
 1828SOL    HW216947   2.569   2.515   1.760  0.5795 -2.5782 -0.7106
 1829SOL     OW16948   3.175   4.305  12.061  0.1087  0.0853  0.5662
 1829SOL    HW116949   3.183   4.230  12.119  1.6965 -1.7616 -2.0615
 1829SOL    HW216950   3.250   4.354  12.094  0.8773 -0.8537  0.1877
 1830SOL     OW16951   1.878   4.488  13.630 -0.3543 -0.0291 -0.6643
 1830SOL    HW116952   1.788   4.466  13.651 -0.8308  1.4810 -1.1675
 1830SOL    HW216953   1.864   4.493  13.536  0.0912  0.4689 -0.7063
 1831SOL     OW16954   0.555   0.501   8.994 -0.3277  0.0262 -0.2239
 1831SOL    HW116955   0.601   0.494   8.910 -1.4739 -1.9211 -0.6813
 1831SOL    HW216956   0.476   0.552   8.975 -1.2977 -1.1710  0.5824
 1832SOL     OW16957   1.656   4.672  16.385 -0.3302 -0.0796 -0.1575
 1832SOL    HW116958   1.721   4.653  16.452 -0.4402 -1.0067 -0.3127
 1832SOL    HW216959   1.696   0.009  16.322 -2.4805  0.8171 -0.6620
 1833SOL     OW16960   2.946   2.106   4.500  0.8250 -0.2085 -0.1733
 1833SOL    HW116961   2.936   2.165   4.575 -1.7422  0.6545 -1.1822
 1833SOL    HW216962   2.965   2.163   4.426  0.6748 -0.9460 -0.7759
 1834SOL     OW16963   0.867   3.126   0.671 -0.0858  0.1145  0.1725
 1834SOL    HW116964   0.937   3.180   0.636 -1.9315  2.5865  0.3301
 1834SOL    HW216965   0.796   3.189   0.674 -0.3908 -0.1655 -1.0930
 1835SOL     OW16966   4.390   2.149   6.621 -0.2395 -0.3202  0.0209
 1835SOL    HW116967   4.375   2.204   6.698 -1.8860 -0.4398 -0.2243
 1835SOL    HW216968   4.484   2.158   6.638 -0.2582  1.1447 -0.6174
 1836SOL     OW16969   4.135   2.039   4.930  0.2444 -0.4563  0.1116
 1836SOL    HW116970   4.139   1.955   4.884 -0.6821 -0.9223  0.8731
 1836SOL    HW216971   4.124   2.103   4.860  1.6255  0.6469  0.9026
 1837SOL     OW16972   2.758   1.524   6.049 -0.3126  0.3086 -0.3867
 1837SOL    HW116973   2.821   1.577   6.097 -1.3593  1.0246  0.1943
 1837SOL    HW216974   2.678   1.568   6.077  1.7479  3.7380  0.0757
 1838SOL     OW16975   1.447   4.007   7.754 -0.0959 -0.2256  0.9206
 1838SOL    HW116976   1.504   4.079   7.781 -1.1161  1.0202 -0.2512
 1838SOL    HW216977   1.384   4.008   7.826 -2.6700  0.9089 -1.3778
 1839SOL     OW16978   0.720   1.478   2.310 -0.0403  0.2336  0.6889
 1839SOL    HW116979   0.632   1.488   2.348 -0.9466  0.1592 -1.3949
 1839SOL    HW216980   0.723   1.548   2.244 -1.0079 -0.6246 -0.2701
 1840SOL     OW16981   0.328   4.043   7.141  0.7205  0.3183  0.3928
 1840SOL    HW116982   0.242   4.022   7.179  1.1243 -1.1103  0.5331
 1840SOL    HW216983   0.372   4.001   7.215 -0.0729 -1.1998 -0.0013
 1841SOL     OW16984   2.568   3.016   8.238  0.7703 -0.3357  0.3925
 1841SOL    HW116985   2.521   2.979   8.312 -1.9523  0.5336 -0.8517
 1841SOL    HW216986   2.501   3.022   8.170 -1.5942  0.0416  2.7588
 1842SOL     OW16987   3.569   4.233  12.187 -0.0457  0.3966 -0.0840
 1842SOL    HW116988   3.605   4.302  12.131 -1.4939  0.8708 -0.4545
 1842SOL    HW216989   3.484   4.270  12.214  0.2666  1.0854 -0.0394
 1843SOL     OW16990   4.279   3.392   8.753  0.7845  0.1266 -0.2901
 1843SOL    HW116991   4.286   3.337   8.831 -1.0613 -0.1951 -0.3486
 1843SOL    HW216992   4.256   3.325   8.688  2.6140 -0.7182 -0.0836
 1844SOL     OW16993   4.238   2.717   6.029 -0.0779 -0.1609  0.0607
 1844SOL    HW116994   4.316   2.773   6.031  0.0274 -0.3361  1.0234
 1844SOL    HW216995   4.199   2.755   6.107  0.3768  0.6619 -0.1167
 1845SOL     OW16996   0.381   4.704   5.819  0.3587  0.2779 -0.0494
 1845SOL    HW116997   0.457   4.719   5.875  1.6491 -0.6195 -1.5610
 1845SOL    HW216998   0.421   0.003   5.735  0.2316 -1.9428 -0.6824
 1846SOL     OW16999   0.544   4.461   3.289 -0.4836  0.3244  0.3100
 1846SOL    HW117000   0.603   4.386   3.293 -0.0041  0.8897  4.3192
 1846SOL    HW217001   0.512   4.460   3.379 -0.4049 -2.3506  0.3028
 1847SOL     OW17002   1.425   4.235   3.375  0.4294  0.2466  0.4430
 1847SOL    HW117003   1.405   4.146   3.402  0.7854 -0.4971 -1.7456
 1847SOL    HW217004   1.513   4.228   3.339 -0.5773  1.9756 -2.4284
 1848SOL     OW17005   0.130   1.304   9.099  0.1379 -0.0997  0.2284
 1848SOL    HW117006   0.147   1.317   9.006 -0.3060 -0.0915  0.1497
 1848SOL    HW217007   0.055   1.244   9.099 -0.6906  0.9422 -0.7029
 1849SOL     OW17008   3.260   0.082  16.990 -0.1452 -0.6030  0.2034
 1849SOL    HW117009   3.184   0.129  16.956  0.8295 -0.7453 -2.1877
 1849SOL    HW217010   3.254   0.008  16.929 -0.7388 -0.9436  0.6692
 1850SOL     OW17011   3.851   3.316   4.261 -0.0325  0.0880 -0.4200
 1850SOL    HW117012   3.788   3.361   4.318 -1.9219 -3.1988  0.0835
 1850SOL    HW217013   3.792   3.249   4.225 -0.4443  1.0723 -1.5866
 1851SOL     OW17014   2.184   0.719   2.951 -0.1662 -0.6746  0.1331
 1851SOL    HW117015   2.178   0.725   3.046 -0.1528  1.7044 -0.0218
 1851SOL    HW217016   2.267   0.762   2.934  0.5375 -1.5190  1.4932
 1852SOL     OW17017   2.354   0.094  14.198 -0.6270 -0.3654  0.1342
 1852SOL    HW117018   2.353   0.119  14.106  0.0736  1.6894  0.6799
 1852SOL    HW217019   2.406   0.013  14.201 -0.0112  0.0616  0.9296
 1853SOL     OW17020   0.387   3.620   0.405  0.2986  0.9334 -0.1812
 1853SOL    HW117021   0.306   3.615   0.455  0.6275  1.1143  0.3615
 1853SOL    HW217022   0.392   3.715   0.398 -0.5879  0.7423 -3.6040
 1854SOL     OW17023   3.711   3.359   6.356 -0.6488 -0.2500 -0.3410
 1854SOL    HW117024   3.621   3.372   6.327 -0.9771 -1.4647  0.1100
 1854SOL    HW217025   3.701   3.287   6.419  0.1912 -0.4559 -0.4417
 1855SOL     OW17026   1.216   3.044   5.825 -0.0200  0.7975 -0.2988
 1855SOL    HW117027   1.296   3.093   5.844  1.3464 -0.5462 -2.5218
 1855SOL    HW217028   1.251   2.974   5.770 -1.6304  0.8388 -1.3616
 1856SOL     OW17029   1.944   4.128   6.812  0.5022  0.0663 -0.3937
 1856SOL    HW117030   1.884   4.131   6.887  0.0425 -1.4168 -0.6938
 1856SOL    HW217031   2.023   4.163   6.852 -0.5966 -0.6004  2.3648
 1857SOL     OW17032   0.855   2.054  16.165 -0.4750  0.4631  0.0864
 1857SOL    HW117033   0.764   2.039  16.140 -0.5838  0.1250  0.7032
 1857SOL    HW217034   0.860   1.994  16.239  0.4972  0.0440 -0.3157
 1858SOL     OW17035   2.413   1.473   4.216 -0.1723  0.1087 -0.1919
 1858SOL    HW117036   2.427   1.448   4.124 -0.3968  1.3306 -0.5593
 1858SOL    HW217037   2.320   1.456   4.226 -0.0323 -0.5026  0.0944
 1859SOL     OW17038   2.933   4.074   0.244  0.3489  0.2256  0.0377
 1859SOL    HW117039   3.027   4.065   0.228  0.3300 -0.4392  0.3140
 1859SOL    HW217040   2.912   4.157   0.202  1.4476 -0.6957 -2.3766
 1860SOL     OW17041   0.474   2.577   6.439  0.2806  0.2807  0.2366
 1860SOL    HW117042   0.566   2.563   6.417 -0.0815 -2.5703  0.5873
 1860SOL    HW217043   0.435   2.567   6.352  0.7162  0.7485 -0.0122
 1861SOL     OW17044   2.833   1.741   5.758  0.4451 -0.1594 -0.2138
 1861SOL    HW117045   2.767   1.672   5.765 -0.3032  0.5959  0.3140
 1861SOL    HW217046   2.911   1.697   5.792 -0.4135 -0.9141  0.8005
 1862SOL     OW17047   1.719   4.306   6.301  0.5712  0.1869  0.1576
 1862SOL    HW117048   1.669   4.374   6.346 -0.1519  1.0963 -2.0146
 1862SOL    HW217049   1.798   4.313   6.355  0.6537  1.5634 -0.1198
 1863SOL     OW17050   1.317   2.906   6.123  0.1146  0.0894 -0.5427
 1863SOL    HW117051   1.336   2.923   6.216 -0.7832 -1.5593 -0.0483
 1863SOL    HW217052   1.377   2.968   6.082  1.8485 -1.7264 -0.7349
 1864SOL     OW17053   0.322   3.969   6.489 -0.1172  0.0870 -0.4003
 1864SOL    HW117054   0.414   3.992   6.476  0.0076  0.0512  0.4072
 1864SOL    HW217055   0.324   3.874   6.495 -0.3000  0.3813  3.8954
 1865SOL     OW17056   3.247   1.867  10.780  0.7612 -0.0995 -0.1460
 1865SOL    HW117057   3.204   1.791  10.820  2.0279  0.5216  2.3587
 1865SOL    HW217058   3.226   1.849  10.688  1.9446  0.2632 -0.4870
 1866SOL     OW17059   3.059   3.700  10.199 -0.3216  0.0575 -0.3198
 1866SOL    HW117060   3.132   3.761  10.205 -1.6004  1.4821  0.7665
 1866SOL    HW217061   3.084   3.634  10.134  2.6517  1.3804 -0.5341
 1867SOL     OW17062   0.833   1.869   5.261  0.0424 -0.3574 -0.4212
 1867SOL    HW117063   0.917   1.824   5.273  1.0020  0.5356 -3.8318
 1867SOL    HW217064   0.857   1.959   5.281 -0.4342 -0.2722 -0.2396
 1868SOL     OW17065   0.818   3.016   6.503 -0.1057 -0.5383  0.0038
 1868SOL    HW117066   0.856   2.930   6.520 -1.1862 -0.6352  2.0331
 1868SOL    HW217067   0.824   3.036   6.410  1.0787  0.9146  0.4073
 1869SOL     OW17068   4.392   3.903   5.416  0.3389 -0.1572  0.3473
 1869SOL    HW117069   4.435   3.957   5.350  0.8892  1.0950  1.7448
 1869SOL    HW217070   4.370   3.825   5.365 -1.0982  1.0419 -0.8498
 1870SOL     OW17071   1.671   1.285  13.164  0.9395 -0.1367  0.3107
 1870SOL    HW117072   1.755   1.320  13.136  0.4048 -0.5447 -1.7937
 1870SOL    HW217073   1.626   1.270  13.081  1.2313 -0.4810  0.2177
 1871SOL     OW17074   4.698   2.807   1.743 -0.3086 -0.1507 -0.1680
 1871SOL    HW117075   0.047   2.812   1.805 -0.7286 -0.2392  0.3265
 1871SOL    HW217076   0.020   2.804   1.658  1.2674  0.3300  0.6451
 1872SOL     OW17077   3.401   0.239   5.484 -0.0476  0.1067  0.2049
 1872SOL    HW117078   3.313   0.209   5.508 -0.0568 -0.3984 -0.4619
 1872SOL    HW217079   3.387   0.331   5.466  2.7870  0.7114  1.0682
 1873SOL     OW17080   2.703   1.366   1.497  0.1065 -0.2880 -0.0842
 1873SOL    HW117081   2.614   1.387   1.470  0.2829  0.2321 -0.2740
 1873SOL    HW217082   2.712   1.276   1.465  0.1042 -0.7410  1.1637
 1874SOL     OW17083   2.829   0.149   5.838  0.2388  0.3574  0.9981
 1874SOL    HW117084   2.767   0.115   5.902 -1.3044  2.3438  0.5630
 1874SOL    HW217085   2.839   0.236   5.877 -1.3880  0.9697  0.0533
 1875SOL     OW17086   0.294   3.050  15.562 -0.8210 -0.4292 -0.3097
 1875SOL    HW117087   0.292   3.105  15.484  0.4283 -0.8922 -0.6659
 1875SOL    HW217088   0.348   2.979  15.527 -0.1794  0.4125 -1.0477
 1876SOL     OW17089   1.884   1.168   9.205  0.2799 -0.0892 -0.3620
 1876SOL    HW117090   1.898   1.221   9.284  0.1205 -0.1232 -0.3106
 1876SOL    HW217091   1.887   1.224   9.128  0.8195 -0.4486 -0.6036
 1877SOL     OW17092   1.082   1.834   2.215  0.2638  0.3278 -0.1506
 1877SOL    HW117093   1.101   1.831   2.122  0.9066 -1.0057  0.0191
 1877SOL    HW217094   1.115   1.746   2.236  1.4262 -0.3543 -4.8751
 1878SOL     OW17095   0.160   3.970  13.335  0.5699 -0.5853 -0.6100
 1878SOL    HW117096   0.166   3.950  13.241  1.2185  1.6239 -1.0521
 1878SOL    HW217097   0.160   3.882  13.371  0.2175  0.5693  2.2000
 1879SOL     OW17098   0.687   0.289   6.059  0.5073  0.1580 -0.1153
 1879SOL    HW117099   0.637   0.232   6.117 -1.3998  2.0665  0.1345
 1879SOL    HW217100   0.774   0.250   6.056 -0.0065 -0.8318 -2.0812
 1880SOL     OW17101   1.970   2.907  10.519  0.1359  0.3824  0.0276
 1880SOL    HW117102   1.955   2.882  10.610  0.6212  0.0987  0.0267
 1880SOL    HW217103   1.928   2.993  10.517 -1.4539 -0.4142 -0.8134
 1881SOL     OW17104   0.010   2.259   2.245 -0.4032  0.3518 -0.1449
 1881SOL    HW117105   0.075   2.284   2.311 -0.7870  1.4671 -0.1933
 1881SOL    HW217106   0.054   2.308   2.176  0.7930 -0.1773  0.2479
 1882SOL     OW17107   3.683   4.030   9.088 -0.1912 -0.7840 -0.4463
 1882SOL    HW117108   3.752   3.991   9.034  0.5262 -1.7670  1.1635
 1882SOL    HW217109   3.686   3.975   9.167 -2.8127 -0.2547  0.0066
 1883SOL     OW17110   1.481   4.017  16.598 -0.4179 -0.0659 -0.6957
 1883SOL    HW117111   1.410   4.074  16.628 -0.2171  0.7391 -1.7413
 1883SOL    HW217112   1.439   3.932  16.583  0.3316 -0.8344  1.5889
 1884SOL     OW17113   1.217   4.694  13.167  0.4733  0.0734 -0.3621
 1884SOL    HW117114   1.220   4.681  13.262 -2.1577  1.2583 -0.1323
 1884SOL    HW217115   1.261   0.055  13.154 -1.7077  1.2546  0.0248
 1885SOL     OW17116   3.434   1.533   5.540  0.1084 -0.0635  0.4580
 1885SOL    HW117117   3.349   1.529   5.585  0.0270 -0.7831  0.2411
 1885SOL    HW217118   3.416   1.485   5.460 -0.3070 -0.4567  0.7902
 1886SOL     OW17119   3.705   2.705   6.876 -0.4227 -0.0018 -0.0692
 1886SOL    HW117120   3.717   2.704   6.971  0.5832 -1.0181 -0.2165
 1886SOL    HW217121   3.745   2.621   6.855  0.5403  0.1310  1.2698
 1887SOL     OW17122   0.268   1.765   5.875  0.5012  0.5650  0.5769
 1887SOL    HW117123   0.190   1.816   5.896  0.6740  1.4128 -0.8579
 1887SOL    HW217124   0.233   1.746   5.788  0.9198  0.4707  0.4262
 1888SOL     OW17125   1.704   0.921   1.439  0.5840  0.0858 -0.9408
 1888SOL    HW117126   1.748   1.003   1.418  1.8276 -0.4901 -0.5544
 1888SOL    HW217127   1.696   0.930   1.534 -2.1482 -0.3909 -1.1115
 1889SOL     OW17128   1.471   3.045   1.410 -0.0176 -0.0051  0.1653
 1889SOL    HW117129   1.429   3.130   1.399 -2.9604 -1.3737  1.1002
 1889SOL    HW217130   1.468   3.012   1.320 -0.4234  0.3098  0.0663
 1890SOL     OW17131   1.222   0.303   3.354  0.2061  0.4763  0.4707
 1890SOL    HW117132   1.186   0.300   3.442 -0.7948  0.1143  0.0403
 1890SOL    HW217133   1.294   0.241   3.356  0.6036  0.8458 -2.4087
 1891SOL     OW17134   2.505   1.442   8.328 -0.4781  0.1757  0.0890
 1891SOL    HW117135   2.493   1.456   8.422  2.0679 -4.8218  1.1658
 1891SOL    HW217136   2.420   1.408   8.300 -0.8090  0.5791  0.6112
 1892SOL     OW17137   3.848   0.897  11.312  0.3439  0.4867 -0.4321
 1892SOL    HW117138   3.901   0.821  11.335  0.7063  1.0962  0.7452
 1892SOL    HW217139   3.810   0.875  11.227  0.1403 -1.9311  0.3095
 1893SOL     OW17140   2.192   0.065   4.794  0.0571  0.0528 -0.0361
 1893SOL    HW117141   2.117   0.059   4.853 -1.0872 -0.3534 -1.5217
 1893SOL    HW217142   2.164   0.008   4.722 -0.3456  0.5337 -0.2615
 1894SOL     OW17143   1.407   0.529   1.774  0.2010  0.7801  0.1054
 1894SOL    HW117144   1.420   0.624   1.766  2.8397  0.5138  1.1139
 1894SOL    HW217145   1.484   0.494   1.729 -1.3916 -2.1660 -0.2841
 1895SOL     OW17146   4.241   0.237   6.697  0.0315 -0.2198  0.0751
 1895SOL    HW117147   4.276   0.243   6.609 -1.0871  2.7068 -0.1721
 1895SOL    HW217148   4.320   0.261   6.746  0.4836 -0.5878 -0.4722
 1896SOL     OW17149   2.756   0.283   4.833  0.3550 -0.1225  0.2530
 1896SOL    HW117150   2.767   0.277   4.927 -2.0384 -0.6006  0.5104
 1896SOL    HW217151   2.828   0.340   4.805 -1.3310  1.0821 -1.6536
 1897SOL     OW17152   1.630   0.542  12.023 -0.2181  0.0064  0.8026
 1897SOL    HW117153   1.542   0.553  11.987 -0.1092  0.6893  0.7369
 1897SOL    HW217154   1.677   0.604  11.967 -2.1045  0.5195 -0.2061
 1898SOL     OW17155   3.251   1.740  11.922  0.3345  0.0877 -0.1059
 1898SOL    HW117156   3.247   1.644  11.919  0.4541  0.0202  1.8127
 1898SOL    HW217157   3.168   1.752  11.874  1.5345  3.0071 -1.4173
 1899SOL     OW17158   1.498   3.850  13.637  0.4664 -0.3771  0.8616
 1899SOL    HW117159   1.495   3.946  13.644  1.0691 -0.3131  0.3025
 1899SOL    HW217160   1.417   3.818  13.676  1.0573  0.0515  2.4323
 1900SOL     OW17161   3.717   0.544  11.362  0.9908 -0.5416  0.4039
 1900SOL    HW117162   3.680   0.628  11.335  1.7250 -0.4178 -0.2225
 1900SOL    HW217163   3.634   0.499  11.375 -0.6026  2.6344  1.1848
 1901SOL     OW17164   3.773   3.687   6.597  0.0017 -0.4992  0.1160
 1901SOL    HW117165   3.772   3.679   6.502 -0.6017 -2.1815  0.2555
 1901SOL    HW217166   3.831   3.762   6.612 -0.8315  0.1874 -0.1694
 1902SOL     OW17167   3.887   3.819   5.154 -0.1796  0.1162 -0.0543
 1902SOL    HW117168   3.950   3.790   5.220 -0.5557  2.7771  1.4757
 1902SOL    HW217169   3.889   3.745   5.094 -2.8793  1.8633 -2.3290
 1903SOL     OW17170   3.219   4.099   8.380  0.3545 -1.0479 -0.0528
 1903SOL    HW117171   3.150   4.053   8.331 -0.0978 -1.6392  1.1597
 1903SOL    HW217172   3.165   4.159   8.431  1.0898 -0.5533  0.1232
 1904SOL     OW17173   3.847   3.821  13.301  0.2287  0.0936  0.0380
 1904SOL    HW117174   3.899   3.879  13.246 -0.2738 -0.6322 -1.2026
 1904SOL    HW217175   3.899   3.831  13.381  2.5127 -1.1475 -1.3172
 1905SOL     OW17176   3.402   3.918  16.909  0.3603 -0.1389  0.1137
 1905SOL    HW117177   3.411   3.920  16.813 -3.7456  1.5847 -0.2004
 1905SOL    HW217178   3.467   3.849  16.923 -0.8197 -0.8529  1.9277
 1906SOL     OW17179   1.677   3.845  16.482  0.2893  0.0477 -0.5297
 1906SOL    HW117180   1.625   3.912  16.528 -0.7124 -0.8934 -0.2983
 1906SOL    HW217181   1.643   3.763  16.516  3.2916 -0.3336  1.5077
 1907SOL     OW17182   0.365   1.410  14.014 -0.6999 -0.0791  0.2159
 1907SOL    HW117183   0.315   1.487  13.986  0.4499  1.2695  1.8579
 1907SOL    HW217184   0.438   1.452  14.060 -2.2222  2.8785 -0.0379
 1908SOL     OW17185   2.963   2.094  11.105  0.1372  0.0673 -0.1521
 1908SOL    HW117186   3.000   2.045  11.179 -1.5060 -0.8052  0.0786
 1908SOL    HW217187   2.886   2.138  11.138 -0.2819 -0.6460 -0.1788
 1909SOL     OW17188   1.828   4.235   5.257  0.3294  0.3430  0.0184
 1909SOL    HW117189   1.775   4.273   5.327 -1.3767 -2.0099 -0.0209
 1909SOL    HW217190   1.826   4.296   5.183 -0.3695 -0.6918 -0.8262
 1910SOL     OW17191   3.267   1.352   7.702 -0.2801  0.4941  0.5078
 1910SOL    HW117192   3.203   1.282   7.695 -1.2096  1.4945 -0.9630
 1910SOL    HW217193   3.317   1.331   7.623 -1.3968 -0.2455  0.0010
 1911SOL     OW17194   1.150   2.612   4.739  0.5861  0.1190  0.3225
 1911SOL    HW117195   1.213   2.655   4.681 -1.0336  0.8490 -0.8709
 1911SOL    HW217196   1.194   2.527   4.743 -1.3042 -0.8665 -0.4824
 1912SOL     OW17197   4.563   1.856   3.587  0.0105 -0.2659  0.0092
 1912SOL    HW117198   4.633   1.868   3.650 -1.5250  0.8242  1.5062
 1912SOL    HW217199   4.533   1.769   3.613 -0.9209  0.0126 -0.1026
 1913SOL     OW17200   2.543   3.558   4.830  0.2506  0.0665  0.4927
 1913SOL    HW117201   2.614   3.494   4.831  0.7844  0.6066 -1.7386
 1913SOL    HW217202   2.494   3.524   4.755  0.8105 -0.1346  0.2220
 1914SOL     OW17203   3.230   1.869   3.986 -0.3838  0.4049  0.0033
 1914SOL    HW117204   3.261   1.784   3.955 -0.5857  0.0405  0.7922
 1914SOL    HW217205   3.277   1.931   3.931  1.9506 -2.7351 -1.5882
 1915SOL     OW17206   0.541   4.250   0.861  0.0548 -0.2542 -0.2435
 1915SOL    HW117207   0.478   4.212   0.923  0.3118  0.3029  0.3541
 1915SOL    HW217208   0.581   4.324   0.908 -0.6187  0.7315 -1.2239
 1916SOL     OW17209   0.818   2.921   5.402 -0.6810  0.3537  0.2752
 1916SOL    HW117210   0.807   2.880   5.488 -2.2453 -0.2281 -0.2064
 1916SOL    HW217211   0.750   2.885   5.345 -0.6577  3.0658 -1.4726
 1917SOL     OW17212   3.286   2.283   7.210 -0.4688  0.1639 -0.3191
 1917SOL    HW117213   3.271   2.248   7.298  1.0546 -0.4385 -0.3005
 1917SOL    HW217214   3.205   2.333   7.208 -1.2801 -1.1583 -0.3164
 1918SOL     OW17215   4.046   2.856   2.533 -0.5272  0.5254 -0.0237
 1918SOL    HW117216   4.097   2.933   2.558  1.9381 -0.9557 -0.5618
 1918SOL    HW217217   4.036   2.809   2.616  0.0018 -0.4172 -0.4939
 1919SOL     OW17218   0.941   2.219   0.746  0.3259  0.6637 -0.4616
 1919SOL    HW117219   0.985   2.263   0.819  0.1565  0.5756 -0.3054
 1919SOL    HW217220   0.850   2.230   0.774  0.1798 -1.4772 -0.0359
 1920SOL     OW17221   0.368   3.899   4.378 -0.5482  0.1993 -0.2858
 1920SOL    HW117222   0.392   3.958   4.306  1.3285 -0.3520 -0.1268
 1920SOL    HW217223   0.273   3.909   4.375 -0.3365  2.6536  1.1130
 1921SOL     OW17224   3.947   3.096   7.148 -0.6843  0.1342  0.1125
 1921SOL    HW117225   3.964   3.127   7.059  1.1493 -0.9478  0.0869
 1921SOL    HW217226   3.933   3.003   7.130  2.1455 -0.1771 -0.5224
 1922SOL     OW17227   3.045   1.067   7.673  0.2928 -0.1739 -0.2102
 1922SOL    HW117228   3.018   0.976   7.661 -2.2805  0.7197 -1.2850
 1922SOL    HW217229   3.010   1.084   7.761  0.8465  0.9038 -0.1953
 1923SOL     OW17230   3.006   1.113   4.831 -0.0421 -0.5564 -0.0786
 1923SOL    HW117231   3.085   1.158   4.862 -0.5894 -1.1254  2.1574
 1923SOL    HW217232   3.046   1.049   4.772 -0.2295 -0.8633  0.1318
 1924SOL     OW17233   2.601   1.048  13.459 -0.4352 -0.8166  0.0628
 1924SOL    HW117234   2.561   1.089  13.537 -1.2694 -0.0644 -0.7568
 1924SOL    HW217235   2.577   0.956  13.469  3.1267 -1.5723  1.6476
 1925SOL     OW17236   3.988   3.512   3.940  0.3908 -0.4783  0.0127
 1925SOL    HW117237   4.057   3.461   3.983  0.5472  1.0560  1.6025
 1925SOL    HW217238   3.959   3.449   3.874 -0.6463 -0.6573  0.6384
 1926SOL     OW17239   0.970   3.794   1.606 -0.4013  0.2178 -0.3969
 1926SOL    HW117240   1.035   3.725   1.593 -0.5978  0.4416 -2.5132
 1926SOL    HW217241   0.894   3.769   1.553 -0.1669 -0.5791 -0.3591
 1927SOL     OW17242   4.408   3.718   4.006  0.0698  0.1784 -0.2067
 1927SOL    HW117243   4.320   3.747   3.981 -0.7198 -0.4531  1.8480
 1927SOL    HW217244   4.393   3.677   4.091  1.0177  2.7945  1.2469
 1928SOL     OW17245   1.950   3.019   1.361  0.2727 -0.1800  0.3592
 1928SOL    HW117246   1.939   3.105   1.320  4.0513  0.7647  1.2595
 1928SOL    HW217247   2.041   3.021   1.392  0.1881 -0.2328  0.6107
 1929SOL     OW17248   0.672   0.845   3.224  0.5097  0.0292  0.0128
 1929SOL    HW117249   0.736   0.821   3.291  0.1580  0.4025  0.4840
 1929SOL    HW217250   0.593   0.848   3.278  0.7974  0.4045  0.4104
 1930SOL     OW17251   1.081   4.367   1.109  0.0533 -0.8588  0.2623
 1930SOL    HW117252   1.118   4.442   1.155  1.8163 -2.2024  1.0417
 1930SOL    HW217253   1.023   4.321   1.170 -0.3615  1.2307  1.4594
 1931SOL     OW17254   3.928   0.380   8.464  0.2694  0.2152 -0.2607
 1931SOL    HW117255   4.022   0.370   8.480  0.1541 -0.7716 -0.1983
 1931SOL    HW217256   3.900   0.307   8.519  0.1391  0.3006 -0.2143
 1932SOL     OW17257   4.053   3.417   3.366  0.1921  0.6037 -0.1867
 1932SOL    HW117258   3.975   3.467   3.389 -0.1410  0.8056 -1.7415
 1932SOL    HW217259   4.056   3.418   3.270 -1.0828 -0.3766 -0.2362
 1933SOL     OW17260   2.920   4.434   7.313 -0.1923  0.0136 -0.5059
 1933SOL    HW117261   2.893   4.362   7.256 -0.8209  0.7714 -1.1562
 1933SOL    HW217262   2.906   4.398   7.401 -0.6460 -0.3151 -0.7117
 1934SOL     OW17263   0.826   1.739   1.923 -0.0891  0.7020 -0.3589
 1934SOL    HW117264   0.759   1.673   1.902 -0.3286  0.8613 -0.0966
 1934SOL    HW217265   0.804   1.747   2.016 -3.0502 -0.4196 -0.9608
 1935SOL     OW17266   4.705   3.344   7.282  0.2326  0.0040  0.2631
 1935SOL    HW117267   0.012   3.255   7.301  2.8580  0.8141 -0.1355
 1935SOL    HW217268   0.058   3.398   7.302 -0.5504  1.3750 -0.4680
 1936SOL     OW17269   2.029   1.611   6.834  0.4690  0.3143 -0.2610
 1936SOL    HW117270   1.962   1.557   6.876 -0.5392  0.4603 -1.6873
 1936SOL    HW217271   2.024   1.682   6.899 -1.0327  1.1300 -1.2779
 1937SOL     OW17272   0.854   0.156  11.615 -0.3606  0.0280 -0.0893
 1937SOL    HW117273   0.860   0.244  11.651 -0.7348  0.8421 -2.0103
 1937SOL    HW217274   0.768   0.141  11.575 -0.6768 -2.4769  1.5070
 1938SOL     OW17275   2.927   2.147   1.546 -0.2576  0.3105 -0.0365
 1938SOL    HW117276   2.848   2.100   1.517  1.5272 -0.5159 -3.5542
 1938SOL    HW217277   2.989   2.076   1.561  0.1061  0.7399  0.4688
 1939SOL     OW17278   0.359   1.334  15.015  0.6259  0.0307  0.1168
 1939SOL    HW117279   0.304   1.291  15.080 -1.3759  0.1779 -1.4781
 1939SOL    HW217280   0.367   1.279  14.937  2.1068  1.6309 -0.8582
 1940SOL     OW17281   3.821   1.721   8.386 -0.4084  0.3035  0.4961
 1940SOL    HW117282   3.767   1.683   8.318  0.4479 -0.6929  0.3677
 1940SOL    HW217283   3.821   1.654   8.454  1.3496 -0.7082 -0.5052
 1941SOL     OW17284   1.007   2.731   9.317  0.1941  0.3483 -0.2304
 1941SOL    HW117285   0.924   2.762   9.280  0.4950 -0.1575 -1.3195
 1941SOL    HW217286   1.013   2.636   9.311  0.4899  0.3088  0.6660
 1942SOL     OW17287   3.332   2.893   8.494 -0.5190 -0.1396  0.0323
 1942SOL    HW117288   3.266   2.866   8.430 -0.2654 -2.4329  0.7417
 1942SOL    HW217289   3.304   2.979   8.523  0.7177 -0.0605  1.0014
 1943SOL     OW17290   0.165   2.123   4.831 -0.1273 -0.0935 -0.4002
 1943SOL    HW117291   0.191   2.057   4.895  0.7702  0.1410 -0.5246
 1943SOL    HW217292   0.203   2.200   4.872 -1.0793 -0.0009  0.3124
 1944SOL     OW17293   2.125   2.782  16.639  0.1459 -0.6324  0.3917
 1944SOL    HW117294   2.094   2.853  16.584  0.6680 -2.6646 -2.5231
 1944SOL    HW217295   2.059   2.717  16.614 -2.4086  1.1725  2.4321
 1945SOL     OW17296   3.226   2.528   4.426  0.7713  0.0495  0.4692
 1945SOL    HW117297   3.235   2.604   4.483  0.5040  1.5035 -1.4417
 1945SOL    HW217298   3.154   2.559   4.371 -0.2002  1.0145  2.2928
 1946SOL     OW17299   4.258   1.259   1.661 -0.2982  0.3901 -0.3552
 1946SOL    HW117300   4.307   1.218   1.733 -2.4500 -0.1495  0.8274
 1946SOL    HW217301   4.334   1.296   1.617  0.7773  0.3384  1.4630
 1947SOL     OW17302   3.830   0.600   8.022 -0.7415 -0.2273 -0.1822
 1947SOL    HW117303   3.872   0.650   8.092 -1.1476  1.2949 -1.0092
 1947SOL    HW217304   3.757   0.652   7.989 -0.3516  0.6468  0.3024
 1948SOL     OW17305   3.758   1.821   3.515 -0.8941  0.2882 -0.6512
 1948SOL    HW117306   3.797   1.870   3.443 -0.8837  0.0169 -0.8307
 1948SOL    HW217307   3.788   1.732   3.495 -1.6643 -0.3607  1.0346
 1949SOL     OW17308   1.934   1.855   7.991 -0.0918 -0.1999  0.6738
 1949SOL    HW117309   1.897   1.932   7.948  1.7682  0.0591 -0.4597
 1949SOL    HW217310   2.021   1.890   8.012  0.4728 -0.3874 -1.4005
 1950SOL     OW17311   1.789   1.226   5.204  0.3626  0.3189  0.7539
 1950SOL    HW117312   1.814   1.319   5.208  0.4696  0.3152  0.2776
 1950SOL    HW217313   1.744   1.207   5.285  0.1381 -0.4612  0.4421
 1951SOL     OW17314   1.496   4.683   6.983 -0.2238 -0.5919 -0.1716
 1951SOL    HW117315   1.404   4.657   6.991 -0.0700 -0.7170  1.3009
 1951SOL    HW217316   1.497   0.048   7.020  0.4587 -0.6880  0.0313
 1952SOL     OW17317   4.030   2.835   4.678  0.1766  0.4562 -0.5957
 1952SOL    HW117318   4.016   2.893   4.753 -0.9381  2.4515 -2.3878
 1952SOL    HW217319   3.948   2.787   4.675  0.6510 -0.3745 -0.2762
 1953SOL     OW17320   1.312   1.069   2.590  0.5013  0.2250  0.1639
 1953SOL    HW117321   1.262   1.108   2.518 -2.5006  1.4125  2.8809
 1953SOL    HW217322   1.288   1.125   2.663 -1.9680 -2.0426  1.0968
 1954SOL     OW17323   2.597   1.585   5.237 -0.1802 -0.4712 -0.1390
 1954SOL    HW117324   2.558   1.499   5.255 -2.4688  0.4459 -0.7607
 1954SOL    HW217325   2.652   1.589   5.315  1.3604 -0.4075 -1.2291
 1955SOL     OW17326   2.228   0.202  13.128 -0.5880  0.4837  0.0066
 1955SOL    HW117327   2.210   0.155  13.047 -1.0237  0.5598  0.0592
 1955SOL    HW217328   2.324   0.203  13.130 -0.5715  0.7148 -1.3738
 1956SOL     OW17329   2.546   4.383   3.710  0.4039 -0.2286 -0.5752
 1956SOL    HW117330   2.572   4.332   3.633 -2.4237 -1.6386 -0.5711
 1956SOL    HW217331   2.513   4.311   3.763 -1.5398  1.6419  0.7716
 1957SOL     OW17332   0.359   3.194   2.389  0.8887 -0.2277  0.4988
 1957SOL    HW117333   0.313   3.276   2.411 -0.0749 -1.2072  2.1313
 1957SOL    HW217334   0.449   3.225   2.400  1.5935 -2.2972  0.4480
 1958SOL     OW17335   0.048   4.577   6.300  0.3253 -0.0282  0.2444
 1958SOL    HW117336   0.100   4.515   6.250  0.3634  1.2834 -1.3131
 1958SOL    HW217337   0.057   4.529   6.383 -2.4257 -0.3309  0.3640
 1959SOL     OW17338   2.672   1.183  12.355 -0.0654  0.2122 -0.0683
 1959SOL    HW117339   2.651   1.094  12.325  0.5746  0.7557 -2.1316
 1959SOL    HW217340   2.694   1.170  12.447  2.5873  0.7760 -0.6415
 1960SOL     OW17341   3.804   2.239   4.531  0.0762 -0.5561 -0.0868
 1960SOL    HW117342   3.846   2.158   4.561  0.9689  0.6119  1.8069
 1960SOL    HW217343   3.730   2.197   4.487 -0.6111  1.1467 -0.5450
 1961SOL     OW17344   1.193   3.258   8.023 -0.0806 -0.4266 -0.3419
 1961SOL    HW117345   1.266   3.232   8.079 -1.5785 -1.5855  1.0526
 1961SOL    HW217346   1.120   3.217   8.070 -2.2183  1.5688 -1.8931
 1962SOL     OW17347   0.220   0.209   1.760  0.5002  0.0357  0.1639
 1962SOL    HW117348   0.197   0.263   1.684 -0.9772 -2.2533 -1.0207
 1962SOL    HW217349   0.134   0.174   1.783  1.1628 -1.1418  0.8386
 1963SOL     OW17350   1.793   4.364  17.431  0.1751  0.5260  0.1525
 1963SOL    HW117351   1.710   4.410  17.437 -0.3802 -0.3850 -0.5298
 1963SOL    HW217352   1.791   4.338  17.523  0.0540 -0.1772 -0.0466
 1964SOL     OW17353   4.092   1.850  11.211 -0.3965 -0.1013  0.5133
 1964SOL    HW117354   4.065   1.796  11.285  0.6871 -0.6490  0.5036
 1964SOL    HW217355   4.120   1.936  11.242  3.6343 -0.6198 -1.6839
 1965SOL     OW17356   0.890   2.644   7.512 -0.1622 -0.0113 -0.5126
 1965SOL    HW117357   0.868   2.625   7.420  0.0836  1.0607 -0.7863
 1965SOL    HW217358   0.856   2.568   7.559 -2.5897  0.9140 -0.7916
 1966SOL     OW17359   3.230   0.962   2.439  0.1236  0.6892 -0.1143
 1966SOL    HW117360   3.173   0.894   2.402  0.9450 -1.2461  2.1511
 1966SOL    HW217361   3.168   1.035   2.448 -0.5698  0.1211 -0.2149
 1967SOL     OW17362   0.583   4.689  11.781 -0.4337  0.4284  0.1538
 1967SOL    HW117363   0.520   0.014  11.834 -0.1160  0.2392  0.7165
 1967SOL    HW217364   0.569   4.597  11.807  2.9052  0.2740  1.4263
 1968SOL     OW17365   1.478   3.804  14.455  0.2748  0.4567  0.4107
 1968SOL    HW117366   1.397   3.776  14.498  0.0465 -0.8142 -0.8115
 1968SOL    HW217367   1.473   3.750  14.376  2.8671  0.6197  0.1437
 1969SOL     OW17368   1.389   0.868  15.588  0.2579 -0.0122 -0.2490
 1969SOL    HW117369   1.470   0.912  15.612 -0.2609  0.0575  1.3695
 1969SOL    HW217370   1.419   0.826  15.507 -0.4432 -1.8288  0.4335
 1970SOL     OW17371   1.464   3.432   1.156  0.4536 -0.1751 -0.1699
 1970SOL    HW117372   1.369   3.432   1.170  0.2788  0.8805 -1.3398
 1970SOL    HW217373   1.471   3.346   1.114 -0.8144  0.8514 -2.5123
 1971SOL     OW17374   2.428   4.342   7.724  0.3638 -0.0057 -0.1781
 1971SOL    HW117375   2.421   4.340   7.819 -0.6750  0.9986 -0.2384
 1971SOL    HW217376   2.516   4.379   7.712  0.8611 -1.2612 -0.4828
 1972SOL     OW17377   3.021   4.216   7.742  0.1348  0.4041  0.2118
 1972SOL    HW117378   2.952   4.163   7.783  0.9767 -3.1218 -2.8491
 1972SOL    HW217379   3.089   4.205   7.809  0.7696 -0.4814 -0.5721
 1973SOL     OW17380   1.438   1.415   5.463 -0.2952  0.4499  0.0753
 1973SOL    HW117381   1.355   1.390   5.505 -1.6880  0.3586 -2.7673
 1973SOL    HW217382   1.410   1.437   5.375 -0.1726  0.2742 -0.0075
 1974SOL     OW17383   2.239   0.891  12.553  0.2266 -0.3890  0.1026
 1974SOL    HW117384   2.177   0.909  12.482 -1.4942 -0.9403  1.4376
 1974SOL    HW217385   2.182   0.842  12.613 -0.6266  1.4587  0.8112
 1975SOL     OW17386   4.148   1.947   8.046 -0.1295  0.2871 -0.0442
 1975SOL    HW117387   4.072   1.975   8.097 -1.6449 -1.8782 -1.1262
 1975SOL    HW217388   4.207   1.912   8.113 -0.7164 -1.5990 -0.5154
 1976SOL     OW17389   3.100   3.461   6.562  0.1163 -0.0666 -0.8102
 1976SOL    HW117390   3.005   3.464   6.553  0.2596  3.5274 -1.3345
 1976SOL    HW217391   3.129   3.499   6.479  3.9835 -1.2658 -0.0179
 1977SOL     OW17392   2.953   1.857  13.347  0.0456  0.1491  0.0875
 1977SOL    HW117393   2.935   1.804  13.269 -0.9630 -0.4739  0.7340
 1977SOL    HW217394   2.893   1.931  13.346  0.6311  0.6067 -0.7941
 1978SOL     OW17395   3.945   2.589   5.375  0.1966 -0.1980  0.2502
 1978SOL    HW117396   3.920   2.497   5.370  2.2762 -0.6512 -1.6407
 1978SOL    HW217397   3.862   2.637   5.383 -0.5815 -1.7723  1.5128
 1979SOL     OW17398   3.862   4.251  10.558  0.1438  0.1112  0.3738
 1979SOL    HW117399   3.845   4.323  10.619 -1.8409 -0.2683  0.2995
 1979SOL    HW217400   3.903   4.185  10.614 -0.3353 -0.0351  0.5554
 1980SOL     OW17401   0.325   0.880  17.351 -0.1880  0.2345 -0.1807
 1980SOL    HW117402   0.286   0.794  17.369 -1.1553  1.0334  1.5732
 1980SOL    HW217403   0.297   0.938  17.422 -0.7576 -1.2254  0.7971
 1981SOL     OW17404   1.698   2.534  17.586 -0.4033  0.3794 -0.7626
 1981SOL    HW117405   1.788   2.531  17.618 -0.2092 -2.5644 -1.5117
 1981SOL    HW217406   1.693   2.623  17.551  1.4695  0.4066 -0.9710
 1982SOL     OW17407   2.165   3.218   8.720  0.0969  0.3309  0.4457
 1982SOL    HW117408   2.136   3.165   8.646  0.2089  0.9066 -0.0138
 1982SOL    HW217409   2.111   3.182   8.790  1.8638 -0.8623  1.1908
 1983SOL     OW17410   3.267   2.205  17.615 -0.0646 -0.0549 -0.6104
 1983SOL    HW117411   3.288   2.114  17.636  0.6180  0.1993 -0.1928
 1983SOL    HW217412   3.353   2.237  17.591  0.4317 -0.5708  0.4613
 1984SOL     OW17413   4.523   0.237   4.304 -0.3267 -0.2436  0.2182
 1984SOL    HW117414   4.559   0.279   4.226  0.3016 -0.2495  0.5090
 1984SOL    HW217415   4.535   0.143   4.293 -0.1123 -0.1474 -0.3585
 1985SOL     OW17416   3.289   0.193   1.264 -0.3389 -0.4268 -0.6423
 1985SOL    HW117417   3.361   0.207   1.325  1.0686 -0.4473 -2.2867
 1985SOL    HW217418   3.310   0.105   1.232  1.7290  0.8716 -2.9022
 1986SOL     OW17419   0.171   2.903  17.020 -0.4744  0.0852 -0.3832
 1986SOL    HW117420   0.189   2.836  16.954 -1.1274 -0.3944 -0.0758
 1986SOL    HW217421   0.134   2.978  16.973  0.7271  1.1066  0.2982
 1987SOL     OW17422   1.321   2.603  13.200  0.0472  0.8426  0.2852
 1987SOL    HW117423   1.242   2.648  13.170  0.4361  0.6471 -1.0669
 1987SOL    HW217424   1.397   2.655  13.174 -0.9872  2.3998  0.4317
 1988SOL     OW17425   1.791   3.328   4.221 -0.0918  0.3158  0.2210
 1988SOL    HW117426   1.764   3.337   4.312 -1.3009  1.0492 -0.2125
 1988SOL    HW217427   1.887   3.325   4.225 -0.0163  1.0453 -0.8709
 1989SOL     OW17428   4.495   1.449  16.233  0.0269  0.0599  0.9472
 1989SOL    HW117429   4.421   1.494  16.274 -0.1469 -0.0028  0.7026
 1989SOL    HW217430   4.548   1.526  16.216 -1.7519  1.2424  0.7739
 1990SOL     OW17431   2.324   0.830   8.310  0.3692  0.8691  0.3734
 1990SOL    HW117432   2.360   0.909   8.350  0.5201  1.2872 -0.5943
 1990SOL    HW217433   2.406   0.805   8.268 -1.1913 -0.0450 -2.1193
 1991SOL     OW17434   0.351   1.241  12.762  0.3100 -0.0979  0.5807
 1991SOL    HW117435   0.275   1.275  12.808  0.1374  0.5370 -0.1703
 1991SOL    HW217436   0.403   1.312  12.725  0.9338 -1.7857 -1.7954
 1992SOL     OW17437   0.835   0.268   2.633 -0.4535 -0.0390 -0.9016
 1992SOL    HW117438   0.791   0.343   2.594 -0.1435  1.8144  2.4179
 1992SOL    HW217439   0.889   0.242   2.558  0.7539  0.9182 -0.3527
 1993SOL     OW17440   0.655   4.107  14.852  0.4234  0.1062  0.1286
 1993SOL    HW117441   0.732   4.057  14.877  0.3901  0.5431  1.0961
 1993SOL    HW217442   0.647   4.157  14.933 -1.9172 -0.6091  0.3455
 1994SOL     OW17443   0.632   4.006   1.430 -0.5538 -0.1926  0.4040
 1994SOL    HW117444   0.537   3.994   1.425 -0.4005 -0.1073 -2.2455
 1994SOL    HW217445   0.646   4.087   1.381  0.3169 -1.2616 -1.1060
 1995SOL     OW17446   4.251   4.063   1.427  0.1994  0.1750  0.0497
 1995SOL    HW117447   4.264   3.973   1.399 -1.1105  0.1383 -0.4506
 1995SOL    HW217448   4.170   4.061   1.376 -0.4817  0.3237  1.1227
 1996SOL     OW17449   1.349   1.011   8.639 -0.2543 -0.5141 -0.2423
 1996SOL    HW117450   1.325   1.087   8.693 -0.5451 -0.1813 -0.8488
 1996SOL    HW217451   1.312   0.947   8.700 -1.6063  0.5385  0.0323
 1997SOL     OW17452   0.874   4.480   2.371 -0.3156 -0.1975 -0.1541
 1997SOL    HW117453   0.785   4.510   2.356 -0.7871 -1.7283 -0.4576
 1997SOL    HW217454   0.922   4.562   2.384  2.1673 -1.9273  1.5464
 1998SOL     OW17455   2.198   1.347   8.553  0.0691  0.5710  0.2765
 1998SOL    HW117456   2.268   1.410   8.565  0.2823  0.2412  0.7617
 1998SOL    HW217457   2.143   1.385   8.485 -1.2441 -0.5336  0.7214
 1999SOL     OW17458   1.366   2.217   4.011  0.0072  0.6340  0.2072
 1999SOL    HW117459   1.459   2.206   4.033 -0.2828 -1.5141  0.3957
 1999SOL    HW217460   1.356   2.312   4.001 -1.9189  0.2899 -1.0328
 2000SOL     OW17461   2.261   0.823   0.521  0.4371  0.8359 -1.0157
 2000SOL    HW117462   2.309   0.742   0.539  1.5354  2.6378  4.0953
 2000SOL    HW217463   2.332   0.887   0.521  0.0411  1.2577  0.5086
 2001SOL     OW17464   3.656   2.309   2.761 -0.2832  0.3078 -0.0385
 2001SOL    HW117465   3.595   2.382   2.751  0.0877  0.5882 -0.2030
 2001SOL    HW217466   3.597   2.235   2.780  1.7924 -1.5595 -0.8628
 2002SOL     OW17467   0.594   2.780   5.299  0.1045 -0.3242  0.3294
 2002SOL    HW117468   0.521   2.807   5.354 -0.4617 -0.5806 -0.3022
 2002SOL    HW217469   0.560   2.707   5.248  0.1405 -1.0221  1.3059
 2003SOL     OW17470   0.197   2.316   5.498 -0.2754 -0.0828 -0.2086
 2003SOL    HW117471   0.121   2.311   5.556  0.1644 -3.7602  0.0437
 2003SOL    HW217472   0.261   2.342   5.565 -1.4406  0.0492  0.8541
 2004SOL     OW17473   0.919   2.066  10.387 -0.2243  0.0488  0.8562
 2004SOL    HW117474   0.936   2.153  10.349 -2.4847  0.7571  1.4569
 2004SOL    HW217475   0.952   2.019  10.310 -0.4922  2.7410 -0.9326
 2005SOL     OW17476   0.045   4.035   5.732 -0.6129  1.0820  0.1571
 2005SOL    HW117477   0.134   4.051   5.764 -0.4395 -1.4379  0.9836
 2005SOL    HW217478   0.004   4.121   5.734 -1.8831  0.4496  1.5143
 2006SOL     OW17479   0.087   3.535   7.969 -0.1079 -0.3262  1.0213
 2006SOL    HW117480   0.048   3.449   7.954  0.5781 -0.5987  0.8198
 2006SOL    HW217481   0.151   3.509   8.035 -0.7738 -1.1124  1.3563
 2007SOL     OW17482   0.354   4.443   2.587 -0.0585  0.0765  0.3542
 2007SOL    HW117483   0.382   4.355   2.616 -2.6202 -0.0536  2.3900
 2007SOL    HW217484   0.295   4.417   2.517  0.3423  2.8274 -0.9700
 2008SOL     OW17485   2.128   2.772   3.836 -0.4761 -0.4486 -0.1512
 2008SOL    HW117486   2.182   2.792   3.760  1.1125  0.8181  1.3045
 2008SOL    HW217487   2.127   2.854   3.887 -0.6116 -0.6182  0.1194
 2009SOL     OW17488   0.400   1.517   2.143 -0.9503 -0.6130  0.1239
 2009SOL    HW117489   0.315   1.538   2.181 -0.7207 -0.5372  0.5971
 2009SOL    HW217490   0.411   1.432   2.187 -0.1401 -1.1539 -1.1170
 2010SOL     OW17491   0.061   3.571   1.825  0.0559 -0.4199 -0.5624
 2010SOL    HW117492   0.131   3.617   1.778  1.0098 -1.5499 -0.2543
 2010SOL    HW217493   0.069   3.483   1.789  2.1666 -0.1018 -0.8793
 2011SOL     OW17494   3.550   0.551   3.743 -0.1386  0.2084  0.1189
 2011SOL    HW117495   3.610   0.609   3.790 -0.6987  1.4914 -0.7399
 2011SOL    HW217496   3.479   0.539   3.807  1.1137  1.2333  1.6846
 2012SOL     OW17497   4.471   1.820   7.151  0.1103  0.0841  0.5224
 2012SOL    HW117498   4.519   1.902   7.158  0.8531 -0.4294  1.4799
 2012SOL    HW217499   4.396   1.830   7.210 -2.0829  0.4182 -2.3403
 2013SOL     OW17500   1.050   3.478   2.801 -0.5922 -0.1014 -0.2288
 2013SOL    HW117501   0.968   3.516   2.770 -1.2789  0.8255  2.6923
 2013SOL    HW217502   1.089   3.454   2.717  1.1239 -0.9046  0.7751
 2014SOL     OW17503   2.426   2.160   3.627  0.1212 -0.0581  0.5337
 2014SOL    HW117504   2.503   2.107   3.649  1.3588  0.5841 -2.2480
 2014SOL    HW217505   2.364   2.134   3.695  0.1698 -1.1663  0.1516
 2015SOL     OW17506   1.185   0.355   2.588  0.6807  0.2797  0.1570
 2015SOL    HW117507   1.109   0.394   2.631  1.4237  3.4467 -1.4694
 2015SOL    HW217508   1.172   0.396   2.503  0.3567  1.7742  0.9363
 2016SOL     OW17509   1.300   1.675   6.532 -0.7015  0.1458  0.3767
 2016SOL    HW117510   1.372   1.691   6.471 -0.8009 -1.0342 -0.0394
 2016SOL    HW217511   1.228   1.659   6.471 -2.0316 -0.3437  2.0660
 2017SOL     OW17512   4.701   0.302   4.114 -0.1313 -0.1142 -0.1668
 2017SOL    HW117513   0.027   0.384   4.109  0.6332 -0.5558  0.0159
 2017SOL    HW217514   4.688   0.290   4.020 -0.2901 -0.1373 -0.1420
 2018SOL     OW17515   1.440   4.015   6.949 -0.0571  0.5883 -0.0818
 2018SOL    HW117516   1.382   4.059   7.011  0.0097  1.4753 -0.6384
 2018SOL    HW217517   1.467   4.089   6.893 -0.8804  0.8070 -0.1962
 2019SOL     OW17518   3.598   4.629   3.255  0.3819 -0.4326 -0.4436
 2019SOL    HW117519   3.663   4.689   3.220 -0.8278  1.2047  0.1523
 2019SOL    HW217520   3.567   4.678   3.331  1.4970 -1.1796  0.5013
 2020SOL     OW17521   3.002   2.947   2.822 -0.3375  0.1709  0.4855
 2020SOL    HW117522   2.973   2.986   2.740 -2.2804  1.3795  1.7559
 2020SOL    HW217523   3.069   3.010   2.850  1.1022 -1.1693  0.0768
 2021SOL     OW17524   0.937   0.348   7.294  0.3971  0.0857  1.0224
 2021SOL    HW117525   0.999   0.380   7.228 -1.7800 -1.2587 -1.6751
 2021SOL    HW217526   0.922   0.268   7.244  1.7200 -0.0768  0.8939
 2022SOL     OW17527   0.941   2.849   7.644  0.2625 -0.1755 -0.0669
 2022SOL    HW117528   1.032   2.832   7.620  0.1562 -1.1116  0.2017
 2022SOL    HW217529   0.900   2.780   7.592 -1.2256  0.8306 -0.2284
 2023SOL     OW17530   1.359   4.067   1.657 -0.5744  0.1701 -0.5545
 2023SOL    HW117531   1.335   3.979   1.688 -0.1776  0.7141  1.2796
 2023SOL    HW217532   1.433   4.091   1.713 -0.5921 -0.1301 -0.4004
 2024SOL     OW17533   1.364   2.258   0.861  0.3930 -0.4097  0.0332
 2024SOL    HW117534   1.400   2.186   0.809  1.6111  0.7257 -0.7119
 2024SOL    HW217535   1.365   2.235   0.954 -3.1868  0.8429  0.3593
 2025SOL     OW17536   0.905   2.221   5.062 -0.7876  0.0558 -0.5683
 2025SOL    HW117537   0.874   2.306   5.030  0.5139  1.9237  3.1845
 2025SOL    HW217538   0.890   2.170   4.982 -2.3076 -1.0264  0.4206
 2026SOL     OW17539   2.457   2.350   5.771  0.4380 -0.9545 -0.0426
 2026SOL    HW117540   2.403   2.306   5.837 -1.0008 -2.6623 -2.3398
 2026SOL    HW217541   2.546   2.331   5.803  0.2679  0.5736  1.3245
 2027SOL     OW17542   4.519   4.645   5.587 -0.0715 -0.5758  0.2436
 2027SOL    HW117543   4.481   0.009   5.593 -2.4093 -1.5976  0.4361
 2027SOL    HW217544   4.482   4.616   5.504 -1.5638  1.1827  0.2916
 2028SOL     OW17545   4.392   0.861   8.140  0.0905 -0.0172  0.2034
 2028SOL    HW117546   4.321   0.818   8.092  3.2772 -1.8674 -2.8102
 2028SOL    HW217547   4.380   0.950   8.107 -2.3517 -0.8533 -1.1323
 2029SOL     OW17548   2.120   0.505   4.877 -0.3729 -0.5938 -0.5145
 2029SOL    HW117549   2.138   0.454   4.956 -2.4337 -0.0302  0.3129
 2029SOL    HW217550   2.158   0.453   4.805 -3.0196  0.3218 -2.5653
 2030SOL     OW17551   4.093   2.031   6.210  0.4547  0.8579 -0.3998
 2030SOL    HW117552   4.035   1.955   6.217  1.1153  0.4028  0.0251
 2030SOL    HW217553   4.132   2.015   6.295  1.6986  0.6223 -1.0147
 2031SOL     OW17554   1.618   0.953   8.640 -0.2941  0.8410  0.6570
 2031SOL    HW117555   1.679   1.003   8.694  1.2005 -1.8493  1.4194
 2031SOL    HW217556   1.530   0.986   8.661 -1.1492 -1.5130  0.7434
 2032SOL     OW17557   4.090   1.683  16.166  0.5828 -0.2002  0.0798
 2032SOL    HW117558   4.063   1.608  16.113 -0.5129  0.2004  0.0805
 2032SOL    HW217559   4.009   1.715  16.204  0.2915 -1.3191  0.3744
 2033SOL     OW17560   4.698   4.443   9.795 -0.2993  0.2351 -0.2210
 2033SOL    HW117561   4.722   4.467   9.705  1.2273 -1.5552 -0.2919
 2033SOL    HW217562   0.030   4.497   9.851  1.2988 -0.1395 -1.4440
 2034SOL     OW17563   1.319   0.541   0.762 -0.3989  0.7416 -0.6885
 2034SOL    HW117564   1.246   0.595   0.731 -0.4583  0.1701 -1.5342
 2034SOL    HW217565   1.385   0.609   0.748  0.7349 -0.4267 -0.8828
 2035SOL     OW17566   3.508   4.176  17.063  0.4259  0.4312  0.2350
 2035SOL    HW117567   3.490   4.091  17.022  1.4998  0.2524  0.1410
 2035SOL    HW217568   3.442   4.232  17.023 -0.8278  0.0093  1.7001
 2036SOL     OW17569   4.168   3.952   1.043 -0.3619 -0.0239 -0.9551
 2036SOL    HW117570   4.109   3.969   1.116 -0.1115  0.3778 -0.8456
 2036SOL    HW217571   4.142   4.020   0.980 -0.8471 -1.5319 -2.4021
 2037SOL     OW17572   0.855   3.421   8.163 -0.5348 -0.0367  0.5160
 2037SOL    HW117573   0.906   3.345   8.135  0.3870  0.1318  1.7823
 2037SOL    HW217574   0.885   3.431   8.253  1.2881 -0.5633 -0.0279
 2038SOL     OW17575   3.078   3.193   6.336 -0.3998 -0.4406 -0.2859
 2038SOL    HW117576   3.169   3.223   6.344 -0.3546 -0.1483 -1.8876
 2038SOL    HW217577   3.073   3.213   6.243 -3.6460  1.0833  0.2101
 2039SOL     OW17578   0.436   4.154  14.027  0.2188  0.6306 -0.3423
 2039SOL    HW117579   0.367   4.089  14.021  0.6514  0.1520 -0.1500
 2039SOL    HW217580   0.437   4.166  14.122 -1.8337 -0.1064 -0.2386
 2040SOL     OW17581   4.006   2.993  13.026 -0.0070 -0.0850 -0.0990
 2040SOL    HW117582   3.959   2.912  13.045  2.3657 -1.2187  0.8575
 2040SOL    HW217583   3.939   3.045  12.980  0.7868  1.0105 -0.0304
 2041SOL     OW17584   2.381   0.415   7.854 -0.3707  0.8776  0.2976
 2041SOL    HW117585   2.291   0.443   7.870  0.0205  2.7065 -0.6552
 2041SOL    HW217586   2.371   0.352   7.782  2.3411  0.2199  0.5265
 2042SOL     OW17587   3.610   4.718   8.572 -0.2123 -0.2781  0.3572
 2042SOL    HW117588   3.561   4.644   8.606 -1.7496 -0.2277 -1.7275
 2042SOL    HW217589   3.655   4.666   8.504 -1.9660  0.2084 -1.1696
 2043SOL     OW17590   4.530   4.044  13.257 -0.2530  0.2753  0.5519
 2043SOL    HW117591   4.579   4.087  13.326  0.8001  0.7164 -0.4729
 2043SOL    HW217592   4.592   4.036  13.184 -1.9356  0.6488 -0.9332
 2044SOL     OW17593   3.581   1.507   6.470  0.0012  0.1926 -0.2144
 2044SOL    HW117594   3.551   1.486   6.381  0.6819  0.5365 -0.5237
 2044SOL    HW217595   3.673   1.482   6.465 -0.0436 -0.2607  1.3355
 2045SOL     OW17596   3.414   3.842   7.119  0.3142  0.0902 -0.0437
 2045SOL    HW117597   3.340   3.826   7.177  0.7616 -0.3158  0.4222
 2045SOL    HW217598   3.369   3.813   7.039 -0.2214 -1.1009  0.6912
 2046SOL     OW17599   2.583   3.442   0.385  0.2503  0.4190 -0.3038
 2046SOL    HW117600   2.633   3.360   0.385 -2.4021 -1.2031 -1.8666
 2046SOL    HW217601   2.625   3.491   0.315 -0.2412  0.2931 -0.6902
 2047SOL     OW17602   1.783   0.156   3.133 -0.2757  0.2433 -0.4596
 2047SOL    HW117603   1.738   0.233   3.098 -0.3385  0.7767  0.8086
 2047SOL    HW217604   1.707   0.101   3.153 -0.4495  0.3668 -0.7788
 2048SOL     OW17605   4.185   4.035   5.580 -0.1123 -0.0216 -0.0665
 2048SOL    HW117606   4.139   4.087   5.514 -1.0929  0.0834  0.7079
 2048SOL    HW217607   4.244   3.985   5.524  0.3643  1.6009 -1.0038
 2049SOL     OW17608   1.128   1.638   5.446 -0.2358  0.0350  0.2230
 2049SOL    HW117609   1.214   1.627   5.405 -0.5602  1.5085 -0.8465
 2049SOL    HW217610   1.129   1.730   5.472  0.1349 -0.1900  1.0088
 2050SOL     OW17611   0.235   4.601   3.433  0.6637  0.6769 -0.4858
 2050SOL    HW117612   0.312   4.584   3.486 -0.1528  0.6430  0.6844
 2050SOL    HW217613   0.177   4.528   3.454  0.3862  1.2920  0.8946
 2051SOL     OW17614   2.285   3.150   2.613 -0.7604  1.1115 -0.7533
 2051SOL    HW117615   2.368   3.134   2.568  0.4101 -0.2714  1.8757
 2051SOL    HW217616   2.235   3.207   2.555  0.3017  1.8324 -0.9482
 2052SOL     OW17617   2.215   1.326   2.661 -0.6912 -0.5378 -0.4164
 2052SOL    HW117618   2.212   1.249   2.604 -0.2784 -0.4125 -0.6022
 2052SOL    HW217619   2.261   1.381   2.598  2.4462 -1.9223  0.6617
 2053SOL     OW17620   4.546   1.149   6.261 -0.4270 -0.4013  1.0118
 2053SOL    HW117621   4.500   1.196   6.191 -0.0617 -0.3336  0.8203
 2053SOL    HW217622   4.557   1.228   6.313 -0.3073 -0.4584  1.0730
 2054SOL     OW17623   1.359   0.626  15.005  0.1930  0.1534 -0.2986
 2054SOL    HW117624   1.282   0.616  14.950 -1.3207  0.9869  1.6602
 2054SOL    HW217625   1.411   0.700  14.971  0.7772  0.1128  0.4894
 2055SOL     OW17626   1.725   1.809  11.110  0.5085 -0.2229 -0.4279
 2055SOL    HW117627   1.812   1.849  11.113 -0.5172  1.8433  1.6668
 2055SOL    HW217628   1.712   1.812  11.016  0.3617 -0.4339 -0.4128
 2056SOL     OW17629   1.417   2.521   1.599  0.0032 -0.1934  0.9137
 2056SOL    HW117630   1.329   2.488   1.612 -1.1634  3.5270  2.2795
 2056SOL    HW217631   1.410   2.613   1.625  2.0426  0.1700  0.2504
 2057SOL     OW17632   4.573   0.406   6.451 -0.1280  0.8157 -0.3384
 2057SOL    HW117633   4.552   0.380   6.541 -0.4835  1.6782 -0.1733
 2057SOL    HW217634   4.502   0.360   6.407 -0.5343 -1.2958  2.5367
 2058SOL     OW17635   3.896   2.178   8.697 -0.2870 -0.3109  0.1359
 2058SOL    HW117636   3.842   2.213   8.626 -0.1812  1.0485  0.7260
 2058SOL    HW217637   3.866   2.233   8.769  0.6629 -0.4644  0.6516
 2059SOL     OW17638   0.794   1.541   8.246  0.1382 -0.1760  0.6441
 2059SOL    HW117639   0.758   1.537   8.158 -1.0553 -0.0804  1.1318
 2059SOL    HW217640   0.766   1.459   8.286 -0.1802 -0.5687 -0.3939
 2060SOL     OW17641   3.396   4.312  13.798  0.1350 -0.3311  0.5285
 2060SOL    HW117642   3.402   4.385  13.737 -2.4054 -0.9437 -0.4721
 2060SOL    HW217643   3.487   4.283  13.787  0.0594 -0.2632 -0.2319
 2061SOL     OW17644   2.154   1.257   3.380 -0.8094 -0.4344  0.4438
 2061SOL    HW117645   2.248   1.276   3.376 -1.0159  0.3371 -1.0176
 2061SOL    HW217646   2.153   1.185   3.442  0.4721 -0.1584  0.8016
 2062SOL     OW17647   0.072   1.026   3.111 -0.4344 -0.5494  0.1636
 2062SOL    HW117648   0.131   0.957   3.081 -2.3392 -1.3584 -1.7155
 2062SOL    HW217649   0.009   1.032   3.039  0.3770 -1.4271 -0.6136
 2063SOL     OW17650   3.900   2.085   5.665 -0.1286  0.1634  0.4336
 2063SOL    HW117651   3.874   1.999   5.696 -0.7018  0.2024  0.0669
 2063SOL    HW217652   3.995   2.086   5.676  0.0245 -0.3300 -0.7766
 2064SOL     OW17653   3.336   2.672   6.503 -0.4136  0.6088 -0.7817
 2064SOL    HW117654   3.243   2.676   6.524  0.2402  0.5986  2.1453
 2064SOL    HW217655   3.386   2.662   6.584  1.1216 -1.9868 -2.0594
 2065SOL     OW17656   4.022   3.787  11.972 -0.2961 -0.5477 -0.2408
 2065SOL    HW117657   4.085   3.837  12.025  0.4215 -2.3419  0.5894
 2065SOL    HW217658   3.983   3.729  12.037 -0.0554  0.1312  0.5212
 2066SOL     OW17659   0.460   0.069   1.472  0.5661 -0.4290  0.1547
 2066SOL    HW117660   0.376   0.030   1.450 -2.0353  3.4403  3.2106
 2066SOL    HW217661   0.424   0.157   1.469  0.9759 -0.2323  1.1682
 2067SOL     OW17662   4.293   0.343   0.789  0.3724 -0.3098 -0.0793
 2067SOL    HW117663   4.213   0.345   0.738  1.1889  2.1478 -1.2592
 2067SOL    HW217664   4.355   0.295   0.733 -0.3957 -0.1881 -1.0340
 2068SOL     OW17665   4.390   3.562   5.374  0.3998  0.9796 -0.0376
 2068SOL    HW117666   4.305   3.550   5.416  0.6520 -3.1953 -0.7254
 2068SOL    HW217667   4.371   3.623   5.303 -0.7653 -0.7772 -1.2538
 2069SOL     OW17668   0.347   0.601  10.642 -0.0358 -0.0939 -0.0696
 2069SOL    HW117669   0.267   0.597  10.589  0.4426 -1.5100 -0.6738
 2069SOL    HW217670   0.419   0.576  10.585 -1.6174 -1.8439 -1.2774
 2070SOL     OW17671   3.911   1.500  10.112 -0.5076 -0.5283  0.3150
 2070SOL    HW117672   3.947   1.457  10.035 -1.0592 -2.1715  0.9762
 2070SOL    HW217673   3.992   1.525  10.156 -1.0342  0.0474  0.9705
 2071SOL     OW17674   1.482   3.309   2.710  0.2218  0.6115 -0.3382
 2071SOL    HW117675   1.531   3.239   2.668 -1.4833 -1.9792  2.0161
 2071SOL    HW217676   1.441   3.269   2.786  1.3278 -0.9534 -0.5743
 2072SOL     OW17677   1.172   3.393   6.089  0.0078 -0.1264 -0.5400
 2072SOL    HW117678   1.147   3.337   6.015 -1.6725  1.1202 -0.8933
 2072SOL    HW217679   1.084   3.429   6.097  0.5107  0.8243  0.5335
 2073SOL     OW17680   2.682   0.602   4.482 -0.3812  0.3899 -0.0979
 2073SOL    HW117681   2.777   0.606   4.491 -0.3675 -0.8341  0.3537
 2073SOL    HW217682   2.658   0.680   4.532 -2.8070 -0.5700  0.2137
 2074SOL     OW17683   0.886   3.947   2.546 -0.8062  1.0038 -0.1369
 2074SOL    HW117684   0.805   3.985   2.510  0.5090  2.5407 -1.4411
 2074SOL    HW217685   0.849   3.945   2.634  0.0023  1.5840  0.2069
 2075SOL     OW17686   1.697   4.355  12.458  0.4352  0.7545  0.2805
 2075SOL    HW117687   1.751   4.376  12.382 -0.4533 -1.1477 -0.8618
 2075SOL    HW217688   1.618   4.321  12.417 -0.0004 -0.7819  2.4263
 2076SOL     OW17689   4.527   4.467  10.928  0.8035 -0.7404 -0.0550
 2076SOL    HW117690   4.489   4.381  10.908 -1.9138  0.1479  1.2488
 2076SOL    HW217691   4.468   4.500  10.996  1.4548  1.4353 -0.5454
 2077SOL     OW17692   3.047   0.273  14.824 -0.2649 -0.8359  0.3112
 2077SOL    HW117693   3.009   0.229  14.900  0.4748 -0.1233  1.0984
 2077SOL    HW217694   3.030   0.210  14.755 -1.3825  0.4346 -0.5673
 2078SOL     OW17695   0.450   1.076   9.505  0.1289 -0.4254 -0.4503
 2078SOL    HW117696   0.538   1.114   9.500 -0.5650  1.1656 -0.4855
 2078SOL    HW217697   0.456   1.041   9.416  0.7252  1.2084 -1.0434
 2079SOL     OW17698   0.387   3.874   8.845  0.2232 -0.0903  0.5233
 2079SOL    HW117699   0.324   3.804   8.831 -0.0576  0.5292 -1.2819
 2079SOL    HW217700   0.332   3.950   8.826  1.8385  1.5041  2.1879
 2080SOL     OW17701   4.212   0.911   3.081  0.0108 -0.2010  0.5418
 2080SOL    HW117702   4.189   0.835   3.028  0.0176 -0.4806  0.9415
 2080SOL    HW217703   4.308   0.909   3.079 -0.0321 -1.2705 -0.3122
 2081SOL     OW17704   1.498   1.922   3.559 -0.0053  0.1809 -0.1077
 2081SOL    HW117705   1.415   1.924   3.510 -1.3097  0.2305  2.1012
 2081SOL    HW217706   1.533   2.007   3.534  2.2757 -0.7426  0.0064
 2082SOL     OW17707   2.530   0.519   8.792 -0.0937 -0.1936 -0.5845
 2082SOL    HW117708   2.484   0.598   8.764  1.6355  1.4530  1.2153
 2082SOL    HW217709   2.621   0.548   8.784 -0.8299  2.7519  1.4683
 2083SOL     OW17710   1.656   4.567  12.658 -0.4701  0.2305 -0.0518
 2083SOL    HW117711   1.681   4.657  12.638  0.3368  0.6377  2.7757
 2083SOL    HW217712   1.689   4.526  12.578 -2.4342  1.4271 -1.4759
 2084SOL     OW17713   1.744   0.832   6.417  0.0908  0.2406 -0.0037
 2084SOL    HW117714   1.700   0.905   6.459  1.0344  0.7137  0.1567
 2084SOL    HW217715   1.685   0.806   6.346 -0.1569 -3.4882  1.5504
 2085SOL     OW17716   2.945   3.623   5.933  0.1073 -0.2370 -0.4759
 2085SOL    HW117717   3.008   3.597   5.867 -0.7637 -3.6714  0.0741
 2085SOL    HW217718   2.983   3.708   5.954 -0.1319 -0.2016 -0.1779
 2086SOL     OW17719   1.775   3.602  11.715  0.4939 -0.3434 -0.1365
 2086SOL    HW117720   1.682   3.581  11.726  0.5520 -0.4962  0.0841
 2086SOL    HW217721   1.784   3.634  11.626 -2.8333 -1.5622 -0.8908
 2087SOL     OW17722   1.387   1.702   7.279  0.6263 -0.4408  0.1889
 2087SOL    HW117723   1.360   1.611   7.296 -0.6031 -0.2961 -1.0223
 2087SOL    HW217724   1.482   1.698   7.269  0.5683 -3.0071  0.5998
 2088SOL     OW17725   4.455   3.399  13.357  0.1483 -0.0828  0.0498
 2088SOL    HW117726   4.426   3.385  13.267  1.6199  4.9841 -1.1853
 2088SOL    HW217727   4.372   3.408  13.403  0.6264 -0.4372  0.9873
 2089SOL     OW17728   3.297   0.768   5.002  0.0421 -0.0973 -0.4238
 2089SOL    HW117729   3.356   0.700   5.034  0.8189  0.1243 -1.4194
 2089SOL    HW217730   3.285   0.743   4.911  1.9341 -0.6956 -0.5062
 2090SOL     OW17731   2.113   0.089   8.415 -0.1436  0.2374 -0.1987
 2090SOL    HW117732   2.088   0.175   8.384  0.1037  1.5892  3.3487
 2090SOL    HW217733   2.052   0.028   8.373  0.6352 -0.9570  0.4004
 2091SOL     OW17734   4.602   1.873   5.782  0.3045 -0.2206  0.0211
 2091SOL    HW117735   4.572   1.812   5.714 -2.8741  1.3502  0.0472
 2091SOL    HW217736   4.698   1.877   5.777  0.1536 -0.1009 -2.9702
 2092SOL     OW17737   2.005   1.380   7.886 -0.5356  0.1755 -0.5885
 2092SOL    HW117738   1.997   1.391   7.791 -0.2375  0.5152 -0.5777
 2092SOL    HW217739   2.092   1.347   7.908 -0.2652 -0.2767 -2.3628
 2093SOL     OW17740   4.254   0.721   5.721  0.1849  0.3244  0.3887
 2093SOL    HW117741   4.183   0.725   5.657  0.5318  1.3820  0.0676
 2093SOL    HW217742   4.327   0.739   5.661 -0.6543  0.0296 -0.7229
 2094SOL     OW17743   0.663   3.606   0.348  0.1792 -0.1325  0.1592
 2094SOL    HW117744   0.570   3.595   0.368 -0.6073 -1.2982 -4.2854
 2094SOL    HW217745   0.671   3.690   0.394 -1.3049 -1.2099  2.4127
 2095SOL     OW17746   4.145   4.294  17.573  0.1080  0.2480 -0.3591
 2095SOL    HW117747   4.155   4.235  17.499 -1.6609  1.3723 -1.5003
 2095SOL    HW217748   4.235   4.311  17.600  0.2509 -0.9670 -0.0731
 2096SOL     OW17749   0.614   3.871   3.982 -0.7982 -0.2362  0.5277
 2096SOL    HW117750   0.597   3.909   4.068  0.0194 -0.0263  0.5961
 2096SOL    HW217751   0.707   3.853   3.996 -0.7365 -0.1113  0.2758
 2097SOL     OW17752   2.558   4.305   2.327  0.0292 -0.4220  0.1961
 2097SOL    HW117753   2.649   4.295   2.297  0.3259  0.2768  0.8650
 2097SOL    HW217754   2.519   4.338   2.246 -0.2822 -4.7398 -1.4576
 2098SOL     OW17755   0.555   1.418  10.896  0.2968  0.3003 -0.5774
 2098SOL    HW117756   0.608   1.473  10.838 -0.1365 -1.2480 -2.4643
 2098SOL    HW217757   0.477   1.397  10.843 -0.8908 -1.1918  1.7488
 2099SOL     OW17758   0.272   4.610   6.043  0.6372 -0.5048  0.3424
 2099SOL    HW117759   0.312   4.646   5.964  3.1150  2.0793  2.7590
 2099SOL    HW217760   0.256   4.521   6.011  0.7509 -0.4399  0.1041
 2100SOL     OW17761   2.091   0.162   0.767  0.1793  0.0499 -0.2875
 2100SOL    HW117762   2.113   0.254   0.775  1.3131 -0.1526 -1.0713
 2100SOL    HW217763   2.046   0.161   0.683 -0.6613 -0.1483  0.1706
 2101SOL     OW17764   3.490   2.531   8.079  0.1897  0.0805 -0.4874
 2101SOL    HW117765   3.418   2.562   8.134  0.6088  0.2340 -0.0255
 2101SOL    HW217766   3.497   2.601   8.014  1.6742  1.0873  0.7599
 2102SOL     OW17767   0.037   2.837   9.439 -0.1908  0.3475  0.9339
 2102SOL    HW117768   0.047   2.864   9.531  0.6963 -0.9761  1.2299
 2102SOL    HW217769   4.670   2.808   9.444 -0.6316  0.9515 -4.0284
 2103SOL     OW17770   0.381   1.106   3.458 -0.1815 -0.4554  0.3387
 2103SOL    HW117771   0.312   1.115   3.392 -0.2382 -0.3201  0.4178
 2103SOL    HW217772   0.342   1.100   3.545 -0.0281 -2.4566  0.2869
 2104SOL     OW17773   2.474   0.156   2.105  0.1245  0.0671  0.0551
 2104SOL    HW117774   2.405   0.117   2.052  2.7054 -2.0319 -1.7543
 2104SOL    HW217775   2.487   0.085   2.168 -1.7617  0.8596  1.3525
 2105SOL     OW17776   4.010   0.856  14.875  0.5933 -0.0421  0.0043
 2105SOL    HW117777   4.008   0.950  14.858  2.3504  0.1408  0.8799
 2105SOL    HW217778   3.927   0.830  14.835  0.6952 -0.4826  0.0740
 2106SOL     OW17779   1.447   3.600   7.010 -0.2688  0.0815  0.1119
 2106SOL    HW117780   1.539   3.581   6.989 -0.4725  1.5194 -2.0311
 2106SOL    HW217781   1.433   3.567   7.099  1.0632 -0.8084 -0.0035
 2107SOL     OW17782   3.896   3.465   7.794  0.6795 -0.5791  0.1529
 2107SOL    HW117783   3.859   3.436   7.711  2.0122 -1.2624 -0.1960
 2107SOL    HW217784   3.813   3.476   7.842  1.4476  1.3744  1.0396
 2108SOL     OW17785   0.396   0.797  16.922  0.5067 -0.2109  0.2550
 2108SOL    HW117786   0.426   0.857  16.853  1.2420 -1.3176 -0.3946
 2108SOL    HW217787   0.378   0.854  16.996 -0.3692 -0.2485  0.0668
 2109SOL     OW17788   3.729   4.435  11.639  0.2145 -0.1084 -0.1397
 2109SOL    HW117789   3.765   4.474  11.718  5.3145 -2.7266 -1.1911
 2109SOL    HW217790   3.725   4.512  11.581 -0.3009 -1.9734 -2.5941
 2110SOL     OW17791   1.307   1.030   5.423 -0.0736 -0.4556  0.4996
 2110SOL    HW117792   1.220   1.065   5.441 -0.5821 -1.3651 -0.1777
 2110SOL    HW217793   1.300   0.945   5.467 -2.3746 -0.8516 -0.6760
 2111SOL     OW17794   1.608   2.016   5.834  0.0091 -0.1661  0.0269
 2111SOL    HW117795   1.554   1.939   5.851  0.1381 -0.2106  0.2247
 2111SOL    HW217796   1.555   2.092   5.859  0.6269  0.7508 -1.4297
 2112SOL     OW17797   4.681   4.311   8.313  1.1609 -0.0987 -0.2455
 2112SOL    HW117798   0.019   4.238   8.310 -0.1525 -1.1575 -0.9784
 2112SOL    HW217799   4.669   4.315   8.408  1.5528  0.5835 -0.2187
 2113SOL     OW17800   1.026   3.523   5.231 -0.2799  0.1601  0.2395
 2113SOL    HW117801   1.066   3.500   5.315  1.1709 -0.4450 -0.6198
 2113SOL    HW217802   0.968   3.593   5.260 -0.1995 -0.3927  1.7137
 2114SOL     OW17803   1.076   3.101   3.384  0.5770 -0.0594  0.1221
 2114SOL    HW117804   1.076   3.181   3.437  0.6422 -0.0317  0.0807
 2114SOL    HW217805   1.124   3.032   3.431  0.9923 -0.5139 -0.9679
 2115SOL     OW17806   3.662   1.258  10.558 -0.2229 -0.4503  0.1038
 2115SOL    HW117807   3.643   1.303  10.640  1.1048 -0.1594  0.2525
 2115SOL    HW217808   3.713   1.325  10.512 -0.7281  0.5866  1.0550
 2116SOL     OW17809   1.898   2.862   8.145 -0.9489  0.2319  0.0319
 2116SOL    HW117810   1.876   2.928   8.079 -0.0512  2.1400  1.6673
 2116SOL    HW217811   1.860   2.906   8.221 -1.8407  3.1108 -2.0968
 2117SOL     OW17812   1.539   3.326  13.055 -0.0078 -0.1144  0.1241
 2117SOL    HW117813   1.505   3.415  13.066  2.2137  0.6899  0.5031
 2117SOL    HW217814   1.509   3.310  12.966  2.7238 -1.3717 -0.5556
 2118SOL     OW17815   4.015   2.362   3.085 -0.2216 -0.5519  0.1680
 2118SOL    HW117816   3.956   2.408   3.025 -0.4749  1.1860  1.7764
 2118SOL    HW217817   4.077   2.341   3.015 -0.8589 -1.6020 -0.0894
 2119SOL     OW17818   1.450   2.524   4.107 -0.2101 -0.1400  0.0013
 2119SOL    HW117819   1.392   2.590   4.069 -0.8917 -0.6489  0.1620
 2119SOL    HW217820   1.409   2.521   4.194 -0.5048 -0.6771 -0.1553
 2120SOL     OW17821   1.267   3.036   2.726  0.0965 -0.3103 -0.3597
 2120SOL    HW117822   1.322   2.960   2.741 -0.3321 -0.5026  0.2533
 2120SOL    HW217823   1.310   3.098   2.785 -1.4288  0.9312 -0.5604
 2121SOL     OW17824   0.076   1.868   0.053  0.5418 -0.3076  0.1432
 2121SOL    HW117825   4.707   1.884   0.075  1.0898  2.2131  0.5597
 2121SOL    HW217826   0.075   1.773   0.037  0.0307  0.0638 -2.1073
 2122SOL     OW17827   4.483   2.426   6.073 -1.3160 -0.1206 -0.6076
 2122SOL    HW117828   4.520   2.391   5.992  3.8752 -0.7051  2.0355
 2122SOL    HW217829   4.523   2.355   6.123 -0.6420 -0.8156 -2.1212
 2123SOL     OW17830   0.524   2.785   4.957 -0.1870 -0.0153 -0.1068
 2123SOL    HW117831   0.552   2.751   5.042 -0.1310 -0.9915 -0.5147
 2123SOL    HW217832   0.519   2.708   4.900 -2.4788  0.9692 -1.2403
 2124SOL     OW17833   4.691   1.837   2.685  0.4647  0.4299 -0.3774
 2124SOL    HW117834   0.031   1.899   2.649  0.7523  1.4484  1.9003
 2124SOL    HW217835   4.614   1.892   2.698 -0.8061 -1.0483 -1.5993
 2125SOL     OW17836   4.576   0.976   0.442  0.2777  0.2823 -0.1102
 2125SOL    HW117837   4.641   1.031   0.486 -0.4421  0.0100  1.3008
 2125SOL    HW217838   4.588   0.892   0.487  1.7209 -1.2220 -3.2912
 2126SOL     OW17839   3.389   2.691  15.560  0.2118  0.0378 -0.4433
 2126SOL    HW117840   3.337   2.661  15.634 -2.4562  2.1581 -1.4447
 2126SOL    HW217841   3.331   2.664  15.488  1.9379  2.0529 -2.6184
 2127SOL     OW17842   4.392   3.365   6.563 -0.2333  0.2602 -0.1102
 2127SOL    HW117843   4.422   3.285   6.606 -0.7101 -1.0789 -2.3189
 2127SOL    HW217844   4.408   3.351   6.470  0.0079 -0.4196  0.0307
 2128SOL     OW17845   4.213   0.933   6.495  0.5607 -0.1486  0.2855
 2128SOL    HW117846   4.270   0.907   6.422  1.6346  0.6335  0.8371
 2128SOL    HW217847   4.127   0.911   6.461 -0.2492  2.1941  0.8050
 2129SOL     OW17848   4.211   1.129   2.906 -0.0785  0.0260 -0.4112
 2129SOL    HW117849   4.291   1.123   2.853  1.4682  1.1185  1.8084
 2129SOL    HW217850   4.210   1.048   2.957  2.5565 -0.0748 -0.5209
 2130SOL     OW17851   3.951   4.433   3.396 -0.1217  0.1509 -0.3139
 2130SOL    HW117852   3.960   4.471   3.308 -0.3145  1.6626  0.3144
 2130SOL    HW217853   4.037   4.405   3.427 -0.1914 -1.0246 -1.1751
 2131SOL     OW17854   2.618   3.407   4.124  0.1607 -0.4520 -0.3912
 2131SOL    HW117855   2.661   3.437   4.044  3.1702  0.6392  1.6499
 2131SOL    HW217856   2.527   3.433   4.112  0.6388  1.2681 -0.3056
 2132SOL     OW17857   0.047   3.307  14.231 -0.1846  0.7660 -0.6668
 2132SOL    HW117858   0.109   3.290  14.161  1.0469  0.4248  0.4940
 2132SOL    HW217859   0.025   3.398  14.211 -2.1989  0.8121  1.6414
 2133SOL     OW17860   3.956   0.522  17.346 -0.2183 -0.6337 -0.0173
 2133SOL    HW117861   4.027   0.463  17.320 -0.7028 -1.2507  0.0709
 2133SOL    HW217862   3.910   0.547  17.266  0.7814 -0.0011 -0.3903
 2134SOL     OW17863   1.672   2.039   8.197 -0.0143 -0.5942 -0.4684
 2134SOL    HW117864   1.601   2.087   8.239 -2.0740 -2.2325 -2.1132
 2134SOL    HW217865   1.631   1.953   8.210 -0.5381  0.1089  2.6543
 2135SOL     OW17866   1.129   4.295  10.927 -0.0169 -0.4806  0.5184
 2135SOL    HW117867   1.172   4.273  10.844  0.8881  1.3598  0.4872
 2135SOL    HW217868   1.068   4.222  10.926 -1.1146  0.4481  0.0109
 2136SOL     OW17869   1.984   1.742  17.180 -0.1354  0.0730  0.2065
 2136SOL    HW117870   2.079   1.746  17.182 -0.0859 -1.5896  1.6843
 2136SOL    HW217871   1.974   1.662  17.232  0.4278 -0.9671 -1.2831
 2137SOL     OW17872   1.855   2.639   9.284 -0.2242  0.2505 -0.0646
 2137SOL    HW117873   1.853   2.702   9.213 -2.9740 -0.4261 -0.5880
 2137SOL    HW217874   1.779   2.675   9.329  0.1125  1.1616 -0.2439
 2138SOL     OW17875   4.016   1.014   0.172  0.7381 -0.4258 -0.2914
 2138SOL    HW117876   3.992   0.935   0.125 -1.1050 -0.5853  0.9445
 2138SOL    HW217877   3.980   1.088   0.124 -1.9083 -1.3022  0.3276
 2139SOL     OW17878   3.668   4.584   8.354  0.3646  0.4128  0.1124
 2139SOL    HW117879   3.715   4.621   8.280 -0.4262  0.1501 -0.5199
 2139SOL    HW217880   3.602   4.521   8.324  0.7194  0.5949 -1.0547
 2140SOL     OW17881   3.628   3.922  10.620 -0.0828 -0.0319  0.3029
 2140SOL    HW117882   3.689   3.854  10.594 -1.5707 -1.2786  0.0569
 2140SOL    HW217883   3.649   3.936  10.712  0.9687 -2.1675  0.3697
 2141SOL     OW17884   1.229   2.731   9.168  0.7518  0.5413 -0.8253
 2141SOL    HW117885   1.308   2.683   9.194 -0.7569 -1.7342 -0.4421
 2141SOL    HW217886   1.172   2.719   9.244  2.1831 -0.7291  0.0536
 2142SOL     OW17887   3.064   0.777   5.147 -0.6335  0.2779  0.3926
 2142SOL    HW117888   3.060   0.867   5.114  1.1735 -0.9227 -3.0883
 2142SOL    HW217889   3.144   0.747   5.105 -1.4952 -2.5124  0.7860
 2143SOL     OW17890   0.466   3.553   8.949  0.9863  0.8078 -0.6189
 2143SOL    HW117891   0.399   3.578   8.886 -0.8915  2.0967  1.9055
 2143SOL    HW217892   0.476   3.633   8.999  1.9476  1.1337 -1.3312
 2144SOL     OW17893   4.033   1.430   1.775 -0.1936  0.0894  0.1989
 2144SOL    HW117894   4.077   1.346   1.761  0.5637  0.6875 -1.1199
 2144SOL    HW217895   3.946   1.402   1.748  0.3939 -1.1659 -0.3869
 2145SOL     OW17896   1.091   3.106   6.998 -0.0219 -0.0240  0.5413
 2145SOL    HW117897   1.096   3.199   6.976  1.2225 -0.6590 -1.8173
 2145SOL    HW217898   1.021   3.111   7.063 -1.8225 -1.9525 -1.2713
 2146SOL     OW17899   1.704   0.748   3.405 -0.0011  0.1719 -0.3622
 2146SOL    HW117900   1.652   0.772   3.482  0.8329 -3.8194  1.4600
 2146SOL    HW217901   1.659   0.672   3.367 -1.9484  1.0970  0.0746
 2147SOL     OW17902   0.492   2.862  13.392 -0.0146  0.3351  0.6483
 2147SOL    HW117903   0.457   2.816  13.315 -0.3199  0.3252  0.7937
 2147SOL    HW217904   0.428   2.933  13.398 -1.0755 -0.4402 -1.5540
 2148SOL     OW17905   3.564   3.455  15.553  0.1294  1.2648 -0.5795
 2148SOL    HW117906   3.651   3.421  15.532  0.0235 -0.5986  1.9954
 2148SOL    HW217907   3.506   3.395  15.506  0.2065  0.0426  0.9024
 2149SOL     OW17908   0.167   3.376   1.634  0.3292  0.3039 -0.1279
 2149SOL    HW117909   0.256   3.341   1.627 -0.5642 -1.6796 -1.6891
 2149SOL    HW217910   0.137   3.353   1.546 -2.4071  1.4689  0.4887
 2150SOL     OW17911   2.603   1.069   4.735  0.1474  0.0044  0.0901
 2150SOL    HW117912   2.527   1.091   4.681 -0.1937 -2.3401 -0.3796
 2150SOL    HW217913   2.656   1.146   4.711  3.3604 -1.8990  1.0483
 2151SOL     OW17914   4.353   1.424   0.550  0.0301  0.5513 -0.4498
 2151SOL    HW117915   4.403   1.500   0.580 -0.7377  0.8562  0.0502
 2151SOL    HW217916   4.329   1.443   0.459  0.8320  1.2071 -0.5345
 2152SOL     OW17917   2.978   2.842  15.619  0.2278 -0.6771 -0.2163
 2152SOL    HW117918   2.976   2.907  15.690 -0.4346 -1.9654  0.9372
 2152SOL    HW217919   2.892   2.801  15.622  0.1879 -0.6192 -0.6792
 2153SOL     OW17920   1.457   4.329   6.543  0.4618 -0.2205 -0.5473
 2153SOL    HW117921   1.500   4.245   6.556  0.0407 -0.4466 -0.6159
 2153SOL    HW217922   1.412   4.322   6.628  0.1393  4.2262 -0.3224
 2154SOL     OW17923   0.844   3.394   4.477  0.2688  0.4382  0.6041
 2154SOL    HW117924   0.845   3.325   4.411  1.5013  0.1545  0.9360
 2154SOL    HW217925   0.766   3.364   4.524 -1.2260  0.5868 -1.7383
 2155SOL     OW17926   3.181   4.423  11.827  0.2960  0.2322  0.4685
 2155SOL    HW117927   3.175   4.498  11.887  2.8718 -1.0073  2.2736
 2155SOL    HW217928   3.164   4.353  11.890 -1.2973 -1.0949 -1.4571
 2156SOL     OW17929   2.623   2.025   7.500 -0.5276  0.0686  0.0285
 2156SOL    HW117930   2.624   1.938   7.461 -0.4095 -0.4194  1.1355
 2156SOL    HW217931   2.664   1.992   7.580 -0.6131  0.7105  0.3337
 2157SOL     OW17932   3.432   3.895   8.307  0.4448  0.4745  0.0452
 2157SOL    HW117933   3.432   3.865   8.216 -3.1497 -0.3109  0.2967
 2157SOL    HW217934   3.362   3.960   8.310 -0.5975 -0.7609  2.0979
 2158SOL     OW17935   2.882   2.668  16.064 -0.2732 -0.3985 -0.0674
 2158SOL    HW117936   2.850   2.747  16.020 -0.4913  0.5425  1.8066
 2158SOL    HW217937   2.890   2.610  15.988  2.1795 -0.0485 -0.0988
 2159SOL     OW17938   2.703   2.299   5.887 -0.0280 -0.0695 -0.4455
 2159SOL    HW117939   2.744   2.302   5.973  1.1287 -0.4432 -0.9848
 2159SOL    HW217940   2.774   2.291   5.823  0.3701  0.4409 -0.0606
 2160SOL     OW17941   2.750   1.101   2.614  0.0138  0.8032 -0.4780
 2160SOL    HW117942   2.753   1.016   2.571 -0.6872  0.8001 -0.5108
 2160SOL    HW217943   2.671   1.098   2.667  0.6903  2.8467  0.6517
 2161SOL     OW17944   2.536   3.855   4.532 -0.3447  0.5919  0.4610
 2161SOL    HW117945   2.529   3.814   4.446  1.0471  1.8415 -0.2527
 2161SOL    HW217946   2.630   3.845   4.545 -0.1528  0.7928 -0.7263
 2162SOL     OW17947   1.619   0.847   2.634 -0.3932 -0.2782 -0.0489
 2162SOL    HW117948   1.664   0.787   2.574 -1.4730 -0.6561 -0.4828
 2162SOL    HW217949   1.654   0.814   2.717  1.2871 -2.5669 -1.6481
 2163SOL     OW17950   1.350   2.509   2.244 -0.3608  0.1498  0.1937
 2163SOL    HW117951   1.268   2.523   2.196 -1.0507  0.1282  1.3805
 2163SOL    HW217952   1.377   2.435   2.190 -0.2241 -0.5082  1.1697
 2164SOL     OW17953   1.006   1.713  10.564 -0.3156 -0.1669  0.3308
 2164SOL    HW117954   1.053   1.633  10.589  0.0348 -0.2767 -0.6860
 2164SOL    HW217955   0.949   1.677  10.497  0.0306 -2.6357  1.3346
 2165SOL     OW17956   1.805   1.433   4.150  0.5944 -0.4533  0.1195
 2165SOL    HW117957   1.856   1.499   4.198  0.0998  1.4959 -2.0256
 2165SOL    HW217958   1.791   1.363   4.213  2.1198 -0.9197 -0.0580
 2166SOL     OW17959   4.586   1.306   0.685  0.3127  0.3472  0.1252
 2166SOL    HW117960   4.526   1.344   0.620 -0.7225  0.7928  1.3404
 2166SOL    HW217961   4.536   1.232   0.720 -0.0580  1.4358  1.8859
 2167SOL     OW17962   2.724   2.711   5.263 -0.1364  0.0500  0.3627
 2167SOL    HW117963   2.812   2.748   5.253 -1.7419  3.9585  0.7499
 2167SOL    HW217964   2.716   2.671   5.177 -3.1804 -0.1093  0.7285
 2168SOL     OW17965   3.621   4.342   6.585 -0.0897  0.4437 -0.2577
 2168SOL    HW117966   3.549   4.387   6.541 -1.9702 -2.1946  0.0892
 2168SOL    HW217967   3.575   4.258   6.585  1.8556 -0.6189  0.6822
 2169SOL     OW17968   2.018   1.946   6.664 -0.0650 -0.6895 -0.3808
 2169SOL    HW117969   1.971   1.916   6.741 -0.2531 -1.5672 -0.8356
 2169SOL    HW217970   2.078   1.872   6.655  0.9296  0.0557  0.1253
 2170SOL     OW17971   1.022   4.132   6.921  0.1737 -0.1781 -0.7406
 2170SOL    HW117972   1.049   4.214   6.962 -0.7119  0.2460 -1.0248
 2170SOL    HW217973   1.049   4.149   6.831  0.1958  1.0006 -0.5069
 2171SOL     OW17974   0.317   2.346   0.023  0.2047  0.1219 -0.1082
 2171SOL    HW117975   0.342   2.317   0.111  1.2005 -0.7011 -0.6628
 2171SOL    HW217976   0.355   2.275  17.666  0.3696  1.2063 -1.4883
 2172SOL     OW17977   2.893   2.094  11.950 -0.3506 -0.4935  0.1890
 2172SOL    HW117978   2.973   2.128  11.990 -0.2348  1.2199 -1.5098
 2172SOL    HW217979   2.824   2.158  11.967 -0.4154 -0.5836  0.2687
 2173SOL     OW17980   1.619   2.888   3.307 -0.6692  0.0592 -0.2737
 2173SOL    HW117981   1.539   2.842   3.279 -0.5058 -0.3042 -0.1362
 2173SOL    HW217982   1.685   2.820   3.311 -0.5964  0.0744 -1.2320
 2174SOL     OW17983   1.087   2.253  12.831 -0.2235 -0.1862  0.0172
 2174SOL    HW117984   1.090   2.157  12.838  0.4118 -0.3255 -2.2284
 2174SOL    HW217985   1.105   2.272  12.923 -3.1826  1.5838  0.2469
 2175SOL     OW17986   0.718   2.684  10.101  0.1201  0.1080  0.2720
 2175SOL    HW117987   0.773   2.627  10.046 -1.2346 -1.8947  0.9893
 2175SOL    HW217988   0.635   2.640  10.083 -0.0152  0.1371  0.8232
 2176SOL     OW17989   0.228   3.378   6.665  0.2241 -0.3967  0.0903
 2176SOL    HW117990   0.227   3.446   6.598 -0.2535 -0.5895 -0.0988
 2176SOL    HW217991   0.137   3.348   6.672 -0.2957  1.0894 -0.3063
 2177SOL     OW17992   1.699   1.279   5.466  0.0532 -0.1652  0.6367
 2177SOL    HW117993   1.612   1.316   5.481 -0.0414 -0.9447  2.0168
 2177SOL    HW217994   1.753   1.355   5.489  0.9021 -0.4786 -0.3096
 2178SOL     OW17995   3.832   0.331   3.328  0.0515  0.1944 -0.7028
 2178SOL    HW117996   3.772   0.360   3.397  0.3226 -0.3830 -0.2232
 2178SOL    HW217997   3.885   0.407   3.302 -1.5418  1.5109 -0.1083
 2179SOL     OW17998   2.390   1.601   6.481 -0.3940 -0.3562 -0.4651
 2179SOL    HW117999   2.367   1.539   6.411  2.0495  0.0526 -1.6360
 2179SOL    HW218000   2.307   1.640   6.509  0.2241  2.2451 -2.2652
 2180SOL     OW18001   1.410   1.793   9.350  0.4734 -0.6420  0.0831
 2180SOL    HW118002   1.346   1.809   9.280  1.6729 -0.2712 -0.9286
 2180SOL    HW218003   1.360   1.777   9.430  0.4344 -0.0058  0.1862
 2181SOL     OW18004   1.870   0.761   8.106  0.2171  0.2395  0.2204
 2181SOL    HW118005   1.797   0.752   8.167  0.2267 -3.1655 -0.2676
 2181SOL    HW218006   1.945   0.729   8.156  1.1295  0.1080 -1.2650
 2182SOL     OW18007   0.350   3.256   7.134  0.4688 -0.2036 -0.7869
 2182SOL    HW118008   0.416   3.269   7.066 -0.6719  1.5337 -1.5283
 2182SOL    HW218009   0.397   3.282   7.214 -0.2642 -0.7692 -0.1656
 2183SOL     OW18010   1.888   2.812   1.541 -0.8050 -0.3586 -0.1284
 2183SOL    HW118011   1.965   2.759   1.563  0.1167  0.6811 -0.8651
 2183SOL    HW218012   1.931   2.854   1.466 -0.1642  0.9227  0.9626
 2184SOL     OW18013   3.724   2.617   9.268 -0.3017 -0.0892  0.2961
 2184SOL    HW118014   3.669   2.657   9.335 -1.1573 -1.3607  0.3392
 2184SOL    HW218015   3.799   2.590   9.321 -1.4000 -1.4190  1.1744
 2185SOL     OW18016   2.832   1.484  12.531  0.4543  0.0690  0.3902
 2185SOL    HW118017   2.832   1.437  12.614 -1.3763  2.0677  1.5082
 2185SOL    HW218018   2.773   1.558  12.547 -0.9807 -0.6653 -1.4241
 2186SOL     OW18019   1.388   3.445   7.622  0.6149  0.1177 -0.0966
 2186SOL    HW118020   1.308   3.495   7.637  0.1242  0.0720 -2.4877
 2186SOL    HW218021   1.412   3.419   7.711 -1.1105  0.4985  0.4798
 2187SOL     OW18022   0.477   3.003   4.497 -0.3488 -0.0004 -0.0604
 2187SOL    HW118023   0.572   2.993   4.483 -0.3294 -2.5458  1.9624
 2187SOL    HW218024   0.462   2.995   4.591  1.1276 -1.9348  0.0115
 2188SOL     OW18025   1.099   1.543   7.664  0.9726  0.4131  0.6969
 2188SOL    HW118026   1.190   1.531   7.691  1.6479  2.9872 -0.4639
 2188SOL    HW218027   1.095   1.632   7.630  2.3326 -0.8831 -2.8483
 2189SOL     OW18028   4.695   1.710   9.379  0.2761 -0.1766  0.0663
 2189SOL    HW118029   4.714   1.667   9.295  0.4757  1.0299 -0.5077
 2189SOL    HW218030   4.695   1.800   9.347 -1.0841 -0.1461  0.1783
 2190SOL     OW18031   3.211   0.120   6.299 -0.9805 -0.0118  0.3486
 2190SOL    HW118032   3.230   0.069   6.377  1.3191 -0.7894 -0.7025
 2190SOL    HW218033   3.120   0.108   6.274 -0.2379 -1.6940 -1.6306
 2191SOL     OW18034   0.829   0.989   0.781 -0.6483 -0.6900  0.7144
 2191SOL    HW118035   0.878   1.050   0.836 -0.4400 -0.4487  0.2591
 2191SOL    HW218036   0.883   0.990   0.702  1.4477  1.9580  2.1941
 2192SOL     OW18037   1.807   2.975  15.921 -0.1521 -0.3713  0.2888
 2192SOL    HW118038   1.881   3.033  15.902 -1.0509  0.8395  0.4800
 2192SOL    HW218039   1.849   2.895  15.952  0.1936 -0.4256 -0.3131
 2193SOL     OW18040   3.113   3.764  13.659 -0.2323  0.2228 -0.1664
 2193SOL    HW118041   3.191   3.708  13.664 -2.0647 -2.4588 -1.4725
 2193SOL    HW218042   3.085   3.778  13.749  0.6189 -1.1696  0.3089
 2194SOL     OW18043   1.651   2.180   3.961 -0.1599 -0.0676 -0.5826
 2194SOL    HW118044   1.690   2.100   3.994  0.2506 -0.6398 -2.4172
 2194SOL    HW218045   1.663   2.185   3.866  2.4178  0.2815 -0.2394
 2195SOL     OW18046   1.221   1.390  10.025 -0.1000 -0.2748  0.2520
 2195SOL    HW118047   1.148   1.416   9.968 -0.0952  0.4700  0.5980
 2195SOL    HW218048   1.223   1.297  10.003 -0.7494 -0.1390 -0.3680
 2196SOL     OW18049   0.377   3.457   3.735 -0.9277 -0.7340  0.4758
 2196SOL    HW118050   0.356   3.513   3.660 -0.4164  0.6881  1.3892
 2196SOL    HW218051   0.394   3.522   3.803 -2.3301 -0.3244  0.4211
 2197SOL     OW18052   4.707   4.686   9.319 -0.0569 -0.6882 -0.4147
 2197SOL    HW118053   4.718   4.597   9.284 -0.7692 -0.3389 -1.5217
 2197SOL    HW218054   0.062   4.719   9.362  0.9475 -2.9866 -0.4346
 2198SOL     OW18055   3.036   1.213  10.366  0.2776 -0.3725  0.3459
 2198SOL    HW118056   2.985   1.211  10.447 -2.8086  1.5248 -1.5417
 2198SOL    HW218057   3.054   1.119  10.365  0.4606 -0.3169 -1.1671
 2199SOL     OW18058   4.383   2.282   3.690  0.3907 -0.2591  0.0510
 2199SOL    HW118059   4.336   2.202   3.713  1.2355 -0.4699  1.0578
 2199SOL    HW218060   4.458   2.273   3.749  1.0788 -0.0395 -0.8028
 2200SOL     OW18061   3.696   2.283   4.965 -0.6888 -0.2925 -0.0303
 2200SOL    HW118062   3.650   2.218   4.911 -0.5645  0.1839 -0.7132
 2200SOL    HW218063   3.739   2.220   5.023 -0.0419  0.3969  0.2283
 2201SOL     OW18064   4.373   2.004  17.196 -0.1928 -0.2489  0.0290
 2201SOL    HW118065   4.366   2.098  17.216  0.1372 -0.0041 -0.9805
 2201SOL    HW218066   4.357   2.007  17.101 -3.0773 -0.0579  0.5274
 2202SOL     OW18067   4.715   0.226   5.341 -0.1479 -0.4071 -0.0037
 2202SOL    HW118068   4.708   0.223   5.436 -1.7262  0.4023 -0.0933
 2202SOL    HW218069   0.030   0.139   5.329 -2.3127 -1.4295  0.4618
 2203SOL     OW18070   1.518   2.833  17.129  0.1603 -0.2942 -0.2338
 2203SOL    HW118071   1.578   2.767  17.095  2.2395  1.4057  0.0975
 2203SOL    HW218072   1.563   2.914  17.104 -2.3679  0.9971 -0.6399
 2204SOL     OW18073   2.786   1.174   3.581 -0.4249  0.0782  0.2694
 2204SOL    HW118074   2.785   1.188   3.486 -0.5986 -2.0514 -0.0365
 2204SOL    HW218075   2.773   1.081   3.598 -2.1348  0.2926  0.1794
 2205SOL     OW18076   0.757   3.626   5.549 -0.4804  0.1912  0.2379
 2205SOL    HW118077   0.822   3.687   5.514  1.9958 -2.8059 -0.3406
 2205SOL    HW218078   0.701   3.682   5.603 -0.8464 -1.5624  1.6620
 2206SOL     OW18079   2.733   0.442   7.354 -0.0924 -0.0004  0.2672
 2206SOL    HW118080   2.767   0.390   7.426  0.9379  0.4582  0.1149
 2206SOL    HW218081   2.806   0.441   7.291 -0.1302 -1.6814  0.2671
 2207SOL     OW18082   1.464   3.953  10.640 -0.0821 -0.7792 -0.3297
 2207SOL    HW118083   1.405   4.028  10.646  0.6624 -0.2588  0.6572
 2207SOL    HW218084   1.540   3.972  10.697  0.1682  0.3809 -1.0438
 2208SOL     OW18085   1.830   0.282  14.843  0.2251 -0.2322  0.7620
 2208SOL    HW118086   1.792   0.370  14.845  0.3379 -0.1628 -0.1403
 2208SOL    HW218087   1.785   0.259  14.761  0.7897 -0.9101  0.6439
 2209SOL     OW18088   0.755   1.273   8.268 -0.2292  0.0248 -0.0936
 2209SOL    HW118089   0.759   1.202   8.203  1.2739  1.5026 -1.6136
 2209SOL    HW218090   0.827   1.255   8.329 -1.4605 -0.2211  1.2712
 2210SOL     OW18091   3.564   0.437   6.121  0.1930 -0.2400 -0.0553
 2210SOL    HW118092   3.488   0.385   6.092 -0.0334 -1.4269  2.6538
 2210SOL    HW218093   3.611   0.362   6.158  1.3417 -0.2194 -1.4756
 2211SOL     OW18094   0.401   1.790  13.302 -0.3696  0.9128 -0.2701
 2211SOL    HW118095   0.355   1.779  13.219 -0.8727  2.3016 -0.1813
 2211SOL    HW218096   0.435   1.879  13.289 -2.3691  1.6832 -0.2497
 2212SOL     OW18097   4.127   2.836   9.050 -0.2000  0.1611  0.1613
 2212SOL    HW118098   4.098   2.792   8.970 -1.5189  1.3368  0.0033
 2212SOL    HW218099   4.045   2.878   9.075 -0.0018  0.5541  0.1458
 2213SOL     OW18100   0.472   2.606   8.689  0.0468  0.0113 -0.2582
 2213SOL    HW118101   0.498   2.687   8.735 -0.6596  0.6716 -1.0279
 2213SOL    HW218102   0.385   2.637   8.667 -0.1982 -0.1428  0.4748
 2214SOL     OW18103   2.446   2.112  13.364 -0.1260  0.2399  0.1136
 2214SOL    HW118104   2.378   2.051  13.391  0.4882 -0.8880 -0.8609
 2214SOL    HW218105   2.482   2.067  13.287 -0.2798  0.0888  0.1296
 2215SOL     OW18106   1.429   3.531   9.174  0.2267  0.8131 -0.5196
 2215SOL    HW118107   1.399   3.602   9.118  1.3699  0.0433 -2.0927
 2215SOL    HW218108   1.383   3.455   9.139 -1.1627  0.2198  2.5534
 2216SOL     OW18109   4.645   2.204   1.902 -0.9116 -0.0310 -0.5285
 2216SOL    HW118110   4.602   2.125   1.868 -0.1894 -1.5823  2.1833
 2216SOL    HW218111   4.712   2.224   1.838  0.1908 -0.5933  0.4552
 2217SOL     OW18112   3.436   0.903   9.125 -0.4209  0.0147  0.5623
 2217SOL    HW118113   3.458   0.843   9.196 -1.2600 -2.2559 -1.0857
 2217SOL    HW218114   3.431   0.991   9.164 -3.0962 -0.7214  1.8408
 2218SOL     OW18115   0.948   0.498  15.946  0.4625  0.0287  0.4909
 2218SOL    HW118116   0.960   0.589  15.972 -0.7509  0.5448 -0.7682
 2218SOL    HW218117   1.008   0.474  15.875 -1.0402 -1.1262 -0.3836
 2219SOL     OW18118   1.057   1.474  15.434 -0.2744  0.3832  0.7290
 2219SOL    HW118119   1.032   1.566  15.429  4.0681  1.5213 -0.1475
 2219SOL    HW218120   1.143   1.478  15.476  0.9754 -2.4934 -1.5886
 2220SOL     OW18121   0.344   4.552  10.121  0.3377  0.4398  0.2053
 2220SOL    HW118122   0.418   4.526  10.176 -1.8795 -0.9275  2.5751
 2220SOL    HW218123   0.317   4.637  10.156  0.6322  1.0767 -1.1361
 2221SOL     OW18124   2.741   0.264  15.770 -0.4482 -0.0505 -0.0168
 2221SOL    HW118125   2.745   0.359  15.784  2.0927 -0.3104  0.9962
 2221SOL    HW218126   2.831   0.258  15.739  0.1335  3.7333  0.8859
 2222SOL     OW18127   3.438   2.527   9.415  0.2348  0.0622  0.0816
 2222SOL    HW118128   3.424   2.434   9.434 -1.6903  0.0751 -1.2826
 2222SOL    HW218129   3.394   2.534   9.329  2.2159 -2.5968 -1.1313
 2223SOL     OW18130   3.653   4.578   0.804  0.3484  0.2521 -0.2941
 2223SOL    HW118131   3.656   4.483   0.796  1.3646  0.0635  2.0364
 2223SOL    HW218132   3.669   4.598   0.897 -1.3055 -0.7510  0.2220
 2224SOL     OW18133   0.088   3.755  16.340 -0.1239  0.3288 -0.2919
 2224SOL    HW118134   0.005   3.712  16.358  0.8316 -1.3158  0.2532
 2224SOL    HW218135   0.121   3.716  16.258 -2.7739 -2.8600  0.1528
 2225SOL     OW18136   4.570   3.069   5.589  0.4879  0.3839  0.0670
 2225SOL    HW118137   4.599   3.113   5.669 -0.6138  1.1946  0.0213
 2225SOL    HW218138   4.624   3.129   5.537  0.7543  1.6597  1.8099
 2226SOL     OW18139   0.081   2.915   6.032  0.1096 -0.2277 -0.1534
 2226SOL    HW118140   0.028   2.836   6.024  0.4446 -0.6532  1.6865
 2226SOL    HW218141   0.027   2.976   6.082 -0.0568  0.7790 -1.5521
 2227SOL     OW18142   2.178   2.714  15.998 -0.2204  0.2280 -0.4117
 2227SOL    HW118143   2.114   2.659  15.953  1.3318 -1.6427 -0.3395
 2227SOL    HW218144   2.163   2.695  16.090  1.0558 -2.4053 -0.7246
 2228SOL     OW18145   0.130   0.816   3.953  0.0596 -0.3779  0.0438
 2228SOL    HW118146   0.115   0.739   3.899  0.4816 -0.2465 -0.2710
 2228SOL    HW218147   0.225   0.806   3.955  0.0729  0.3289  2.3184
 2229SOL     OW18148   4.433   3.258   3.261 -0.4210  0.4859 -0.8717
 2229SOL    HW118149   4.411   3.350   3.245 -0.7925  0.5482 -0.0226
 2229SOL    HW218150   4.367   3.242   3.329 -0.0937 -3.3041 -1.4457
 2230SOL     OW18151   3.336   0.841   5.379 -0.1929 -0.2293  0.0768
 2230SOL    HW118152   3.277   0.915   5.368  0.2386  0.1142  0.0757
 2230SOL    HW218153   3.271   0.772   5.392  0.7988 -0.9137  1.4075
 2231SOL     OW18154   0.750   2.973   4.515  0.1026  0.5514 -0.3126
 2231SOL    HW118155   0.830   2.956   4.566 -0.7887  2.3038  1.6882
 2231SOL    HW218156   0.789   3.047   4.469 -1.2365  1.7377  0.4328
 2232SOL     OW18157   4.347   1.841   8.215 -0.1029  0.3847 -0.1299
 2232SOL    HW118158   4.354   1.805   8.303 -1.2672  0.8933  0.1687
 2232SOL    HW218159   4.415   1.783   8.179 -0.3504  1.0930 -1.7094
 2233SOL     OW18160   0.708   2.670   4.543 -0.2247  0.1622  0.2347
 2233SOL    HW118161   0.769   2.684   4.616 -0.7560 -1.4000  0.9760
 2233SOL    HW218162   0.756   2.718   4.475  0.6954  0.4880  1.1072
 2234SOL     OW18163   4.368   0.193   7.379 -0.0717 -0.0686 -0.5630
 2234SOL    HW118164   4.318   0.263   7.421  0.8454  0.7034 -0.7483
 2234SOL    HW218165   4.309   0.170   7.307  1.7424  1.4971 -2.5791
 2235SOL     OW18166   0.388   0.668  14.491 -0.6058  0.4717  0.1200
 2235SOL    HW118167   0.336   0.611  14.434 -0.4079  1.4577 -1.0459
 2235SOL    HW218168   0.332   0.743  14.508  0.8255  1.5538  0.0698
 2236SOL     OW18169   1.451   2.804  16.161  0.0667  0.3085  0.0667
 2236SOL    HW118170   1.430   2.897  16.155 -0.1098  0.3214  0.8750
 2236SOL    HW218171   1.522   2.812  16.225 -1.1924  1.9076  1.2805
 2237SOL     OW18172   3.502   2.291   6.020 -0.1591  0.2150  0.2291
 2237SOL    HW118173   3.528   2.269   5.930  0.5774  1.4554  0.1394
 2237SOL    HW218174   3.582   2.336   6.048 -0.8232  1.1022  0.6823
 2238SOL     OW18175   1.908   0.998   5.050  0.0590  0.4642  0.4515
 2238SOL    HW118176   1.868   1.035   4.972 -1.6579 -0.5161  0.8506
 2238SOL    HW218177   1.884   1.069   5.110 -0.8712  1.3581 -0.9836
 2239SOL     OW18178   3.090   4.088  13.703  0.2886 -0.2554 -0.5729
 2239SOL    HW118179   3.105   4.054  13.791 -0.2348 -0.7525 -0.6795
 2239SOL    HW218180   3.179   4.071  13.670 -0.3590  0.9157 -2.9220
 2240SOL     OW18181   4.549   3.470   8.705  0.1129 -0.1923  0.3296
 2240SOL    HW118182   4.479   3.405   8.710 -0.9102  0.7720 -1.6525
 2240SOL    HW218183   4.510   3.538   8.650  1.2219  0.8701  0.8605
 2241SOL     OW18184   2.969   2.240   5.395 -0.0864  0.2752  0.1732
 2241SOL    HW118185   2.926   2.326   5.396  0.2188  0.4524 -1.3030
 2241SOL    HW218186   3.060   2.269   5.385 -0.0174  0.1485  0.4455
 2242SOL     OW18187   0.731   0.460   7.438  0.1504 -0.0549 -0.4130
 2242SOL    HW118188   0.672   0.481   7.366  0.1659  1.5327  0.0329
 2242SOL    HW218189   0.785   0.394   7.394  1.4851 -1.8009  3.8197
 2243SOL     OW18190   4.530   3.980   3.850 -0.1916 -0.4478  0.3325
 2243SOL    HW118191   4.449   3.945   3.887 -0.9400  0.6705 -0.2369
 2243SOL    HW218192   4.530   3.944   3.761  0.2244 -0.2344  0.2458
 2244SOL     OW18193   1.120   3.012   0.460 -0.2113  0.3389  0.1704
 2244SOL    HW118194   1.067   3.091   0.450 -1.3117 -0.3307  0.7146
 2244SOL    HW218195   1.208   3.049   0.451 -1.5769  2.6422 -4.2921
 2245SOL     OW18196   2.589   3.970   6.487 -0.3601  0.4665 -0.1501
 2245SOL    HW118197   2.573   4.043   6.546  0.8076 -1.0257  2.0162
 2245SOL    HW218198   2.608   3.905   6.555 -0.6615  1.2898  0.7089
 2246SOL     OW18199   1.885   3.164   6.121  0.4299  0.1922 -0.1757
 2246SOL    HW118200   1.853   3.133   6.205  2.6257 -0.3624  0.4273
 2246SOL    HW218201   1.890   3.080   6.076  3.0213  0.4645 -0.3710
 2247SOL     OW18202   3.085   2.946   1.735 -0.1227 -0.3335 -0.2100
 2247SOL    HW118203   3.041   3.027   1.762  2.4270  2.0500 -3.0629
 2247SOL    HW218204   3.061   2.881   1.800 -1.4095 -0.0909 -0.4395
 2248SOL     OW18205   2.063   0.966   6.360  0.1597 -0.1202 -0.1779
 2248SOL    HW118206   1.991   0.946   6.421 -0.0611  0.8916 -0.1001
 2248SOL    HW218207   2.012   0.999   6.286  0.0089  1.7990  0.7856
 2249SOL     OW18208   3.206   3.801  14.701 -0.1573 -0.2022 -0.1783
 2249SOL    HW118209   3.216   3.881  14.752  1.2991  1.3243 -2.8321
 2249SOL    HW218210   3.274   3.818  14.635  0.4669  1.7143  0.9746
 2250SOL     OW18211   1.016   2.900   9.063  0.1323 -0.0621 -0.0987
 2250SOL    HW118212   0.977   2.943   9.139 -0.0868 -1.6948  0.7190
 2250SOL    HW218213   1.084   2.849   9.106 -0.3269  1.7337  2.7815
 2251SOL     OW18214   4.102   0.517   4.004 -0.1760 -0.1510 -0.0256
 2251SOL    HW118215   4.162   0.561   4.064 -0.9378  0.7470  0.0718
 2251SOL    HW218216   4.027   0.577   4.004  0.3735  0.5353  0.0934
 2252SOL     OW18217   3.373   4.648  17.193  0.3153  0.2765  0.3835
 2252SOL    HW118218   3.466   4.663  17.174  0.8964 -3.4560  0.3162
 2252SOL    HW218219   3.340   0.002  17.147  0.8255 -0.2826 -0.9422
 2253SOL     OW18220   2.444   4.188  17.294  0.7111  0.3498  0.4071
 2253SOL    HW118221   2.354   4.194  17.262  1.5168 -0.1704 -1.9730
 2253SOL    HW218222   2.448   4.259  17.358  1.0436  0.7738 -0.0828
 2254SOL     OW18223   1.854   0.069   3.386  0.3803 -0.0282  0.1599
 2254SOL    HW118224   1.793   4.718   3.384 -0.3418  0.5891 -0.9485
 2254SOL    HW218225   1.863   0.093   3.294 -2.2629 -0.1348 -0.1416
 2255SOL     OW18226   2.969   2.748   5.486  0.3229 -0.9267  0.3277
 2255SOL    HW118227   2.992   2.777   5.398  1.7403 -1.5541  0.4995
 2255SOL    HW218228   3.045   2.767   5.541  1.8728 -2.1830 -1.3710
 2256SOL     OW18229   0.416   2.750   2.551 -0.3830 -0.3671  0.0987
 2256SOL    HW118230   0.327   2.749   2.515 -0.0718  1.5933 -0.7480
 2256SOL    HW218231   0.404   2.793   2.635 -1.7955  0.2451 -0.4288
 2257SOL     OW18232   4.239   2.161  10.467 -0.0426  0.7600  0.0662
 2257SOL    HW118233   4.191   2.168  10.550 -2.3589  0.2350 -1.2400
 2257SOL    HW218234   4.316   2.207  10.501 -0.1839  0.9612  0.1153
 2258SOL     OW18235   3.839   4.100   4.909  0.4098  0.0319 -0.5968
 2258SOL    HW118236   3.785   4.038   4.958 -0.7969  1.6914  0.1958
 2258SOL    HW218237   3.918   4.092   4.962 -0.1953 -0.0345  0.3111
 2259SOL     OW18238   0.119   2.952   2.936 -0.4582  0.0232 -0.3012
 2259SOL    HW118239   0.150   2.864   2.916 -2.0851 -0.5624 -0.2194
 2259SOL    HW218240   0.024   2.942   2.929 -0.5315 -0.2959  1.2140
 2260SOL     OW18241   0.270   0.138   7.135  0.2498  0.2526 -0.2696
 2260SOL    HW118242   0.341   0.166   7.078  1.6728 -0.1496  1.2913
 2260SOL    HW218243   0.244   0.059   7.087  0.2561 -0.3193  0.6628
 2261SOL     OW18244   1.317   4.223   1.076  0.2093 -0.2635 -0.7364
 2261SOL    HW118245   1.239   4.271   1.104  1.5801  0.5973  1.6195
 2261SOL    HW218246   1.378   4.238   1.149  0.4779 -4.0185 -0.2025
 2262SOL     OW18247   2.398   0.172   8.044  0.5970 -0.5918 -0.1214
 2262SOL    HW118248   2.388   0.196   7.952  1.9149 -3.5910 -1.0517
 2262SOL    HW218249   2.473   0.225   8.071  0.6592 -0.5645 -0.3472
 2263SOL     OW18250   1.018   2.818   3.896  0.2537 -0.4294 -0.0518
 2263SOL    HW118251   1.000   2.818   3.990  0.0767  1.5655 -0.0944
 2263SOL    HW218252   0.983   2.729   3.887  0.0168 -0.2849 -0.5747
 2264SOL     OW18253   1.528   1.104  14.983 -0.0990  0.3569 -0.2558
 2264SOL    HW118254   1.443   1.148  14.970  0.1950  0.8026 -0.6945
 2264SOL    HW218255   1.593   1.174  14.980  2.0506 -1.6855 -0.3612
 2265SOL     OW18256   1.635   3.113   2.601  0.3450 -0.2167  0.0074
 2265SOL    HW118257   1.654   3.044   2.537 -0.3306  0.8208 -1.3058
 2265SOL    HW218258   1.656   3.070   2.684  0.1662 -0.4535 -0.0704
 2266SOL     OW18259   1.347   4.547   0.164  0.7431  0.0937 -0.1381
 2266SOL    HW118260   1.391   4.520   0.083 -1.8012  0.0009 -1.4928
 2266SOL    HW218261   1.373   4.639   0.167  1.4153 -0.1206  0.6852
 2267SOL     OW18262   2.429   1.477   5.589 -0.1003  0.2164  0.4496
 2267SOL    HW118263   2.459   1.567   5.579 -0.6689  0.0925 -2.3294
 2267SOL    HW218264   2.381   1.487   5.671 -0.1716  0.5181  0.3703
 2268SOL     OW18265   2.491   4.076   4.732 -0.0225 -0.1313  0.1500
 2268SOL    HW118266   2.488   3.989   4.773 -3.1507 -0.7281 -1.3552
 2268SOL    HW218267   2.583   4.098   4.745  0.5815 -1.1717 -2.2801
 2269SOL     OW18268   0.202   2.350   3.903  0.3449  0.2993 -0.0627
 2269SOL    HW118269   0.169   2.298   3.976 -0.7518  1.7346  0.4427
 2269SOL    HW218270   0.129   2.408   3.885  0.2922 -0.4252 -2.2552
 2270SOL     OW18271   4.027   0.395   5.626 -0.2643  0.2146  0.2322
 2270SOL    HW118272   4.043   0.366   5.716 -0.2640 -0.1254  0.1231
 2270SOL    HW218273   3.938   0.369   5.601 -0.3019  0.9777 -0.4123
 2271SOL     OW18274   3.514   2.412   1.849 -0.5037  0.1300  0.4506
 2271SOL    HW118275   3.593   2.447   1.808 -2.3870  3.0634 -0.7444
 2271SOL    HW218276   3.530   2.443   1.938  0.2971 -0.3878  0.4804
 2272SOL     OW18277   3.935   0.304   7.253  0.1803 -0.0939  0.0241
 2272SOL    HW118278   3.934   0.277   7.162  0.7756  2.1008 -0.6387
 2272SOL    HW218279   3.914   0.220   7.293  1.0693 -0.5630 -0.4873
 2273SOL     OW18280   1.059   3.368   9.800 -0.0290  0.0912  1.1549
 2273SOL    HW118281   1.041   3.331   9.887  0.1231 -1.2143  0.6387
 2273SOL    HW218282   0.986   3.429   9.795  2.8318  3.4044 -0.1184
 2274SOL     OW18283   2.385   3.336  17.385  0.4556 -0.0901 -0.1501
 2274SOL    HW118284   2.456   3.398  17.367 -0.1619  0.6462 -0.0522
 2274SOL    HW218285   2.437   3.271  17.433 -2.0369 -0.5687  1.8668
 2275SOL     OW18286   1.242   1.642   8.977  0.3208  0.2027 -0.4861
 2275SOL    HW118287   1.268   1.682   8.893 -0.8521  0.3537 -0.7849
 2275SOL    HW218288   1.281   1.706   9.036  1.1215 -0.3077 -0.4643
 2276SOL     OW18289   4.246   0.110   5.371  0.0546  0.0081  0.3047
 2276SOL    HW118290   4.185   0.183   5.365 -0.1993 -0.2596 -0.3106
 2276SOL    HW218291   4.282   0.128   5.458 -2.3250  1.6398  0.9580
 2277SOL     OW18292   2.332   0.281  10.279  0.6825 -0.0742  0.3144
 2277SOL    HW118293   2.340   0.188  10.259 -1.3230 -0.0680 -0.4703
 2277SOL    HW218294   2.243   0.301  10.250 -0.1066 -1.6953  1.6589
 2278SOL     OW18295   2.486   2.224   2.040  0.1554  0.4906  0.2611
 2278SOL    HW118296   2.546   2.264   2.103 -0.8013  0.2810  1.3024
 2278SOL    HW218297   2.492   2.283   1.965  1.0989 -1.2015 -0.9842
 2279SOL     OW18298   2.721   0.642  12.205 -0.2905  0.0824  0.5029
 2279SOL    HW118299   2.711   0.717  12.146  3.0924 -0.1637 -0.3444
 2279SOL    HW218300   2.759   0.683  12.283 -0.4566 -0.4832  0.8825
 2280SOL     OW18301   1.729   0.347  11.886  0.0051  0.1561 -0.8206
 2280SOL    HW118302   1.686   0.350  11.801 -0.5286  0.5887 -0.5320
 2280SOL    HW218303   1.697   0.424  11.933 -1.6892  0.3496 -2.3222
 2281SOL     OW18304   2.606   4.624   9.630 -0.4410 -0.1939  0.2096
 2281SOL    HW118305   2.690   4.587   9.660  0.6890  0.5562 -2.0038
 2281SOL    HW218306   2.602   4.594   9.539 -0.2430 -1.6784  0.6989
 2282SOL     OW18307   2.592   2.081   1.659  0.2077 -0.0191  0.1755
 2282SOL    HW118308   2.622   2.037   1.579 -0.2590  1.8233 -1.0016
 2282SOL    HW218309   2.646   2.038   1.725 -0.5279 -0.7985  0.2675
 2283SOL     OW18310   0.644   2.146   8.739  0.1896 -0.1547 -0.3038
 2283SOL    HW118311   0.715   2.204   8.711  1.1897 -1.9476 -1.4192
 2283SOL    HW218312   0.571   2.209   8.742  1.0072  0.8258 -0.9208
 2284SOL     OW18313   1.880   3.744   3.632 -0.0981  0.1946  0.4147
 2284SOL    HW118314   1.864   3.715   3.722 -1.4525  0.0943  0.1436
 2284SOL    HW218315   1.868   3.665   3.580  0.1661  0.5365 -0.1670
 2285SOL     OW18316   0.443   1.728   4.784  0.4757  0.6017  0.3704
 2285SOL    HW118317   0.527   1.692   4.756  0.6409  1.2119  0.0760
 2285SOL    HW218318   0.384   1.709   4.711  0.5435 -1.4718  0.8584
 2286SOL     OW18319   1.105   0.702  14.891  0.4718 -0.8471 -0.4887
 2286SOL    HW118320   1.104   0.788  14.849  0.2694 -0.9189 -0.6294
 2286SOL    HW218321   1.079   0.645  14.819  2.0519 -1.3512 -0.6783
 2287SOL     OW18322   1.785   1.387  15.463 -0.3006 -0.2543  0.2041
 2287SOL    HW118323   1.844   1.338  15.521 -1.1629 -2.0881 -0.4466
 2287SOL    HW218324   1.832   1.387  15.380 -1.3243 -0.4658 -0.3874
 2288SOL     OW18325   3.376   1.640   6.894 -0.1085 -0.4709 -0.6089
 2288SOL    HW118326   3.379   1.735   6.908  0.8940 -0.6233  0.2041
 2288SOL    HW218327   3.452   1.640   6.836 -0.6139 -1.4067 -1.2677
 2289SOL     OW18328   3.891   3.211   1.567  0.3577 -0.2095 -0.1887
 2289SOL    HW118329   3.964   3.188   1.510  0.8682 -4.4278  2.1640
 2289SOL    HW218330   3.912   3.301   1.592  0.7066 -0.5257  0.6558
 2290SOL     OW18331   0.778   0.570  10.308 -0.1875  0.4137 -0.6188
 2290SOL    HW118332   0.741   0.482  10.319  1.4084  0.0211  1.5532
 2290SOL    HW218333   0.848   0.571  10.373  0.2239  3.2490 -1.0983
 2291SOL     OW18334   1.785   2.058   9.410  0.0959  0.2279  0.5972
 2291SOL    HW118335   1.828   2.054   9.325 -1.5321 -0.1131 -0.2207
 2291SOL    HW218336   1.858   2.032   9.466 -1.1075  0.7008  2.3875
 2292SOL     OW18337   0.872   0.571  12.161  0.2687  0.6975 -0.0962
 2292SOL    HW118338   0.886   0.606  12.249 -1.3277  2.1741 -0.4216
 2292SOL    HW218339   0.910   0.483  12.161 -0.0103  0.5793 -0.7319
 2293SOL     OW18340   4.613   4.139   2.050  0.2417 -0.2942 -0.6882
 2293SOL    HW118341   4.661   4.128   2.132 -0.5383 -2.3963 -0.5000
 2293SOL    HW218342   4.530   4.097   2.070 -0.6799  1.5296 -0.7340
 2294SOL     OW18343   0.397   3.986   5.594 -0.2706 -0.0145  0.1079
 2294SOL    HW118344   0.331   3.918   5.583 -0.6862  0.1598  1.5166
 2294SOL    HW218345   0.422   4.008   5.504  2.9952 -0.5289  0.8954
 2295SOL     OW18346   0.140   1.804   6.545 -0.3536  0.4359  0.3009
 2295SOL    HW118347   0.051   1.810   6.509 -0.0709 -1.4339 -0.7047
 2295SOL    HW218348   0.118   1.841   6.630 -0.8687 -2.4318  1.4017
 2296SOL     OW18349   4.323   2.373  17.675 -0.7811 -0.0308 -0.3798
 2296SOL    HW118350   4.401   2.391   0.033 -2.0088  0.7383  1.1638
 2296SOL    HW218351   4.342   2.288  17.634  3.4495  0.1103  1.2757
 2297SOL     OW18352   1.207   4.034   9.120 -0.3072 -0.3188  0.5399
 2297SOL    HW118353   1.302   4.019   9.116 -0.6558 -3.1897  3.5209
 2297SOL    HW218354   1.180   3.980   9.193  0.7180 -2.2885 -0.5457
 2298SOL     OW18355   2.359   1.072   4.593  0.4996  0.1358  0.0262
 2298SOL    HW118356   2.323   1.159   4.576 -0.4407 -0.2833 -0.1044
 2298SOL    HW218357   2.290   1.025   4.639 -0.2169  0.1967 -0.9856
 2299SOL     OW18358   2.780   2.235  12.627  0.8026  0.7254  0.0819
 2299SOL    HW118359   2.755   2.193  12.545  0.2238  0.6562  0.2925
 2299SOL    HW218360   2.841   2.166  12.652 -0.2645  0.0968  0.9595
 2300SOL     OW18361   4.692   1.709  17.223  0.1705  1.0712  0.4111
 2300SOL    HW118362   4.699   1.614  17.232  1.4066  1.2450  1.2290
 2300SOL    HW218363   0.057   1.731  17.191  0.9924 -1.6981  0.7238
 2301SOL     OW18364   0.079   1.165   0.533 -0.3404  0.1333 -0.0821
 2301SOL    HW118365   0.137   1.213   0.473  0.6252  0.1306  0.8654
 2301SOL    HW218366   0.029   1.240   0.565  0.0599 -0.4601  1.8905
 2302SOL     OW18367   0.294   3.834   4.686 -0.5150  0.5644  0.4506
 2302SOL    HW118368   0.258   3.895   4.751  1.4787  0.8051  1.3278
 2302SOL    HW218369   0.387   3.851   4.699 -0.3367  0.7212 -1.0261
 2303SOL     OW18370   1.080   4.268   6.643  0.3824  0.1640  0.4422
 2303SOL    HW118371   0.993   4.293   6.673 -0.2076 -0.9354 -0.3829
 2303SOL    HW218372   1.134   4.320   6.703 -0.3568  1.3480  0.0746
 2304SOL     OW18373   0.162   1.056   5.592 -0.6154  0.5656 -0.4783
 2304SOL    HW118374   0.224   1.068   5.664  0.8958 -1.1591 -1.5087
 2304SOL    HW218375   0.200   0.990   5.535 -0.0031  0.5893 -0.0994
 2305SOL     OW18376   0.868   3.182   5.360 -0.4393  0.0344  0.0826
 2305SOL    HW118377   0.840   3.091   5.369  1.6465 -0.4655  1.6634
 2305SOL    HW218378   0.930   3.182   5.433 -1.1653 -0.8811  0.6962
 2306SOL     OW18379   0.651   3.305   1.109  0.2951 -0.2232  0.0905
 2306SOL    HW118380   0.639   3.316   1.015 -2.5648 -1.4219  0.3048
 2306SOL    HW218381   0.713   3.376   1.127 -0.6562  1.3942 -3.0802
 2307SOL     OW18382   2.518   4.251   5.711 -0.2738 -0.7325  0.2631
 2307SOL    HW118383   2.603   4.282   5.679 -0.2604 -1.0608 -0.0163
 2307SOL    HW218384   2.525   4.159   5.688 -0.6688 -0.6810 -0.0814
 2308SOL     OW18385   4.123   1.097  13.868 -0.2567  0.0887  0.5095
 2308SOL    HW118386   4.096   1.126  13.956 -0.1706 -1.6682  1.1267
 2308SOL    HW218387   4.127   1.002  13.883  2.2705  0.2528  0.8943
 2309SOL     OW18388   4.323   1.564   3.095 -0.3615  0.6218 -0.3503
 2309SOL    HW118389   4.351   1.651   3.066 -0.6893 -0.1890 -3.1657
 2309SOL    HW218390   4.291   1.524   3.013  2.3379 -0.1155 -1.0756
 2310SOL     OW18391   1.304   2.508   4.327  0.2317  0.2696  0.0694
 2310SOL    HW118392   1.346   2.438   4.378 -0.8671 -3.0391 -3.6386
 2310SOL    HW218393   1.216   2.506   4.365  0.0945  1.2955 -0.1922
 2311SOL     OW18394   2.677   1.513   5.758 -0.1722  0.0229  0.4443
 2311SOL    HW118395   2.606   1.488   5.698  1.8399 -0.1512 -1.8336
 2311SOL    HW218396   2.644   1.474   5.839  0.5736 -0.9565  0.2751
 2312SOL     OW18397   0.345   1.907   0.464 -0.7884  0.0146 -0.0752
 2312SOL    HW118398   0.251   1.893   0.467 -0.5466 -1.1610  2.2517
 2312SOL    HW218399   0.357   1.965   0.540 -0.5750 -0.7236  0.4580
 2313SOL     OW18400   0.962   1.469   8.726 -0.1705 -0.1206  0.4761
 2313SOL    HW118401   1.016   1.520   8.665  1.2276  0.5818  2.3082
 2313SOL    HW218402   0.873   1.490   8.699  0.1598  0.4946 -0.1520
 2314SOL     OW18403   1.944   1.202  10.243  0.5921 -0.0159 -0.5105
 2314SOL    HW118404   1.893   1.223  10.321  1.1904 -2.2036  0.4751
 2314SOL    HW218405   2.022   1.163  10.282  1.0978  1.8319  0.3116
 2315SOL     OW18406   0.128   3.936  11.252 -0.7165  0.0294  0.0093
 2315SOL    HW118407   0.147   3.852  11.210  1.4970  0.7444 -0.4596
 2315SOL    HW218408   0.207   3.984  11.223  0.5149 -2.0683 -0.0835
 2316SOL     OW18409   3.951   4.422   5.633 -0.4648 -0.0393  0.6431
 2316SOL    HW118410   3.905   4.464   5.561 -0.0878  0.3633  0.6379
 2316SOL    HW218411   3.981   4.507   5.667  0.7666 -1.2753  2.6455
 2317SOL     OW18412   0.003   2.483   6.757  0.4006  0.5547  0.0054
 2317SOL    HW118413   0.093   2.515   6.749  0.5818 -0.2084 -1.0304
 2317SOL    HW218414   4.695   2.523   6.838  0.2970  0.2595  0.1114
 2318SOL     OW18415   1.319   1.593   2.047  0.4550 -0.0529 -0.5141
 2318SOL    HW118416   1.226   1.575   2.032  0.5963 -0.0541 -1.4050
 2318SOL    HW218417   1.327   1.511   2.096 -0.1464  0.2954  0.1674
 2319SOL     OW18418   3.640   3.886  15.099  0.0756 -0.3915  0.6558
 2319SOL    HW118419   3.734   3.901  15.094  0.0478  0.4884  2.6923
 2319SOL    HW218420   3.612   3.960  15.153  0.6304  0.9616 -0.9129
 2320SOL     OW18421   4.636   4.540   3.631  0.5595  0.1640  0.3825
 2320SOL    HW118422   4.553   4.496   3.650 -0.5883  2.0531 -0.3005
 2320SOL    HW218423   4.705   4.482   3.664  0.2294 -1.5287 -1.9032
 2321SOL     OW18424   3.098   1.288  15.576 -0.2020 -0.0235  0.4533
 2321SOL    HW118425   3.041   1.364  15.582 -0.2054  0.0419 -0.4233
 2321SOL    HW218426   3.116   1.276  15.669 -1.1746 -0.6065  0.5647
 2322SOL     OW18427   1.965   4.307  10.473 -0.5369 -0.7725 -0.6819
 2322SOL    HW118428   1.901   4.322  10.542  0.6483  1.3319 -0.0336
 2322SOL    HW218429   2.007   4.224  10.495  0.4177 -0.5027 -1.4936
 2323SOL     OW18430   1.903   0.683   5.986 -0.4720  0.1044  0.9432
 2323SOL    HW118431   1.838   0.708   5.921 -1.3895 -0.9854  1.4446
 2323SOL    HW218432   1.976   0.743   5.969 -2.8221  2.8023  0.3700
 2324SOL     OW18433   3.722   1.597   1.602  0.6824 -0.5689  0.3756
 2324SOL    HW118434   3.629   1.589   1.624  0.4334 -0.5010 -0.6449
 2324SOL    HW218435   3.722   1.550   1.518  0.3223 -1.0942  0.6698
 2325SOL     OW18436   2.567   1.897   5.770 -0.3502  0.0275 -0.4304
 2325SOL    HW118437   2.660   1.915   5.782 -0.2984 -0.5591  0.0404
 2325SOL    HW218438   2.552   1.837   5.843 -0.5319 -0.5340 -0.9314
 2326SOL     OW18439   0.207   1.470   4.360 -0.1979  0.2603 -0.8674
 2326SOL    HW118440   0.115   1.446   4.352 -0.8337  2.4033  0.2214
 2326SOL    HW218441   0.247   1.382   4.360  0.9079  0.7528 -2.7964
 2327SOL     OW18442   4.659   0.692  17.476  0.2848  0.9445 -0.3603
 2327SOL    HW118443   4.683   0.737  17.557 -1.1940  2.7513 -0.9366
 2327SOL    HW218444   0.016   0.654  17.439 -0.5961 -0.7429 -0.5448
 2328SOL     OW18445   1.896   0.976   2.128  0.3110 -0.5465 -0.1355
 2328SOL    HW118446   1.869   1.066   2.150  0.4557 -0.4876 -0.1942
 2328SOL    HW218447   1.861   0.969   2.040 -1.2852  1.0159  0.3653
 2329SOL     OW18448   4.084   4.331   6.200 -0.7031  0.2775 -0.1138
 2329SOL    HW118449   4.085   4.407   6.258  0.5767  0.7459 -0.7263
 2329SOL    HW218450   4.165   4.290   6.233 -0.2136  1.5845  0.3107
 2330SOL     OW18451   1.863   2.394   2.211 -0.2694 -0.1924  0.1748
 2330SOL    HW118452   1.782   2.426   2.251  0.6325 -0.3553  2.1536
 2330SOL    HW218453   1.892   2.464   2.153  0.4010 -0.7329 -0.1411
 2331SOL     OW18454   0.831   1.180   9.319 -0.0368  0.5875  0.2061
 2331SOL    HW118455   0.777   1.213   9.391 -2.4509 -0.7252 -0.9947
 2331SOL    HW218456   0.802   1.246   9.256  1.5613  0.2890 -0.8429
 2332SOL     OW18457   3.445   0.374  11.038  0.0183  0.2270  0.1193
 2332SOL    HW118458   3.401   0.381  10.954  1.7894  0.0111 -0.8211
 2332SOL    HW218459   3.453   0.279  11.046  0.0465  0.2704  0.6212
 2333SOL     OW18460   4.342   2.994   6.393 -0.0648 -0.4336  0.1550
 2333SOL    HW118461   4.347   2.902   6.418 -0.8638 -0.5999 -0.3086
 2333SOL    HW218462   4.249   3.011   6.378  0.5009  1.7292 -0.9827
 2334SOL     OW18463   3.120   4.429   4.696 -0.3212  0.2654 -0.9186
 2334SOL    HW118464   3.127   4.524   4.689 -1.6272  0.6468  2.7529
 2334SOL    HW218465   3.209   4.394   4.686 -0.8998 -0.6230 -2.8777
 2335SOL     OW18466   2.876   1.329   3.786 -0.2936  0.0107 -0.3035
 2335SOL    HW118467   2.838   1.290   3.707 -2.3538  0.4876  0.4582
 2335SOL    HW218468   2.904   1.413   3.751 -0.0517  0.2252  0.4159
 2336SOL     OW18469   2.166   0.514   0.411  0.3445 -0.2107  0.6674
 2336SOL    HW118470   2.169   0.588   0.350 -1.6412  0.0794  0.9222
 2336SOL    HW218471   2.201   0.452   0.347  0.6717  1.2665 -0.6051
 2337SOL     OW18472   3.652   0.111  11.312  0.1087  0.0136 -0.2613
 2337SOL    HW118473   3.693   0.180  11.364 -0.0346  0.3722 -0.6297
 2337SOL    HW218474   3.660   0.037  11.373  0.5339 -1.4401 -2.0886
 2338SOL     OW18475   2.115   4.472   4.112  0.0935 -0.1393 -0.0540
 2338SOL    HW118476   2.078   4.445   4.028  2.9675  1.6348 -1.8800
 2338SOL    HW218477   2.136   4.384   4.142 -0.5416 -0.4974 -0.6475
 2339SOL     OW18478   4.656   0.262   0.865 -0.0004  0.6229  0.7183
 2339SOL    HW118479   4.627   0.179   0.905  3.3505 -1.1205 -0.5156
 2339SOL    HW218480   4.616   0.244   0.780  2.5186 -0.1154 -0.2866
 2340SOL     OW18481   0.946   2.437   8.954  0.6318 -0.3877 -0.3954
 2340SOL    HW118482   0.879   2.399   8.898  0.1608 -0.2745  0.0878
 2340SOL    HW218483   1.013   2.457   8.888  0.9146  0.0752  0.0302
 2341SOL     OW18484   3.089   3.496  12.421 -0.1886  0.6374 -0.0925
 2341SOL    HW118485   3.070   3.539  12.504  2.9510  2.3262 -0.2386
 2341SOL    HW218486   3.029   3.423  12.439 -0.8365  1.9196  3.0292
 2342SOL     OW18487   3.004   0.478  11.671  0.0405 -0.6516  0.9933
 2342SOL    HW118488   3.011   0.554  11.729 -1.1806 -0.8077  1.3506
 2342SOL    HW218489   3.075   0.421  11.701  1.9369  0.5659 -1.2000
 2343SOL     OW18490   0.629   4.138   2.906  0.1672  0.3132 -0.2875
 2343SOL    HW118491   0.553   4.102   2.953 -0.1803  1.2891 -0.1086
 2343SOL    HW218492   0.666   4.198   2.970  2.2393  1.1657 -2.2775
 2344SOL     OW18493   1.386   1.368   8.965  0.4489 -0.5309 -0.2264
 2344SOL    HW118494   1.353   1.407   9.047  0.8456 -2.0481  0.6580
 2344SOL    HW218495   1.427   1.442   8.920  1.7326  0.2206  2.1660
 2345SOL     OW18496   4.713   3.901   6.748 -0.3067 -0.2685 -0.9156
 2345SOL    HW118497   4.618   3.901   6.739 -0.1995 -0.7357 -2.0061
 2345SOL    HW218498   4.716   3.940   6.836  2.4398  0.0248 -1.1236
 2346SOL     OW18499   4.431   2.647   8.618 -0.2443 -0.4660  0.2526
 2346SOL    HW118500   4.404   2.586   8.549 -0.0771 -0.1542 -0.0922
 2346SOL    HW218501   4.374   2.624   8.691 -1.0379 -0.1082 -0.2473
 2347SOL     OW18502   3.853   0.664   7.290  0.4341 -0.0790 -0.1746
 2347SOL    HW118503   3.945   0.681   7.309  0.1245 -0.2270  1.4400
 2347SOL    HW218504   3.821   0.737   7.343 -2.3590 -1.6976  0.3468
 2348SOL     OW18505   3.432   1.872   4.739 -0.8618 -0.2228 -0.4276
 2348SOL    HW118506   3.360   1.927   4.708 -0.4553 -0.7126 -2.2297
 2348SOL    HW218507   3.412   1.787   4.699 -1.8721  0.6093 -1.7207
 2349SOL     OW18508   4.316   1.274   8.683 -0.1222  0.4281  0.3023
 2349SOL    HW118509   4.383   1.333   8.717  1.9315 -0.5019 -2.1264
 2349SOL    HW218510   4.242   1.322   8.720 -0.5859  0.0372 -0.1168
 2350SOL     OW18511   2.184   0.058   0.480 -0.2350 -0.1812  0.4910
 2350SOL    HW118512   2.091   0.065   0.500 -0.6181 -1.2243 -0.9331
 2350SOL    HW218513   2.183   4.722   0.405 -1.9207  0.5843 -0.0872
 2351SOL     OW18514   1.552   4.716  13.276  0.1955  0.3221  0.5512
 2351SOL    HW118515   1.553   4.702  13.181 -0.9968  2.2509  0.2607
 2351SOL    HW218516   1.523   0.082  13.291 -0.6224 -0.1165  1.5806
 2352SOL     OW18517   1.890   4.322   3.938 -0.0346  0.5053  0.1576
 2352SOL    HW118518   1.940   4.257   3.987 -2.6507 -1.4844  0.1833
 2352SOL    HW218519   1.840   4.255   3.891  0.8083  0.2344 -0.3421
 2353SOL     OW18520   1.044   3.279   0.504 -0.0399  0.6334  0.6083
 2353SOL    HW118521   1.002   3.363   0.526 -1.3198  0.1430  0.0408
 2353SOL    HW218522   1.108   3.308   0.439  0.3591 -0.0411  0.7020
 2354SOL     OW18523   1.451   3.469   6.083  0.1753 -0.0100 -0.3979
 2354SOL    HW118524   1.357   3.454   6.097  0.0862  2.0568  1.1384
 2354SOL    HW218525   1.441   3.558   6.047 -2.5258 -0.2442 -0.2651
 2355SOL     OW18526   2.162   0.449   1.212 -0.4001 -0.1676  0.4040
 2355SOL    HW118527   2.175   0.537   1.248 -0.2972 -0.1409  0.2970
 2355SOL    HW218528   2.092   0.463   1.149 -0.0418 -1.8803 -0.3746
 2356SOL     OW18529   3.829   4.563  12.145  0.1242  0.2433 -0.1427
 2356SOL    HW118530   3.738   4.539  12.125 -0.3064 -0.2894  2.4761
 2356SOL    HW218531   3.821   4.656  12.169  0.4515 -0.1307  1.3878
 2357SOL     OW18532   4.377   4.640   4.025 -0.1380 -0.2827  0.4266
 2357SOL    HW118533   4.389   4.694   3.947  0.3047 -1.6293 -0.4287
 2357SOL    HW218534   4.346   4.561   3.981  1.2891 -0.7500  0.2489
 2358SOL     OW18535   2.401   4.536   9.800 -0.2931 -0.2421 -0.2369
 2358SOL    HW118536   2.460   4.573   9.734  0.6452 -0.5815  0.4088
 2358SOL    HW218537   2.416   4.596   9.873  0.0193  2.5125 -2.5556
 2359SOL     OW18538   1.625   2.305   1.961  0.6481  0.3179  0.8929
 2359SOL    HW118539   1.541   2.345   1.937  0.1490 -3.0894 -3.0373
 2359SOL    HW218540   1.619   2.300   2.057  1.4711 -2.4469  0.8180
 2360SOL     OW18541   4.290   3.843   1.307 -0.4709 -0.1649 -0.7591
 2360SOL    HW118542   4.373   3.801   1.285 -0.6070  0.4344 -2.3961
 2360SOL    HW218543   4.277   3.883   1.222  1.0942  0.3232 -0.7740
 2361SOL     OW18544   3.548   2.272   2.383  0.8520 -0.7103  0.4142
 2361SOL    HW118545   3.466   2.319   2.395  1.1371 -0.2067  0.4400
 2361SOL    HW218546   3.553   2.301   2.292 -2.4486 -0.4154  0.3414
 2362SOL     OW18547   0.459   3.079   7.632 -0.4426 -0.4001 -0.2172
 2362SOL    HW118548   0.488   3.148   7.573  0.0896  0.6952  1.3300
 2362SOL    HW218549   0.400   3.127   7.690 -0.1246  0.5523 -0.6854
 2363SOL     OW18550   1.216   2.163   6.112  0.0466 -0.4377 -0.2008
 2363SOL    HW118551   1.191   2.075   6.084 -1.3791  0.0606 -0.5013
 2363SOL    HW218552   1.169   2.160   6.195  1.5840  0.1703  0.6876
 2364SOL     OW18553   2.305   2.563   3.218 -0.4146 -0.0357 -0.2976
 2364SOL    HW118554   2.324   2.481   3.173  0.8435 -0.0610  0.2705
 2364SOL    HW218555   2.352   2.547   3.300  1.1115  3.5870 -0.4561
 2365SOL     OW18556   0.108   0.598  10.531  0.1165  0.8063  1.0092
 2365SOL    HW118557   0.074   0.677  10.573  0.3577  1.7796 -0.6295
 2365SOL    HW218558   0.053   0.574  10.457 -0.4751  1.1259  1.3508
 2366SOL     OW18559   2.591   4.447   9.388  0.5784 -0.3229 -0.7908
 2366SOL    HW118560   2.553   4.385   9.327  1.4132 -0.7978 -0.8280
 2366SOL    HW218561   2.665   4.404   9.432 -0.9772 -2.7554 -0.5810
 2367SOL     OW18562   1.052   0.062  10.378  0.0488 -0.4980  0.0548
 2367SOL    HW118563   1.101   0.136  10.343 -1.5006  0.0279 -1.0420
 2367SOL    HW218564   1.121   0.001  10.402  0.0715 -0.3601  0.3404
 2368SOL     OW18565   1.543   3.077   5.068  0.0428 -0.4465  0.3128
 2368SOL    HW118566   1.447   3.079   5.063  0.1070 -0.1844 -0.7725
 2368SOL    HW218567   1.551   3.020   4.992 -1.2523  0.9684 -0.8831
 2369SOL     OW18568   0.690   0.648   3.664 -0.3430 -0.2241  0.4686
 2369SOL    HW118569   0.618   0.623   3.721 -0.3298 -0.4215  0.3967
 2369SOL    HW218570   0.762   0.596   3.699  0.9009 -0.1842 -2.0018
 2370SOL     OW18571   1.510   0.072   4.606  0.0365 -0.7056  0.1379
 2370SOL    HW118572   1.536   0.001   4.664  1.0055 -0.6575 -0.2436
 2370SOL    HW218573   1.487   0.025   4.526 -0.6495 -0.1828  0.0272
 2371SOL     OW18574   3.805   4.561   3.613  0.4536 -0.1897 -1.0250
 2371SOL    HW118575   3.860   4.534   3.539  1.5998 -0.0656 -0.2076
 2371SOL    HW218576   3.841   4.648   3.630  1.0487 -0.5515 -0.4448
 2372SOL     OW18577   1.187   2.342   5.516  0.1802 -0.6171  0.3039
 2372SOL    HW118578   1.228   2.256   5.507 -2.1706 -1.5232 -1.7256
 2372SOL    HW218579   1.166   2.350   5.423 -1.7949 -0.7019  0.7526
 2373SOL     OW18580   0.547   3.288  12.854  0.2534  0.3749  0.4049
 2373SOL    HW118581   0.460   3.274  12.818  0.7636  0.3349 -0.8132
 2373SOL    HW218582   0.597   3.291  12.773 -1.3033  0.5737 -0.5377
 2374SOL     OW18583   3.436   4.271  11.460 -0.1060 -0.0717 -0.0056
 2374SOL    HW118584   3.350   4.300  11.490 -0.1688  0.5999 -0.8397
 2374SOL    HW218585   3.415   4.222  11.380 -0.7860  0.6135 -0.2495
 2375SOL     OW18586   2.769   2.302   9.842 -0.1261 -0.7245  0.3735
 2375SOL    HW118587   2.852   2.316   9.797  1.1510 -2.0338  2.3170
 2375SOL    HW218588   2.741   2.215   9.816  0.8511 -1.3795  1.5252
 2376SOL     OW18589   3.659   3.508   1.927  0.0280 -0.5175  0.1528
 2376SOL    HW118590   3.741   3.460   1.914  0.9101  0.6456  1.4522
 2376SOL    HW218591   3.658   3.563   1.849  0.3379 -0.2072  0.3692
 2377SOL     OW18592   2.094   0.410   3.658  0.1675  0.7219 -0.9452
 2377SOL    HW118593   2.189   0.400   3.648  0.1778  0.9515 -1.0738
 2377SOL    HW218594   2.097   0.496   3.700  5.8921  0.2476 -0.4544
 2378SOL     OW18595   2.849   3.218   3.918  0.4541  0.1350  0.0228
 2378SOL    HW118596   2.934   3.262   3.918  0.8116 -0.5876  1.4340
 2378SOL    HW218597   2.790   3.289   3.944  1.8143  1.0423  0.6064
 2379SOL     OW18598   2.780   1.895  11.171 -0.0867 -0.0249 -0.2808
 2379SOL    HW118599   2.871   1.864  11.167  0.5863  1.8376  0.4878
 2379SOL    HW218600   2.746   1.821  11.220  2.2436  0.8230  2.6396
 2380SOL     OW18601   3.389   4.712   8.193 -0.3392 -0.3403 -0.4524
 2380SOL    HW118602   3.372   4.685   8.283  1.3239  0.7222  0.1877
 2380SOL    HW218603   3.315   4.666   8.154 -1.0716  0.6044 -0.1559
 2381SOL     OW18604   4.061   3.190   9.998  0.0644 -0.0941 -0.9852
 2381SOL    HW118605   4.098   3.240  10.071 -0.8315 -0.8280 -0.0223
 2381SOL    HW218606   4.039   3.258   9.935  0.0459  0.4956 -0.3484
 2382SOL     OW18607   0.606   1.150  13.928 -0.0365  0.6896  0.5712
 2382SOL    HW118608   0.594   1.067  13.975 -0.6527  1.0536  1.0532
 2382SOL    HW218609   0.542   1.133  13.859  0.0432  1.2109  0.3730
 2383SOL     OW18610   0.576   0.873   4.393  0.1721  0.0679 -0.2125
 2383SOL    HW118611   0.551   0.965   4.392 -0.3915 -0.0724  1.0511
 2383SOL    HW218612   0.494   0.826   4.404 -0.1602  0.7505  0.2417
 2384SOL     OW18613   2.145   1.418   4.209  0.1328  0.0480 -0.1043
 2384SOL    HW118614   2.123   1.450   4.122 -0.1423 -2.1460 -0.8437
 2384SOL    HW218615   2.123   1.325   4.204  0.1180 -0.0581  1.8617
 2385SOL     OW18616   0.991   3.198   6.670 -0.5258 -0.0704 -0.2727
 2385SOL    HW118617   0.942   3.257   6.726 -2.3518 -0.7832 -1.1288
 2385SOL    HW218618   0.922   3.160   6.615  1.1061 -0.6404 -1.9547
 2386SOL     OW18619   0.678   0.778   5.259 -0.2021  0.2085 -0.4118
 2386SOL    HW118620   0.756   0.765   5.312 -0.0633 -0.7824 -0.8641
 2386SOL    HW218621   0.723   0.818   5.185  0.3236  0.9691  0.3271
 2387SOL     OW18622   3.131   4.096  12.227  0.2916  0.5819 -0.2002
 2387SOL    HW118623   3.116   4.151  12.304  1.7499  2.6928 -1.4207
 2387SOL    HW218624   3.043   4.067  12.202  1.0710 -0.7881 -1.4108
 2388SOL     OW18625   3.482   3.350   1.768 -0.3861 -0.0287  0.4856
 2388SOL    HW118626   3.517   3.390   1.847  1.6651 -1.6344  0.3878
 2388SOL    HW218627   3.541   3.275   1.763 -1.6947 -1.1373  1.5336
 2389SOL     OW18628   0.701   1.447   7.575 -0.0644 -0.2873  0.3026
 2389SOL    HW118629   0.720   1.526   7.524  3.2907 -0.5886  1.0618
 2389SOL    HW218630   0.754   1.469   7.652 -0.9153 -2.6162  1.5623
 2390SOL     OW18631   4.144   4.642  15.079 -0.0715 -0.2575  0.5287
 2390SOL    HW118632   4.229   4.606  15.052 -1.3946 -2.2897 -0.8800
 2390SOL    HW218633   4.102   4.673  14.999  0.4805 -1.6777 -0.3031
 2391SOL     OW18634   3.460   3.461   5.495 -0.0687 -0.7801 -0.1474
 2391SOL    HW118635   3.403   3.533   5.469  0.5378 -0.0178  0.6106
 2391SOL    HW218636   3.475   3.478   5.588  1.5572  1.3877 -0.7971
 2392SOL     OW18637   0.884   2.366   2.790  0.1018 -0.5579 -0.0859
 2392SOL    HW118638   0.876   2.441   2.732 -0.5975  0.2359  1.0502
 2392SOL    HW218639   0.916   2.403   2.872 -0.8881 -1.3633  0.6536
 2393SOL     OW18640   1.385   0.290  16.259 -0.4971  0.2416  0.0484
 2393SOL    HW118641   1.453   0.356  16.265  0.8470 -1.0834 -0.5454
 2393SOL    HW218642   1.342   0.314  16.177 -1.6322 -0.2805  0.4975
 2394SOL     OW18643   4.705   2.838   5.674 -0.2802 -0.0209 -0.1798
 2394SOL    HW118644   4.640   2.895   5.633 -0.4031  0.6664  0.9648
 2394SOL    HW218645   4.640   2.775   5.705 -0.5420 -0.1928 -1.0775
 2395SOL     OW18646   1.267   0.128   8.430 -0.3111 -0.2398 -0.2793
 2395SOL    HW118647   1.211   0.136   8.507 -1.1501 -0.2256 -0.8792
 2395SOL    HW218648   1.285   0.220   8.411 -2.3239  0.5777  1.7112
 2396SOL     OW18649   0.894   0.369  10.878 -0.3276  0.0636 -0.0554
 2396SOL    HW118650   0.944   0.370  10.960  2.6207 -0.1798 -1.8648
 2396SOL    HW218651   0.869   0.277  10.881  0.9427 -0.1963  2.3463
 2397SOL     OW18652   0.785   2.035   5.712 -0.0088  0.2400 -0.0428
 2397SOL    HW118653   0.837   1.956   5.697  2.4071  1.5332  1.5611
 2397SOL    HW218654   0.857   2.094   5.734  1.0193 -1.1368  0.2645
 2398SOL     OW18655   1.237   2.096   5.394 -0.4006  0.8792  0.1523
 2398SOL    HW118656   1.282   2.086   5.311 -0.1867  4.7239 -0.1630
 2398SOL    HW218657   1.307   2.071   5.454 -1.7529  1.0592  1.8420
 2399SOL     OW18658   0.346   0.450   7.890 -0.5339  0.0416  0.2226
 2399SOL    HW118659   0.307   0.528   7.850 -0.2145 -0.6252 -1.3730
 2399SOL    HW218660   0.437   0.482   7.897 -1.0854  1.6154  0.2822
 2400SOL     OW18661   2.759   1.804  13.170 -0.0502  0.1668 -0.2626
 2400SOL    HW118662   2.668   1.789  13.197 -0.6526 -0.4501 -2.6177
 2400SOL    HW218663   2.749   1.794  13.076 -1.4305 -1.9685  0.1102
 2401SOL     OW18664   4.027   0.589   9.432  0.1171 -0.5769 -0.3278
 2401SOL    HW118665   3.998   0.501   9.407  0.6280 -0.4462 -1.4053
 2401SOL    HW218666   3.961   0.640   9.386 -1.0753  0.3659  2.4595
 2402SOL     OW18667   1.957   2.421   6.290 -0.0686 -0.0916  0.2875
 2402SOL    HW118668   2.035   2.378   6.326  0.2362  0.9558  0.8697
 2402SOL    HW218669   1.913   2.360   6.231 -0.6159 -1.5257  2.1781
 2403SOL     OW18670   0.750   3.992   9.128  0.2790 -0.0712 -0.4546
 2403SOL    HW118671   0.800   4.004   9.208 -2.7615  0.7880  1.3186
 2403SOL    HW218672   0.745   4.086   9.110  1.5054  0.3537  1.4545
 2404SOL     OW18673   0.826   4.262   5.756 -0.6528  0.8029  0.1576
 2404SOL    HW118674   0.853   4.179   5.716 -0.0354  1.3616 -0.5923
 2404SOL    HW218675   0.869   4.327   5.700  0.0122  0.4884  0.2987
 2405SOL     OW18676   1.786   1.489   7.383  0.4935  0.3246  0.3309
 2405SOL    HW118677   1.742   1.417   7.338  3.3115 -1.9816  1.2465
 2405SOL    HW218678   1.739   1.566   7.352 -1.0587 -1.6018 -2.0877
 2406SOL     OW18679   4.361   0.515  15.110 -0.2936 -0.4490  0.8111
 2406SOL    HW118680   4.326   0.430  15.136 -0.1054 -0.7513  0.0783
 2406SOL    HW218681   4.454   0.504  15.133 -0.7736  0.6330  3.2569
 2407SOL     OW18682   0.974   2.079   5.307 -0.0951  0.3682 -0.9769
 2407SOL    HW118683   0.975   2.110   5.217  0.3811 -2.7154 -2.0290
 2407SOL    HW218684   1.052   2.110   5.352  0.0206 -0.7486 -0.4053
 2408SOL     OW18685   4.623   0.510   1.311  0.2246  0.3183 -0.3092
 2408SOL    HW118686   4.551   0.479   1.256 -1.2304  1.6809  0.8260
 2408SOL    HW218687   4.684   0.442   1.282 -0.8939 -0.9044  0.2000
 2409SOL     OW18688   4.640   1.985   0.361 -0.3648  0.0233  0.7271
 2409SOL    HW118689   4.556   2.015   0.393 -0.6700 -0.8085  0.7135
 2409SOL    HW218690   4.619   1.954   0.272  1.4508 -0.5808  0.4945
 2410SOL     OW18691   0.742   2.900   7.977  0.7358  0.2584 -0.1488
 2410SOL    HW118692   0.825   2.907   7.930 -1.2532  2.2540 -3.4006
 2410SOL    HW218693   0.742   2.984   8.023  2.6634 -0.3157  0.9266
 2411SOL     OW18694   1.455   3.721   5.954  0.1306 -0.2074 -0.0676
 2411SOL    HW118695   1.441   3.806   5.996 -0.6618 -1.0573  1.4048
 2411SOL    HW218696   1.505   3.742   5.875 -1.6327 -0.2068 -1.1865
 2412SOL     OW18697   2.197   1.340   1.258 -0.5912  0.5954  0.0467
 2412SOL    HW118698   2.188   1.277   1.187 -0.0105 -0.4880  0.9404
 2412SOL    HW218699   2.110   1.325   1.294 -0.4765 -0.7297 -0.2476
 2413SOL     OW18700   2.866   2.589  15.793 -0.5886 -0.7980 -0.1525
 2413SOL    HW118701   2.871   2.512  15.736 -1.4967 -0.2915 -0.9235
 2413SOL    HW218702   2.801   2.649  15.755 -0.3243 -2.5094 -3.3465
 2414SOL     OW18703   2.907   0.522   3.126  0.2059 -0.5055  0.2329
 2414SOL    HW118704   2.831   0.468   3.101  0.2858 -1.7852  2.6889
 2414SOL    HW218705   2.886   0.597   3.071  1.9495  1.0124  1.6315
 2415SOL     OW18706   1.857   2.930   6.543 -0.0488  0.4815 -0.2227
 2415SOL    HW118707   1.830   2.888   6.462  1.3238 -2.6875  0.9320
 2415SOL    HW218708   1.921   2.992   6.509  1.8564  0.0013  2.4186
 2416SOL     OW18709   2.152   0.709   4.544  0.5112  0.1657  0.7313
 2416SOL    HW118710   2.065   0.670   4.553  0.0069  1.2721  0.7601
 2416SOL    HW218711   2.210   0.640   4.576  1.7614  1.3352  0.9664
 2417SOL     OW18712   2.904   3.376  10.729 -0.2301  0.6353  0.3550
 2417SOL    HW118713   2.841   3.447  10.745  0.9096  1.1886  2.4109
 2417SOL    HW218714   2.939   3.404  10.645  1.6511 -2.6390  0.0750
 2418SOL     OW18715   1.138   1.151   2.382 -0.0693  0.0880  0.2492
 2418SOL    HW118716   1.107   1.060   2.378  1.6325 -0.4651 -0.4131
 2418SOL    HW218717   1.053   1.192   2.367 -0.5787 -0.3202  2.0341
 2419SOL     OW18718   2.926   0.365   3.869 -0.1667 -0.1241 -0.1601
 2419SOL    HW118719   2.898   0.452   3.837  2.5525  1.0564  0.6631
 2419SOL    HW218720   2.845   0.315   3.877 -0.2591  0.2856  1.4463
 2420SOL     OW18721   2.845   3.819   4.189  0.0147  0.0948 -0.1892
 2420SOL    HW118722   2.850   3.809   4.094  0.4746 -0.4433 -0.1086
 2420SOL    HW218723   2.841   3.730   4.222 -1.2214 -0.1738 -1.0447
 2421SOL     OW18724   2.165   1.812   8.195  0.7491  0.3175 -0.0236
 2421SOL    HW118725   2.190   1.852   8.112  2.4947 -1.7783 -0.5003
 2421SOL    HW218726   2.247   1.777   8.229  0.7397  1.0972  0.8124
 2422SOL     OW18727   1.981   4.363  16.609 -0.6442  0.4130  0.1450
 2422SOL    HW118728   2.017   4.313  16.536 -1.6868  0.3309 -0.3090
 2422SOL    HW218729   1.942   4.293  16.662  0.1021 -0.4284 -0.4143
 2423SOL     OW18730   1.253   2.464  15.303 -0.5477  0.3936  0.0048
 2423SOL    HW118731   1.242   2.515  15.384  1.1783  0.2678  0.3195
 2423SOL    HW218732   1.290   2.382  15.336  0.8256  1.0313  0.0857
 2424SOL     OW18733   3.591   4.605   5.613 -0.2717  0.3237 -0.2714
 2424SOL    HW118734   3.557   4.600   5.524  0.1810  1.7429 -0.5251
 2424SOL    HW218735   3.686   4.606   5.597 -0.1516  1.0028  0.4610
 2425SOL     OW18736   3.285   4.177   5.058 -0.3731 -0.3729  0.6231
 2425SOL    HW118737   3.226   4.148   5.127 -2.8934  1.3007 -0.8560
 2425SOL    HW218738   3.324   4.099   5.019 -0.5272  0.5215 -1.2951
 2426SOL     OW18739   2.290   1.993  13.153 -0.2025 -0.2194 -0.1695
 2426SOL    HW118740   2.206   1.952  13.177 -1.7353  2.3161 -1.1487
 2426SOL    HW218741   2.273   2.087  13.154  1.4065  0.0513  0.9310
 2427SOL     OW18742   4.569   0.480  11.385  0.4205 -0.4902  0.1654
 2427SOL    HW118743   4.664   0.488  11.382  0.3361  0.4231  0.0961
 2427SOL    HW218744   4.563   0.424  11.463  2.2265  0.2621  0.8331
 2428SOL     OW18745   0.340   1.013  16.718 -0.2726 -0.1207 -0.3296
 2428SOL    HW118746   0.251   1.011  16.752 -0.4492  2.0060 -0.6584
 2428SOL    HW218747   0.340   0.947  16.649 -1.3597  0.9855 -1.3955
 2429SOL     OW18748   0.261   2.359   4.614 -0.7359 -0.5148  0.4001
 2429SOL    HW118749   0.194   2.427   4.609  1.3850  1.4092 -2.3365
 2429SOL    HW218750   0.306   2.384   4.695  0.0775 -1.0538  0.1078
 2430SOL     OW18751   3.255   2.357   7.952 -0.2612 -0.1124  0.0032
 2430SOL    HW118752   3.228   2.431   8.006  1.3304  0.6749 -0.2750
 2430SOL    HW218753   3.351   2.360   7.949 -0.1885 -0.3376  2.3855
 2431SOL     OW18754   0.091   1.525  14.164 -0.0506 -0.4469 -0.0047
 2431SOL    HW118755   0.013   1.475  14.139  0.2316 -0.8136 -0.1571
 2431SOL    HW218756   0.134   1.544  14.081  0.8521 -1.3994  0.2340
 2432SOL     OW18757   1.622   2.026  10.395 -0.2756  0.1238  0.3821
 2432SOL    HW118758   1.543   2.023  10.449 -1.0148  3.3380 -0.5086
 2432SOL    HW218759   1.651   1.938  10.420 -1.4207 -0.4361 -0.2828
 2433SOL     OW18760   2.002   3.497   7.963 -0.0902  0.0562  0.3451
 2433SOL    HW118761   1.931   3.461   8.018  0.0151  1.0858  1.1621
 2433SOL    HW218762   1.964   3.487   7.876 -0.3658 -2.9311  0.8024
 2434SOL     OW18763   3.878   2.774  16.893 -0.1485  0.0951 -0.4361
 2434SOL    HW118764   3.883   2.865  16.863 -0.2108 -0.7215 -2.9718
 2434SOL    HW218765   3.798   2.780  16.945  0.7417 -3.7622  1.3753
 2435SOL     OW18766   2.706   0.804   4.101 -0.4956  0.4368 -0.2223
 2435SOL    HW118767   2.618   0.821   4.068  0.2462  0.4214 -2.2745
 2435SOL    HW218768   2.761   0.850   4.036 -2.2346  1.4359 -0.9858
 2436SOL     OW18769   1.761   2.725  12.929  0.3211  0.0822  0.1789
 2436SOL    HW118770   1.803   2.683  12.854 -2.6627 -1.9324 -0.3752
 2436SOL    HW218771   1.839   2.763  12.971  0.3809  1.3948 -1.1140
 2437SOL     OW18772   2.666   0.240  13.935  0.3917  0.4628  0.1764
 2437SOL    HW118773   2.743   0.277  13.976  1.1393  1.8466 -2.4706
 2437SOL    HW218774   2.597   0.301  13.960 -0.5473 -0.3406 -0.4074
 2438SOL     OW18775   3.504   0.768  16.195 -0.0343  0.6240  0.1554
 2438SOL    HW118776   3.545   0.685  16.221  0.0510  0.5109 -0.3420
 2438SOL    HW218777   3.580   0.824  16.181 -0.2931  1.5175  2.3796
 2439SOL     OW18778   3.649   3.549   3.141  0.1974 -0.0364 -0.0881
 2439SOL    HW118779   3.638   3.602   3.220 -0.0859 -1.1104  0.6047
 2439SOL    HW218780   3.691   3.613   3.084 -0.6673  0.1136 -0.5636
 2440SOL     OW18781   3.535   1.708   2.010  0.1789 -0.0345 -0.3789
 2440SOL    HW118782   3.532   1.661   2.093 -0.3626 -0.3205 -0.5553
 2440SOL    HW218783   3.585   1.645   1.957  0.4389  0.0598 -0.2403
 2441SOL     OW18784   1.271   3.388   3.767 -0.3697 -0.6252 -0.2531
 2441SOL    HW118785   1.334   3.448   3.727  0.5043  0.5977  2.9381
 2441SOL    HW218786   1.252   3.424   3.854  1.8503  1.4831 -0.6273
 2442SOL     OW18787   2.952   0.780   4.631  0.0703 -0.0987  0.6971
 2442SOL    HW118788   2.980   0.860   4.586  0.8627 -0.1677  1.0575
 2442SOL    HW218789   2.858   0.786   4.618 -0.4004 -1.2796  3.5421
 2443SOL     OW18790   0.244   0.172   6.049 -0.2369 -0.4299 -0.2450
 2443SOL    HW118791   0.214   0.085   6.021 -0.8626 -0.7545  1.4110
 2443SOL    HW218792   0.232   0.170   6.144  0.1887 -1.8998 -0.2171
 2444SOL     OW18793   0.124   0.676   1.175  0.4358 -0.8514 -0.1358
 2444SOL    HW118794   0.059   0.710   1.113 -0.4426 -1.3404  0.5089
 2444SOL    HW218795   0.069   0.619   1.229 -1.3997  1.4494  0.4409
 2445SOL     OW18796   2.815   3.364   1.180 -0.0671  0.2681  0.6084
 2445SOL    HW118797   2.816   3.284   1.233  1.3189  1.5031  2.3959
 2445SOL    HW218798   2.906   3.390   1.183  0.1603 -0.3219 -0.9831
 2446SOL     OW18799   4.042   0.893   0.428  0.4028 -0.1457 -0.6862
 2446SOL    HW118800   3.999   0.906   0.343  0.3589  0.9754 -0.4936
 2446SOL    HW218801   4.107   0.963   0.425  2.4104 -1.9485  1.0515
 2447SOL     OW18802   2.252   0.078   3.881  0.1629 -0.8080  0.0922
 2447SOL    HW118803   2.310   0.021   3.830  0.2444  1.4404 -2.3178
 2447SOL    HW218804   2.322   0.119   3.931 -0.9845  0.7770  0.4092
 2448SOL     OW18805   3.863   2.437   1.202 -0.3175 -0.1712  0.2056
 2448SOL    HW118806   3.956   2.426   1.182 -0.8717 -1.6294 -1.5920
 2448SOL    HW218807   3.839   2.360   1.150  1.1738 -0.6136  0.1593
 2449SOL     OW18808   3.634   2.104   1.927 -0.5077  0.0036  0.6662
 2449SOL    HW118809   3.711   2.161   1.919 -1.2783  1.0760  0.9011
 2449SOL    HW218810   3.670   2.022   1.893 -2.9174 -1.5018  1.8202
 2450SOL     OW18811   2.307   2.301   3.863 -0.4712  0.1412  0.0681
 2450SOL    HW118812   2.357   2.230   3.904 -0.3232 -0.3123 -0.9005
 2450SOL    HW218813   2.220   2.262   3.860 -1.1428  1.6959 -0.6435
 2451SOL     OW18814   2.412   2.360   3.437  0.4194  0.0643 -0.0188
 2451SOL    HW118815   2.434   2.317   3.355  0.3689 -2.2661  1.2018
 2451SOL    HW218816   2.420   2.291   3.502 -0.0028  0.2614  0.2500
 2452SOL     OW18817   2.494   4.501   6.623  0.3633 -0.3474  0.3603
 2452SOL    HW118818   2.515   4.448   6.700  0.7569  0.3364  0.7170
 2452SOL    HW218819   2.424   4.454   6.578  0.7898  0.1702 -0.8315
 2453SOL     OW18820   1.861   1.665   4.813 -0.6118  0.3555  0.3681
 2453SOL    HW118821   1.932   1.672   4.750 -0.9266  0.7516  0.0557
 2453SOL    HW218822   1.914   1.637   4.888  0.8572  0.8473 -0.4893
 2454SOL     OW18823   4.198   2.836  11.046 -0.2612  0.2344  0.2633
 2454SOL    HW118824   4.249   2.873  10.975  0.7388  1.9310  1.8609
 2454SOL    HW218825   4.202   2.743  11.025  2.4455 -0.2827  3.0464
 2455SOL     OW18826   2.654   2.599   8.163  0.7427 -0.5307  0.3748
 2455SOL    HW118827   2.613   2.673   8.119 -0.8179 -1.0780  0.9034
 2455SOL    HW218828   2.613   2.595   8.249 -1.7893 -1.2057 -0.8639
 2456SOL     OW18829   4.598   1.968   1.758  0.2124  0.2094  0.1098
 2456SOL    HW118830   4.684   1.927   1.759 -0.0303 -0.2868  0.8215
 2456SOL    HW218831   4.588   2.006   1.671 -3.0481  1.0736  0.8544
 2457SOL     OW18832   4.384   2.600   3.744 -0.5185  0.6083  0.3927
 2457SOL    HW118833   4.409   2.566   3.658  0.4376 -0.5458  1.1319
 2457SOL    HW218834   4.441   2.676   3.750  0.3890  0.0430 -1.0969
 2458SOL     OW18835   2.520   2.699   7.439 -0.0750  0.3786 -0.3681
 2458SOL    HW118836   2.492   2.749   7.362 -0.1008 -0.2401 -0.7555
 2458SOL    HW218837   2.500   2.611   7.408  0.2083  0.4914 -0.8897
 2459SOL     OW18838   2.375   0.939   1.235 -0.1923 -0.0503  0.2383
 2459SOL    HW118839   2.433   0.926   1.310  0.1962 -0.5891 -0.1556
 2459SOL    HW218840   2.429   0.907   1.163  0.5567  1.1373  0.2771
 2460SOL     OW18841   4.185   2.307   8.124 -0.0693  0.1649  0.1739
 2460SOL    HW118842   4.183   2.284   8.032  2.8094 -1.0414  0.4023
 2460SOL    HW218843   4.098   2.279   8.152 -0.0447 -2.0946 -2.0292
 2461SOL     OW18844   2.881   4.182   3.969 -0.3017 -0.2530  0.0041
 2461SOL    HW118845   2.907   4.103   3.922  1.1816 -0.4300  1.0972
 2461SOL    HW218846   2.962   4.199   4.019 -0.5437  1.2731 -0.1080
 2462SOL     OW18847   3.523   0.796   6.789  0.4808 -0.2037 -0.1237
 2462SOL    HW118848   3.588   0.744   6.743  0.4926  0.4926 -0.8942
 2462SOL    HW218849   3.526   0.760   6.878  2.7946 -0.9145 -0.5060
 2463SOL     OW18850   0.738   2.405   4.912  0.4695  0.3762  0.0438
 2463SOL    HW118851   0.675   2.345   4.873 -0.1022  2.2026 -1.8328
 2463SOL    HW218852   0.754   2.462   4.837 -1.3776  1.9136  0.8307
 2464SOL     OW18853   0.262   3.445   2.327  0.7898 -0.4394 -0.3001
 2464SOL    HW118854   0.195   3.438   2.259 -0.4031  1.0642  0.7216
 2464SOL    HW218855   0.266   3.540   2.331 -0.5204 -0.3906 -0.2877
 2465SOL     OW18856   0.344   1.133   8.110  0.1088 -0.3527 -0.2886
 2465SOL    HW118857   0.410   1.166   8.050 -2.4417 -0.7723 -3.3135
 2465SOL    HW218858   0.277   1.200   8.098 -0.9401 -1.4357 -0.5005
 2466SOL     OW18859   2.681   4.145   9.359 -0.7303 -0.2129 -0.3516
 2466SOL    HW118860   2.615   4.095   9.310 -0.6791 -1.6162  1.0022
 2466SOL    HW218861   2.709   4.084   9.428  2.3185  0.4650 -0.9801
 2467SOL     OW18862   1.727   1.447   5.827  0.0495 -0.1824 -0.1336
 2467SOL    HW118863   1.703   1.475   5.916 -1.1713 -1.4892 -0.0425
 2467SOL    HW218864   1.734   1.354   5.849  0.3850 -0.7864 -2.8210
 2468SOL     OW18865   2.114   2.295   0.615 -0.4287 -0.2764  0.3753
 2468SOL    HW118866   2.072   2.210   0.627  0.6560 -0.4449  2.9831
 2468SOL    HW218867   2.043   2.354   0.640 -0.2090  0.9316 -1.8664
 2469SOL     OW18868   1.297   2.923   3.456 -0.5786 -0.4607  0.2403
 2469SOL    HW118869   1.259   2.883   3.534 -1.9167  0.2217 -0.0636
 2469SOL    HW218870   1.335   3.005   3.487 -0.2941 -1.6244  2.9539
 2470SOL     OW18871   2.525   1.693   6.106  0.5644 -0.6827 -0.1369
 2470SOL    HW118872   2.599   1.754   6.110  0.5841 -0.6185 -1.4179
 2470SOL    HW218873   2.460   1.757   6.134  1.0408 -0.4624  0.4909
 2471SOL     OW18874   1.087   0.876   2.430  0.2558  0.2592  0.1939
 2471SOL    HW118875   1.175   0.862   2.465  0.1262  1.0448  0.8218
 2471SOL    HW218876   1.068   0.794   2.384 -0.7459 -0.3333  1.6441
 2472SOL     OW18877   3.150   4.134   7.086  0.4873 -0.4873  0.1484
 2472SOL    HW118878   3.245   4.133   7.083  0.5013 -1.2652  0.8721
 2472SOL    HW218879   3.130   4.058   7.140  0.6528 -1.9694 -1.8887
 2473SOL     OW18880   2.391   1.465   3.381 -0.6118  0.5826 -0.3642
 2473SOL    HW118881   2.462   1.528   3.364  0.6284 -0.5026  0.7440
 2473SOL    HW218882   2.430   1.384   3.348 -1.5871  0.6726 -1.7192
 2474SOL     OW18883   1.831   0.175   6.374 -0.2370  0.1326 -0.0594
 2474SOL    HW118884   1.746   0.152   6.410  0.1103 -0.8083  0.1470
 2474SOL    HW218885   1.817   0.251   6.317  1.8169  0.3026 -0.3447
 2475SOL     OW18886   0.599   4.013   6.495 -0.0612  0.2630  0.1813
 2475SOL    HW118887   0.599   4.096   6.543 -1.5873  0.8313 -0.7950
 2475SOL    HW218888   0.628   4.037   6.407  2.7022  2.0629  1.5412
 2476SOL     OW18889   2.843   0.700   6.190 -0.3716  0.0832 -0.2405
 2476SOL    HW118890   2.802   0.787   6.191  0.8054  0.6448 -0.2371
 2476SOL    HW218891   2.883   0.695   6.277 -0.4728  2.3476 -0.0527
 2477SOL     OW18892   1.478   0.480   3.879 -0.0829 -0.2681  0.4801
 2477SOL    HW118893   1.431   0.510   3.802 -0.3723  2.9172  1.8694
 2477SOL    HW218894   1.478   0.385   3.870  2.4678 -0.2149 -0.1029
 2478SOL     OW18895   0.847   2.895   0.851 -0.2251 -0.2306 -0.0298
 2478SOL    HW118896   0.765   2.892   0.899  0.3348 -1.8995  0.8009
 2478SOL    HW218897   0.842   2.981   0.809  2.2678 -0.3883 -0.6670
 2479SOL     OW18898   4.320   3.249   5.203  0.2567 -0.2195  0.5800
 2479SOL    HW118899   4.311   3.313   5.133  0.6150 -1.8938 -0.9795
 2479SOL    HW218900   4.414   3.232   5.196 -0.0428 -1.5222 -0.2094
 2480SOL     OW18901   4.649   2.838   4.120  0.0724 -0.5889  0.5688
 2480SOL    HW118902   4.699   2.918   4.105 -0.0041 -0.8166 -0.9136
 2480SOL    HW218903   4.564   2.868   4.088  0.3044 -1.5251 -0.9199
 2481SOL     OW18904   2.124   3.050   7.165  0.1346  0.3746  0.3342
 2481SOL    HW118905   2.063   3.124   7.173  1.2405  1.2877  0.2272
 2481SOL    HW218906   2.134   3.034   7.071 -2.9093 -0.5428  0.1464
 2482SOL     OW18907   3.765   0.421   4.838 -0.1831  0.0890 -0.7921
 2482SOL    HW118908   3.735   0.360   4.905 -1.6333  0.1394 -1.3919
 2482SOL    HW218909   3.733   0.366   4.766 -0.0147  0.7682 -1.3920
 2483SOL     OW18910   1.292   0.148  11.051 -0.4089  0.1933  0.0839
 2483SOL    HW118911   1.291   0.124  10.958  0.6249 -0.2292  0.1826
 2483SOL    HW218912   1.382   0.120  11.067 -0.3298  1.1419  1.3016
 2484SOL     OW18913   1.051   3.684  14.024  0.0509  0.1700 -0.2306
 2484SOL    HW118914   1.056   3.780  14.024 -0.9873  0.2348  0.0105
 2484SOL    HW218915   0.978   3.679  14.087  1.4235 -1.4751  1.2184
 2485SOL     OW18916   4.255   3.992  11.563  0.1612  0.1795  0.3252
 2485SOL    HW118917   4.266   4.081  11.597 -0.8066  0.2964  0.3276
 2485SOL    HW218918   4.329   3.962  11.616 -0.8860 -4.2004 -0.6885
 2486SOL     OW18919   3.900   3.443   9.070  0.0073 -0.2022 -0.1002
 2486SOL    HW118920   3.890   3.355   9.107  1.5849 -0.6729 -0.7709
 2486SOL    HW218921   3.818   3.447   9.022  0.9755 -1.3199 -1.8291
 2487SOL     OW18922   2.075   1.816   5.057  0.3006 -0.0776  0.0274
 2487SOL    HW118923   2.148   1.833   4.998  0.7971  0.2758  0.7452
 2487SOL    HW218924   2.095   1.854   5.143  0.2659  0.6110 -0.2686
 2488SOL     OW18925   4.399   2.954   6.101 -0.4258 -0.1278  0.3236
 2488SOL    HW118926   4.417   2.990   6.188 -1.7755 -1.6002  1.2197
 2488SOL    HW218927   4.391   3.035   6.050  2.3375  0.5008  0.9145
 2489SOL     OW18928   3.852   2.503   4.858 -0.4056  0.1466  0.4088
 2489SOL    HW118929   3.943   2.474   4.863 -0.8969 -1.4739 -0.2175
 2489SOL    HW218930   3.815   2.415   4.866 -1.6594  0.5685 -0.8420
 2490SOL     OW18931   1.380   0.690   5.263  0.0313  0.4399 -0.0681
 2490SOL    HW118932   1.421   0.744   5.331  1.8494 -2.4815  1.1744
 2490SOL    HW218933   1.434   0.716   5.188 -1.4716 -0.3915 -1.4348
 2491SOL     OW18934   4.468   2.457   5.281  0.3171 -0.3550 -0.0736
 2491SOL    HW118935   4.375   2.454   5.304  0.5739  2.1006  1.2674
 2491SOL    HW218936   4.491   2.364   5.273 -1.1541 -0.6815 -0.4107
 2492SOL     OW18937   0.502   1.901   2.612 -0.0384 -0.1788 -0.2286
 2492SOL    HW118938   0.511   1.915   2.706  0.0268 -2.3638  0.0799
 2492SOL    HW218939   0.454   1.978   2.581 -0.4917 -1.3003 -2.2693
 2493SOL     OW18940   2.786   2.921   8.440  0.7099 -0.0113 -0.3242
 2493SOL    HW118941   2.753   2.876   8.518 -2.2898 -0.0502 -1.6541
 2493SOL    HW218942   2.708   2.928   8.385  0.7692  1.1879 -0.2530
 2494SOL     OW18943   1.422   3.245   5.363  0.3414  0.2597  0.2448
 2494SOL    HW118944   1.512   3.218   5.380 -0.0220  0.7120  2.7931
 2494SOL    HW218945   1.393   3.282   5.446 -1.0680 -1.4983  0.5352
 2495SOL     OW18946   2.658   0.552   7.076  0.4016  0.6126 -0.3757
 2495SOL    HW118947   2.679   0.639   7.111 -0.1638  0.4030  0.4791
 2495SOL    HW218948   2.684   0.496   7.149  2.0402 -0.2771 -1.6290
 2496SOL     OW18949   1.673   3.482   6.721  0.1367  0.6375 -1.1841
 2496SOL    HW118950   1.701   3.490   6.812 -1.5620 -0.8054 -0.5312
 2496SOL    HW218951   1.580   3.463   6.732  0.6484 -1.0373  0.2086
 2497SOL     OW18952   3.591   4.141   7.341  0.4538  0.5634  0.1269
 2497SOL    HW118953   3.665   4.192   7.308  2.0704 -1.5800  0.4794
 2497SOL    HW218954   3.593   4.175   7.431 -1.0625 -1.3267  0.8872
 2498SOL     OW18955   1.893   3.230   2.811  0.0651 -0.3822 -0.1905
 2498SOL    HW118956   1.878   3.138   2.790 -3.2392 -0.0102  0.6284
 2498SOL    HW218957   1.837   3.271   2.746 -1.0355  0.5873  1.3657
 2499SOL     OW18958   2.223   2.044   1.363  0.7089 -0.1828  0.3980
 2499SOL    HW118959   2.245   2.116   1.423 -2.2164  0.5945  0.5611
 2499SOL    HW218960   2.307   2.002   1.349  1.6122  1.2950  1.3490
 2500SOL     OW18961   1.939   0.360   8.040  0.8303  0.7097 -0.1414
 2500SOL    HW118962   1.886   0.300   8.093  0.8600 -0.3306 -1.2734
 2500SOL    HW218963   1.981   0.285   7.997 -0.4930 -0.2215  0.1876
 2501SOL     OW18964   2.185   1.041   8.889  0.0279  0.2904  0.0543
 2501SOL    HW118965   2.175   1.125   8.844  1.2985  0.0636 -0.6531
 2501SOL    HW218966   2.272   1.007   8.867  0.3093  0.1417  1.3632
 2502SOL     OW18967   3.761   3.222  17.097 -0.4413 -0.2580  0.5254
 2502SOL    HW118968   3.739   3.130  17.081 -2.3128  0.1367  0.7857
 2502SOL    HW218969   3.829   3.210  17.163  1.0226 -1.7761 -1.2459
 2503SOL     OW18970   4.011   2.221   7.276 -0.0177 -0.2384 -0.3006
 2503SOL    HW118971   3.986   2.129   7.286 -0.5702  0.2156  2.6619
 2503SOL    HW218972   3.935   2.259   7.233 -2.0993 -0.6722  2.9907
 2504SOL     OW18973   4.545   1.947   4.867 -0.5952 -0.1480 -0.4627
 2504SOL    HW118974   4.558   2.039   4.887 -1.6891  0.0098 -0.4347
 2504SOL    HW218975   4.457   1.933   4.831 -1.2600 -1.1105  1.5138
 2505SOL     OW18976   0.296   0.426   3.712 -0.0099  0.0079 -0.1772
 2505SOL    HW118977   0.289   0.341   3.667 -0.6289 -0.1773  0.2666
 2505SOL    HW218978   0.206   0.456   3.703 -0.2295 -0.4763  0.4144
 2506SOL     OW18979   0.159   4.545  14.715  0.9634  0.1640  0.0852
 2506SOL    HW118980   0.202   4.551  14.630 -0.2526 -2.7230 -0.7277
 2506SOL    HW218981   0.211   4.485  14.768  0.2033 -0.9264 -0.3954
 2507SOL     OW18982   1.811   4.559   4.208  0.2542  0.9133 -0.7305
 2507SOL    HW118983   1.818   4.621   4.135  1.1627  0.1029 -1.3269
 2507SOL    HW218984   1.801   4.478   4.158  1.1661 -0.1442  0.7815
 2508SOL     OW18985   2.864   3.362   2.852  0.3880 -0.1063 -0.5703
 2508SOL    HW118986   2.776   3.347   2.818  0.8687 -0.1294 -1.7786
 2508SOL    HW218987   2.839   3.356   2.945  0.7499 -1.1039 -0.5416
 2509SOL     OW18988   3.953   0.877   6.467 -0.5682  0.1576  0.9870
 2509SOL    HW118989   3.932   0.897   6.558 -1.7679 -0.4214  0.8408
 2509SOL    HW218990   3.867   0.884   6.425 -0.4418  0.3059  0.7507
 2510SOL     OW18991   4.381   4.406   3.890  0.1378 -0.1665  0.3372
 2510SOL    HW118992   4.415   4.324   3.856 -1.4520 -1.1326  1.0298
 2510SOL    HW218993   4.288   4.402   3.865  0.6126 -0.7500 -1.3099
 2511SOL     OW18994   0.495   2.061   6.610 -0.1866  0.7011  0.0144
 2511SOL    HW118995   0.505   2.028   6.699 -1.6370  1.7831  0.5685
 2511SOL    HW218996   0.477   1.979   6.563 -0.8048  0.2522  1.0381
 2512SOL     OW18997   2.740   4.532   6.265  0.1451 -0.2833 -0.4244
 2512SOL    HW118998   2.646   4.546   6.278  0.3254  1.5226 -1.0955
 2512SOL    HW218999   2.741   4.440   6.237  0.9224 -0.7119  0.9813
 2513SOL     OW19000   2.235   2.046   8.739 -0.0736 -0.1252 -0.3148
 2513SOL    HW119001   2.306   1.982   8.739 -0.1200 -0.1770 -0.3394
 2513SOL    HW219002   2.267   2.129   8.772  0.0718 -1.2004  2.2498
 2514SOL     OW19003   1.329   3.711   2.152 -0.2712 -0.2344  0.4433
 2514SOL    HW119004   1.273   3.764   2.096  1.4586  0.2526 -0.8274
 2514SOL    HW219005   1.274   3.687   2.227  1.6536 -1.1605  1.5611
 2515SOL     OW19006   2.710   0.852   8.733  0.0871  0.2079 -0.6156
 2515SOL    HW119007   2.754   0.807   8.804  2.2550  1.3146 -1.2657
 2515SOL    HW219008   2.697   0.942   8.765  0.4368  1.0311 -2.7397
 2516SOL     OW19009   2.044   0.940   4.453  1.0042 -0.9036 -0.4520
 2516SOL    HW119010   2.011   0.938   4.543  1.1849 -1.8485 -0.4067
 2516SOL    HW219011   2.109   0.872   4.469  0.4588 -0.8016  2.1274
 2517SOL     OW19012   4.184   3.564   0.285  0.2740  0.0905  0.6097
 2517SOL    HW119013   4.243   3.513   0.229  0.3526  0.4982  0.3169
 2517SOL    HW219014   4.102   3.537   0.244  1.1373  2.6683 -2.8606
 2518SOL     OW19015   3.787   1.122  15.015 -0.0374 -0.2350  0.1040
 2518SOL    HW119016   3.717   1.156  14.961 -0.0305 -1.2398 -0.5408
 2518SOL    HW219017   3.854   1.104  14.949 -1.0617 -0.5897 -0.8293
 2519SOL     OW19018   0.814   3.018   1.494 -0.1117  0.4925  0.2694
 2519SOL    HW119019   0.840   2.926   1.496  1.3220  0.8819 -0.1753
 2519SOL    HW219020   0.811   3.036   1.400  0.3023 -1.4462 -0.1056
 2520SOL     OW19021   2.585   0.413   0.762  0.5828  0.1389  0.2183
 2520SOL    HW119022   2.651   0.413   0.692  1.8760 -5.5783  1.5125
 2520SOL    HW219023   2.601   0.329   0.805 -0.3961  0.3094  0.9208
 2521SOL     OW19024   0.066   2.713  17.178  0.3034 -0.0969 -0.4624
 2521SOL    HW119025   0.103   2.789  17.134  2.4619  0.0237  1.5632
 2521SOL    HW219026   0.019   2.756  17.251  0.5780  0.3320 -0.5383
 2522SOL     OW19027   0.695   3.898   6.746 -0.0430  0.5097 -0.4223
 2522SOL    HW119028   0.622   3.939   6.701 -0.6968 -1.5809 -1.2423
 2522SOL    HW219029   0.757   3.891   6.673 -0.6011 -0.4449 -0.7946
 2523SOL     OW19030   4.378   0.340   3.239 -0.1303  0.2274  0.5231
 2523SOL    HW119031   4.453   0.364   3.185  0.8455  2.1790  2.7324
 2523SOL    HW219032   4.312   0.395   3.196 -0.2777 -0.0341  0.4163
 2524SOL     OW19033   0.915   3.910  15.769  0.2938 -0.5622 -0.2987
 2524SOL    HW119034   0.921   3.830  15.717  0.3962 -1.9696  1.8665
 2524SOL    HW219035   1.006   3.913  15.799  0.3664 -1.4526 -0.4354
 2525SOL     OW19036   4.072   4.688   6.106  0.4099 -0.1440 -0.3006
 2525SOL    HW119037   4.014   4.679   6.031 -1.6840  1.2655  1.1261
 2525SOL    HW219038   4.151   4.665   6.059  0.2054  2.4164 -1.9184
 2526SOL     OW19039   3.369   3.585   5.744  0.4861  0.6322 -0.1201
 2526SOL    HW119040   3.396   3.668   5.705  0.6555  0.6305 -0.0063
 2526SOL    HW219041   3.370   3.616   5.835  1.9791 -0.1527  0.1328
 2527SOL     OW19042   4.241   2.396   0.506  0.2650  0.0361 -0.1903
 2527SOL    HW119043   4.312   2.456   0.531  1.8261 -0.7505 -2.7504
 2527SOL    HW219044   4.214   2.450   0.432  0.8024  0.1280 -0.3248
 2528SOL     OW19045   0.254   2.211   9.350  0.4785  0.3813  1.0945
 2528SOL    HW119046   0.164   2.182   9.344  0.6964 -0.4384  1.8073
 2528SOL    HW219047   0.255   2.268   9.427  0.2766 -0.1070  1.4587
 2529SOL     OW19048   0.120   2.662   4.223 -0.2718 -0.6543  0.4090
 2529SOL    HW119049   0.085   2.745   4.190  0.7946  0.2546  1.5483
 2529SOL    HW219050   0.053   2.642   4.288 -1.2144  2.7098  0.5006
 2530SOL     OW19051   2.025   3.713   7.737  0.3775  0.5545 -0.0773
 2530SOL    HW119052   1.950   3.734   7.793  0.0032  2.1132 -1.1801
 2530SOL    HW219053   1.979   3.665   7.668  1.4189  0.5517 -0.7761
 2531SOL     OW19054   4.673   4.630  16.460  0.4049  0.2758 -0.1324
 2531SOL    HW119055   4.665   4.542  16.422  3.0645 -0.3971  0.8126
 2531SOL    HW219056   0.003   4.675  16.394 -0.1999  1.5021  0.2182
 2532SOL     OW19057   2.586   4.196  17.042 -0.7142 -0.0251  0.2704
 2532SOL    HW119058   2.559   4.149  17.122 -1.8708 -1.1144 -0.7462
 2532SOL    HW219059   2.560   4.286  17.060 -2.0925 -0.4743  0.5339
 2533SOL     OW19060   1.603   3.214   7.138  0.1637  0.2536 -0.5626
 2533SOL    HW119061   1.619   3.163   7.058 -0.4810 -0.2831 -0.3478
 2533SOL    HW219062   1.580   3.148   7.204  0.5140  0.1056 -0.5889
 2534SOL     OW19063   1.926   4.713   0.325  0.4472  0.6300  1.4075
 2534SOL    HW119064   1.988   4.691   0.254 -0.7338 -1.0889  0.8925
 2534SOL    HW219065   1.852   4.658   0.300  2.8729 -1.6182 -0.9272
 2535SOL     OW19066   3.945   2.282   2.465  0.0688  0.3738  0.0061
 2535SOL    HW119067   3.907   2.215   2.522 -1.0758 -0.9675 -2.3477
 2535SOL    HW219068   4.027   2.247   2.432  0.4779  0.3297  1.0730
 2536SOL     OW19069   0.824   0.685   2.989  0.3057 -0.2457 -0.2768
 2536SOL    HW119070   0.907   0.656   2.950  1.4370  2.6608  0.0050
 2536SOL    HW219071   0.860   0.763   3.032 -0.0440 -0.2150 -0.0484
 2537SOL     OW19072   1.906   3.624  15.796  0.1082 -0.2808  0.4792
 2537SOL    HW119073   1.920   3.649  15.704  1.4504 -1.3017  0.3931
 2537SOL    HW219074   1.819   3.657  15.820  0.1894 -1.3107  2.1723
 2538SOL     OW19075   1.127   4.300   7.425  0.0646  0.4887  0.4377
 2538SOL    HW119076   1.044   4.258   7.449 -0.4831  1.5696  0.4639
 2538SOL    HW219077   1.199   4.239   7.437  0.6153  1.5065  2.3530
 2539SOL     OW19078   2.599   4.403   6.865  0.1590 -0.2621 -0.0983
 2539SOL    HW119079   2.577   4.378   6.955  0.5789 -1.0054 -0.1955
 2539SOL    HW219080   2.688   4.369   6.871 -0.0248 -0.2838  2.3225
 2540SOL     OW19081   4.602   0.278  10.261  0.5553  0.2960  0.1836
 2540SOL    HW119082   4.662   0.261  10.189  0.0914  0.1661 -0.1728
 2540SOL    HW219083   4.523   0.242  10.220  0.6659  1.4261 -0.9886
 2541SOL     OW19084   2.017   2.587  11.480  0.1634  0.8358 -0.4265
 2541SOL    HW119085   2.089   2.526  11.498 -1.3125 -0.4158  1.3026
 2541SOL    HW219086   2.063   2.669  11.499  1.4738 -0.3066  1.4102
 2542SOL     OW19087   2.907   3.704  13.363  0.0852 -0.0013  0.1498
 2542SOL    HW119088   2.937   3.625  13.319 -1.4407 -0.2381 -0.4822
 2542SOL    HW219089   2.983   3.751  13.329  0.2195  0.1429  0.6518
 2543SOL     OW19090   1.170   4.479   4.456 -0.1779 -0.1236  0.0255
 2543SOL    HW119091   1.109   4.549   4.480 -0.8396 -0.8930  0.5902
 2543SOL    HW219092   1.136   4.454   4.370 -1.8919 -0.1539  0.7042
 2544SOL     OW19093   0.704   0.703   1.254 -0.5746 -0.3928 -0.3294
 2544SOL    HW119094   0.709   0.797   1.274  1.2221 -0.5821  0.1203
 2544SOL    HW219095   0.770   0.665   1.312  0.0247 -1.4777 -1.7306
 2545SOL     OW19096   1.348   3.792   9.361 -0.0432 -0.7799 -0.7768
 2545SOL    HW119097   1.391   3.832   9.286 -0.4812 -0.3486 -0.7951
 2545SOL    HW219098   1.257   3.805   9.336 -0.3572  1.9348  1.9203
 2546SOL     OW19099   1.079   3.845   9.317 -0.0222 -0.3684 -0.0153
 2546SOL    HW119100   1.024   3.922   9.328  0.3447  0.0272 -0.9303
 2546SOL    HW219101   1.026   3.771   9.345  2.9816 -3.3454 -2.1109
 2547SOL     OW19102   1.322   1.993   7.913 -0.5011  0.6673  0.1823
 2547SOL    HW119103   1.396   2.051   7.931  1.5641 -2.2048  0.9100
 2547SOL    HW219104   1.260   2.046   7.863 -1.2114 -0.9511 -0.6475
 2548SOL     OW19105   0.493   4.339   6.918 -0.4298  0.1736 -0.3966
 2548SOL    HW119106   0.427   4.344   6.849  0.3681 -2.5766 -1.3285
 2548SOL    HW219107   0.534   4.259   6.886  0.9443  0.6892  0.0776
 2549SOL     OW19108   2.805   1.880   4.644  0.1169 -0.2963 -0.0007
 2549SOL    HW119109   2.851   1.948   4.596  0.5185 -0.1731  0.5648
 2549SOL    HW219110   2.754   1.830   4.580 -1.2780 -0.6107  1.3430
 2550SOL     OW19111   1.970   2.531   7.258 -0.1807  0.1387  0.0770
 2550SOL    HW119112   2.058   2.564   7.241  0.1924 -1.2187 -0.6433
 2550SOL    HW219113   1.979   2.484   7.341  2.3056 -1.3655 -1.0534
 2551SOL     OW19114   1.460   4.379   5.401  0.2214  0.3429  0.1869
 2551SOL    HW119115   1.547   4.406   5.428 -0.6119  1.8387  1.3911
 2551SOL    HW219116   1.469   4.303   5.345 -1.1518  2.0609 -2.3868
 2552SOL     OW19117   2.889   3.238   4.457  0.0553 -0.1502 -0.4830
 2552SOL    HW119118   2.821   3.305   4.457 -1.2113 -1.4715  2.9206
 2552SOL    HW219119   2.851   3.167   4.406 -0.4119  0.1734 -0.5892
 2553SOL     OW19120   2.206   0.549  14.356  0.1861 -1.0345  0.2702
 2553SOL    HW119121   2.269   0.477  14.354  0.5710 -0.6804 -0.3611
 2553SOL    HW219122   2.261   0.625  14.374  0.1654 -0.0886 -3.7065
 2554SOL     OW19123   1.568   0.147  10.688 -0.2600  0.3176 -0.2735
 2554SOL    HW119124   1.600   0.063  10.720  0.5026  0.2828 -1.1211
 2554SOL    HW219125   1.624   0.155  10.611 -1.2143  0.2632 -0.9749
 2555SOL     OW19126   4.719   0.248   8.336  0.1075 -0.7582  0.3453
 2555SOL    HW119127   0.004   0.235   8.241 -0.8206 -1.9643  0.4406
 2555SOL    HW219128   0.008   0.159   8.368  3.5902 -0.1703  0.7122
 2556SOL     OW19129   4.451   2.632   7.412 -0.1073  0.3392 -0.4633
 2556SOL    HW119130   4.545   2.613   7.417 -0.4313 -1.1075  0.2918
 2556SOL    HW219131   4.425   2.584   7.333  1.3176  0.2575 -0.8712
 2557SOL     OW19132   3.328   3.150   4.552 -0.5887  0.4621 -0.4858
 2557SOL    HW119133   3.414   3.192   4.556 -0.4403 -0.0162  1.2814
 2557SOL    HW219134   3.327   3.136   4.458 -0.9902  0.9431 -0.5569
 2558SOL     OW19135   0.982   3.864   4.324  0.0518 -0.1947  0.2497
 2558SOL    HW119136   1.046   3.813   4.274 -1.2848 -0.5084 -1.1255
 2558SOL    HW219137   0.956   3.803   4.394 -0.2054 -1.6073 -1.0692
 2559SOL     OW19138   3.537   1.196   3.228 -0.0431 -0.5265 -0.2385
 2559SOL    HW119139   3.613   1.139   3.234 -0.7154 -1.3599  0.3336
 2559SOL    HW219140   3.567   1.269   3.174  0.7470 -0.6002  0.1082
 2560SOL     OW19141   4.680   3.543   3.623 -0.2636  0.4313 -0.0019
 2560SOL    HW119142   0.013   3.559   3.698  0.8169 -0.9081 -0.5229
 2560SOL    HW219143   4.627   3.468   3.650 -0.2535  1.1181  1.9328
 2561SOL     OW19144   0.861   1.308   1.727 -0.5970 -0.1495  0.3165
 2561SOL    HW119145   0.865   1.315   1.631 -1.5700  2.8350  0.4714
 2561SOL    HW219146   0.943   1.348   1.757 -2.1109  1.0514  2.8467
 2562SOL     OW19147   0.844   2.874  10.226 -0.0560  0.6124 -0.5436
 2562SOL    HW119148   0.934   2.868  10.195  0.6461  1.8367  1.2854
 2562SOL    HW219149   0.806   2.797  10.183 -0.3829  0.6773 -0.3709
 2563SOL     OW19150   3.604   2.968   3.897 -0.1059  0.4600  0.6828
 2563SOL    HW119151   3.573   3.011   3.976  1.8572 -0.0262  1.7252
 2563SOL    HW219152   3.606   3.038   3.831 -3.2183 -0.7977 -0.7607
 2564SOL     OW19153   3.411   1.163   4.485  0.3015  0.1042  0.3476
 2564SOL    HW119154   3.468   1.229   4.526  0.0541  0.5543 -0.0407
 2564SOL    HW219155   3.446   1.166   4.396 -1.7032  0.5832 -0.4211
 2565SOL     OW19156   3.806   0.730   6.167 -0.2877 -0.2616 -0.5097
 2565SOL    HW119157   3.841   0.642   6.179 -2.5179 -1.1014 -0.0383
 2565SOL    HW219158   3.776   0.744   6.257  0.4900  2.2476 -0.6497
 2566SOL     OW19159   1.559   3.919   4.066 -0.4922 -0.1195 -0.0826
 2566SOL    HW119160   1.571   3.858   4.139  1.5432 -1.4821 -1.5522
 2566SOL    HW219161   1.557   3.863   3.988 -0.3626  1.9068 -1.5533
 2567SOL     OW19162   1.624   3.305   3.721 -0.4459 -0.0709 -0.0746
 2567SOL    HW119163   1.577   3.223   3.734  2.7103 -1.9936 -0.8171
 2567SOL    HW219164   1.678   3.304   3.800 -0.3707  1.8981 -0.1070
 2568SOL     OW19165   2.475   1.333   5.887 -0.6442  0.3736  0.4573
 2568SOL    HW119166   2.446   1.401   5.949 -0.0122 -0.6646  1.8743
 2568SOL    HW219167   2.393   1.287   5.868  0.5663 -1.1975 -0.9488
 2569SOL     OW19168   0.721   1.084   2.350  0.1871  0.0004  0.2266
 2569SOL    HW119169   0.793   1.146   2.347  0.5222 -0.6039 -3.5738
 2569SOL    HW219170   0.667   1.121   2.281 -0.4324 -0.9785  0.1793
 2570SOL     OW19171   1.097   1.837   7.573  0.6938  0.3458 -0.1330
 2570SOL    HW119172   1.141   1.792   7.645  0.4116 -0.7625 -0.6496
 2570SOL    HW219173   1.112   1.929   7.595 -1.0766  0.3444  1.0154
 2571SOL     OW19174   0.802   1.967  17.506 -0.1287  0.1884 -0.0137
 2571SOL    HW119175   0.773   2.055  17.531 -1.5213 -0.6820  1.4167
 2571SOL    HW219176   0.836   1.928  17.587 -0.4087  0.3876  0.1989
 2572SOL     OW19177   0.076   3.392   5.934 -0.3720 -0.9637 -0.5948
 2572SOL    HW119178   0.157   3.342   5.925  0.7789  0.7177  0.3515
 2572SOL    HW219179   0.096   3.466   5.992  1.9398 -0.7035 -1.7054
 2573SOL     OW19180   1.646   0.857   4.135 -0.8873  0.7957  0.1593
 2573SOL    HW119181   1.653   0.794   4.063  0.5913  0.2984  0.7216
 2573SOL    HW219182   1.596   0.808   4.200 -0.2138 -0.9476 -0.6403
 2574SOL     OW19183   3.049   0.263   1.148  0.2066 -0.1789 -0.0553
 2574SOL    HW119184   3.046   0.358   1.132  1.0715 -0.3705 -1.3870
 2574SOL    HW219185   3.132   0.259   1.196  1.2971 -1.1940 -2.0151
 2575SOL     OW19186   0.284   1.488   5.768 -0.4896 -0.5666  0.0611
 2575SOL    HW119187   0.322   1.420   5.825 -0.8756  0.2775  1.3409
 2575SOL    HW219188   0.357   1.550   5.765 -0.5818 -0.3205  2.6113
 2576SOL     OW19189   2.844   4.710   0.514  0.0084 -0.1065 -0.6261
 2576SOL    HW119190   2.853   4.692   0.421 -0.9578  1.9647 -1.1254
 2576SOL    HW219191   2.937   0.000   0.529 -0.2732  0.1833  0.8840
 2577SOL     OW19192   0.857   4.056  15.520 -0.2532  0.7060 -0.8719
 2577SOL    HW119193   0.769   4.019  15.528  0.3832 -0.9027 -1.1429
 2577SOL    HW219194   0.900   4.038  15.604  1.4007  1.1122 -1.6258
 2578SOL     OW19195   3.515   1.264   4.796 -0.0598 -0.1690 -0.5548
 2578SOL    HW119196   3.463   1.191   4.831  1.4602 -1.3275 -0.7030
 2578SOL    HW219197   3.468   1.342   4.823  1.6259  0.4318  0.6521
 2579SOL     OW19198   0.016   3.830   2.918  0.7650  0.0679  0.2627
 2579SOL    HW119199   0.056   3.745   2.901 -4.0767 -1.9730 -0.7806
 2579SOL    HW219200   4.677   3.804   2.986  0.5925 -0.4940 -0.1079
 2580SOL     OW19201   4.152   3.798   6.759  0.0839 -0.4694  0.0444
 2580SOL    HW119202   4.083   3.831   6.701 -1.2344  0.2726  2.0121
 2580SOL    HW219203   4.184   3.725   6.706 -0.5472 -0.5668 -0.1956
 2581SOL     OW19204   4.513   0.158  11.251  0.3512  0.4719  0.1936
 2581SOL    HW119205   4.559   0.131  11.172 -0.1002  0.8339 -0.1952
 2581SOL    HW219206   4.579   0.188  11.314  2.0463  0.0299 -1.3731
 2582SOL     OW19207   1.090   0.333  13.279 -0.4781  0.3091 -0.7080
 2582SOL    HW119208   1.138   0.318  13.197  0.2071  0.5062 -0.3462
 2582SOL    HW219209   1.157   0.376  13.333  0.2220  1.0020 -2.1135
 2583SOL     OW19210   1.008   1.810   7.864  0.2660 -0.1881 -0.4549
 2583SOL    HW119211   1.007   1.741   7.930 -0.8365  0.7490  0.4999
 2583SOL    HW219212   1.102   1.829   7.870 -0.0168  1.2973 -0.6750
 2584SOL     OW19213   2.347   1.894   6.103 -0.9488  0.6540  0.3573
 2584SOL    HW119214   2.366   1.908   6.196 -0.7437 -1.1188  0.5872
 2584SOL    HW219215   2.276   1.956   6.087 -1.2443  0.2060 -0.0866
 2585SOL     OW19216   1.026   0.726   4.631  0.0623 -0.2971 -0.3175
 2585SOL    HW119217   1.029   0.821   4.623  0.1840 -0.2622  0.1840
 2585SOL    HW219218   0.989   0.708   4.717  0.7688 -1.1343 -0.1794
 2586SOL     OW19219   0.959   0.504   6.130 -0.1678  0.4003  0.2970
 2586SOL    HW119220   1.037   0.543   6.092  0.7251 -1.3167  0.3514
 2586SOL    HW219221   1.000   0.421   6.156  0.0607  0.5988  0.5764
 2587SOL     OW19222   4.520   2.665   5.795  0.2823  0.6791 -0.3104
 2587SOL    HW119223   4.447   2.696   5.848 -1.2642  0.1850 -2.1482
 2587SOL    HW219224   4.492   2.655   5.704 -0.4041  2.2908 -0.2713
 2588SOL     OW19225   4.447   1.705   1.995 -0.0343  0.5960 -0.0248
 2588SOL    HW119226   4.465   1.686   1.903 -0.3949  0.9853 -0.1701
 2588SOL    HW219227   4.442   1.618   2.036 -0.1389  0.5011 -0.2416
 2589SOL     OW19228   3.187   3.987  17.032  0.0426 -0.3137 -0.2196
 2589SOL    HW119229   3.270   3.943  17.012 -1.0622 -2.3894 -0.2237
 2589SOL    HW219230   3.207   4.036  17.111 -0.4854  0.3910 -0.5219
 2590SOL     OW19231   4.126   1.951   6.732  0.3009 -0.2163 -0.4305
 2590SOL    HW119232   4.188   1.921   6.798  0.5986  1.1325 -0.0978
 2590SOL    HW219233   4.054   1.981   6.788 -0.7328 -2.4503 -0.5410
 2591SOL     OW19234   1.663   2.098   6.971 -0.2399 -0.1374 -0.2226
 2591SOL    HW119235   1.678   2.036   7.042 -2.2597 -1.9705 -1.3940
 2591SOL    HW219236   1.648   2.176   7.025 -0.3238 -0.0411 -0.3859
 2592SOL     OW19237   1.437   1.454   2.933  0.0795  0.3875  0.4837
 2592SOL    HW119238   1.432   1.363   2.962  0.6348  0.4103  0.6458
 2592SOL    HW219239   1.532   1.459   2.933  0.0287  1.3767  0.8744
 2593SOL     OW19240   0.902   0.733   1.058 -0.3573 -0.3181 -0.0433
 2593SOL    HW119241   0.815   0.768   1.040 -0.0257  1.1811  1.2884
 2593SOL    HW219242   0.892   0.693   1.144  0.2362  1.4599  0.8464
 2594SOL     OW19243   0.055   1.582   1.965  0.2938  0.5155 -0.3209
 2594SOL    HW119244   0.016   1.496   1.948  0.5141  0.5563 -1.0275
 2594SOL    HW219245   0.051   1.594   2.060 -0.7276  0.1970 -0.3222
 2595SOL     OW19246   0.480   1.762   2.139 -0.5328  0.3594 -0.2120
 2595SOL    HW119247   0.513   1.744   2.227  1.7392  1.0935 -0.9332
 2595SOL    HW219248   0.468   1.674   2.104  1.2348 -0.2519  0.7257
 2596SOL     OW19249   3.407   3.977   3.820  0.3567  0.0612 -0.1051
 2596SOL    HW119250   3.392   3.986   3.914 -0.4451  1.8373 -0.4047
 2596SOL    HW219251   3.313   3.980   3.808  0.2809 -0.5703  0.3588
 2597SOL     OW19252   0.128   3.106  11.330  0.5117 -0.5212  0.4591
 2597SOL    HW119253   0.213   3.099  11.373  1.5085  2.6371 -0.9983
 2597SOL    HW219254   0.154   3.150  11.249 -2.0680  0.0599 -0.0549
 2598SOL     OW19255   3.649   4.288   4.787  0.2345  0.2659  0.4619
 2598SOL    HW119256   3.659   4.203   4.828 -0.7350 -0.5841 -1.0688
 2598SOL    HW219257   3.715   4.337   4.836  0.0178  0.5116  0.5109
 2599SOL     OW19258   4.591   3.706   9.788 -0.4045 -0.3603 -0.0222
 2599SOL    HW119259   4.595   3.622   9.743 -0.5734 -1.3232  1.7409
 2599SOL    HW219260   4.497   3.719   9.791 -0.4840 -0.7860 -0.7233
 2600SOL     OW19261   3.066   2.757  13.049  0.2915  0.0726 -0.1098
 2600SOL    HW119262   3.000   2.688  13.043 -0.9629  1.4457 -2.0935
 2600SOL    HW219263   3.044   2.814  12.975  0.8258  1.0095  0.4564
 2601SOL     OW19264   3.489   1.607   3.740  0.4267 -0.2715  0.4968
 2601SOL    HW119265   3.449   1.591   3.826  1.3034 -0.0713  0.9394
 2601SOL    HW219266   3.562   1.657   3.775  1.7919 -0.7719 -1.6627
 2602SOL     OW19267   0.824   4.067   8.278 -0.4427  0.7082 -0.2356
 2602SOL    HW119268   0.850   4.132   8.343  0.3300 -0.4640  0.6265
 2602SOL    HW219269   0.809   3.991   8.334 -0.2071 -1.3959 -3.0439
 2603SOL     OW19270   1.619   1.897   7.844 -0.1575 -0.7020 -0.1312
 2603SOL    HW119271   1.692   1.959   7.846 -1.1132  0.3515  2.5456
 2603SOL    HW219272   1.547   1.943   7.802  0.6020 -0.7275 -1.4447
 2604SOL     OW19273   0.690   0.174  17.609 -0.1350  0.3101 -0.6616
 2604SOL    HW119274   0.736   0.164  17.526 -0.6378  0.2607 -0.9368
 2604SOL    HW219275   0.616   0.231  17.588  0.1462  0.3846 -1.4537
 2605SOL     OW19276   2.708   1.765   8.534 -0.1938 -0.1140 -0.7737
 2605SOL    HW119277   2.746   1.709   8.466  0.1861  0.5226 -1.0873
 2605SOL    HW219278   2.761   1.744   8.611 -0.8800 -1.7135 -0.7558
 2606SOL     OW19279   1.443   2.550   9.262 -0.3477 -0.7419  0.0720
 2606SOL    HW119280   1.434   2.494   9.185 -1.3319 -0.0210 -0.3426
 2606SOL    HW219281   1.504   2.620   9.239 -0.0667 -0.7289  0.8586
 2607SOL     OW19282   2.817   3.331   1.982  0.0779 -0.5294  0.0104
 2607SOL    HW119283   2.812   3.269   2.055 -1.7115  1.1497  1.3297
 2607SOL    HW219284   2.893   3.386   1.995  0.8149 -1.7438  0.8345
 2608SOL     OW19285   4.314   0.382   7.158  0.5584  0.3014  0.6254
 2608SOL    HW119286   4.375   0.455   7.166  2.0309 -1.0587  1.7245
 2608SOL    HW219287   4.243   0.404   7.218 -0.6486 -0.0621 -0.6675
 2609SOL     OW19288   4.215   4.655  17.605 -0.3841 -0.1385  0.0142
 2609SOL    HW119289   4.231   4.567  17.638  2.7117  0.1415 -0.8212
 2609SOL    HW219290   4.128   4.638  17.570 -0.6833  1.4722 -0.0558
 2610SOL     OW19291   2.661   0.259  15.001 -0.4591  0.1893  0.2977
 2610SOL    HW119292   2.614   0.298  15.075  0.0583 -0.9000  1.2156
 2610SOL    HW219293   2.592   0.242  14.937  1.0266 -0.9665 -0.9855
 2611SOL     OW19294   2.977   2.202  17.604  0.8603  0.3771  0.3710
 2611SOL    HW119295   2.995   2.155  17.685  0.5993 -1.9533 -0.9336
 2611SOL    HW219296   3.062   2.243  17.590  1.1820 -0.8461 -1.3222
 2612SOL     OW19297   2.201   1.141  11.470  0.8817 -0.0093 -0.2937
 2612SOL    HW119298   2.205   1.214  11.408 -2.3854  1.6778  1.4612
 2612SOL    HW219299   2.112   1.110  11.452  1.1735 -1.5965  1.0002
 2613SOL     OW19300   2.389   2.796   7.213  0.0797  0.3527  0.2452
 2613SOL    HW119301   2.320   2.745   7.169 -0.7093  0.2235  1.6356
 2613SOL    HW219302   2.339   2.817   7.292 -0.3717  1.2586 -0.2737
 2614SOL     OW19303   4.538   0.763  15.651  0.3199  0.7319  0.2150
 2614SOL    HW119304   4.629   0.790  15.655  0.4966 -0.0424  1.3054
 2614SOL    HW219305   4.505   0.841  15.696 -0.5336  1.1039 -1.0373
 2615SOL     OW19306   1.220   0.696   7.119  0.5288  0.4330 -0.0826
 2615SOL    HW119307   1.313   0.674   7.125  0.4411  0.1071  0.0485
 2615SOL    HW219308   1.176   0.622   7.161 -0.9880  1.5400  0.2700
 2616SOL     OW19309   0.221   3.643   8.840 -0.4828  0.4168 -0.0624
 2616SOL    HW119310   0.177   3.567   8.878  3.1050 -1.3834  0.5083
 2616SOL    HW219311   0.148   3.688   8.797  1.1599  2.6824 -0.5006
 2617SOL     OW19312   0.610   3.143  13.446 -0.0801  0.2454  0.2947
 2617SOL    HW119313   0.540   3.199  13.479 -0.4564  0.2110 -0.4520
 2617SOL    HW219314   0.567   3.058  13.459 -1.4956  0.9524  0.2373
 2618SOL     OW19315   0.669   0.397   9.236 -0.3151 -0.2006  0.2702
 2618SOL    HW119316   0.599   0.336   9.211 -1.3874  1.4357 -0.7176
 2618SOL    HW219317   0.655   0.466   9.171 -2.8029  0.3484  1.3936
 2619SOL     OW19318   1.679   0.351   6.216  0.1459  0.5216  0.8569
 2619SOL    HW119319   1.644   0.387   6.134  1.8950  1.1352  0.3721
 2619SOL    HW219320   1.663   0.419   6.281  1.2839  1.6560 -0.0388
 2620SOL     OW19321   0.319   0.942   9.707  0.1276 -0.3132 -0.0227
 2620SOL    HW119322   0.254   0.888   9.662  1.2567 -1.8270  0.1665
 2620SOL    HW219323   0.347   1.002   9.638 -0.3196 -1.8248 -1.5082
 2621SOL     OW19324   2.541   4.602   8.834  0.5567  0.7684  0.5214
 2621SOL    HW119325   2.566   4.676   8.890 -2.3969  2.2125 -0.0394
 2621SOL    HW219326   2.625   4.564   8.808 -0.2369 -1.2671  1.0054
 2622SOL     OW19327   2.571   1.747   7.471 -0.4312  0.1462  0.2060
 2622SOL    HW119328   2.654   1.703   7.487  0.0819  1.5010  1.2946
 2622SOL    HW219329   2.557   1.738   7.377 -0.3003  1.3259  0.0670
 2623SOL     OW19330   2.655   2.376  10.116 -0.6937  0.0277  0.3944
 2623SOL    HW119331   2.720   2.349  10.051 -2.1212  1.7850 -1.7686
 2623SOL    HW219332   2.665   2.471  10.112  1.3760 -0.0848  3.0348
 2624SOL     OW19333   4.026   1.137   5.454 -0.2399  0.0519 -0.5776
 2624SOL    HW119334   4.042   1.081   5.377 -0.7025  1.3175 -1.6034
 2624SOL    HW219335   4.117   1.157   5.476  0.0772 -0.2028 -1.6277
 2625SOL     OW19336   1.118   0.893   4.104 -0.4743 -0.4254 -0.2458
 2625SOL    HW119337   1.135   0.973   4.054  3.5080 -1.9795 -1.4066
 2625SOL    HW219338   1.030   0.866   4.079 -1.1736 -0.0983  1.8410
 2626SOL     OW19339   2.891   3.771   3.406 -0.2825 -0.0401  0.6301
 2626SOL    HW119340   2.804   3.742   3.378  0.2859 -0.9270 -0.2056
 2626SOL    HW219341   2.949   3.747   3.333 -1.3216 -0.0127 -0.2044
 2627SOL     OW19342   2.606   3.098   5.673  0.1931 -0.0396  0.1167
 2627SOL    HW119343   2.620   3.063   5.585 -1.1516 -0.3566  0.0302
 2627SOL    HW219344   2.552   3.176   5.661  0.1762  0.1513  1.4108
 2628SOL     OW19345   2.997   2.365   9.149 -0.5527 -0.0892 -0.3710
 2628SOL    HW119346   2.960   2.295   9.201  1.5140 -0.7367  0.2276
 2628SOL    HW219347   3.029   2.431   9.210 -0.2609  1.2838 -1.9869
 2629SOL     OW19348   1.255   3.766   7.933  0.0923  0.0678  0.0929
 2629SOL    HW119349   1.218   3.805   7.854 -0.3253 -2.2338 -0.8435
 2629SOL    HW219350   1.199   3.692   7.954  0.1116  0.7473  2.4874
 2630SOL     OW19351   3.558   2.749   5.213  0.5622 -0.3703 -0.1649
 2630SOL    HW119352   3.560   2.662   5.174  1.9867 -0.6908  0.6411
 2630SOL    HW219353   3.594   2.730   5.300 -0.1063  0.0293  0.2091
 2631SOL     OW19354   1.643   2.187   2.792  0.2868  0.1519  0.6754
 2631SOL    HW119355   1.707   2.117   2.806  1.6924  0.6529 -3.2882
 2631SOL    HW219356   1.565   2.137   2.767  1.0055 -0.0864 -1.0806
 2632SOL     OW19357   3.523   0.627   3.171  0.9963  0.4108  0.1082
 2632SOL    HW119358   3.468   0.549   3.174  0.4808  0.7295 -1.1732
 2632SOL    HW219359   3.507   0.666   3.257 -3.0201 -0.0525 -0.4218
 2633SOL     OW19360   3.333   3.967   6.453 -0.1283 -0.3379 -0.3837
 2633SOL    HW119361   3.288   3.899   6.503  1.6254 -1.1306  0.1065
 2633SOL    HW219362   3.356   4.028   6.523  0.0804  0.0727 -0.8063
 2634SOL     OW19363   0.966   2.072   7.925 -1.1842 -0.4295  0.0699
 2634SOL    HW119364   0.979   2.016   8.002 -0.8512 -0.1055  0.2514
 2634SOL    HW219365   0.962   2.003   7.859  0.5998  0.6621 -1.1858
 2635SOL     OW19366   1.810   0.118   8.955  0.1194  1.1483 -0.0982
 2635SOL    HW119367   1.889   0.121   9.009  1.5202  0.2243 -2.0760
 2635SOL    HW219368   1.767   0.053   9.010  0.7451 -0.2375 -1.2398
 2636SOL     OW19369   2.843   4.364   9.524  0.5344  0.3903  0.2789
 2636SOL    HW119370   2.899   4.406   9.458 -1.0723  3.9523  1.1569
 2636SOL    HW219371   2.906   4.364   9.596 -0.0045 -2.1838  0.7336
 2637SOL     OW19372   1.487   4.057   4.651 -0.1471 -0.0568  0.0499
 2637SOL    HW119373   1.559   4.097   4.602  1.0298 -1.0280  0.9911
 2637SOL    HW219374   1.484   3.974   4.605 -3.6527 -0.1268  0.4080
 2638SOL     OW19375   4.086   1.417   8.152  0.1964 -0.3220  0.4280
 2638SOL    HW119376   4.096   1.323   8.170  0.5068 -0.4036 -0.1519
 2638SOL    HW219377   3.992   1.431   8.141  0.1838 -2.1238 -1.8040
 2639SOL     OW19378   4.303   0.043  10.492 -0.3098  0.7183  0.0327
 2639SOL    HW119379   4.339   0.018  10.408  1.8007  0.7688  0.9236
 2639SOL    HW219380   4.366   0.114  10.506  1.2576 -0.8888  1.0436
 2640SOL     OW19381   4.551   3.872   8.284 -0.2714  0.2951  0.1293
 2640SOL    HW119382   4.580   3.802   8.225 -0.6966 -1.1076  1.5973
 2640SOL    HW219383   4.480   3.907   8.231 -1.1019 -0.0097  1.0545
 2641SOL     OW19384   2.122   2.575   6.888 -0.0356  0.0316  0.0097
 2641SOL    HW119385   2.061   2.501   6.891 -1.0909  0.9209  0.4911
 2641SOL    HW219386   2.095   2.610   6.802 -2.3225 -0.7756  0.4038
 2642SOL     OW19387   2.983   3.683   3.158 -1.0240  0.2673  0.2930
 2642SOL    HW119388   2.918   3.679   3.088 -2.6855 -2.1014  1.9464
 2642SOL    HW219389   3.054   3.641   3.111 -1.3993 -1.5607  1.3682
 2643SOL     OW19390   4.626   0.513   6.097  0.3301 -0.0778  0.1758
 2643SOL    HW119391   4.685   0.575   6.054  2.5002 -1.3181  1.4174
 2643SOL    HW219392   4.665   0.428   6.077  0.2502 -0.1565  0.3584
 2644SOL     OW19393   1.172   3.132   4.547  0.6360 -0.0932 -0.2787
 2644SOL    HW119394   1.184   3.226   4.563 -1.3314  0.2310 -0.6590
 2644SOL    HW219395   1.088   3.115   4.591  0.5083 -0.6542 -0.7411
 2645SOL     OW19396   0.087   1.768   5.568 -0.8988 -0.9397 -0.4098
 2645SOL    HW119397   4.720   1.741   5.553 -1.4900 -0.0277  1.5588
 2645SOL    HW219398   0.135   1.711   5.508 -1.4483 -0.7119 -1.0720
 2646SOL     OW19399   2.980   2.810  12.786  0.7784 -0.0902  0.1495
 2646SOL    HW119400   3.025   2.892  12.762  0.2791 -0.7903 -3.2187
 2646SOL    HW219401   2.888   2.834  12.775  0.1522 -3.4296 -1.7873
 2647SOL     OW19402   2.656   1.891   6.484 -0.2103 -0.0016  0.6688
 2647SOL    HW119403   2.683   1.807   6.521  0.5842  0.2170  0.5851
 2647SOL    HW219404   2.725   1.947   6.520 -0.6831  0.6618  0.5535
 2648SOL     OW19405   0.998   1.024   9.188  0.0875 -0.3370 -0.1398
 2648SOL    HW119406   0.939   1.069   9.248 -2.0502 -2.1920 -0.8444
 2648SOL    HW219407   0.939   1.007   9.114  0.7455 -0.1295 -0.7118
 2649SOL     OW19408   2.668   3.389   4.468  0.4536  0.6815  0.0005
 2649SOL    HW119409   2.577   3.373   4.443  1.1786 -1.5887 -1.1571
 2649SOL    HW219410   2.657   3.410   4.561  2.9592  0.4088  0.3754
 2650SOL     OW19411   0.151   2.245  12.125 -0.2561  0.4466  0.0888
 2650SOL    HW119412   0.072   2.293  12.148  0.0537 -0.6552  3.4404
 2650SOL    HW219413   0.218   2.313  12.128  0.5799 -0.4302  1.7031
 2651SOL     OW19414   1.452   3.485   5.232  0.0371 -0.4756 -0.1194
 2651SOL    HW119415   1.449   3.395   5.262 -0.6454 -0.2382  0.5264
 2651SOL    HW219416   1.405   3.471   5.150  0.1874  1.4430 -0.5345
 2652SOL     OW19417   2.278   2.200  12.822  0.0883  0.1509 -0.1387
 2652SOL    HW119418   2.219   2.125  12.819  0.8185 -0.6056  4.3806
 2652SOL    HW219419   2.341   2.166  12.759  0.8510  1.1556  0.0744
 2653SOL     OW19420   1.965   0.144   5.512 -0.7807  0.5107 -0.0531
 2653SOL    HW119421   1.980   0.190   5.595 -0.1102 -0.3999  0.3259
 2653SOL    HW219422   2.058   0.146   5.491 -0.7214  0.5961  0.2168
 2654SOL     OW19423   3.853   0.108  12.201 -0.7709 -0.2685 -0.1009
 2654SOL    HW119424   3.852   0.137  12.292 -0.2502  1.5900 -0.7049
 2654SOL    HW219425   3.828   0.179  12.143 -0.0453  0.2872  0.2571
 2655SOL     OW19426   3.303   2.632  16.965  0.2934 -0.1571  0.0849
 2655SOL    HW119427   3.238   2.594  16.907  0.6403  0.6791 -0.8533
 2655SOL    HW219428   3.286   2.721  16.933  0.4126 -0.3859 -0.6242
 2656SOL     OW19429   4.696   2.872   9.723  0.1383  0.1131  0.3166
 2656SOL    HW119430   0.051   2.896   9.772  0.7709 -0.9658 -0.1692
 2656SOL    HW219431   4.661   2.801   9.776 -2.4097 -0.3411 -1.9473
 2657SOL     OW19432   0.326   4.088   6.877  0.1087 -0.3308 -0.2017
 2657SOL    HW119433   0.352   4.079   6.969  0.4210 -0.4412 -0.3010
 2657SOL    HW219434   0.252   4.029   6.890  0.8653 -1.1576  0.3704
 2658SOL     OW19435   4.465   4.391   6.604 -0.4662 -0.0985  0.2627
 2658SOL    HW119436   4.407   4.366   6.532 -1.1155 -2.1999  1.5121
 2658SOL    HW219437   4.428   4.337   6.674  0.6534  0.9398  1.6699
 2659SOL     OW19438   1.374   2.867   9.393 -0.4427 -0.3915 -0.4956
 2659SOL    HW119439   1.282   2.893   9.391 -0.5182 -0.3120  4.0025
 2659SOL    HW219440   1.398   2.871   9.301 -3.2488  1.6844 -1.1331
 2660SOL     OW19441   0.680   1.238   9.550 -0.3241 -0.0972 -0.6072
 2660SOL    HW119442   0.741   1.192   9.607 -0.4304  1.3281  0.6598
 2660SOL    HW219443   0.647   1.309   9.605 -0.8874  0.6107 -1.8430
 2661SOL     OW19444   4.163   3.274   4.788 -0.1689 -0.4193  1.0214
 2661SOL    HW119445   4.179   3.351   4.843  2.3946  0.0601 -0.3662
 2661SOL    HW219446   4.109   3.306   4.716  1.5435  0.9014  0.3352
 2662SOL     OW19447   0.400   3.144   3.959  0.5195  0.3197 -0.2718
 2662SOL    HW119448   0.333   3.205   3.990  0.9614  1.5556 -1.7747
 2662SOL    HW219449   0.415   3.180   3.872 -1.6828  0.7616 -0.4737
 2663SOL     OW19450   4.082   3.573   6.245  0.0181 -0.2700 -0.3271
 2663SOL    HW119451   4.078   3.498   6.304 -1.4871  1.3899  1.6894
 2663SOL    HW219452   4.164   3.544   6.206  0.6171  0.6294  0.2868
 2664SOL     OW19453   4.611   1.849   7.706 -0.7180 -0.4594  0.6583
 2664SOL    HW119454   4.573   1.771   7.748  0.2355 -1.8822 -1.1145
 2664SOL    HW219455   4.555   1.860   7.629  0.3766  1.4532  0.1516
 2665SOL     OW19456   2.030   4.418  11.000 -0.1883 -0.1727  0.1201
 2665SOL    HW119457   1.943   4.436  11.036 -0.8437  1.2445 -2.1542
 2665SOL    HW219458   2.015   4.395  10.908 -0.8252  2.0377 -0.3277
 2666SOL     OW19459   0.723   4.616   5.090  0.6853  0.4996  0.0084
 2666SOL    HW119460   0.801   4.565   5.111  0.8041  0.4265 -0.6151
 2666SOL    HW219461   0.713   4.596   4.997 -2.7742 -0.2040  0.5532
 2667SOL     OW19462   0.469   3.662   7.995 -0.2031 -0.3060 -0.2326
 2667SOL    HW119463   0.458   3.754   8.018 -0.3944 -0.4265  0.1662
 2667SOL    HW219464   0.564   3.654   7.991  0.0129  2.1643 -0.0715
 2668SOL     OW19465   1.927   3.869   9.410 -0.1576 -0.0322 -0.5805
 2668SOL    HW119466   1.872   3.824   9.474  0.0222  1.6469  0.7582
 2668SOL    HW219467   1.941   3.951   9.458  1.1280  0.0590 -1.1042
 2669SOL     OW19468   2.717   1.670  13.959  0.2808 -0.4733 -0.0838
 2669SOL    HW119469   2.728   1.617  13.879 -1.6067  0.1266 -0.7388
 2669SOL    HW219470   2.797   1.721  13.966 -1.7057  2.4871  0.8772
 2670SOL     OW19471   2.136   1.232   3.892  0.1337 -0.6235  0.9174
 2670SOL    HW119472   2.130   1.204   3.983 -1.7062 -0.8929  0.7095
 2670SOL    HW219473   2.165   1.150   3.851  1.1030 -0.3777  1.0993
 2671SOL     OW19474   3.087   3.892   1.945  0.0675  0.2527 -0.1373
 2671SOL    HW119475   3.066   3.961   1.881  0.4385 -0.3766 -0.9493
 2671SOL    HW219476   3.003   3.875   1.986  0.1989  2.6823  1.1306
 2672SOL     OW19477   0.442   0.939  14.962 -0.0530 -0.1963  0.4869
 2672SOL    HW119478   0.525   0.894  14.977 -1.0466 -1.4564  2.2566
 2672SOL    HW219479   0.437   0.954  14.868  0.9541 -1.5403  0.2197
 2673SOL     OW19480   0.806   2.439   5.740  0.3000 -0.4391 -0.5635
 2673SOL    HW119481   0.826   2.356   5.782 -0.6711 -0.9677 -1.1286
 2673SOL    HW219482   0.883   2.494   5.749 -0.3919  0.2192  1.4391
 2674SOL     OW19483   1.893   1.965   7.158  0.4858 -0.0858  0.1320
 2674SOL    HW119484   1.967   2.023   7.142  1.1813 -1.0696 -0.2395
 2674SOL    HW219485   1.866   1.983   7.248  1.0656  0.3930  0.2081
 2675SOL     OW19486   1.379   2.769  15.321 -0.1997 -0.0919 -0.2907
 2675SOL    HW119487   1.332   2.741  15.400  0.2519 -0.7547 -0.2587
 2675SOL    HW219488   1.462   2.726  15.341  0.1537 -0.5543 -2.7661
 2676SOL     OW19489   3.936   3.241   5.810  0.0603 -0.0404 -0.1870
 2676SOL    HW119490   3.982   3.276   5.886  0.1509 -1.1602  0.2704
 2676SOL    HW219491   3.881   3.313   5.779  0.7864 -0.4442 -2.4501
 2677SOL     OW19492   3.674   0.671   4.861 -0.1210  0.2698  0.2808
 2677SOL    HW119493   3.716   0.718   4.933 -1.0644 -0.4432  1.2827
 2677SOL    HW219494   3.695   0.578   4.867  1.5223  0.5287 -1.3009
 2678SOL     OW19495   1.774   1.374   3.548 -0.0233  0.0131  0.0945
 2678SOL    HW119496   1.849   1.416   3.505  0.1596 -1.0544 -0.6354
 2678SOL    HW219497   1.806   1.352   3.635 -2.2193  0.9422  1.1270
 2679SOL     OW19498   0.413   3.160   0.860  0.0066 -0.1020 -0.2104
 2679SOL    HW119499   0.412   3.224   0.932  1.4285  0.7640 -0.9614
 2679SOL    HW219500   0.335   3.107   0.878 -0.3508  0.5683  0.2443
 2680SOL     OW19501   0.350   4.110  13.455 -0.6011 -0.3782  0.2959
 2680SOL    HW119502   0.272   4.070  13.417 -0.3423  0.6381 -1.3311
 2680SOL    HW219503   0.303   4.186  13.490 -0.1039  0.0679  0.0087
 2681SOL     OW19504   0.440   2.408  11.342  0.1209  0.1388 -0.0627
 2681SOL    HW119505   0.466   2.337  11.283 -0.2110  0.1432 -0.2135
 2681SOL    HW219506   0.511   2.410  11.406  0.7225  2.9314 -0.8251
 2682SOL     OW19507   0.151   0.386   6.356  0.6420  0.4542  0.0478
 2682SOL    HW119508   0.124   0.297   6.334  0.4527  0.3630  0.6475
 2682SOL    HW219509   0.073   0.431   6.389  0.3591 -0.4539  0.6047
 2683SOL     OW19510   1.557   4.616  16.713 -0.6186  0.2226  0.2416
 2683SOL    HW119511   1.491   4.552  16.685  1.1007 -0.5661 -2.0293
 2683SOL    HW219512   1.645   4.587  16.688  0.7289  3.9500  0.7138
 2684SOL     OW19513   1.049   0.242   7.560  0.7304  0.4668 -0.7736
 2684SOL    HW119514   1.091   0.326   7.575  0.1646  0.1263  2.5572
 2684SOL    HW219515   0.991   0.276   7.491 -0.2343 -1.6765 -1.0344
 2685SOL     OW19516   1.030   2.251   2.098  0.2452  0.2519 -0.4561
 2685SOL    HW119517   1.054   2.209   2.181 -0.9793  0.7761  0.1681
 2685SOL    HW219518   1.049   2.340   2.130  2.1550 -0.5070  0.5319
 2686SOL     OW19519   0.578   2.165   7.465  0.5805 -0.6525 -0.2476
 2686SOL    HW119520   0.545   2.254   7.458 -1.7589 -1.3798  1.4694
 2686SOL    HW219521   0.585   2.148   7.559 -0.9925 -1.9325 -0.3677
 2687SOL     OW19522   0.738   4.064   1.086 -0.0614 -0.1206 -0.1497
 2687SOL    HW119523   0.756   4.115   1.166  0.1899 -2.1885  1.0936
 2687SOL    HW219524   0.716   4.132   1.022 -2.2906 -1.5676 -0.8893
 2688SOL     OW19525   4.183   2.985   1.734  0.3910  0.2253 -0.2551
 2688SOL    HW119526   4.167   3.074   1.702 -0.6341 -0.1272 -0.7240
 2688SOL    HW219527   4.234   2.946   1.663 -1.1364 -2.4859  0.1385
 2689SOL     OW19528   3.626   4.703  13.278  0.3773 -0.2787 -0.0915
 2689SOL    HW119529   3.616   4.614  13.311  1.1098 -1.3744 -2.8541
 2689SOL    HW219530   3.695   0.024  13.328  1.0445 -1.4433  0.0209
 2690SOL     OW19531   1.822   0.420   6.597 -0.1698  0.4316  0.1911
 2690SOL    HW119532   1.750   0.362   6.621  1.9262 -0.8767  3.2601
 2690SOL    HW219533   1.898   0.362   6.604  0.6785  1.5619  0.4778
 2691SOL     OW19534   2.174   3.593  10.428  0.7123  0.0263 -0.0062
 2691SOL    HW119535   2.114   3.540  10.480 -1.7987  3.3351  0.4048
 2691SOL    HW219536   2.237   3.617  10.496 -0.5708  0.2082  1.1047
 2692SOL     OW19537   0.677   2.692   1.839 -0.0879 -0.2753  0.0997
 2692SOL    HW119538   0.707   2.777   1.806  1.5108 -0.0433  2.1869
 2692SOL    HW219539   0.710   2.638   1.767 -0.6473  1.1002 -1.2131
 2693SOL     OW19540   0.806   1.018   5.829  0.4811  0.7047  0.8034
 2693SOL    HW119541   0.899   1.024   5.852  0.1895  0.9288  1.9499
 2693SOL    HW219542   0.796   1.093   5.770 -4.5772  0.5533  1.5249
 2694SOL     OW19543   1.851   0.926  15.826 -0.8090 -0.2048  0.4598
 2694SOL    HW119544   1.774   0.870  15.833 -1.1687  0.0037 -1.9948
 2694SOL    HW219545   1.879   0.934  15.918  1.3962  0.9239 -0.3087
 2695SOL     OW19546   1.452   2.078   4.594  0.1937  0.8459  0.2624
 2695SOL    HW119547   1.423   2.009   4.535 -1.3069 -0.3194  2.3374
 2695SOL    HW219548   1.381   2.079   4.658  2.2696  0.1754  2.6113
 2696SOL     OW19549   1.609   2.846   8.586  0.4843 -0.8185  0.0250
 2696SOL    HW119550   1.564   2.918   8.630  2.0769 -0.2369  0.6982
 2696SOL    HW219551   1.548   2.821   8.517 -0.5857  3.1840 -0.4616
 2697SOL     OW19552   2.372   3.973   1.138  0.1157 -0.0120 -0.6556
 2697SOL    HW119553   2.388   3.879   1.129 -0.9560 -0.2158 -0.3824
 2697SOL    HW219554   2.445   3.995   1.196 -0.4346 -0.5290  0.2323
 2698SOL     OW19555   3.831   0.060   1.967 -0.5604 -0.6057 -0.3043
 2698SOL    HW119556   3.805   4.713   2.026 -2.2426 -0.5242 -0.9440
 2698SOL    HW219557   3.743   0.098   1.970  0.4560  1.6775  1.2840
 2699SOL     OW19558   3.169   1.452  15.341  0.7574  0.0698  0.9966
 2699SOL    HW119559   3.232   1.382  15.356 -0.4291 -0.7707  2.0738
 2699SOL    HW219560   3.111   1.451  15.417  0.1972  1.3400  0.5843
 2700SOL     OW19561   2.366   3.191   7.161  0.0573  0.3451  0.0716
 2700SOL    HW119562   2.313   3.258   7.117  2.6722  1.0260 -2.0122
 2700SOL    HW219563   2.309   3.116   7.180  0.2916  0.6552  2.0538
 2701SOL     OW19564   3.063   3.838   6.068  0.3502 -0.5984 -0.4638
 2701SOL    HW119565   3.050   3.929   6.094  1.5208 -0.4989 -0.2516
 2701SOL    HW219566   3.151   3.821   6.102 -0.0452  0.1196  0.9251
 2702SOL     OW19567   2.357   2.952  15.701  0.1961 -0.2770  0.5236
 2702SOL    HW119568   2.308   3.030  15.678  2.0891  0.2043 -1.9297
 2702SOL    HW219569   2.328   2.923  15.787  1.4619 -2.1535  0.3419
 2703SOL     OW19570   3.385   4.450  12.194 -0.7411 -0.9030  0.0937
 2703SOL    HW119571   3.388   4.443  12.290  2.6389 -2.8647 -0.1728
 2703SOL    HW219572   3.376   4.545  12.205 -1.3347 -0.6595 -2.6558
 2704SOL     OW19573   3.188   4.223  13.988  0.4681 -0.5804 -0.3129
 2704SOL    HW119574   3.175   4.129  13.997 -2.4074 -0.1428  0.0561
 2704SOL    HW219575   3.213   4.242  13.898 -2.6580 -0.2566 -1.0981
 2705SOL     OW19576   3.755   1.877  15.946  0.2063 -0.4121  0.1194
 2705SOL    HW119577   3.736   1.790  15.911 -2.7847  1.0649 -1.9738
 2705SOL    HW219578   3.699   1.924  15.884  1.4432  0.5855 -0.2441
 2706SOL     OW19579   3.402   3.547   6.688  0.1113  0.2758 -0.2743
 2706SOL    HW119580   3.471   3.496   6.647 -1.4743 -0.8381 -1.5105
 2706SOL    HW219581   3.324   3.503   6.653  0.4326 -1.8733  1.7283
 2707SOL     OW19582   2.592   4.217   3.488 -0.2349 -0.0314  0.0572
 2707SOL    HW119583   2.502   4.242   3.468  0.1784  1.8485  0.5186
 2707SOL    HW219584   2.636   4.213   3.403  0.2483 -0.0240  0.3043
 2708SOL     OW19585   1.821   0.562  11.312  0.6486 -0.5080 -0.1656
 2708SOL    HW119586   1.875   0.483  11.315  1.5273  0.1197  0.7360
 2708SOL    HW219587   1.881   0.620  11.357  0.6570  0.2165 -1.1136
 2709SOL     OW19588   3.476   0.404  16.027 -0.1673  0.5456 -0.0818
 2709SOL    HW119589   3.461   0.468  15.957 -1.4665  0.5293  0.1896
 2709SOL    HW219590   3.393   0.372  16.062 -1.3717  1.2053 -2.3284
 2710SOL     OW19591   2.423   1.297  16.780  0.5288 -0.4755 -0.2926
 2710SOL    HW119592   2.394   1.289  16.689  1.9002  0.2607 -0.7850
 2710SOL    HW219593   2.467   1.213  16.786  1.7807  0.2171  0.1088
 2711SOL     OW19594   0.204   0.321  12.139 -0.1538  0.2677  0.1697
 2711SOL    HW119595   0.163   0.241  12.170  1.9699 -1.6822 -2.1174
 2711SOL    HW219596   0.225   0.312  12.046  0.1338  1.0903  0.1543
 2712SOL     OW19597   2.215   0.553  12.330  0.9107 -0.0132 -0.1654
 2712SOL    HW119598   2.282   0.610  12.367  0.6110 -0.7050  1.4799
 2712SOL    HW219599   2.166   0.604  12.266 -1.6221  1.0835  2.6209
 2713SOL     OW19600   1.699   2.158   8.620 -0.1153 -0.0312 -0.3811
 2713SOL    HW119601   1.639   2.157   8.545  1.0141 -0.4644 -1.2908
 2713SOL    HW219602   1.645   2.127   8.693 -0.5335 -0.8887 -1.0507
 2714SOL     OW19603   4.336   3.696  16.030 -0.1315 -0.0983 -0.2402
 2714SOL    HW119604   4.371   3.762  16.089  1.8387 -2.9175  1.7360
 2714SOL    HW219605   4.403   3.686  15.963 -0.2595 -1.3182 -0.1833
 2715SOL     OW19606   1.677   3.784   3.349 -0.0292  0.0842  0.8597
 2715SOL    HW119607   1.625   3.845   3.297 -0.4753 -2.2225 -1.4339
 2715SOL    HW219608   1.751   3.839   3.374 -1.1187  1.7635  0.3513
 2716SOL     OW19609   2.992   3.579   5.493 -0.2238  0.0256 -0.1269
 2716SOL    HW119610   2.982   3.508   5.556 -3.3835 -0.6526 -1.4156
 2716SOL    HW219611   2.911   3.576   5.443 -1.2216 -2.2504  1.6514
 2717SOL     OW19612   2.344   4.017  17.507  0.5275 -0.3347 -0.2085
 2717SOL    HW119613   2.398   4.053  17.437  0.2671 -0.8270 -0.6600
 2717SOL    HW219614   2.377   4.070  17.580  1.9456  1.1426 -1.9148
 2718SOL     OW19615   2.116   0.845   7.684  0.1010 -0.3970 -0.1914
 2718SOL    HW119616   2.169   0.865   7.761 -2.6825 -1.6739  2.0415
 2718SOL    HW219617   2.190   0.838   7.624 -0.9045 -1.5693 -1.3096
 2719SOL     OW19618   2.160   3.781   8.004  0.2871 -0.2271  0.1146
 2719SOL    HW119619   2.126   3.757   7.918  0.6370 -0.9236  0.1749
 2719SOL    HW219620   2.249   3.778   7.969 -0.0046  1.9125 -0.8386
 2720SOL     OW19621   4.505   2.040   4.240  0.1512 -0.0684 -0.0717
 2720SOL    HW119622   4.564   2.078   4.305 -1.1510 -1.3128  1.8566
 2720SOL    HW219623   4.517   2.103   4.170  0.1137  0.3005  0.2543
 2721SOL     OW19624   3.343   0.162  11.325  0.1179 -0.3756  0.5726
 2721SOL    HW119625   3.422   0.142  11.274 -0.0787 -0.7477  0.4051
 2721SOL    HW219626   3.282   0.132  11.256  2.2743  1.4745 -2.1387
 2722SOL     OW19627   1.543   0.111   1.438  0.3301 -0.9544 -0.0614
 2722SOL    HW119628   1.566   0.202   1.421  0.2236 -1.1144 -1.0341
 2722SOL    HW219629   1.490   0.078   1.365 -2.6473 -0.0068  1.6758
 2723SOL     OW19630   1.766   3.507   1.199 -0.3219  0.1160  0.3422
 2723SOL    HW119631   1.733   3.534   1.114 -0.8559 -1.4503  0.0448
 2723SOL    HW219632   1.700   3.445   1.231  1.0135 -1.2606  0.4863
 2724SOL     OW19633   0.567   1.883   6.830  0.3859  0.1531  0.0603
 2724SOL    HW119634   0.496   1.829   6.866 -1.1271  1.0849 -1.5165
 2724SOL    HW219635   0.623   1.817   6.789  0.8441  0.6664 -0.1411
 2725SOL     OW19636   1.590   1.346   7.741 -0.2819 -0.0751  0.3150
 2725SOL    HW119637   1.663   1.387   7.695 -0.0260 -0.1089  0.6861
 2725SOL    HW219638   1.614   1.362   7.832 -1.2851 -0.9418  0.7408
 2726SOL     OW19639   0.896   2.594   3.916  0.0998 -0.0101  0.0802
 2726SOL    HW119640   0.880   2.504   3.947 -0.2441  1.0263  2.9216
 2726SOL    HW219641   0.805   2.623   3.915  0.4346  0.9691 -1.2271
 2727SOL     OW19642   4.414   0.213   5.577  0.3437  0.1869 -0.1283
 2727SOL    HW119643   4.384   0.272   5.646 -2.0713 -2.4937  1.1498
 2727SOL    HW219644   4.480   0.276   5.551  1.5515 -0.0585  2.4223
 2728SOL     OW19645   1.505   2.620  12.841 -0.2519 -0.4782  0.4174
 2728SOL    HW119646   1.570   2.677  12.882  1.3896 -1.8454 -0.3074
 2728SOL    HW219647   1.538   2.540  12.881 -0.0553 -0.7323 -0.2595
 2729SOL     OW19648   1.280   2.497  13.458  0.0318  0.0604  0.3891
 2729SOL    HW119649   1.318   2.565  13.403 -1.4960 -0.0335 -0.7963
 2729SOL    HW219650   1.192   2.486  13.422 -0.1573 -4.5060  2.1543
 2730SOL     OW19651   0.664   2.008   6.151 -0.3077 -0.0509 -0.1390
 2730SOL    HW119652   0.618   2.021   6.234 -0.6612 -0.5299 -0.2628
 2730SOL    HW219653   0.736   2.072   6.158 -0.9963  0.9019 -1.5592
 2731SOL     OW19654   3.971   2.560   8.151  0.1040 -0.0920 -0.4892
 2731SOL    HW119655   3.986   2.523   8.064  1.0487 -0.8468 -0.0019
 2731SOL    HW219656   4.060   2.586   8.174 -0.5176  0.4443  1.3045
 2732SOL     OW19657   3.006   2.835   6.924  0.0644  0.2473  0.3444
 2732SOL    HW119658   2.940   2.765   6.925  3.1812 -2.7139  1.2716
 2732SOL    HW219659   2.955   2.909   6.892  0.2546  0.9936  1.7594
 2733SOL     OW19660   1.333   2.248   2.532  0.1069  0.2218  0.0858
 2733SOL    HW119661   1.349   2.182   2.464  2.4222 -1.4130  2.2194
 2733SOL    HW219662   1.356   2.329   2.486  0.9491  0.3782  0.7689
 2734SOL     OW19663   2.796   0.401   4.178 -0.2655 -0.6328 -0.0512
 2734SOL    HW119664   2.876   0.450   4.162 -0.7922 -0.3032 -1.7341
 2734SOL    HW219665   2.799   0.345   4.101  1.6088 -0.2230 -0.2689
 2735SOL     OW19666   4.404   1.102  15.462 -0.0576 -0.0366  0.3581
 2735SOL    HW119667   4.400   1.059  15.377 -0.3544 -0.3723  0.5411
 2735SOL    HW219668   4.323   1.153  15.458  1.1472  1.7204 -1.4973
 2736SOL     OW19669   1.810   0.118   2.771  0.1866  0.4983 -0.5291
 2736SOL    HW119670   1.848   0.205   2.759 -2.0507  1.3217 -1.5673
 2736SOL    HW219671   1.778   0.113   2.681  0.9206  0.0607 -0.7681
 2737SOL     OW19672   4.433   2.597   6.638  0.1725  0.2277  0.5546
 2737SOL    HW119673   4.381   2.607   6.717  1.0703 -0.2482  1.2150
 2737SOL    HW219674   4.375   2.532   6.598 -0.3665  0.9001  0.2602
 2738SOL     OW19675   1.945   0.850  10.250  0.1402 -0.1836  0.1006
 2738SOL    HW119676   1.889   0.852  10.173 -0.2491 -0.6235  0.3710
 2738SOL    HW219677   2.009   0.911  10.213 -1.8466  1.3386 -0.8020
 2739SOL     OW19678   3.841   4.123   1.073  0.7023  0.2974 -0.1276
 2739SOL    HW119679   3.910   4.099   1.012 -1.1191  1.8593 -2.7934
 2739SOL    HW219680   3.773   4.145   1.010  0.5211 -0.9752 -0.3679
 2740SOL     OW19681   0.113   2.893  13.226  0.2679 -0.1603  0.8507
 2740SOL    HW119682   0.179   2.837  13.185 -2.4914 -1.2109 -2.1477
 2740SOL    HW219683   0.166   2.959  13.271  0.0792  0.9951 -0.6200
 2741SOL     OW19684   1.054   2.652   0.980 -0.6813 -0.1940 -0.0063
 2741SOL    HW119685   1.124   2.679   1.040 -1.1817 -0.5476  0.7458
 2741SOL    HW219686   1.069   2.558   0.983 -1.0312 -0.2684 -0.7444
 2742SOL     OW19687   1.782   3.967   7.670  0.3982  0.7970 -0.2563
 2742SOL    HW119688   1.709   4.029   7.665 -0.3715  0.0789  2.2622
 2742SOL    HW219689   1.793   3.958   7.764 -0.2090 -0.5700 -0.3043
 2743SOL     OW19690   0.530   0.507  10.500 -0.0225 -0.4929  0.1528
 2743SOL    HW119691   0.607   0.499  10.556  2.2536  1.6114 -2.6518
 2743SOL    HW219692   0.535   0.428  10.447  1.7404 -0.6213  0.4920
 2744SOL     OW19693   0.542   0.503   7.245 -0.0493 -0.6782 -0.4392
 2744SOL    HW119694   0.502   0.588   7.223  0.6391 -0.3098 -0.2630
 2744SOL    HW219695   0.575   0.490   7.156 -0.5494  2.0557 -1.0369
 2745SOL     OW19696   2.522   3.157  16.985  0.7306 -0.5162  0.0066
 2745SOL    HW119697   2.493   3.150  16.894 -1.7149 -0.2469  0.7655
 2745SOL    HW219698   2.576   3.078  16.994 -2.3435 -2.3652  2.3923
 2746SOL     OW19699   2.748   4.466   4.323 -0.0627  0.3648 -0.6068
 2746SOL    HW119700   2.743   4.489   4.416 -1.9583 -1.9120 -0.1583
 2746SOL    HW219701   2.758   4.552   4.282 -2.3748  1.0827  0.3648
 2747SOL     OW19702   0.231   2.400   6.272 -0.2091 -0.0305 -0.1365
 2747SOL    HW119703   0.175   2.478   6.282  1.5717  0.7360  3.7572
 2747SOL    HW219704   0.235   2.367   6.362  0.9992 -0.4782 -0.3551
 2748SOL     OW19705   1.224   2.326  11.923 -0.2870 -0.0928  0.1278
 2748SOL    HW119706   1.246   2.404  11.974 -0.3806 -0.3325  0.5370
 2748SOL    HW219707   1.161   2.279  11.977  0.7008 -0.1741  1.1899
 2749SOL     OW19708   1.763   4.120   2.024  0.6484  0.0544  0.3559
 2749SOL    HW119709   1.812   4.038   2.023 -0.0722 -0.3633 -0.3261
 2749SOL    HW219710   1.709   4.092   2.097 -0.4558 -0.1172 -0.5174
 2750SOL     OW19711   2.857   4.076   4.823  0.5928 -0.0479  0.0438
 2750SOL    HW119712   2.902   4.040   4.746 -0.4049  2.0816 -1.5418
 2750SOL    HW219713   2.860   4.170   4.802 -1.4834  0.0850  0.3340
 2751SOL     OW19714   0.780   4.121   8.778 -0.2156 -0.1973 -1.0942
 2751SOL    HW119715   0.834   4.043   8.788  0.9885  0.5441 -1.7586
 2751SOL    HW219716   0.744   4.121   8.690  1.1571  1.1887 -1.6635
 2752SOL     OW19717   3.848   0.384  17.556 -0.0081  0.4583 -0.4085
 2752SOL    HW119718   3.763   0.427  17.548 -1.0040 -1.5992 -0.7914
 2752SOL    HW219719   3.888   0.425  17.479  1.5620  0.4449  0.3921
 2753SOL     OW19720   2.725   1.535   7.016  0.2826  0.5638 -0.0755
 2753SOL    HW119721   2.750   1.498   7.100 -1.3377 -3.7432 -1.4951
 2753SOL    HW219722   2.798   1.595   7.002  0.8113 -0.1834 -0.5586
 2754SOL     OW19723   3.877   4.112   8.597  0.3151  0.5206  0.1415
 2754SOL    HW119724   3.843   4.189   8.551 -1.5433 -0.0369  0.6057
 2754SOL    HW219725   3.806   4.048   8.607 -1.3112  2.4564  0.7632
 2755SOL     OW19726   2.073   3.790   7.357 -0.0162  0.0528 -0.4907
 2755SOL    HW119727   2.044   3.878   7.382  0.1804 -0.0516  0.1217
 2755SOL    HW219728   2.004   3.775   7.293 -0.8899  1.4972  0.0917
 2756SOL     OW19729   4.193   0.240  12.281 -0.1313  0.2499 -0.2463
 2756SOL    HW119730   4.146   0.324  12.282 -0.1607  0.2219  1.7801
 2756SOL    HW219731   4.186   0.210  12.191  2.5035 -1.8367  0.2584
 2757SOL     OW19732   0.850   0.407  15.017  0.3215 -0.3460 -0.4286
 2757SOL    HW119733   0.893   0.484  15.055  0.0736 -0.0511 -0.7512
 2757SOL    HW219734   0.829   0.431  14.927  0.8314 -0.7613 -0.6552
 2758SOL     OW19735   2.372   2.212   1.547 -0.2296  0.4110  0.5162
 2758SOL    HW119736   2.453   2.164   1.558 -1.4096 -1.0527  2.7218
 2758SOL    HW219737   2.392   2.273   1.476 -1.0592 -0.2415 -0.2806
 2759SOL     OW19738   4.716   4.181   8.832 -0.3077 -0.1107 -0.0427
 2759SOL    HW119739   4.651   4.145   8.893 -1.5314  0.6955 -0.8853
 2759SOL    HW219740   4.671   4.244   8.775 -1.1311  1.7575  2.6404
 2760SOL     OW19741   2.103   2.177   7.126  0.0465 -0.1040 -0.1599
 2760SOL    HW119742   2.197   2.161   7.113 -0.0091 -0.7723  0.2779
 2760SOL    HW219743   2.104   2.174   7.221 -0.4569 -1.4480 -0.1939
 2761SOL     OW19744   0.478   4.398   8.139  0.1737 -0.0538  0.3983
 2761SOL    HW119745   0.460   4.322   8.083  0.6271  0.0495  0.1174
 2761SOL    HW219746   0.405   4.395   8.201 -0.5094  0.2708 -0.3829
 2762SOL     OW19747   1.440   0.881  14.600  0.1021  0.8926  0.0215
 2762SOL    HW119748   1.462   0.973  14.610 -1.7147  1.1749  1.4248
 2762SOL    HW219749   1.433   0.876  14.504  0.6079 -1.0465  0.0857
 2763SOL     OW19750   3.496   3.198   7.086  0.5865  0.1554 -0.1638
 2763SOL    HW119751   3.492   3.288   7.052 -1.4796 -0.6774 -2.0872
 2763SOL    HW219752   3.581   3.202   7.130  0.6172 -0.6847 -0.1482
 2764SOL     OW19753   1.503   3.764   4.316 -0.3694  0.4597 -0.5029
 2764SOL    HW119754   1.543   3.740   4.399  0.1207  2.3649 -0.1943
 2764SOL    HW219755   1.445   3.834   4.342  2.3320  1.3467  3.0804
 2765SOL     OW19756   4.653   3.156   2.051  0.2188  0.1043  1.1575
 2765SOL    HW119757   0.001   3.157   2.115  0.1929  2.6970  1.1317
 2765SOL    HW219758   4.708   3.153   1.973 -0.0920 -2.9719  1.0475
 2766SOL     OW19759   1.179   0.768   6.851 -0.1838 -0.5348 -0.0730
 2766SOL    HW119760   1.171   0.770   6.947 -0.9091  0.9125 -0.1752
 2766SOL    HW219761   1.090   0.748   6.825 -0.2497  1.4286 -1.3263
 2767SOL     OW19762   0.489   1.490   2.455 -0.0337  0.4300  0.4580
 2767SOL    HW119763   0.403   1.532   2.462  0.8142  2.5900 -2.3547
 2767SOL    HW219764   0.474   1.423   2.389 -0.3365  0.6834  0.2673
 2768SOL     OW19765   3.360   4.176   3.434  0.0296 -0.2994 -0.1432
 2768SOL    HW119766   3.349   4.230   3.512  2.0469 -0.7027  0.4254
 2768SOL    HW219767   3.326   4.231   3.363 -1.0214  0.9909  1.3647
 2769SOL     OW19768   1.470   3.612   3.405 -0.2416 -0.0563  0.2606
 2769SOL    HW119769   1.411   3.655   3.343  1.6047  0.6935 -0.9726
 2769SOL    HW219770   1.538   3.679   3.410 -1.4920  1.2747 -0.4694
 2770SOL     OW19771   3.455   2.944   6.981 -0.0439 -0.1050 -0.5000
 2770SOL    HW119772   3.503   2.926   7.062  1.4500 -0.4476 -1.4719
 2770SOL    HW219773   3.450   3.040   6.987  0.7865 -0.0343 -0.9161
 2771SOL     OW19774   0.790   2.010   9.768 -0.4262 -0.9775  0.1094
 2771SOL    HW119775   0.752   1.998   9.680  1.3800  2.0112 -1.0790
 2771SOL    HW219776   0.836   2.092   9.749 -2.8172  0.0227 -1.4027
 2772SOL     OW19777   4.413   4.013   3.000 -0.5011  0.4393  0.1117
 2772SOL    HW119778   4.477   3.942   2.997 -0.7137  0.3894 -2.7669
 2772SOL    HW219779   4.451   4.070   2.933  0.3763 -0.8485 -0.4906
 2773SOL     OW19780   1.008   0.390   5.257 -0.0577  0.3119 -0.0268
 2773SOL    HW119781   0.994   0.367   5.349  0.9053  1.3446  0.3771
 2773SOL    HW219782   1.073   0.459   5.270  0.0650  0.4127 -1.1803
 2774SOL     OW19783   2.776   2.414  17.539 -0.0583 -0.1223 -0.2393
 2774SOL    HW119784   2.791   2.422  17.633 -0.0789  1.9568 -0.4069
 2774SOL    HW219785   2.855   2.363  17.525  0.1507 -0.2529  1.3692
 2775SOL     OW19786   3.496   2.832   1.455 -0.5446  0.4587 -0.5103
 2775SOL    HW119787   3.494   2.776   1.533  0.2197  1.4794  0.2432
 2775SOL    HW219788   3.403   2.838   1.434 -0.4821  1.4402 -0.4798
 2776SOL     OW19789   0.272   0.671   6.377 -0.9923 -0.2720 -0.2579
 2776SOL    HW119790   0.203   0.634   6.431 -1.0875 -0.6948 -0.6736
 2776SOL    HW219791   0.275   0.607   6.306  1.2002  0.9228 -1.2590
 2777SOL     OW19792   4.229   4.697   3.005  0.0795  0.4613  0.7250
 2777SOL    HW119793   4.298   4.634   2.983 -0.3183  0.3881 -0.3095
 2777SOL    HW219794   4.268   0.051   2.964  1.8449 -0.8176 -0.0479
 2778SOL     OW19795   1.305   1.903   8.194 -0.4825  0.1358  0.2288
 2778SOL    HW119796   1.384   1.852   8.176 -0.2991 -0.0041  1.4411
 2778SOL    HW219797   1.276   1.901   8.103 -1.3468  0.0506  0.5073
 2779SOL     OW19798   3.194   4.631   5.386 -0.1382  0.8519  0.1441
 2779SOL    HW119799   3.142   4.690   5.331 -0.5607 -0.0084 -0.3698
 2779SOL    HW219800   3.179   4.662   5.475 -1.2577 -1.7086  0.8325
 2780SOL     OW19801   1.838   0.522   1.833 -0.6942  1.0415 -0.1554
 2780SOL    HW119802   1.870   0.472   1.758  0.6010  2.9342 -0.8809
 2780SOL    HW219803   1.764   0.474   1.869  0.1921 -1.5044 -1.6828
 2781SOL     OW19804   4.136   1.686   1.711  0.4681  0.1490  0.2322
 2781SOL    HW119805   4.088   1.611   1.746  2.2839 -0.6377  1.0503
 2781SOL    HW219806   4.062   1.743   1.690  1.8264  1.6044 -0.6447
 2782SOL     OW19807   1.976   3.932   4.609  0.2615 -0.1343 -0.6460
 2782SOL    HW119808   1.913   3.910   4.678  2.5955 -0.6428  1.3104
 2782SOL    HW219809   1.984   4.025   4.628 -0.3237 -0.5708  1.7557
 2783SOL     OW19810   3.455   2.680   3.761 -0.2649  0.4678 -0.0622
 2783SOL    HW119811   3.470   2.747   3.829 -1.6753  0.5473  0.1679
 2783SOL    HW219812   3.359   2.678   3.757 -0.3254  0.9428  1.1985
 2784SOL     OW19813   1.628   1.294   4.976  0.1861 -0.0456 -0.1548
 2784SOL    HW119814   1.537   1.322   4.992  1.0537  2.0044  1.1750
 2784SOL    HW219815   1.666   1.287   5.064  0.1715 -2.1375 -0.3257
 2785SOL     OW19816   2.471   0.695   2.603 -0.0888  0.2453  0.8400
 2785SOL    HW119817   2.519   0.777   2.618  3.0771 -1.4595 -0.0242
 2785SOL    HW219818   2.487   0.692   2.508 -1.4900  0.2835  0.6106
 2786SOL     OW19819   1.021   0.297   2.342 -0.4127 -0.3861  0.2233
 2786SOL    HW119820   1.098   0.327   2.293 -0.4476 -0.5312  0.0773
 2786SOL    HW219821   0.960   0.362   2.306  0.0938 -0.4506 -0.7500
 2787SOL     OW19822   3.123   1.794   7.768 -0.0284 -0.4750 -0.0899
 2787SOL    HW119823   3.134   1.765   7.677  1.2505  0.2854 -0.1791
 2787SOL    HW219824   3.101   1.885   7.749 -0.4986 -0.6676 -0.4770
 2788SOL     OW19825   0.148   1.824   8.023 -0.1771 -0.9987 -0.0897
 2788SOL    HW119826   0.107   1.900   8.064  2.3883  1.5456 -2.1974
 2788SOL    HW219827   0.218   1.864   7.971 -0.8250  1.1048  0.6689
 2789SOL     OW19828   3.774   1.485  16.489 -0.1190 -0.6154 -0.1778
 2789SOL    HW119829   3.839   1.423  16.522 -0.2628 -1.3218 -1.2101
 2789SOL    HW219830   3.764   1.455  16.399  1.3735 -2.8390  0.3913
 2790SOL     OW19831   1.787   2.185   6.724  0.0763 -0.4499 -0.6490
 2790SOL    HW119832   1.774   2.149   6.811 -0.3556 -0.0150 -0.5316
 2790SOL    HW219833   1.831   2.267   6.749  0.3563  0.4782 -4.1171
 2791SOL     OW19834   2.965   3.584   7.800  0.2480  0.2243  0.2251
 2791SOL    HW119835   2.904   3.646   7.761  1.4447  1.4355  0.2703
 2791SOL    HW219836   2.906   3.508   7.802 -0.8938  1.0981 -0.2849
 2792SOL     OW19837   1.619   1.662   3.646 -0.1523  0.2960 -0.1236
 2792SOL    HW119838   1.607   1.751   3.613  1.3544  0.0355 -1.3638
 2792SOL    HW219839   1.592   1.613   3.569  0.2054  0.4116 -0.3265
 2793SOL     OW19840   1.527   1.832   3.867  0.8479  0.0821 -0.8602
 2793SOL    HW119841   1.563   1.774   3.801 -0.1393 -1.3546 -0.1245
 2793SOL    HW219842   1.500   1.904   3.809  1.1237  0.7354 -0.1866
 2794SOL     OW19843   0.181   0.518   2.908  0.0784 -0.0293 -0.1255
 2794SOL    HW119844   0.237   0.488   2.980  1.2041 -0.9542 -1.3825
 2794SOL    HW219845   0.246   0.519   2.838  0.6957  0.6163  0.4519
 2795SOL     OW19846   2.192   4.265   3.173 -0.4293 -0.4211 -0.4639
 2795SOL    HW119847   2.136   4.341   3.157  0.2061  0.2970  0.7110
 2795SOL    HW219848   2.254   4.294   3.240 -0.4057 -1.0245 -0.2224
 2796SOL     OW19849   4.107   3.706   3.713 -0.0802 -0.3724  0.1022
 2796SOL    HW119850   4.029   3.743   3.671 -1.0712 -0.9409  1.4093
 2796SOL    HW219851   4.120   3.763   3.789 -4.0063  1.8010 -0.8557
 2797SOL     OW19852   0.645   1.710   3.892 -0.4344  0.6863 -0.2434
 2797SOL    HW119853   0.713   1.699   3.959 -0.9527 -2.6997 -0.2772
 2797SOL    HW219854   0.698   1.754   3.826 -0.6936  2.0786  0.4824
 2798SOL     OW19855   0.750   2.582   0.792 -0.0036  0.5350 -0.3542
 2798SOL    HW119856   0.657   2.600   0.805  0.1871  0.2763  1.3949
 2798SOL    HW219857   0.745   2.488   0.810  3.4644  0.3959 -0.0782
 2799SOL     OW19858   0.666   0.102   8.036  0.1702 -0.2710  0.3003
 2799SOL    HW119859   0.761   0.098   8.032  0.0974 -2.0891  0.2801
 2799SOL    HW219860   0.621   0.040   7.978  0.2930 -0.3074  0.2439
 2800SOL     OW19861   2.754   3.933   7.489 -0.0877  0.0170 -0.0859
 2800SOL    HW119862   2.806   3.882   7.552  1.5259  1.7396 -0.0330
 2800SOL    HW219863   2.750   4.010   7.545  1.2153 -0.2822  0.4272
 2801SOL     OW19864   0.168   1.378   4.679 -0.1214 -0.6552  0.3678
 2801SOL    HW119865   0.141   1.353   4.767  1.5372 -1.6943  0.5895
 2801SOL    HW219866   0.155   1.294   4.636 -0.6992 -0.1512 -0.4330
 2802SOL     OW19867   2.315   1.692   8.944  0.1866 -0.5137 -0.2851
 2802SOL    HW119868   2.323   1.602   8.912  1.1005 -0.6172  0.2216
 2802SOL    HW219869   2.229   1.703   8.985 -1.7558 -1.0673 -4.1648
 2803SOL     OW19870   2.964   2.249  14.006 -0.6505  0.2857 -0.2328
 2803SOL    HW119871   2.895   2.302  14.044  1.1211  1.3237  1.5354
 2803SOL    HW219872   3.012   2.229  14.086  0.6563 -1.7819 -1.5148
 2804SOL     OW19873   2.308   1.014   1.782  0.6079 -0.1827  0.0679
 2804SOL    HW119874   2.240   1.013   1.849 -0.5126 -3.2174 -1.1034
 2804SOL    HW219875   2.295   1.090   1.725  0.7128 -1.0331 -1.0831
 2805SOL     OW19876   0.423   3.849   8.198  0.1674  0.3558 -0.3892
 2805SOL    HW119877   0.448   3.764   8.235 -0.7357  0.2384 -0.0640
 2805SOL    HW219878   0.329   3.848   8.216  0.3233 -0.1653  0.3896
 2806SOL     OW19879   4.707   4.094   3.348  0.2239  0.8344 -0.1588
 2806SOL    HW119880   4.714   4.070   3.255  0.7340 -1.9200  0.6019
 2806SOL    HW219881   0.076   4.114   3.365  0.6439 -1.0248 -0.2444
 2807SOL     OW19882   1.469   3.346  13.637 -0.0441  0.0143 -0.0557
 2807SOL    HW119883   1.564   3.335  13.629 -0.3486 -2.4175 -0.3674
 2807SOL    HW219884   1.459   3.401  13.715  1.5620 -2.4200  1.8863
 2808SOL     OW19885   3.293   0.374   6.445 -0.5920 -0.2499  0.0078
 2808SOL    HW119886   3.342   0.446   6.406  1.5558 -0.6631  1.9389
 2808SOL    HW219887   3.372   0.328   6.472 -0.1201  0.0348 -0.8842
 2809SOL     OW19888   0.036   3.172   9.918 -0.0213  0.4553  0.3244
 2809SOL    HW119889   0.067   3.082   9.912 -0.8304  0.1895  0.0579
 2809SOL    HW219890   0.069   3.189  10.006  3.3575 -0.8702 -0.6690
 2810SOL     OW19891   4.098   4.404   1.123 -0.0477  0.7282  0.2438
 2810SOL    HW119892   4.039   4.475   1.097  1.1951  2.3979  1.9562
 2810SOL    HW219893   4.065   4.377   1.208  0.1069  0.5337  0.2414
 2811SOL     OW19894   1.472   1.728   6.355 -0.2828 -0.1211  0.1446
 2811SOL    HW119895   1.492   1.822   6.356 -1.8051  0.2017  0.1181
 2811SOL    HW219896   1.560   1.703   6.381 -0.4353  0.6680  1.3810
 2812SOL     OW19897   4.285   4.117  17.398 -0.1263 -0.4817  0.4469
 2812SOL    HW119898   4.295   4.062  17.320 -0.9294 -0.0269  0.0193
 2812SOL    HW219899   4.202   4.082  17.431 -0.7514  1.0596  0.4988
 2813SOL     OW19900   0.017   4.028  10.292 -0.3637 -0.2012  0.2065
 2813SOL    HW119901   0.068   3.976  10.231 -0.2514  1.2838 -0.9593
 2813SOL    HW219902   0.083   4.074  10.344  0.5472 -0.9235 -0.3302
 2814SOL     OW19903   4.363   2.001  10.290  0.0305 -0.3587  0.0352
 2814SOL    HW119904   4.350   2.069  10.355  0.0400  0.0138 -0.3558
 2814SOL    HW219905   4.403   2.039  10.212 -0.9944 -0.4577 -0.5444
 2815SOL     OW19906   4.206   1.126   5.798  0.2576 -0.5963  0.6120
 2815SOL    HW119907   4.263   1.050   5.782  1.3299  0.6355 -1.3980
 2815SOL    HW219908   4.121   1.088   5.778 -0.0232  0.6770 -0.6163
 2816SOL     OW19909   2.641   1.112   3.949  0.7003  0.1605 -0.2203
 2816SOL    HW119910   2.696   1.189   3.964  0.0461  0.1539  2.1801
 2816SOL    HW219911   2.706   1.047   3.922  0.8481 -0.8175  2.4293
 2817SOL     OW19912   0.964   4.292  11.446 -0.2992  0.4435 -0.4239
 2817SOL    HW119913   1.014   4.223  11.488 -0.0226  0.1593 -1.2065
 2817SOL    HW219914   1.033   4.325  11.388  0.8853 -1.2346  0.0265
 2818SOL     OW19915   1.784   1.427   6.841  0.1815 -0.3806  0.2941
 2818SOL    HW119916   1.698   1.435   6.883 -0.4418 -1.2878 -0.8235
 2818SOL    HW219917   1.802   1.344   6.885 -2.4349 -1.8353 -1.4133
 2819SOL     OW19918   0.454   4.192   2.202  0.2193 -0.3215  0.5186
 2819SOL    HW119919   0.480   4.142   2.124  1.1706 -0.1081  0.6975
 2819SOL    HW219920   0.537   4.238   2.219  0.2431 -0.3345  0.4384
 2820SOL     OW19921   0.252   1.250   6.391 -0.0634  0.3344  0.6347
 2820SOL    HW119922   0.291   1.243   6.304 -0.0959  1.1659  0.5524
 2820SOL    HW219923   0.315   1.305   6.437  0.9518  0.4024 -0.8364
 2821SOL     OW19924   4.367   1.260   2.513 -0.4427 -0.0622  0.4366
 2821SOL    HW119925   4.311   1.238   2.439  1.1490  0.0302 -0.7956
 2821SOL    HW219926   4.399   1.171   2.525  1.1578  0.2438 -1.3395
 2822SOL     OW19927   3.041   2.233   3.051  0.0407 -0.0892 -0.1691
 2822SOL    HW119928   3.079   2.210   3.136 -2.3685  0.3720  1.0491
 2822SOL    HW219929   3.055   2.328   3.059 -1.8637  0.2494 -0.6886
 2823SOL     OW19930   0.153   4.350   3.545  0.1860  0.1304 -0.1534
 2823SOL    HW119931   0.195   4.348   3.459 -0.2340  0.4471 -0.3651
 2823SOL    HW219932   0.159   4.261   3.580 -2.7129  0.2700  0.7013
 2824SOL     OW19933   2.792   3.025   6.827 -0.6832  0.2085  0.3550
 2824SOL    HW119934   2.708   3.039   6.870 -1.6967  2.7635 -2.3931
 2824SOL    HW219935   2.825   3.115   6.837 -1.5653  0.6849 -1.0189
 2825SOL     OW19936   3.379   1.487   3.017  0.6989  0.4572  0.5682
 2825SOL    HW119937   3.356   1.496   3.110  0.7208 -1.5656  0.7781
 2825SOL    HW219938   3.463   1.440   3.022  0.3447 -0.2746 -0.3567
 2826SOL     OW19939   4.526   2.214  12.826 -0.0752  0.4595  0.6016
 2826SOL    HW119940   4.480   2.281  12.876 -0.2778  1.6265 -1.1472
 2826SOL    HW219941   4.525   2.134  12.879  0.5850 -0.6225 -0.9944
 2827SOL     OW19942   2.654   2.683   4.683  0.8249 -0.0544  0.1009
 2827SOL    HW119943   2.625   2.595   4.707 -1.6182  0.6198 -0.4170
 2827SOL    HW219944   2.713   2.673   4.608  0.2723  1.8678 -0.6072
 2828SOL     OW19945   4.140   4.596   3.623  0.1205 -0.6721 -0.2043
 2828SOL    HW119946   4.145   4.673   3.566 -5.0437 -0.9666 -1.0909
 2828SOL    HW219947   4.167   4.526   3.563  1.6493 -1.4882  1.4408
 2829SOL     OW19948   1.614   2.818   2.069 -0.1074 -0.6131  0.1746
 2829SOL    HW119949   1.684   2.795   2.009  2.0858  2.5886  1.5368
 2829SOL    HW219950   1.546   2.844   2.008 -0.4987  0.1953  0.9583
 2830SOL     OW19951   1.609   3.689   2.125  0.0252 -0.3097  0.0025
 2830SOL    HW119952   1.517   3.666   2.128  0.1451 -0.5051  1.9512
 2830SOL    HW219953   1.604   3.748   2.200  0.5073  1.8357 -1.6169
 2831SOL     OW19954   1.338   4.110   7.482  0.7626 -0.1588 -0.1487
 2831SOL    HW119955   1.316   4.022   7.451  0.0360 -0.8219  2.2331
 2831SOL    HW219956   1.377   4.090   7.567  1.2167 -1.8337 -0.7476
 2832SOL     OW19957   3.862   1.317   3.541  0.1431 -0.2625 -0.1472
 2832SOL    HW119958   3.942   1.278   3.575 -0.1010 -0.5363  0.1098
 2832SOL    HW219959   3.889   1.323   3.449 -0.8696 -1.0324 -0.4912
 2833SOL     OW19960   4.611   3.618   3.362  0.2024  0.3717 -0.4389
 2833SOL    HW119961   4.602   3.623   3.457 -1.4570 -0.4793 -0.5674
 2833SOL    HW219962   4.537   3.559   3.349  0.8709 -0.0800 -2.2560
 2834SOL     OW19963   1.957   4.057  12.600  0.2578 -0.0107  0.3416
 2834SOL    HW119964   1.997   4.058  12.513 -1.2110 -0.6664 -0.3464
 2834SOL    HW219965   2.009   4.125  12.642  0.1085  0.0186  0.4776
 2835SOL     OW19966   1.487   2.149   7.700 -0.2548  0.2767 -0.4384
 2835SOL    HW119967   1.467   2.187   7.615 -2.4848  1.5361  0.6542
 2835SOL    HW219968   1.544   2.215   7.739  1.5978 -1.1003 -0.8224
 2836SOL     OW19969   1.734   4.234   2.412  0.0906 -0.2318 -0.0233
 2836SOL    HW119970   1.827   4.231   2.387 -0.1770  1.9410 -1.2959
 2836SOL    HW219971   1.695   4.163   2.362 -0.0566 -0.7328  0.8082
 2837SOL     OW19972   1.105   4.718   8.262  0.0030 -0.0142  0.2184
 2837SOL    HW119973   1.136   4.633   8.233  0.8193 -0.1266  1.3752
 2837SOL    HW219974   1.169   0.015   8.331  0.5032  0.6879 -0.4434
 2838SOL     OW19975   3.293   2.320   4.198  0.5923  0.2143  0.2900
 2838SOL    HW119976   3.328   2.336   4.286 -0.5161 -1.6807  1.0916
 2838SOL    HW219977   3.351   2.378   4.149 -2.3315  3.8433  1.1941
 2839SOL     OW19978   1.041   0.203  10.651  0.1952 -0.3628 -0.3584
 2839SOL    HW119979   0.989   0.159  10.718  1.1549  0.1356  0.6983
 2839SOL    HW219980   0.989   0.217  10.571  1.0493 -0.5325 -0.9465
 2840SOL     OW19981   3.855   2.492   4.463  0.0292  0.3936 -0.5622
 2840SOL    HW119982   3.829   2.402   4.482 -0.9750  0.2596 -2.5582
 2840SOL    HW219983   3.948   2.484   4.441  0.5656  0.3942  1.6906
 2841SOL     OW19984   3.388   1.258  10.443  0.1239 -0.2070  0.4398
 2841SOL    HW119985   3.466   1.311  10.430 -0.1178  0.2945  1.0984
 2841SOL    HW219986   3.333   1.307  10.383  2.0818 -0.4574 -1.5707
 2842SOL     OW19987   1.140   2.326   3.783  0.5365 -0.3024 -0.4126
 2842SOL    HW119988   1.100   2.406   3.748 -0.8032 -0.4193  0.8038
 2842SOL    HW219989   1.062   2.276   3.761  1.5430 -0.9163 -2.5487
 2843SOL     OW19990   1.583   3.313   8.966  0.1837 -0.4387 -0.3153
 2843SOL    HW119991   1.592   3.403   8.997  1.8589 -0.2597 -1.3248
 2843SOL    HW219992   1.637   3.327   8.888 -0.5001  2.8216 -0.1710
 2844SOL     OW19993   4.368   2.873   3.426  0.0276 -0.0388 -0.3185
 2844SOL    HW119994   4.332   2.916   3.349  0.4386  2.6225  0.9920
 2844SOL    HW219995   4.452   2.850   3.386  1.7997  3.4007  1.3907
 2845SOL     OW19996   1.083   2.824   5.284  0.1011 -0.1145  0.0899
 2845SOL    HW119997   0.994   2.791   5.282  0.3619 -0.8202  0.1018
 2845SOL    HW219998   1.065   2.916   5.267  1.4473  0.2878  0.8371
 2846SOL     OW19999   1.715   4.364   5.470 -0.5556 -0.3026 -0.0160
 2846SOL    HW120000   1.773   4.432   5.502  1.4972 -1.4854 -1.2337
 2846SOL    HW220001   1.686   4.316   5.547  2.1473 -0.6874  0.7658
 2847SOL     OW20002   1.167   1.871   8.433  0.2078 -0.0149 -0.0901
 2847SOL    HW120003   1.095   1.928   8.407  1.1221  1.0470 -0.2923
 2847SOL    HW220004   1.204   1.865   8.345 -0.3343 -1.5723 -0.2071
 2848SOL     OW20005   0.007   2.048  11.606  0.3464  0.3539 -0.1827
 2848SOL    HW120006   4.659   1.995  11.570  1.5062  0.1112 -2.0996
 2848SOL    HW220007   0.086   1.997  11.584  1.2465  1.4596  0.4770
 2849SOL     OW20008   2.100   4.642  10.462 -0.1577 -0.0671  0.2980
 2849SOL    HW120009   2.138   4.570  10.413 -0.8324  0.3408 -0.8277
 2849SOL    HW220010   2.182   4.683  10.490  0.2405 -0.9361  0.3710
 2850SOL     OW20011   4.660   0.453   2.835  0.3648  0.3825  0.2637
 2850SOL    HW120012   0.027   0.453   2.867 -0.1989 -0.7628  1.8064
 2850SOL    HW220013   4.657   0.374   2.781  1.5436  0.6139 -0.1489
 2851SOL     OW20014   2.373   4.620   1.257 -0.0622 -0.0031 -0.0818
 2851SOL    HW120015   2.282   4.593   1.244 -0.6796  0.9705  2.0655
 2851SOL    HW220016   2.384   4.667   1.174  1.1537 -0.4155 -0.1512
 2852SOL     OW20017   0.888   1.746   6.190 -0.5744 -0.2574  0.1147
 2852SOL    HW120018   0.927   1.669   6.147  1.0314  0.0126  1.0710
 2852SOL    HW220019   0.808   1.754   6.139 -0.5983 -0.1783  0.1658
 2853SOL     OW20020   3.009   1.685   1.485  0.2058  0.2082 -0.2104
 2853SOL    HW120021   3.093   1.729   1.497  0.6873 -0.9338  0.6368
 2853SOL    HW220022   3.050   1.602   1.460  0.5049  0.1483  0.4782
 2854SOL     OW20023   0.382   4.090   1.226  0.7655  1.0956 -0.1059
 2854SOL    HW120024   0.427   4.166   1.264 -0.6762  1.8389  0.1166
 2854SOL    HW220025   0.365   4.045   1.308  0.6996 -0.1781 -0.8186
 2855SOL     OW20026   2.338   4.575   7.624 -0.2722 -0.3574 -0.1352
 2855SOL    HW120027   2.353   4.491   7.668 -0.7244 -0.2288  0.2606
 2855SOL    HW220028   2.324   4.549   7.533  0.4211  1.9381 -0.8827
 2856SOL     OW20029   2.212   4.557  15.287 -0.1393 -0.3654  0.4733
 2856SOL    HW120030   2.209   4.588  15.196 -1.2090 -0.2397  0.5502
 2856SOL    HW220031   2.174   4.630  15.335 -0.4981  0.0196 -0.3956
 2857SOL     OW20032   4.685   3.879   9.314 -0.4251  0.2799 -0.5815
 2857SOL    HW120033   0.001   3.794   9.333 -0.0537  0.4252 -0.6898
 2857SOL    HW220034   0.015   3.900   9.238 -0.3383 -0.1884 -0.6535
 2858SOL     OW20035   4.382   0.642   3.628 -0.0890 -0.3193  0.0330
 2858SOL    HW120036   4.327   0.637   3.707 -1.5244  1.1321 -0.8778
 2858SOL    HW220037   4.415   0.732   3.634  0.2744 -0.3167 -2.2238
 2859SOL     OW20038   2.799   1.859   9.857 -0.4497  0.2635 -0.8770
 2859SOL    HW120039   2.886   1.898   9.849 -0.1402  0.1961  1.9063
 2859SOL    HW220040   2.799   1.818   9.944 -1.5305  1.1208 -0.4675
 2860SOL     OW20041   0.858   0.151   7.765 -0.0825 -0.4479  0.2296
 2860SOL    HW120042   0.909   0.136   7.686  2.6357  0.3438  1.8346
 2860SOL    HW220043   0.906   0.222   7.808  2.3976 -2.2393  0.4158
 2861SOL     OW20044   4.678   0.355   5.824 -0.1519  0.1561 -0.0357
 2861SOL    HW120045   4.617   0.308   5.880 -1.7653 -1.2247 -2.9237
 2861SOL    HW220046   4.692   0.290   5.756 -1.2858 -0.6909  0.5335
 2862SOL     OW20047   1.890   4.376   0.405  0.2556 -0.1005  0.0340
 2862SOL    HW120048   1.844   4.448   0.448 -0.7217 -0.7062  0.0177
 2862SOL    HW220049   1.911   4.307   0.467  1.9861  0.9050  0.5464
 2863SOL     OW20050   2.135   1.064   5.407  0.1030 -0.0499 -0.2176
 2863SOL    HW120051   2.156   1.028   5.320 -0.3582  2.0092 -1.1674
 2863SOL    HW220052   2.104   1.152   5.386  1.2961  0.1622 -1.0751
 2864SOL     OW20053   0.854   1.689  10.336 -0.1680  0.5932  0.3124
 2864SOL    HW120054   0.796   1.745  10.284  0.4734  1.4633  0.5222
 2864SOL    HW220055   0.790   1.624  10.363 -0.8002  1.5903  1.2106
 2865SOL     OW20056   0.634   1.627  10.070 -0.0008  0.1007 -1.0317
 2865SOL    HW120057   0.691   1.702  10.049  1.4435 -0.8129 -0.3826
 2865SOL    HW220058   0.547   1.659  10.092  0.2000  0.2620 -0.4821
 2866SOL     OW20059   4.530   3.757   2.179  0.2592 -0.2795 -0.0763
 2866SOL    HW120060   4.478   3.744   2.100  0.7224  2.3031 -0.7968
 2866SOL    HW220061   4.612   3.788   2.141 -0.0973 -0.7249 -1.1936
 2867SOL     OW20062   1.836   4.037  17.450  0.1314  0.1627 -0.3737
 2867SOL    HW120063   1.911   4.047  17.508 -0.1256 -1.1411  0.1753
 2867SOL    HW220064   1.780   4.111  17.476 -0.8948 -1.0033  0.7523
 2868SOL     OW20065   2.415   0.714  12.418 -0.4506 -0.3951  0.1812
 2868SOL    HW120066   2.461   0.788  12.379 -2.8089  0.3140 -1.2538
 2868SOL    HW220067   2.377   0.751  12.498 -1.4286 -0.4106 -0.2827
 2869SOL     OW20068   3.229   1.547  17.203  0.2006  0.1607 -0.2088
 2869SOL    HW120069   3.292   1.605  17.160  0.8838  0.5113  1.2810
 2869SOL    HW220070   3.152   1.581  17.156 -0.2938 -1.9916 -0.9567
 2870SOL     OW20071   1.501   4.269  17.450 -0.4949 -0.4051  0.1483
 2870SOL    HW120072   1.428   4.302  17.503  0.8390  1.7641  0.6693
 2870SOL    HW220073   1.494   4.177  17.474 -1.5765  0.0103  1.4317
 2871SOL     OW20074   4.581   3.478   5.562  0.1354 -0.0973  0.1301
 2871SOL    HW120075   4.515   3.510   5.500 -0.4098  0.7782  1.1676
 2871SOL    HW220076   4.584   3.388   5.528  2.2288 -0.3745  1.0317
 2872SOL     OW20077   1.260   3.791   3.901  0.5056  0.0205  0.3689
 2872SOL    HW120078   1.354   3.779   3.890  0.9307  3.5469  0.0192
 2872SOL    HW220079   1.253   3.855   3.830 -1.1860  0.1537  0.6622
 2873SOL     OW20080   3.501   2.445   7.473 -0.4311  0.2347  0.4418
 2873SOL    HW120081   3.529   2.521   7.525 -1.2602  0.5200  0.4732
 2873SOL    HW220082   3.418   2.429   7.518 -1.3759 -0.5197 -1.5591
 2874SOL     OW20083   3.410   1.219   5.589 -0.2212  0.1685 -0.0474
 2874SOL    HW120084   3.481   1.229   5.526  1.0447 -0.6672  1.2423
 2874SOL    HW220085   3.436   1.136   5.628  2.2976  0.6354 -0.7872
 2875SOL     OW20086   2.021   3.403   3.957 -0.8213  0.1664  0.3285
 2875SOL    HW120087   2.091   3.381   3.896 -1.4381  0.1829 -0.3795
 2875SOL    HW220088   2.060   3.377   4.041 -0.5023  0.1448  0.1726
 2876SOL     OW20089   2.235   3.082   4.147  1.1546  0.5012 -0.0331
 2876SOL    HW120090   2.174   3.052   4.080  0.6066  1.2365  0.1294
 2876SOL    HW220091   2.263   3.165   4.109  1.8208  0.1584 -0.2901
 2877SOL     OW20092   0.639   1.805   4.397 -0.4959  0.3962 -0.1508
 2877SOL    HW120093   0.686   1.831   4.476  0.1808 -0.8850 -0.1190
 2877SOL    HW220094   0.703   1.825   4.329  0.5616 -0.9869  0.4218
 2878SOL     OW20095   1.045   3.643   3.792  0.6032 -0.1947 -0.0201
 2878SOL    HW120096   1.111   3.683   3.849  0.4834  1.0891 -0.7646
 2878SOL    HW220097   1.019   3.571   3.849 -2.1466  1.5073  0.8577
 2879SOL     OW20098   4.378   3.313  13.115 -0.0650 -0.2909  0.0067
 2879SOL    HW120099   4.300   3.256  13.110 -1.5453  1.7317  0.2691
 2879SOL    HW220100   4.436   3.252  13.068 -1.5277 -1.2801 -0.5469
 2880SOL     OW20101   3.795   3.893  11.882 -0.1386  0.3493 -0.3498
 2880SOL    HW120102   3.875   3.847  11.905  0.5777  0.4952 -2.5689
 2880SOL    HW220103   3.766   3.920  11.970 -1.6682  0.4444 -0.8783
 2881SOL     OW20104   3.841   0.245  11.095  0.4585 -0.0864  0.0038
 2881SOL    HW120105   3.819   0.206  11.010  0.3912 -1.4568  0.6432
 2881SOL    HW220106   3.841   0.172  11.156  0.0560 -0.3437 -0.2985
 2882SOL     OW20107   0.056   1.520   8.397 -0.8382  0.0227 -0.3822
 2882SOL    HW120108   0.068   1.539   8.304 -0.5613 -0.6371 -0.4768
 2882SOL    HW220109   0.112   1.588   8.435  1.3044 -0.5531 -2.5252
 2883SOL     OW20110   4.465   2.856   3.728  0.2055  0.2822 -0.2634
 2883SOL    HW120111   4.457   2.877   3.635 -0.9851 -0.1268 -0.2555
 2883SOL    HW220112   4.512   2.933   3.760 -0.6507  0.2165  1.1618
 2884SOL     OW20113   4.635   2.185   2.547 -0.1960 -0.1276 -0.0114
 2884SOL    HW120114   0.008   2.192   2.543 -0.4915  2.7500 -1.8413
 2884SOL    HW220115   4.627   2.136   2.629  0.1964 -2.1117 -1.1612
 2885SOL     OW20116   4.529   2.901   8.537  0.1025 -0.4791  0.4445
 2885SOL    HW120117   4.513   2.825   8.593 -0.2105 -1.2982 -0.7463
 2885SOL    HW220118   4.625   2.902   8.531  0.0876  0.4789  0.3846
 2886SOL     OW20119   0.261   3.745  12.697  0.4920  0.0113  0.1676
 2886SOL    HW120120   0.265   3.806  12.771  2.1562  1.4452 -1.1145
 2886SOL    HW220121   0.167   3.746  12.678  0.8157  1.6330 -1.3200
 2887SOL     OW20122   3.063   0.105  16.011  0.4754  0.3381  0.6714
 2887SOL    HW120123   3.105   0.076  16.092  2.2442  1.7290  0.2481
 2887SOL    HW220124   2.969   0.095  16.023  0.3038  1.0123 -0.2040
 2888SOL     OW20125   1.212   4.655   3.963  0.0691  0.2293 -0.3939
 2888SOL    HW120126   1.301   4.623   3.945  0.8600  2.0647  0.2592
 2888SOL    HW220127   1.179   4.582   4.015  0.8635  0.3445  0.2702
 2889SOL     OW20128   4.234   1.135   5.040 -0.8433 -0.3056 -0.2825
 2889SOL    HW120129   4.290   1.212   5.051  0.3251 -1.3450  0.9841
 2889SOL    HW220130   4.173   1.173   4.977 -2.3916 -2.4154 -0.0456
 2890SOL     OW20131   3.953   1.591  12.293  0.2394 -0.0375  0.4163
 2890SOL    HW120132   3.873   1.613  12.244  1.0336  1.1445 -0.3572
 2890SOL    HW220133   4.018   1.640  12.243 -0.3913 -1.0791 -1.4345
 2891SOL     OW20134   3.333   2.066   3.798  0.1408 -0.0217 -0.0695
 2891SOL    HW120135   3.304   2.149   3.760  0.3318  0.3581  0.6195
 2891SOL    HW220136   3.317   2.004   3.727  0.0042 -0.0903  0.0220
 2892SOL     OW20137   4.378   4.384   8.288 -0.1029  0.2462 -0.5201
 2892SOL    HW120138   4.291   4.351   8.313 -0.9861  1.5690 -1.8693
 2892SOL    HW220139   4.443   4.333   8.337  2.3907  1.7907 -2.2681
 2893SOL     OW20140   2.670   4.182   9.670  0.0651  0.6017  0.1086
 2893SOL    HW120141   2.728   4.252   9.641  0.2165 -0.5991 -2.4824
 2893SOL    HW220142   2.705   4.106   9.623  2.7973  0.5663  2.2042
 2894SOL     OW20143   1.329   1.393   8.100 -0.6822 -0.1846 -0.4742
 2894SOL    HW120144   1.262   1.325   8.091  0.1474 -0.7995 -1.8881
 2894SOL    HW220145   1.332   1.391   8.196 -0.5797 -0.5812 -0.4854
 2895SOL     OW20146   3.346   4.038   2.483  0.0613  0.8015 -0.2104
 2895SOL    HW120147   3.315   4.028   2.573  2.1786 -0.4931  0.3674
 2895SOL    HW220148   3.435   4.005   2.496 -0.7142 -2.1624 -2.5099
 2896SOL     OW20149   3.982   0.316   9.410  0.5655 -0.0331  0.5053
 2896SOL    HW120150   3.929   0.299   9.487  0.4706 -1.7999  0.0616
 2896SOL    HW220151   3.918   0.322   9.339  0.6460 -0.5436  0.3868
 2897SOL     OW20152   3.759   1.373   1.418  0.2115  0.2718 -0.1214
 2897SOL    HW120153   3.716   1.358   1.334  0.1266  3.5637 -0.6636
 2897SOL    HW220154   3.852   1.386   1.401  0.4097  0.3715  1.0083
 2898SOL     OW20155   0.602   4.621   1.606  0.0226  0.4426 -0.0974
 2898SOL    HW120156   0.635   4.669   1.681 -0.4971 -0.1820  0.5291
 2898SOL    HW220157   0.536   4.685   1.580 -0.5234 -0.2757 -0.4769
 2899SOL     OW20158   1.296   2.533  12.079 -0.0264 -0.1588 -0.2244
 2899SOL    HW120159   1.206   2.542  12.110  0.7233  0.1179  1.8790
 2899SOL    HW220160   1.351   2.546  12.156 -1.5554  1.9019  0.5070
 2900SOL     OW20161   1.681   1.162  16.040  0.3581 -0.4681  0.3266
 2900SOL    HW120162   1.680   1.229  16.108  1.2773 -0.6174  0.4793
 2900SOL    HW220163   1.714   1.210  15.964 -0.2607 -1.2599 -0.4515
 2901SOL     OW20164   0.507   3.923  14.459 -0.2114 -0.3413  0.2836
 2901SOL    HW120165   0.481   3.837  14.494  0.1570  0.2880  2.1310
 2901SOL    HW220166   0.567   3.956  14.526 -0.7126 -1.1616  1.1412
 2902SOL     OW20167   3.053   1.111   3.828  0.3229  0.1166 -0.1870
 2902SOL    HW120168   3.001   1.046   3.876 -0.1787  0.2628 -0.5377
 2902SOL    HW220169   2.994   1.186   3.823  1.5259  1.1142  0.6170
 2903SOL     OW20170   1.463   1.016   6.191 -0.2514 -0.1517  0.0406
 2903SOL    HW120171   1.381   1.056   6.221 -0.0562 -0.2740  0.7355
 2903SOL    HW220172   1.483   1.073   6.117  1.3256  1.8716  1.9785
 2904SOL     OW20173   1.901   2.796   7.349  0.2410 -0.1958  0.2474
 2904SOL    HW120174   1.904   2.702   7.329  0.1804 -0.4639  1.4784
 2904SOL    HW220175   1.808   2.816   7.354  0.1113 -0.9026  0.6197
 2905SOL     OW20176   3.181   3.280   7.307  0.3795  0.6775 -0.3222
 2905SOL    HW120177   3.188   3.253   7.398  1.4953  0.2720 -0.5334
 2905SOL    HW220178   3.205   3.372   7.313 -0.2016  0.7665  0.5627
 2906SOL     OW20179   4.031   1.862   8.877 -0.4268  0.3726 -0.1512
 2906SOL    HW120180   4.016   1.876   8.784 -0.5034  0.8158 -0.0728
 2906SOL    HW220181   3.957   1.812   8.912  1.2756 -1.0477  1.4239
 2907SOL     OW20182   4.011   0.721  10.907  0.1409 -0.2065 -0.5322
 2907SOL    HW120183   3.979   0.650  10.852 -0.6319  0.9336 -1.5586
 2907SOL    HW220184   3.940   0.716  10.970  0.1348 -1.8074 -0.6733
 2908SOL     OW20185   3.986   2.943   5.364 -0.7854  0.1211  0.1872
 2908SOL    HW120186   3.941   2.877   5.311 -0.1628 -1.5418  1.7027
 2908SOL    HW220187   3.945   3.024   5.334  3.0703  0.7820 -3.2147
 2909SOL     OW20188   2.913   2.028   8.001  0.0110 -0.4885 -0.4284
 2909SOL    HW120189   2.958   2.000   8.081  1.9087  2.0382 -0.5987
 2909SOL    HW220190   2.827   2.041   8.039  0.4452  0.5186  0.2069
 2910SOL     OW20191   2.224   1.934   7.653 -0.2522  0.1171 -0.2888
 2910SOL    HW120192   2.203   1.920   7.746 -0.1423 -0.3375 -0.3313
 2910SOL    HW220193   2.149   1.896   7.609  0.4247  0.2087 -1.5184
 2911SOL     OW20194   1.867   4.513  13.113 -0.6960  0.6501 -0.3713
 2911SOL    HW120195   1.893   4.489  13.024  1.2819  0.2106  0.3167
 2911SOL    HW220196   1.785   4.464  13.114  0.4456 -1.2572 -0.0511
 2912SOL     OW20197   2.387   3.370   8.672  0.3746 -1.0290  0.6036
 2912SOL    HW120198   2.317   3.306   8.686  0.7899 -1.4168  0.9000
 2912SOL    HW220199   2.369   3.408   8.586 -0.6612  0.9169  1.6797
 2913SOL     OW20200   4.108   0.333   7.867  0.0466 -0.1311 -0.2754
 2913SOL    HW120201   4.102   0.326   7.962 -2.5258  0.8196 -0.3450
 2913SOL    HW220202   4.202   0.342   7.852 -0.8705  1.1748 -5.4241
 2914SOL     OW20203   1.896   2.612   3.119 -0.1206  0.1362 -0.0895
 2914SOL    HW120204   1.875   2.629   3.211 -0.5269  1.7388 -0.4874
 2914SOL    HW220205   1.922   2.520   3.121 -2.3068 -0.5051 -0.7984
 2915SOL     OW20206   0.074   0.816  11.978  0.0825 -0.7874 -0.3191
 2915SOL    HW120207   0.014   0.803  12.052 -1.1891  1.8760 -0.8987
 2915SOL    HW220208   0.159   0.803  12.019  0.7347  1.7803 -0.9081
 2916SOL     OW20209   2.376   0.827   9.357  0.5885 -0.2283  0.8564
 2916SOL    HW120210   2.364   0.896   9.292 -0.6766  0.5361  1.8934
 2916SOL    HW220211   2.352   0.744   9.316 -1.8110  1.9035 -2.0657
 2917SOL     OW20212   4.532   4.333   5.829 -0.0896  0.2702  0.0438
 2917SOL    HW120213   4.600   4.398   5.845  0.8294 -1.1329  1.8734
 2917SOL    HW220214   4.524   4.340   5.734  0.0899 -2.5373 -0.1756
 2918SOL     OW20215   0.030   4.706  15.906  0.5299 -0.0599 -0.1218
 2918SOL    HW120216   0.073   4.663  15.832 -1.0195  1.2396 -1.7970
 2918SOL    HW220217   4.666   4.668  15.903 -0.0035  0.9031  3.1311
 2919SOL     OW20218   2.312   1.198   5.216 -0.0531 -0.3144  0.2167
 2919SOL    HW120219   2.243   1.226   5.155  0.3603 -0.4566 -0.3189
 2919SOL    HW220220   2.359   1.145   5.151  2.0067  2.0434 -0.2169
 2920SOL     OW20221   4.462   3.555   8.999  0.2639  0.3531  0.6266
 2920SOL    HW120222   4.514   3.636   9.002  1.0975 -0.2010  0.8823
 2920SOL    HW220223   4.477   3.524   8.910  1.2992 -0.6780  1.1663
 2921SOL     OW20224   4.446   0.683  16.085  0.5398 -0.3118 -0.2575
 2921SOL    HW120225   4.420   0.769  16.051 -0.1307 -0.8119 -0.9982
 2921SOL    HW220226   4.376   0.623  16.059 -1.0766  1.2986  0.4029
 2922SOL     OW20227   1.769   3.817   6.615 -0.2126 -0.0356  0.1996
 2922SOL    HW120228   1.760   3.730   6.577 -1.0525 -0.3679  1.1627
 2922SOL    HW220229   1.837   3.853   6.559 -1.6183 -0.0906 -1.5392
 2923SOL     OW20230   3.557   3.684  15.750  0.4499  0.6231 -0.7358
 2923SOL    HW120231   3.482   3.695  15.691 -0.4126  2.1665  0.6455
 2923SOL    HW220232   3.610   3.614  15.714 -0.3642 -0.0281 -0.6855
 2924SOL     OW20233   2.997   3.922  16.831  0.0914  0.2693  0.1988
 2924SOL    HW120234   3.071   3.968  16.870 -1.6355  1.3273  2.1942
 2924SOL    HW220235   3.004   3.829  16.854  1.1487  0.7986  2.0001
 2925SOL     OW20236   1.965   4.133   8.233  0.1810 -0.0478  1.2102
 2925SOL    HW120237   1.876   4.162   8.213  0.6149 -0.1397 -0.8399
 2925SOL    HW220238   1.955   4.040   8.254 -1.1739  0.9665  5.0023
 2926SOL     OW20239   0.609   0.110   7.698 -0.4398 -0.6756 -0.0587
 2926SOL    HW120240   0.589   0.201   7.717 -1.6358 -1.0324  0.3679
 2926SOL    HW220241   0.697   0.106   7.736 -0.3334 -3.5259 -0.5807
 2927SOL     OW20242   0.749   1.048   8.128  0.5577 -0.3499  0.3489
 2927SOL    HW120243   0.799   0.976   8.090  0.0380 -0.8442  0.6170
 2927SOL    HW220244   0.658   1.021   8.136  0.4116 -0.5246 -1.9435
 2928SOL     OW20245   0.376   1.809  12.460 -0.1181  0.0751 -0.1808
 2928SOL    HW120246   0.325   1.746  12.509 -1.7417  0.8828 -0.8390
 2928SOL    HW220247   0.461   1.797  12.503 -0.2754  1.6302  0.5811
 2929SOL     OW20248   3.697   3.141   1.754  0.5241 -0.5896  0.4896
 2929SOL    HW120249   3.748   3.163   1.676 -2.0610  1.0476 -0.7580
 2929SOL    HW220250   3.750   3.093   1.817  0.3320 -1.5527 -0.0914
 2930SOL     OW20251   4.696   2.642   5.987 -0.1436 -0.2043  0.3415
 2930SOL    HW120252   4.627   2.651   6.052  0.9759  0.0015  1.5101
 2930SOL    HW220253   4.638   2.626   5.913  1.4816 -1.1229 -0.7553
 2931SOL     OW20254   3.664   2.544   8.671  0.7677 -0.6544 -0.0421
 2931SOL    HW120255   3.593   2.538   8.607  1.8904  1.0886 -1.4480
 2931SOL    HW220256   3.636   2.615   8.728 -1.5411 -0.2612 -1.6646
 2932SOL     OW20257   4.384   0.895   1.716 -0.9548 -0.0358  0.3653
 2932SOL    HW120258   4.359   0.889   1.624  0.4635  0.1811 -0.0335
 2932SOL    HW220259   4.469   0.852   1.704 -0.4873  0.8043  0.6939
 2933SOL     OW20260   0.200   2.951  12.589 -0.0937  0.5495  0.1172
 2933SOL    HW120261   0.124   2.920  12.540 -0.2679  0.9997  0.1010
 2933SOL    HW220262   0.161   3.034  12.617 -0.6604  0.0033  0.9453
 2934SOL     OW20263   0.355   3.904  11.544 -0.2208 -0.2655 -0.1406
 2934SOL    HW120264   0.412   3.848  11.492  1.5935  1.6908 -0.2644
 2934SOL    HW220265   0.354   3.984  11.491 -0.0089  0.1358  0.4571
 2935SOL     OW20266   2.625   1.648   6.620  0.3845 -0.0688 -0.3555
 2935SOL    HW120267   2.566   1.617   6.551  0.1769 -0.3759 -0.0403
 2935SOL    HW220268   2.579   1.603   6.691 -1.1998  1.4519 -0.4094
 2936SOL     OW20269   3.189   2.576   8.078 -0.3886  0.0198 -0.0613
 2936SOL    HW120270   3.107   2.559   8.123 -0.7202 -0.3102 -0.7946
 2936SOL    HW220271   3.187   2.669   8.056 -0.3147 -0.3720 -1.7378
 2937SOL     OW20272   0.540   4.176   6.020 -0.2268 -0.1549  0.3570
 2937SOL    HW120273   0.519   4.186   6.113 -1.1568  1.7842 -0.0828
 2937SOL    HW220274   0.559   4.265   5.993  0.9287 -0.5443 -0.1153
 2938SOL     OW20275   4.182   2.899   5.725 -0.0248  0.1365  0.0058
 2938SOL    HW120276   4.216   2.858   5.804 -0.3730 -2.3710 -1.1648
 2938SOL    HW220277   4.107   2.953   5.750  0.1985  0.1051  0.7245
 2939SOL     OW20278   3.022   1.203   6.185 -0.1646 -0.3424 -0.5490
 2939SOL    HW120279   3.092   1.141   6.206 -1.7690 -2.3916 -1.2257
 2939SOL    HW220280   3.010   1.244   6.270 -0.3325 -1.0442 -0.2304
 2940SOL     OW20281   2.643   0.565   6.079 -0.3919  0.2163  0.3899
 2940SOL    HW120282   2.631   0.513   6.159 -0.0035 -3.6196 -2.0136
 2940SOL    HW220283   2.701   0.638   6.098 -0.9993  0.9011 -0.3848
 2941SOL     OW20284   0.018   3.672  11.271  0.3702 -0.3906  0.0530
 2941SOL    HW120285   4.710   3.648  11.184 -1.1671 -4.3767  1.7385
 2941SOL    HW220286   4.675   3.640  11.333 -0.1979  2.5910  0.9913
 2942SOL     OW20287   2.210   1.152   1.467 -0.4401 -0.3118 -0.0019
 2942SOL    HW120288   2.187   1.197   1.385  1.0642 -3.3105 -2.0739
 2942SOL    HW220289   2.296   1.191   1.483 -1.1764  1.6422 -0.7673
 2943SOL     OW20290   0.245   2.348   8.187  0.1496  0.0201 -0.6146
 2943SOL    HW120291   0.198   2.428   8.163  0.2593  0.0998 -0.5658
 2943SOL    HW220292   0.281   2.380   8.270  0.7993  0.1565 -0.9476
 2944SOL     OW20293   0.064   2.894   9.183 -0.4627 -0.1108 -0.2136
 2944SOL    HW120294   0.053   2.858   9.272  1.3717  1.2110  0.5295
 2944SOL    HW220295   0.125   2.961   9.212 -0.1538 -0.2022 -0.6606
 2945SOL     OW20296   0.141   3.341   1.357  0.0729 -1.1608 -0.2039
 2945SOL    HW120297   0.065   3.284   1.348 -1.4323  0.8490 -0.2184
 2945SOL    HW220298   0.103   3.420   1.319 -1.0125 -1.3278  0.5452
 2946SOL     OW20299   2.237   4.489   8.147  0.1994  0.7393 -0.6387
 2946SOL    HW120300   2.164   4.542   8.115  0.0279  0.4845 -0.6675
 2946SOL    HW220301   2.283   4.553   8.200 -0.0019  0.8033 -0.5421
 2947SOL     OW20302   3.995   3.312  13.409  0.5704 -0.2684  0.2775
 2947SOL    HW120303   3.916   3.272  13.443 -0.3388  0.3353 -1.1292
 2947SOL    HW220304   4.047   3.236  13.381  1.0023 -0.1305  0.7012
 2948SOL     OW20305   2.521   3.373   8.314  0.6794 -0.0485  0.0768
 2948SOL    HW120306   2.598   3.318   8.328  1.5290  1.4099  1.2016
 2948SOL    HW220307   2.548   3.457   8.351  0.9569  1.2174 -2.9834
 2949SOL     OW20308   3.365   3.016   4.787 -0.3928  0.0488 -0.7267
 2949SOL    HW120309   3.364   3.071   4.709 -0.4591 -1.4464 -1.7816
 2949SOL    HW220310   3.284   3.034   4.834  0.6641  1.2641  0.6307
 2950SOL     OW20311   1.140   1.419   3.248 -0.6841  0.5544  0.7078
 2950SOL    HW120312   1.157   1.429   3.154 -0.3013 -3.1687  0.3835
 2950SOL    HW220313   1.171   1.331   3.270 -0.8205  0.9349  2.4363
 2951SOL     OW20314   2.074   0.202   7.800 -0.4443 -0.5061  0.1083
 2951SOL    HW120315   2.162   0.221   7.768 -1.2470  0.5259 -1.5301
 2951SOL    HW220316   2.024   0.191   7.719  0.0563 -1.5206 -0.0569
 2952SOL     OW20317   4.254   3.227   3.436 -0.5047 -0.6788 -0.1842
 2952SOL    HW120318   4.195   3.301   3.450 -0.0013 -0.1835 -0.6820
 2952SOL    HW220319   4.207   3.151   3.472  1.1846 -1.6130  0.0436
 2953SOL     OW20320   0.102   3.380   8.820  0.4273 -0.8301 -0.0395
 2953SOL    HW120321   0.114   3.299   8.869  1.9301  0.3063  1.4863
 2953SOL    HW220322   0.007   3.377   8.809  0.4791 -3.9816  0.3235
 2954SOL     OW20323   3.493   0.728   9.346 -0.0806  0.5585 -0.1714
 2954SOL    HW120324   3.458   0.657   9.400 -0.5919  1.9649  1.3352
 2954SOL    HW220325   3.564   0.676   9.309 -2.8409 -2.5115 -1.1261
 2955SOL     OW20326   2.990   1.497   5.862 -0.7435  0.5392  0.4113
 2955SOL    HW120327   2.899   1.486   5.891 -1.3174 -1.2634 -2.0055
 2955SOL    HW220328   3.020   1.408   5.877  3.4842  1.6391 -1.4425
 2956SOL     OW20329   4.031   1.191   4.171  0.3136  0.3078  0.2408
 2956SOL    HW120330   3.975   1.244   4.114  0.0785  2.2703  2.2857
 2956SOL    HW220331   4.010   1.106   4.132  3.9278 -0.8986  0.9271
 2957SOL     OW20332   2.614   1.391   7.379  0.3044 -0.4663 -0.0503
 2957SOL    HW120333   2.677   1.454   7.413 -0.1474 -1.0526  1.8751
 2957SOL    HW220334   2.571   1.439   7.308 -1.6290 -0.3706  1.1843
 2958SOL     OW20335   3.953   0.487   8.913  0.0841 -0.7388  0.2141
 2958SOL    HW120336   4.001   0.415   8.955  0.7164 -0.6318 -0.3420
 2958SOL    HW220337   3.907   0.435   8.847  1.4366 -0.0856 -1.2013
 2959SOL     OW20338   2.570   4.589   0.659 -0.3349 -0.1779  0.3062
 2959SOL    HW120339   2.528   4.616   0.578  2.2916  0.1462 -0.9436
 2959SOL    HW220340   2.649   4.540   0.635 -0.0328 -0.5277  1.9789
 2960SOL     OW20341   1.885   0.776   7.340 -0.0842 -0.0481  0.1071
 2960SOL    HW120342   1.810   0.785   7.399  0.7323  0.9384  0.9950
 2960SOL    HW220343   1.940   0.722   7.397  0.9363 -0.6415 -1.4243
 2961SOL     OW20344   2.727   3.209  14.748 -0.3432  0.0940 -0.4680
 2961SOL    HW120345   2.737   3.117  14.726 -0.0272 -0.0908  0.4798
 2961SOL    HW220346   2.632   3.216  14.759 -0.1994 -1.4965  1.6746
 2962SOL     OW20347   2.173   4.512  16.468  0.0890  0.0752 -0.8519
 2962SOL    HW120348   2.114   4.461  16.525 -0.9397  1.8390 -0.3338
 2962SOL    HW220349   2.253   4.512  16.521 -1.2867 -2.2148  1.2825
 2963SOL     OW20350   1.857   1.500   5.570  0.4520 -0.3077 -0.1543
 2963SOL    HW120351   1.838   1.593   5.555 -1.9753 -0.9506 -1.0507
 2963SOL    HW220352   1.829   1.477   5.659  0.6699  1.2173  0.3138
 2964SOL     OW20353   3.653   2.645  17.463  0.0457 -0.2072  0.3806
 2964SOL    HW120354   3.570   2.622  17.423 -0.4780 -0.0789  1.3974
 2964SOL    HW220355   3.683   2.569  17.512  2.2851  0.5920  0.2690
 2965SOL     OW20356   1.370   3.991   4.378  0.0865 -0.0346 -0.7744
 2965SOL    HW120357   1.297   3.982   4.317 -0.6533 -1.3418  0.3062
 2965SOL    HW220358   1.339   4.063   4.433  0.5622 -0.4076 -0.0153
 2966SOL     OW20359   4.342   1.745   7.870 -0.4469 -0.5462  0.2427
 2966SOL    HW120360   4.322   1.832   7.837 -0.7500 -1.3957 -1.8280
 2966SOL    HW220361   4.326   1.691   7.793  0.0286 -1.3935  0.7313
 2967SOL     OW20362   1.837   3.399   8.761 -0.1176  0.2551  0.1120
 2967SOL    HW120363   1.886   3.329   8.803 -0.8347  0.5590  1.4508
 2967SOL    HW220364   1.911   3.445   8.721 -2.0348  1.6966 -1.7868
 2968SOL     OW20365   2.384   0.914   7.381 -0.2039  0.0930 -0.0067
 2968SOL    HW120366   2.447   0.985   7.391 -0.3413  0.0082  1.4507
 2968SOL    HW220367   2.432   0.842   7.424 -1.2779 -0.4414  0.3106
 2969SOL     OW20368   0.264   2.971   5.025  0.1602  0.1008 -0.1333
 2969SOL    HW120369   0.319   2.899   5.056 -0.8614  0.3196  2.2289
 2969SOL    HW220370   0.190   2.951   5.082  0.5201 -1.2003 -0.1172
 2970SOL     OW20371   0.984   1.307   8.413 -0.2310 -0.4584 -0.7860
 2970SOL    HW120372   0.960   1.280   8.502 -1.1399 -1.2090 -1.2509
 2970SOL    HW220373   1.078   1.319   8.427 -0.8285  2.2664  0.9142
 2971SOL     OW20374   3.994   1.464   5.307  0.2137  0.9956  0.1559
 2971SOL    HW120375   3.948   1.392   5.350  1.3478 -0.7994 -1.6303
 2971SOL    HW220376   4.051   1.491   5.380 -0.1396 -2.3154  1.6789
 2972SOL     OW20377   0.102   0.423   1.902 -0.0902 -0.2799  0.3484
 2972SOL    HW120378   0.021   0.375   1.885  0.4151 -0.2185 -2.1634
 2972SOL    HW220379   0.176   0.366   1.882 -0.2538 -0.7419  1.0376
 2973SOL     OW20380   2.792   0.046   2.830 -0.0703  0.5048 -0.2918
 2973SOL    HW120381   2.724   0.093   2.782 -0.3782  0.7823  0.4104
 2973SOL    HW220382   2.785   0.091   2.914 -0.8539 -0.0211 -0.0761
 2974SOL     OW20383   1.480   2.160  14.312 -0.3347 -0.4308 -0.3287
 2974SOL    HW120384   1.458   2.135  14.222 -0.4086  0.6078 -0.5960
 2974SOL    HW220385   1.514   2.249  14.304  3.5183 -1.7124  2.0836
 2975SOL     OW20386   4.016   1.026  17.559  0.4303  0.0564  0.3767
 2975SOL    HW120387   4.061   1.005  17.477  0.7867 -0.5279  0.7189
 2975SOL    HW220388   4.032   0.942  17.603 -1.3652 -0.5188 -0.0606
 2976SOL     OW20389   4.343   2.529  17.293  0.1968  0.1456 -0.2358
 2976SOL    HW120390   4.361   2.436  17.277  0.0440  0.0988 -0.1401
 2976SOL    HW220391   4.367   2.575  17.212  1.0528  0.5745  0.2626
 2977SOL     OW20392   0.878   2.596   1.653  0.1962  0.4239  0.3105
 2977SOL    HW120393   0.883   2.662   1.584 -1.5299  0.6800  0.4220
 2977SOL    HW220394   0.854   2.517   1.606 -3.7022  1.5531  0.3788
 2978SOL     OW20395   0.031   2.547   1.835 -0.2206 -0.4866  0.1422
 2978SOL    HW120396   4.696   2.616   1.803  1.0849 -0.1302 -1.4314
 2978SOL    HW220397   0.029   2.482   1.765  0.9576  0.0734 -0.3995
 2979SOL     OW20398   1.044   4.607   6.022 -0.0217 -0.0916  0.8290
 2979SOL    HW120399   1.136   4.584   6.018 -0.6392 -2.3583 -0.5341
 2979SOL    HW220400   1.013   4.543   6.086  0.1555 -1.0219 -0.0188
 2980SOL     OW20401   1.230   2.549   8.928 -0.2904  0.2525  0.1567
 2980SOL    HW120402   1.295   2.481   8.944 -0.5788 -0.1188 -0.2381
 2980SOL    HW220403   1.218   2.589   9.014  0.7014 -0.1580  0.4850
 2981SOL     OW20404   2.013   0.941   1.242  0.1705 -0.1357 -0.0904
 2981SOL    HW120405   2.038   0.873   1.305  1.7543  1.8302  1.4181
 2981SOL    HW220406   1.928   0.967   1.278  0.9615  2.2574  0.0542
 2982SOL     OW20407   0.424   3.341  13.524 -0.1302 -0.4362  0.0590
 2982SOL    HW120408   0.438   3.361  13.431 -0.8004 -0.1039  0.0290
 2982SOL    HW220409   0.332   3.363  13.539  0.1720  0.9667 -0.1450
 2983SOL     OW20410   3.535   2.684   1.674 -0.0868  0.1273  0.4674
 2983SOL    HW120411   3.543   2.763   1.727 -1.4493  0.9044 -0.4619
 2983SOL    HW220412   3.618   2.637   1.678  1.4705  2.8401  0.1910
 2984SOL     OW20413   1.573   3.900   0.732  0.0536  0.3905  0.7403
 2984SOL    HW120414   1.549   3.829   0.792  1.2231 -0.2844  0.4163
 2984SOL    HW220415   1.492   3.908   0.682  0.7656 -2.6110 -0.9039
 2985SOL     OW20416   4.268   1.214  10.413 -0.1763  0.3807  0.0177
 2985SOL    HW120417   4.346   1.169  10.446 -0.5713  0.9104  1.6555
 2985SOL    HW220418   4.227   1.219  10.499 -0.4783 -1.2656 -0.0284
 2986SOL     OW20419   3.308   3.547   7.969 -0.6588 -0.0594  0.1143
 2986SOL    HW120420   3.254   3.504   7.902 -0.3558 -0.6948  0.2710
 2986SOL    HW220421   3.336   3.476   8.027  1.4077 -1.2391 -2.2884
 2987SOL     OW20422   4.543   2.607   2.228 -0.2362 -0.0363  0.4840
 2987SOL    HW120423   4.538   2.540   2.159  0.1353  3.0067 -2.5058
 2987SOL    HW220424   4.639   2.615   2.232 -0.1136 -0.8040 -0.4908
 2988SOL     OW20425   0.608   0.501  13.983 -0.1592 -1.2731 -0.4161
 2988SOL    HW120426   0.561   0.522  14.064  0.4354  1.9411 -0.8893
 2988SOL    HW220427   0.614   0.590  13.947 -0.3920 -0.2038  2.1523
 2989SOL     OW20428   0.595   3.609   1.273  0.7206  0.3209  0.8277
 2989SOL    HW120429   0.598   3.656   1.190  0.1230  3.6176  2.6752
 2989SOL    HW220430   0.516   3.556   1.265  0.0962  1.6643 -1.8651
 2990SOL     OW20431   2.702   1.518   3.606 -0.1354 -0.6070  0.3188
 2990SOL    HW120432   2.773   1.489   3.549 -0.0516 -2.3968  1.3259
 2990SOL    HW220433   2.750   1.568   3.673  2.4419 -2.9446  0.2021
 2991SOL     OW20434   0.597   1.133   8.763  0.6361 -0.4394  0.2774
 2991SOL    HW120435   0.601   1.156   8.671  0.7656  0.2799  0.4663
 2991SOL    HW220436   0.604   1.216   8.810 -4.0830 -0.2598  0.6442
 2992SOL     OW20437   0.866   1.855   4.564 -0.5560  0.5969 -0.0840
 2992SOL    HW120438   0.891   1.947   4.563  0.5754  0.2818  0.0369
 2992SOL    HW220439   0.933   1.809   4.514  0.3191  0.3202  1.3354
 2993SOL     OW20440   0.638   1.985   4.788  0.2431  0.6834 -0.0395
 2993SOL    HW120441   0.583   1.907   4.800 -2.3871  2.6208  0.4898
 2993SOL    HW220442   0.573   2.048   4.759 -2.0276 -1.6600 -0.0375
 2994SOL     OW20443   1.785   3.838   0.584  0.1924  0.0677  0.0036
 2994SOL    HW120444   1.867   3.842   0.633  0.1582  0.5290  0.0276
 2994SOL    HW220445   1.714   3.869   0.640  0.5563  0.1420  0.4209
 2995SOL     OW20446   3.329   3.524   2.331  0.4059  0.0455  0.4090
 2995SOL    HW120447   3.405   3.465   2.333  0.0186 -0.4276  0.9675
 2995SOL    HW220448   3.336   3.551   2.239  1.1072  1.6385  0.9281
 2996SOL     OW20449   2.900   2.584   6.685 -0.4633 -0.4171  0.0258
 2996SOL    HW120450   2.931   2.531   6.759  1.2653 -0.5866 -0.8253
 2996SOL    HW220451   2.824   2.632   6.717  0.1125  0.5728 -0.1004
 2997SOL     OW20452   0.027   1.706   1.500  0.4893  0.1720  0.6383
 2997SOL    HW120453   4.664   1.743   1.482  0.8215  0.0657 -1.1479
 2997SOL    HW220454   0.092   1.764   1.460 -0.4683  1.2012  0.5948
 2998SOL     OW20455   4.197   4.183   3.303 -0.3575  0.3272 -0.3101
 2998SOL    HW120456   4.182   4.091   3.326  0.6856  0.8348  2.4955
 2998SOL    HW220457   4.192   4.183   3.208  1.9737 -0.5930 -0.4514
 2999SOL     OW20458   2.015   1.686   0.801  0.1767 -0.1740  0.2495
 2999SOL    HW120459   2.105   1.717   0.811 -0.3070  0.6226  2.1276
 2999SOL    HW220460   2.015   1.597   0.834  1.8199 -0.7833 -1.3668
 3000SOL     OW20461   1.253   4.116  16.717 -0.5301 -0.1786  0.2625
 3000SOL    HW120462   1.171   4.067  16.716 -0.3026 -0.5845  1.2421
 3000SOL    HW220463   1.238   4.171  16.795  0.3463  0.9419 -0.3534
 3001SOL     OW20464   2.808   3.189  13.520  0.4463  0.3523  0.2755
 3001SOL    HW120465   2.728   3.148  13.488  0.9761 -0.2400 -0.2733
 3001SOL    HW220466   2.831   3.240  13.443  1.8019 -2.3513 -1.1081
 3002SOL     OW20467   3.490   0.443   8.003 -0.1343 -0.1231 -0.1751
 3002SOL    HW120468   3.563   0.396   7.963  0.3378 -1.9878  2.8642
 3002SOL    HW220469   3.482   0.380   8.075 -0.4705  0.6201  0.4369
 3003SOL     OW20470   0.481   2.412   7.471 -0.6351 -0.0942 -0.3002
 3003SOL    HW120471   0.514   2.461   7.546  1.2368 -2.3369  0.3501
 3003SOL    HW220472   0.499   2.477   7.403  1.0575  1.3589  1.5302
 3004SOL     OW20473   1.094   1.777   7.290 -0.3451  0.4312  0.1046
 3004SOL    HW120474   1.186   1.769   7.265 -0.2145  1.9316  0.1258
 3004SOL    HW220475   1.108   1.803   7.381  0.0677  3.0548 -0.7111
 3005SOL     OW20476   2.187   4.076   1.511 -0.2101 -0.6784 -0.3923
 3005SOL    HW120477   2.187   3.997   1.565 -6.0102 -1.1631 -1.1366
 3005SOL    HW220478   2.126   4.040   1.447  1.0487 -0.4685 -1.7059
 3006SOL     OW20479   3.158   3.241   5.652  0.1141 -0.6780 -0.5426
 3006SOL    HW120480   3.245   3.236   5.613 -0.4123 -0.2804 -1.7737
 3006SOL    HW220481   3.156   3.174   5.721 -0.9603 -0.4437 -0.3390
 3007SOL     OW20482   1.092   4.128   7.877 -0.1103 -0.3712 -0.5357
 3007SOL    HW120483   1.119   4.216   7.904 -0.2194  0.0867 -1.9173
 3007SOL    HW220484   1.066   4.153   7.788 -1.4649  0.3856  0.0616
 3008SOL     OW20485   2.361   4.576   9.092  0.1014 -0.0398  0.2535
 3008SOL    HW120486   2.278   4.540   9.063 -0.1194 -0.1901  1.0603
 3008SOL    HW220487   2.421   4.528   9.035  2.7453  1.7802  1.4705
 3009SOL     OW20488   3.178   1.792   5.993  0.2125 -0.5549  0.1303
 3009SOL    HW120489   3.125   1.723   6.033 -2.9944  0.5501 -2.2152
 3009SOL    HW220490   3.235   1.736   5.940  2.4054  0.7679  1.1267
 3010SOL     OW20491   2.758   0.726   8.310  0.0093 -0.0488 -0.0846
 3010SOL    HW120492   2.707   0.805   8.330 -1.6062 -0.8432 -1.0253
 3010SOL    HW220493   2.798   0.716   8.396  2.9047  1.3899 -1.2500
 3011SOL     OW20494   2.916   3.836   5.282  0.0080  0.4764  0.1495
 3011SOL    HW120495   2.894   3.928   5.300  0.7355  1.2011 -2.6346
 3011SOL    HW220496   3.008   3.846   5.259 -0.3977  0.5252 -1.3989
 3012SOL     OW20497   2.326   2.284   6.035 -0.2905 -0.1879 -0.6234
 3012SOL    HW120498   2.360   2.238   6.111 -0.2255  1.7743  0.5406
 3012SOL    HW220499   2.352   2.374   6.055 -2.2530  0.1782  0.3687
 3013SOL     OW20500   2.143   0.467   7.432 -0.0907 -0.1789 -0.8615
 3013SOL    HW120501   2.123   0.423   7.349 -2.5956 -2.1295  0.7474
 3013SOL    HW220502   2.058   0.450   7.474  0.4430  0.2203  0.3883
 3014SOL     OW20503   4.583   1.151   0.225 -0.1060  0.2318 -0.2195
 3014SOL    HW120504   4.646   1.223   0.235 -0.6912  0.6573  0.3864
 3014SOL    HW220505   4.614   1.083   0.284 -1.3620 -0.8867 -0.8523
 3015SOL     OW20506   4.328   2.638   0.310 -0.1868 -0.4333 -0.1991
 3015SOL    HW120507   4.385   2.701   0.268  1.9434 -1.7488  0.6990
 3015SOL    HW220508   4.368   2.637   0.397 -0.9008 -1.1675  0.1262
 3016SOL     OW20509   2.439   1.539   7.231  0.2041  0.6351 -0.5627
 3016SOL    HW120510   2.437   1.595   7.154  1.7171  0.2566 -0.8664
 3016SOL    HW220511   2.378   1.578   7.294 -0.7997 -0.8197 -0.6261
 3017SOL     OW20512   0.449   2.068  15.408  0.3836  0.1848 -0.2484
 3017SOL    HW120513   0.443   2.103  15.497 -1.4623 -1.4332  0.2597
 3017SOL    HW220514   0.490   2.146  15.372  0.4143 -0.1443 -0.9320
 3018SOL     OW20515   2.347   1.286  14.716  0.5600 -0.1798  0.2521
 3018SOL    HW120516   2.260   1.322  14.736  0.5172 -1.5525  2.5197
 3018SOL    HW220517   2.358   1.225  14.788 -0.5445 -2.2507 -1.3301
 3019SOL     OW20518   1.824   2.518   1.231  0.0853  0.6518 -0.0053
 3019SOL    HW120519   1.825   2.461   1.308  0.0914  1.7861  0.8543
 3019SOL    HW220520   1.914   2.551   1.227  0.2097  0.2054 -0.7608
 3020SOL     OW20521   0.135   1.069   6.610 -0.0193 -0.9317  0.4260
 3020SOL    HW120522   0.140   1.136   6.542  1.6184 -0.0028  1.4734
 3020SOL    HW220523   0.128   0.989   6.558  2.5081  0.0225 -1.3279
 3021SOL     OW20524   2.453   4.544  11.910  0.4078  0.2895  0.0264
 3021SOL    HW120525   2.443   4.571  11.818 -0.1073  1.9639  0.5821
 3021SOL    HW220526   2.418   4.624  11.950  0.4396 -0.0155  0.6557
 3022SOL     OW20527   2.036   2.764   7.845  0.5043 -0.2134  0.3528
 3022SOL    HW120528   1.963   2.825   7.832 -0.7862 -1.5576  1.3232
 3022SOL    HW220529   2.067   2.775   7.935 -0.0018 -0.3458  0.5413
 3023SOL     OW20530   0.826   0.713   7.528  0.3170  0.0458 -0.0387
 3023SOL    HW120531   0.837   0.648   7.459  0.4433 -0.3087  0.3134
 3023SOL    HW220532   0.785   0.670   7.603  0.2191  1.9156  0.9921
 3024SOL     OW20533   0.427   0.647   3.780  0.5418  0.0958 -0.1088
 3024SOL    HW120534   0.363   0.577   3.768 -0.1608  0.2273  2.8493
 3024SOL    HW220535   0.427   0.673   3.872 -1.7971  0.6324 -0.2759
 3025SOL     OW20536   2.822   0.944   3.866  0.4574  0.3468  0.7376
 3025SOL    HW120537   2.843   0.947   3.773  0.9489  2.1182  0.9074
 3025SOL    HW220538   2.889   0.884   3.897 -0.0754  0.3253  1.8620
 3026SOL     OW20539   1.793   4.687   1.261 -0.3524  0.3543  0.1194
 3026SOL    HW120540   1.854   4.613   1.263  0.0361  0.6343 -1.6143
 3026SOL    HW220541   1.763   4.677   1.171 -0.2357 -2.0699  0.3349
 3027SOL     OW20542   1.028   2.872   4.165 -0.6301  0.1392  0.0726
 3027SOL    HW120543   1.108   2.847   4.212 -1.0017  0.6629  0.9878
 3027SOL    HW220544   0.970   2.858   4.240  1.7533 -0.3679  1.8545
 3028SOL     OW20545   3.770   1.977   8.370  0.2399  0.1001  0.3107
 3028SOL    HW120546   3.775   1.883   8.354  3.8304  0.4661 -0.5363
 3028SOL    HW220547   3.723   2.002   8.290 -0.0650  0.2702  0.5398
 3029SOL     OW20548   3.313   4.556  13.196  0.3548  0.2031  0.5794
 3029SOL    HW120549   3.295   4.505  13.275  0.9110  0.3821  0.8255
 3029SOL    HW220550   3.281   4.642  13.225 -1.7679 -0.7910  1.1696
 3030SOL     OW20551   4.459   4.385   4.743 -0.5693 -0.9756  0.4893
 3030SOL    HW120552   4.435   4.465   4.696 -1.7482 -1.0986  0.8738
 3030SOL    HW220553   4.474   4.416   4.832  2.0347 -1.5677  0.2557
 3031SOL     OW20554   3.591   3.596   9.891 -0.0446 -0.6183  0.0556
 3031SOL    HW120555   3.545   3.665   9.939  0.8136 -0.8560  1.2018
 3031SOL    HW220556   3.682   3.624   9.889 -0.3133  0.1803 -1.2720
 3032SOL     OW20557   1.714   0.834  14.351 -0.4290 -0.4454 -0.1454
 3032SOL    HW120558   1.624   0.808  14.332 -1.4360  3.5474 -1.0470
 3032SOL    HW220559   1.758   0.761  14.394  0.4182  0.5965  0.7780
 3033SOL     OW20560   0.283   4.393   7.131  0.0826 -0.5958  0.0113
 3033SOL    HW120561   0.269   4.309   7.173  0.9699 -1.3355 -1.1659
 3033SOL    HW220562   0.361   4.384   7.075 -1.8054  0.6998 -2.8646
 3034SOL     OW20563   4.352   1.089  15.045  0.0818 -0.1777  0.0496
 3034SOL    HW120564   4.378   1.152  15.113  1.1459 -1.9164  1.2620
 3034SOL    HW220565   4.272   1.126  15.007  0.1595 -0.8562 -0.7744
 3035SOL     OW20566   0.480   0.490  13.275 -0.1218 -0.2874  0.2133
 3035SOL    HW120567   0.440   0.551  13.337  1.4748  1.5993 -0.5904
 3035SOL    HW220568   0.419   0.416  13.280  1.5265 -1.4014  3.6030
 3036SOL     OW20569   1.297   2.740   1.082 -0.0027 -0.1212 -0.0042
 3036SOL    HW120570   1.343   2.803   1.027  0.8621 -0.1912  0.6450
 3036SOL    HW220571   1.351   2.662   1.065 -1.5390 -1.1533 -0.1765
 3037SOL     OW20572   3.540   2.290   3.814  0.1130  0.0681  0.3543
 3037SOL    HW120573   3.470   2.345   3.850  0.5315  1.4944 -0.9889
 3037SOL    HW220574   3.554   2.323   3.725 -1.3675 -2.5067 -0.8053
 3038SOL     OW20575   0.061   2.620   2.655  0.1490 -0.1150 -0.2728
 3038SOL    HW120576   0.108   2.636   2.573 -1.7275  1.1334 -1.1057
 3038SOL    HW220577   4.707   2.677   2.654  0.2909  0.0791 -0.1749
 3039SOL     OW20578   4.204   1.657   6.151  0.3445 -0.5028  0.3648
 3039SOL    HW120579   4.142   1.627   6.219  0.4553 -0.0666  0.6578
 3039SOL    HW220580   4.267   1.693   6.213 -1.6942  0.4269  1.9058
 3040SOL     OW20581   1.426   0.525   8.761  0.0427  0.1669  0.1090
 3040SOL    HW120582   1.497   0.578   8.724  0.5558 -0.7012 -0.1610
 3040SOL    HW220583   1.369   0.595   8.792  2.1936  0.8516  2.5032
 3041SOL     OW20584   2.720   3.131   7.909  0.9774  0.1309  0.0034
 3041SOL    HW120585   2.665   3.133   7.831 -0.4820  0.1034  1.0517
 3041SOL    HW220586   2.783   3.062   7.888  0.9101  0.1778 -0.3528
 3042SOL     OW20587   2.399   1.084   5.542  0.4772 -0.0147  0.3476
 3042SOL    HW120588   2.477   1.049   5.498  1.6165  2.1992  0.6315
 3042SOL    HW220589   2.343   1.085   5.465 -0.2394  2.1575  0.9165
 3043SOL     OW20590   3.441   1.659   7.283  0.5361 -0.1452  0.7165
 3043SOL    HW120591   3.456   1.587   7.344 -1.8735  0.5545  2.1187
 3043SOL    HW220592   3.513   1.656   7.220 -2.4342  0.4540 -2.6871
 3044SOL     OW20593   3.821   4.353  14.051  0.1777 -0.6289 -0.2843
 3044SOL    HW120594   3.891   4.347  13.986  2.7139 -0.6352  2.4040
 3044SOL    HW220595   3.764   4.418  14.011 -0.9876 -1.7319 -0.3977
 3045SOL     OW20596   3.041   0.756   1.794  0.6174  0.0574  0.0303
 3045SOL    HW120597   2.979   0.793   1.857 -0.9779 -1.2290 -0.7901
 3045SOL    HW220598   3.111   0.734   1.856 -0.4414 -0.8025  0.9339
 3046SOL     OW20599   2.480   4.518   6.296  0.0331 -0.5425  0.0982
 3046SOL    HW120600   2.406   4.529   6.355 -0.3848 -1.1182 -0.3197
 3046SOL    HW220601   2.447   4.535   6.208  2.0819 -1.8876 -0.9434
 3047SOL     OW20602   4.184   4.649  14.796  0.1625 -0.5020 -0.4352
 3047SOL    HW120603   4.256   4.613  14.847  0.3808  0.0634 -0.3422
 3047SOL    HW220604   4.229   4.681  14.718 -0.1550  1.7044  0.2995
 3048SOL     OW20605   2.901   1.499   8.616 -0.1822 -0.3891  0.1072
 3048SOL    HW120606   2.852   1.486   8.535 -0.9249 -1.3925  0.7213
 3048SOL    HW220607   2.829   1.504   8.679 -0.7608 -0.6853 -0.5376
 3049SOL     OW20608   0.885   3.987  15.191 -0.1350 -0.0697 -0.4140
 3049SOL    HW120609   0.896   4.082  15.190 -4.2163  0.4305  0.9728
 3049SOL    HW220610   0.792   3.983  15.213  0.1614  0.9425  1.0281
 3050SOL     OW20611   1.729   1.638   2.379 -0.4980 -0.9432  0.1364
 3050SOL    HW120612   1.815   1.680   2.369 -1.0602 -0.0693 -0.9935
 3050SOL    HW220613   1.760   1.564   2.433  0.0200 -0.2728  0.7607
 3051SOL     OW20614   1.820   2.237   8.344 -0.6769  0.3277 -0.0640
 3051SOL    HW120615   1.752   2.283   8.393 -1.5208 -1.9023  0.9054
 3051SOL    HW220616   1.793   2.145   8.343  0.0839  0.1002  0.4116
 3052SOL     OW20617   3.632   2.355   0.717 -0.1335 -0.5588 -0.4836
 3052SOL    HW120618   3.642   2.449   0.735  1.1912 -0.8038  0.0807
 3052SOL    HW220619   3.537   2.343   0.724 -0.4359  1.7541 -0.4929
 3053SOL     OW20620   3.495   1.787  12.044  0.6188 -0.0590  0.1994
 3053SOL    HW120621   3.482   1.808  12.136  0.2473  0.8607 -0.0658
 3053SOL    HW220622   3.407   1.803  12.009  0.1515  0.2435  1.5265
 3054SOL     OW20623   4.385   4.166   6.750  0.2420 -0.0631 -0.2192
 3054SOL    HW120624   4.387   4.075   6.722 -0.7881 -0.1961  0.1454
 3054SOL    HW220625   4.435   4.153   6.831 -1.7566 -0.0754  1.0233
 3055SOL     OW20626   2.836   2.237   8.542 -0.2070 -0.2785  0.2519
 3055SOL    HW120627   2.748   2.205   8.525 -0.3178  0.2607 -0.2200
 3055SOL    HW220628   2.877   2.154   8.564  0.6441 -0.2096 -1.0333
 3056SOL     OW20629   3.421   1.457  14.509 -0.0906  0.1031  0.6156
 3056SOL    HW120630   3.423   1.459  14.413  2.1283  0.7254  0.6730
 3056SOL    HW220631   3.482   1.530  14.519  0.2161 -0.2035  0.9580
 3057SOL     OW20632   3.849   2.686   6.317 -0.2740 -0.0130  0.1487
 3057SOL    HW120633   3.755   2.696   6.302  0.0562 -0.1300 -2.0155
 3057SOL    HW220634   3.874   2.654   6.230  0.6191  1.7155 -0.2290
 3058SOL     OW20635   0.945   2.033   7.319  0.4993 -0.7184  0.2295
 3058SOL    HW120636   1.017   2.060   7.263  0.2830 -1.4548 -0.3915
 3058SOL    HW220637   0.967   1.940   7.323 -0.6985 -1.0397 -0.7980
 3059SOL     OW20638   2.416   1.711  13.564  0.3070  0.0720  0.3360
 3059SOL    HW120639   2.441   1.698  13.656 -1.0426  3.0624  1.1376
 3059SOL    HW220640   2.378   1.799  13.563  0.3865  0.0887 -0.9383
 3060SOL     OW20641   0.599   3.292   2.529 -0.8470  0.4433 -0.0786
 3060SOL    HW120642   0.639   3.351   2.465  0.3543  0.1256  0.3839
 3060SOL    HW220643   0.569   3.357   2.594 -1.6694  1.0107 -1.0150
 3061SOL     OW20644   3.133   1.744  10.534 -0.2473 -0.1491 -0.2903
 3061SOL    HW120645   3.097   1.790  10.458 -0.5057  1.7167  0.9539
 3061SOL    HW220646   3.126   1.652  10.509 -0.2671 -0.5182  1.0917
 3062SOL     OW20647   3.751   0.622  17.133 -0.3868  0.4524  0.4807
 3062SOL    HW120648   3.677   0.627  17.073  0.1369 -0.6837 -0.2581
 3062SOL    HW220649   3.737   0.537  17.175 -1.4423  0.0564 -0.6678
 3063SOL     OW20650   4.482   4.200   3.500 -0.1068  0.3443 -0.0385
 3063SOL    HW120651   4.564   4.166   3.464  0.2832  1.0011  0.2312
 3063SOL    HW220652   4.441   4.220   3.416  1.2580 -1.4737 -1.1327
 3064SOL     OW20653   4.566   0.335   2.071  0.6128 -0.3393 -0.4482
 3064SOL    HW120654   4.495   0.282   2.035 -0.5170  1.4348 -0.8326
 3064SOL    HW220655   4.631   0.271   2.100  0.0468 -0.7526 -0.1100
 3065SOL     OW20656   0.355   3.764  14.161  0.0911  0.4039  0.0359
 3065SOL    HW120657   0.310   3.746  14.243 -1.7251  1.2203 -0.7981
 3065SOL    HW220658   0.355   3.691  14.099  1.3513  1.9296 -1.7663
 3066SOL     OW20659   3.361   1.552   7.845 -0.9825 -0.0368  0.1419
 3066SOL    HW120660   3.293   1.528   7.907 -1.4584 -1.6949 -1.0173
 3066SOL    HW220661   3.334   1.492   7.775  1.8591 -1.7247  0.4624
 3067SOL     OW20662   2.873   1.867   9.154  0.5875 -0.0508  0.3249
 3067SOL    HW120663   2.810   1.931   9.120 -2.6662 -2.2799  2.1202
 3067SOL    HW220664   2.822   1.787   9.147 -0.2670  0.5156  0.0688
 3068SOL     OW20665   3.608   1.297   5.208 -0.6714 -0.1767  0.1581
 3068SOL    HW120666   3.542   1.366   5.219  0.4086  0.8031  0.4616
 3068SOL    HW220667   3.665   1.318   5.282  0.6161  0.8779 -1.1525
 3069SOL     OW20668   0.182   4.501   7.350  0.4117  0.3288 -0.1416
 3069SOL    HW120669   0.219   4.478   7.265 -0.3561 -2.2672  0.2287
 3069SOL    HW220670   0.169   4.595   7.339  1.1483  0.5245  0.6791
 3070SOL     OW20671   3.651   1.067   5.900 -0.1522 -0.1375 -0.0062
 3070SOL    HW120672   3.722   1.006   5.920  0.8014  0.7307 -0.7398
 3070SOL    HW220673   3.697   1.141   5.861 -1.0444  0.6181  0.3598
 3071SOL     OW20674   2.715   2.053  17.172  0.2381 -0.0181 -0.0932
 3071SOL    HW120675   2.620   2.046  17.165  0.2523 -1.5248  1.3988
 3071SOL    HW220676   2.724   2.148  17.184 -0.3607 -0.0321  0.4920
 3072SOL     OW20677   0.805   1.217   7.856  0.1330 -0.2655 -0.0210
 3072SOL    HW120678   0.863   1.204   7.931  0.9696 -2.0250 -0.9791
 3072SOL    HW220679   0.834   1.302   7.825  1.5083 -0.4579  0.7654
 3073SOL     OW20680   2.480   2.940   5.879 -0.6204  0.4788  0.1799
 3073SOL    HW120681   2.503   2.980   5.795  0.0219  0.6909  0.4542
 3073SOL    HW220682   2.442   2.860   5.842 -1.1389  1.1056 -0.6244
 3074SOL     OW20683   2.753   1.168   9.404  0.4433  0.0386 -0.0597
 3074SOL    HW120684   2.681   1.104   9.396  0.2659  0.4620 -1.8818
 3074SOL    HW220685   2.822   1.126   9.455  1.1087  1.2733  0.0410
 3075SOL     OW20686   2.372   2.778   8.679 -0.1885  0.3732  0.4020
 3075SOL    HW120687   2.455   2.822   8.662 -1.0355  2.0470  0.5752
 3075SOL    HW220688   2.317   2.854   8.661 -1.0328 -0.2170  0.4631
 3076SOL     OW20689   1.558   3.661   8.564 -0.3052 -0.0001 -0.2915
 3076SOL    HW120690   1.544   3.747   8.523 -0.6556 -0.6112 -1.4547
 3076SOL    HW220691   1.653   3.657   8.552 -0.2239  1.2468 -0.0621
 3077SOL     OW20692   1.493   0.830  14.895  0.4807 -0.5268  0.9179
 3077SOL    HW120693   1.579   0.812  14.855 -1.0607 -2.5189 -1.5010
 3077SOL    HW220694   1.512   0.919  14.925 -1.0610  0.5157 -1.2312
 3078SOL     OW20695   0.548   4.381   8.968 -0.7050  0.1228 -0.7169
 3078SOL    HW120696   0.504   4.339   9.041 -0.6282 -0.2168 -0.8661
 3078SOL    HW220697   0.642   4.368   8.986 -1.0541 -1.0763  0.2593
 3079SOL     OW20698   0.201   4.339  13.545  0.3032 -0.8754 -0.2117
 3079SOL    HW120699   0.167   4.425  13.569 -0.4628 -1.4180  0.6773
 3079SOL    HW220700   0.234   4.313  13.632 -0.2382  1.0433  0.5593
 3080SOL     OW20701   4.578   2.455   3.529 -0.6551 -0.5120 -0.6007
 3080SOL    HW120702   4.583   2.383   3.466  1.2834 -2.5191  1.8416
 3080SOL    HW220703   4.610   2.523   3.469  1.4709 -0.8016  0.1857
 3081SOL     OW20704   2.178   2.804  11.488 -0.3672 -0.0954 -0.1923
 3081SOL    HW120705   2.234   2.793  11.411 -1.7162 -1.9311 -0.8848
 3081SOL    HW220706   2.168   2.899  11.494 -1.7098 -0.2765  0.2785
 3082SOL     OW20707   1.714   4.542   3.927 -0.1445 -0.1779  0.2704
 3082SOL    HW120708   1.764   4.596   3.865  0.7130 -1.7744 -0.4340
 3082SOL    HW220709   1.766   4.461   3.927  0.1236 -0.0096 -0.5251
 3083SOL     OW20710   4.695   2.962  13.027 -0.5058 -0.7628 -0.1241
 3083SOL    HW120711   0.016   2.910  12.960  0.5574  0.1291 -0.0994
 3083SOL    HW220712   0.017   2.934  13.107  0.2448 -2.6025 -1.1960
 3084SOL     OW20713   0.401   1.066   5.785 -0.3843  0.1636  0.1711
 3084SOL    HW120714   0.427   1.089   5.696 -2.2952  0.3600 -0.3425
 3084SOL    HW220715   0.481   1.016   5.803 -0.9563 -0.2109  1.7142
 3085SOL     OW20716   2.178   1.212   6.466 -0.4742  0.1937 -0.3063
 3085SOL    HW120717   2.102   1.214   6.524  0.7966 -1.5795  1.4138
 3085SOL    HW220718   2.197   1.118   6.457 -1.7116 -0.0301 -0.6929
 3086SOL     OW20719   0.254   3.615   7.760 -0.7074  0.2847 -0.6741
 3086SOL    HW120720   0.208   3.594   7.841  1.7958 -0.0938  0.6490
 3086SOL    HW220721   0.343   3.614   7.795 -0.5976  0.0992 -0.9631
 3087SOL     OW20722   4.598   0.494   8.371  0.0518  0.5894  0.1878
 3087SOL    HW120723   4.663   0.526   8.309  0.6157  1.5110  1.2664
 3087SOL    HW220724   4.616   0.400   8.370  0.1947  0.6192 -0.6556
 3088SOL     OW20725   2.928   4.134   8.104  0.5301 -0.3927  0.3921
 3088SOL    HW120726   2.933   4.230   8.102 -0.8382 -0.2977  1.6979
 3088SOL    HW220727   2.840   4.112   8.073 -0.5249  3.0693  0.9070
 3089SOL     OW20728   3.800   2.117   2.624  0.6197 -0.5777  0.1928
 3089SOL    HW120729   3.762   2.203   2.646  0.1967 -0.5131 -0.7611
 3089SOL    HW220730   3.810   2.084   2.713  1.9152  2.0254  1.0015
 3090SOL     OW20731   4.469   3.504   8.234 -0.7662 -0.3165 -0.2837
 3090SOL    HW120732   4.531   3.565   8.193 -1.3122  0.5840  0.2374
 3090SOL    HW220733   4.532   3.434   8.250  0.4295  0.4762 -1.4606
 3091SOL     OW20734   1.428   2.752  11.581  0.8395  0.0867  0.3003
 3091SOL    HW120735   1.410   2.713  11.667 -1.2921 -0.7753 -0.5390
 3091SOL    HW220736   1.342   2.788  11.558  0.3987 -0.1615  1.5445
 3092SOL     OW20737   4.214   2.241   8.822 -0.0537  0.0885  0.3985
 3092SOL    HW120738   4.201   2.184   8.898  1.0853  0.3379  0.7891
 3092SOL    HW220739   4.177   2.190   8.750  0.5406 -1.8539  1.4774
 3093SOL     OW20740   0.942   2.710   8.120 -0.0350  0.6485 -0.4969
 3093SOL    HW120741   0.864   2.745   8.076  0.3268  2.7812  0.5297
 3093SOL    HW220742   0.972   2.656   8.047 -0.0253  0.4685 -0.3588
 3094SOL     OW20743   0.826   3.157  14.837  0.0817  0.0265 -0.3599
 3094SOL    HW120744   0.777   3.134  14.758  4.2747 -0.9596 -2.7061
 3094SOL    HW220745   0.898   3.094  14.844 -1.5461 -1.9740 -1.4718
 3095SOL     OW20746   2.011   4.585   2.640  0.2564  0.0234  0.2914
 3095SOL    HW120747   1.919   4.571   2.617  0.3365 -0.3863  0.2163
 3095SOL    HW220748   2.012   4.660   2.699 -2.2694 -0.0640  0.4446
 3096SOL     OW20749   2.384   3.386   1.926 -0.3647 -0.3585  0.6185
 3096SOL    HW120750   2.324   3.437   1.981  0.2098  1.0402 -0.0560
 3096SOL    HW220751   2.362   3.300   1.964  0.3748 -0.0639  1.7235
 3097SOL     OW20752   1.297   4.170   7.103  0.8039 -0.4980 -0.5215
 3097SOL    HW120753   1.320   4.229   7.175 -0.0057 -0.5130 -0.2530
 3097SOL    HW220754   1.216   4.213   7.077  1.1000 -0.6039 -1.6120
 3098SOL     OW20755   1.609   2.801   0.744 -0.5717  0.2856 -0.4362
 3098SOL    HW120756   1.630   2.726   0.688 -2.8571 -1.0155  0.4491
 3098SOL    HW220757   1.597   2.756   0.828  0.6890 -0.8277 -0.8511
 3099SOL     OW20758   2.364   3.927  10.474  0.8668 -0.5296 -0.4363
 3099SOL    HW120759   2.412   4.008  10.458  1.4659 -0.2976  2.4802
 3099SOL    HW220760   2.415   3.870  10.417  1.2503 -1.6773  1.0761
 3100SOL     OW20761   3.546   3.892   6.097 -0.1643  0.5955  0.2114
 3100SOL    HW120762   3.628   3.942   6.094  1.4431 -1.9909  1.0713
 3100SOL    HW220763   3.541   3.873   6.191 -1.0086 -0.6796 -0.0910
 3101SOL     OW20764   0.690   2.648   8.899  0.2331  0.1800 -0.0398
 3101SOL    HW120765   0.643   2.731   8.906 -1.0155 -0.7965  3.4592
 3101SOL    HW220766   0.756   2.669   8.833 -1.3758  0.0414 -1.6569
 3102SOL     OW20767   1.802   1.169   6.522  0.8068 -0.0621 -0.1464
 3102SOL    HW120768   1.726   1.111   6.514 -0.5736  1.9924 -2.1343
 3102SOL    HW220769   1.776   1.239   6.461 -0.8224  0.9863  1.7794
 3103SOL     OW20770   1.326   3.966   0.655  0.0261 -0.0852  0.1000
 3103SOL    HW120771   1.308   4.010   0.571 -1.5184 -2.1792 -0.6578
 3103SOL    HW220772   1.260   3.897   0.658  0.2253 -0.3132 -0.7313
 3104SOL     OW20773   3.844   4.673   5.128 -0.0956  0.1824  0.0773
 3104SOL    HW120774   3.755   4.697   5.153  0.4890 -0.3943  2.6518
 3104SOL    HW220775   3.873   0.023   5.073 -3.2267  1.0363 -0.4334
 3105SOL     OW20776   4.044   3.312   6.324 -0.3402 -0.1807  0.3223
 3105SOL    HW120777   3.980   3.330   6.255  0.5285 -0.2589 -0.5041
 3105SOL    HW220778   4.090   3.235   6.289  1.1812  0.4261  1.0040
 3106SOL     OW20779   1.436   2.872   3.057  0.1893 -0.3256 -0.2494
 3106SOL    HW120780   1.524   2.839   3.039 -0.4389 -2.0339 -0.2257
 3106SOL    HW220781   1.416   2.935   2.988 -1.3923 -2.2612 -1.5935
 3107SOL     OW20782   2.012   1.949   2.061 -0.4640  0.3100  0.6729
 3107SOL    HW120783   2.053   1.990   1.984  2.5079 -0.8637  1.6212
 3107SOL    HW220784   1.927   1.993   2.069  0.3640  1.9693  0.3353
 3108SOL     OW20785   0.683   0.206  10.573 -0.2573  0.3386  0.1896
 3108SOL    HW120786   0.671   0.215  10.478  0.8233  1.3725  0.1486
 3108SOL    HW220787   0.724   0.290  10.593  0.7466  0.4706 -2.4098
 3109SOL     OW20788   3.804   3.619   6.300  0.1867  0.4235 -0.3093
 3109SOL    HW120789   3.886   3.598   6.255  0.4738  1.4108 -0.2457
 3109SOL    HW220790   3.760   3.538   6.327  0.6552  0.8947  1.9153
 3110SOL     OW20791   0.795   2.310   1.933 -0.0142  0.1423 -0.5784
 3110SOL    HW120792   0.727   2.267   1.984 -0.0353  0.3577 -0.4287
 3110SOL    HW220793   0.873   2.296   1.987  0.0932 -2.4649 -1.3750
 3111SOL     OW20794   2.962   1.796   4.027  0.4317  0.4149  0.2178
 3111SOL    HW120795   3.057   1.789   4.017  0.4977  1.3067  0.1788
 3111SOL    HW220796   2.944   1.825   3.938  1.2536  0.7678  0.1648
 3112SOL     OW20797   0.330   0.161   2.162 -0.3911 -0.6068 -0.8194
 3112SOL    HW120798   0.385   0.155   2.083  0.6615  3.3475 -0.4114
 3112SOL    HW220799   0.399   0.212   2.205  1.6739 -0.2015 -4.5908
 3113SOL     OW20800   3.928   3.028   1.878  0.3196  0.1176 -0.0898
 3113SOL    HW120801   3.906   2.941   1.912 -0.3068  0.3314  0.0549
 3113SOL    HW220802   4.007   3.016   1.826 -0.0443  0.1644 -0.6477
 3114SOL     OW20803   1.547   4.048  17.606  0.4478 -0.0239 -0.1039
 3114SOL    HW120804   1.475   4.095  17.647  0.9581 -1.0871  2.0249
 3114SOL    HW220805   1.622   4.062  17.663 -1.5458 -0.4127  2.5895
 3115SOL     OW20806   0.124   4.251   6.175 -1.1259  0.1019 -0.1557
 3115SOL    HW120807   0.134   4.169   6.223  1.0237  0.3226 -0.2179
 3115SOL    HW220808   0.038   4.249   6.133 -1.3550 -1.4100  0.4077
 3116SOL     OW20809   2.751   3.322   3.447 -0.0011  0.3065  0.2142
 3116SOL    HW120810   2.661   3.290   3.436 -0.4397  2.1769 -1.5963
 3116SOL    HW220811   2.745   3.381   3.372 -0.1841  0.2948  0.2182
 3117SOL     OW20812   2.398   0.230  11.805 -0.2108  0.1957 -0.3191
 3117SOL    HW120813   2.316   0.264  11.770 -0.5209 -0.0097  0.2195
 3117SOL    HW220814   2.380   0.138  11.786 -0.8924 -0.0417  1.5206
 3118SOL     OW20815   2.784   4.070  16.727 -0.2627  0.0928 -0.2165
 3118SOL    HW120816   2.866   4.020  16.728 -1.1264 -1.3000 -0.1982
 3118SOL    HW220817   2.734   4.029  16.797  1.7647  0.1808  1.2839
 3119SOL     OW20818   0.751   0.441   0.402 -0.3038 -0.2115  0.6393
 3119SOL    HW120819   0.678   0.445   0.340 -1.9071 -3.4444  2.2894
 3119SOL    HW220820   0.818   0.495   0.360 -1.2478  1.1285  0.8519
 3120SOL     OW20821   1.620   4.271  16.661 -0.1640  0.1057 -0.0909
 3120SOL    HW120822   1.700   4.240  16.703 -1.2578 -0.7238  1.3729
 3120SOL    HW220823   1.591   4.186  16.627  2.8946  0.0261 -2.5178
 3121SOL     OW20824   0.384   3.958   9.303  0.2953 -0.0493 -0.3585
 3121SOL    HW120825   0.329   3.902   9.357 -0.2112 -2.3349 -3.2430
 3121SOL    HW220826   0.413   3.905   9.229  0.0422 -0.2158 -0.3388
 3122SOL     OW20827   3.816   4.720  13.015 -0.0429  0.1138 -0.0120
 3122SOL    HW120828   3.894   4.671  12.988 -1.7257 -2.2892 -0.5322
 3122SOL    HW220829   3.829   0.081  12.971  1.6093  0.5560  1.3149
 3123SOL     OW20830   3.726   3.689  13.974  0.0374  0.2208  0.1971
 3123SOL    HW120831   3.767   3.707  14.059  2.1122  0.3169 -0.8150
 3123SOL    HW220832   3.693   3.603  13.998  1.3292 -0.3997 -0.2261
 3124SOL     OW20833   1.395   3.990   6.056 -0.4500  0.4068  0.1364
 3124SOL    HW120834   1.390   4.071   6.005 -2.5124 -0.1947 -0.6431
 3124SOL    HW220835   1.437   4.027   6.133 -1.7645  0.5588  0.7733
 3125SOL     OW20836   0.561   3.788   3.376  0.2845 -0.1082  0.0852
 3125SOL    HW120837   0.618   3.865   3.364 -1.0488  0.8364 -0.1418
 3125SOL    HW220838   0.478   3.835   3.381  0.7643  0.7298  0.2437
 3126SOL     OW20839   3.983   0.328   6.708  0.6730  0.0816  0.5578
 3126SOL    HW120840   4.071   0.298   6.733  1.6437  2.0503 -0.4809
 3126SOL    HW220841   3.935   0.252   6.677  1.6007 -0.1430 -0.3238
 3127SOL     OW20842   3.971   4.551  12.863 -0.5218 -0.3607  0.0233
 3127SOL    HW120843   4.016   4.480  12.818  0.2220  0.6323 -0.7871
 3127SOL    HW220844   4.043   4.585  12.917 -0.9851 -0.6853  0.8494
 3128SOL     OW20845   0.259   1.708   8.265 -0.3024 -0.1111  0.3111
 3128SOL    HW120846   0.276   1.785   8.320  0.2597  2.9257 -4.0706
 3128SOL    HW220847   0.231   1.744   8.181  2.6925 -0.6077 -0.8835
 3129SOL     OW20848   3.040   0.403  15.295 -0.1364 -0.0790  0.3003
 3129SOL    HW120849   2.980   0.330  15.281  0.4658 -0.5052 -0.0208
 3129SOL    HW220850   3.119   0.373  15.251  0.1741  2.2161 -0.7236
 3130SOL     OW20851   3.077   3.403   2.572 -0.8226 -0.1491 -0.3298
 3130SOL    HW120852   3.135   3.384   2.646 -0.1088  0.0345 -0.8394
 3130SOL    HW220853   3.091   3.324   2.520  0.7334 -0.2321  0.2159
 3131SOL     OW20854   1.763   0.192   7.161  0.3445 -0.1579 -0.1086
 3131SOL    HW120855   1.783   0.231   7.076  0.5903  0.0972  0.0651
 3131SOL    HW220856   1.724   0.111   7.130  0.5825  0.0247 -0.8732
 3132SOL     OW20857   3.037   0.330   8.777 -0.3305 -0.1212  0.0281
 3132SOL    HW120858   3.101   0.262   8.757  1.3383  1.0613  1.2966
 3132SOL    HW220859   3.071   0.397   8.717  0.1207 -0.6657 -0.3239
 3133SOL     OW20860   0.012   3.959  12.866 -0.6353  0.0407  0.2502
 3133SOL    HW120861   0.073   4.030  12.885 -1.1533  0.9201 -1.3932
 3133SOL    HW220862   4.651   4.006  12.863 -2.1459 -2.8635 -2.5192
 3134SOL     OW20863   4.307   0.931  11.562 -0.4153  0.0301  0.6142
 3134SOL    HW120864   4.394   0.908  11.595  0.5209  2.2353 -0.3068
 3134SOL    HW220865   4.292   0.852  11.510 -0.4191  0.1808  0.3836
 3135SOL     OW20866   4.303   3.108   7.248  0.0154  0.0432 -0.1118
 3135SOL    HW120867   4.322   3.187   7.299  3.0170 -0.6268 -0.1711
 3135SOL    HW220868   4.292   3.151   7.163 -0.2410  0.5566  0.1832
 3136SOL     OW20869   2.410   2.351   7.922 -0.2580 -0.2781  0.2564
 3136SOL    HW120870   2.399   2.445   7.909  1.3409  0.1920  2.2231
 3136SOL    HW220871   2.480   2.321   7.863  0.2046 -0.7173  1.0241
 3137SOL     OW20872   4.512   0.656   6.829  0.0858  0.3387  0.1451
 3137SOL    HW120873   4.538   0.747   6.814 -2.5922  1.2862  1.0807
 3137SOL    HW220874   4.440   0.675   6.890 -0.7404 -0.2730 -0.6508
 3138SOL     OW20875   3.788   0.383   7.640 -0.5657  0.3606 -0.2309
 3138SOL    HW120876   3.757   0.419   7.557 -1.7541  1.9308  0.9042
 3138SOL    HW220877   3.836   0.461   7.667 -0.6733  0.2374  0.3141
 3139SOL     OW20878   4.231   3.868   8.921 -0.1258  0.1167  0.1851
 3139SOL    HW120879   4.141   3.897   8.937 -0.4805 -0.0990 -1.4014
 3139SOL    HW220880   4.243   3.865   8.826 -0.9803  0.3528  0.0721
 3140SOL     OW20881   1.665   2.728  11.117 -0.3256  0.3563  0.3735
 3140SOL    HW120882   1.590   2.738  11.059 -0.1948 -0.5305  0.0428
 3140SOL    HW220883   1.620   2.737  11.201 -0.3541  0.0941  0.3847
 3141SOL     OW20884   4.470   1.046  10.992  0.1015  0.0915 -0.1202
 3141SOL    HW120885   4.464   1.118  11.054 -1.0120  1.4987 -1.8758
 3141SOL    HW220886   4.534   0.996  11.042 -0.5056  0.7357  1.3043
 3142SOL     OW20887   4.679   2.254   7.609 -0.1544 -0.0537 -0.4372
 3142SOL    HW120888   4.675   2.345   7.580 -0.8258 -0.3091 -1.1535
 3142SOL    HW220889   4.700   2.262   7.702 -1.6424 -0.2753 -0.0732
 3143SOL     OW20890   2.085   3.594  14.431 -0.4067  0.5951 -0.2761
 3143SOL    HW120891   2.134   3.542  14.368  1.5048 -0.9818  2.5508
 3143SOL    HW220892   2.148   3.658  14.465  2.6553 -2.5246 -0.1030
 3144SOL     OW20893   0.333   2.234   1.561 -0.1859 -0.0014 -0.1218
 3144SOL    HW120894   0.423   2.262   1.580 -0.4743 -1.0230  2.7447
 3144SOL    HW220895   0.285   2.234   1.644 -2.8096 -0.9255 -1.6429
 3145SOL     OW20896   3.804   2.447   1.951  0.0062  0.0647  0.1036
 3145SOL    HW120897   3.841   2.436   2.039  2.6950 -0.9959 -1.1717
 3145SOL    HW220898   3.844   2.527   1.918  2.7866 -1.7464 -0.8659
 3146SOL     OW20899   1.349   4.295   0.805 -0.3975  0.8045 -0.4905
 3146SOL    HW120900   1.296   4.289   0.885  0.3518 -1.4719 -0.1392
 3146SOL    HW220901   1.327   4.220   0.750 -1.0785  0.8077 -0.2236
 3147SOL     OW20902   2.436   4.407   5.454 -0.0724  0.0155  0.1895
 3147SOL    HW120903   2.513   4.434   5.504  0.7195  0.4330 -1.2285
 3147SOL    HW220904   2.425   4.316   5.479  0.1476 -0.0322  0.1104
 3148SOL     OW20905   0.723   3.881   4.253 -0.5700 -0.8840  0.0460
 3148SOL    HW120906   0.710   3.957   4.310 -0.2678 -0.7484 -0.0674
 3148SOL    HW220907   0.818   3.868   4.260 -0.1034  2.4545 -0.0183
 3149SOL     OW20908   2.283   4.635   4.261  0.0836 -0.2856  0.6915
 3149SOL    HW120909   2.220   4.590   4.204 -0.1565  2.4465 -1.2143
 3149SOL    HW220910   2.325   4.693   4.197  1.0304 -1.7857 -0.0555
 3150SOL     OW20911   3.402   4.556   1.838 -0.1371  0.6208 -0.0360
 3150SOL    HW120912   3.470   4.560   1.770  2.2361 -0.0650  2.2792
 3150SOL    HW220913   3.341   4.502   1.788  0.2664  0.4576 -0.3561
 3151SOL     OW20914   4.034   1.042  13.543  0.1997 -0.4900 -0.2534
 3151SOL    HW120915   3.954   1.095  13.544  0.9612  0.6548 -0.2898
 3151SOL    HW220916   4.063   1.053  13.633  0.8585  1.2162 -0.6742
 3152SOL     OW20917   4.355   2.826   5.349 -0.0755  0.1046  1.0367
 3152SOL    HW120918   4.279   2.878   5.375 -0.8772 -0.7881  0.4925
 3152SOL    HW220919   4.317   2.768   5.283  1.7945  0.0991 -0.0343
 3153SOL     OW20920   2.861   0.256   6.202  0.3303  0.0856  0.4154
 3153SOL    HW120921   2.920   0.306   6.259  0.4262  1.3047 -0.7544
 3153SOL    HW220922   2.877   0.165   6.226  1.8944  0.4530  0.7339
 3154SOL     OW20923   2.137   0.753   3.224 -0.3725 -0.4809  0.4360
 3154SOL    HW120924   2.108   0.679   3.279  0.0421 -0.8568  0.1463
 3154SOL    HW220925   2.094   0.831   3.260 -0.9213 -0.0126 -1.2659
 3155SOL     OW20926   3.398   2.058   7.650  0.2676 -0.3328  0.7705
 3155SOL    HW120927   3.371   1.968   7.668 -2.6034  0.4631  0.5332
 3155SOL    HW220928   3.462   2.052   7.580  0.4735 -1.6618  1.0680
 3156SOL     OW20929   0.395   1.726   8.645  0.6372  0.2102  0.0486
 3156SOL    HW120930   0.421   1.648   8.596 -0.8125  0.3854 -0.9907
 3156SOL    HW220931   0.301   1.722   8.627  0.3979  1.8545  0.9553
 3157SOL     OW20932   2.045   0.168   6.218  0.4098  0.3772  0.3052
 3157SOL    HW120933   1.977   0.157   6.284  0.6457  1.5276  0.7560
 3157SOL    HW220934   2.077   0.258   6.229  1.1619  0.2352 -0.7209
 3158SOL     OW20935   2.457   1.728   4.700  0.1791 -0.1325 -0.1342
 3158SOL    HW120936   2.528   1.721   4.635  2.3584 -1.5106  2.4101
 3158SOL    HW220937   2.483   1.649   4.748 -0.9088 -0.9440 -0.8755
 3159SOL     OW20938   3.365   1.630   4.654  0.1998 -0.5666  0.0129
 3159SOL    HW120939   3.379   1.565   4.722 -2.5077  0.0876  1.1920
 3159SOL    HW220940   3.371   1.577   4.574  0.6535  1.6894 -1.4563
 3160SOL     OW20941   0.764   2.059   9.030 -0.7373 -0.3412 -0.2046
 3160SOL    HW120942   0.670   2.062   9.015 -0.9840 -0.9606  1.3344
 3160SOL    HW220943   0.803   2.065   8.942  0.2226 -1.4899  0.1486
 3161SOL     OW20944   0.354   1.279  16.618 -0.0528  0.6371  0.4692
 3161SOL    HW120945   0.350   1.183  16.618 -1.1731  0.6975  2.3504
 3161SOL    HW220946   0.295   1.304  16.689  0.4394  0.5120  0.9275
 3162SOL     OW20947   3.147   3.823   6.627  0.4856  0.1195 -0.5657
 3162SOL    HW120948   3.101   3.740   6.609 -0.6933  0.5844  0.3883
 3162SOL    HW220949   3.113   3.841   6.714 -0.8461  2.4336 -1.5948
 3163SOL     OW20950   1.061   0.156  12.915  0.3471  0.7834  0.0816
 3163SOL    HW120951   1.067   0.092  12.986 -0.5520 -0.6200 -1.1304
 3163SOL    HW220952   1.141   0.204  12.939 -0.2388  0.8897  1.8283
 3164SOL     OW20953   0.501   0.548   0.101  0.0487 -0.2787 -0.2097
 3164SOL    HW120954   0.471   0.540   0.191 -0.7340  3.4011 -0.1657
 3164SOL    HW220955   0.557   0.625   0.106 -2.5987  1.5703  0.6165
 3165SOL     OW20956   0.076   3.359   8.543  0.1613 -0.1015  0.6100
 3165SOL    HW120957   4.704   3.354   8.533  0.0271  1.9280  0.9435
 3165SOL    HW220958   0.092   3.424   8.611  0.9090  0.1570  0.1910
 3166SOL     OW20959   3.899   0.345  13.589  0.0390 -0.3324 -0.0605
 3166SOL    HW120960   3.899   0.420  13.530  2.0913  1.3207  2.0329
 3166SOL    HW220961   3.806   0.347  13.609 -0.1174  0.9123 -0.8924
 3167SOL     OW20962   0.342   1.042   0.410  0.0080  0.1932  0.2096
 3167SOL    HW120963   0.395   1.121   0.421 -0.6125  0.5534  0.6577
 3167SOL    HW220964   0.388   0.984   0.471  0.4084 -0.9523 -1.2048
 3168SOL     OW20965   1.696   1.317   2.929 -0.5742  0.0898 -0.4397
 3168SOL    HW120966   1.664   1.255   2.994 -1.2446  3.0878  2.0846
 3168SOL    HW220967   1.661   1.267   2.856 -1.7516  0.3613 -0.0654
 3169SOL     OW20968   0.740   3.563   8.666  0.1574 -0.6882  0.1371
 3169SOL    HW120969   0.813   3.542   8.723  0.9975  1.5051 -0.1135
 3169SOL    HW220970   0.701   3.635   8.715  0.5920 -0.3055 -0.0826
 3170SOL     OW20971   4.422   3.793  10.078 -0.1894  0.7275  0.2326
 3170SOL    HW120972   4.354   3.729  10.054 -0.6543  1.0942  0.5651
 3170SOL    HW220973   4.498   3.736  10.077 -1.2534 -0.6865 -0.4236
 3171SOL     OW20974   2.705   4.112   5.047 -0.1378  0.3028 -0.1231
 3171SOL    HW120975   2.669   4.191   5.006  1.7055  0.5596 -1.2315
 3171SOL    HW220976   2.761   4.072   4.981 -0.2906 -0.2650  0.0975
 3172SOL     OW20977   1.284   1.994  11.596  0.2676 -0.3016 -0.2905
 3172SOL    HW120978   1.195   1.967  11.616  0.1956 -0.8539 -1.3570
 3172SOL    HW220979   1.289   2.085  11.626 -0.1306 -0.0070 -1.1095
 3173SOL     OW20980   1.723   4.028   8.500  0.2465  0.3225  0.6253
 3173SOL    HW120981   1.815   4.055   8.488  0.0654  0.9753  0.6765
 3173SOL    HW220982   1.705   4.090   8.571 -0.6132 -0.1754  0.8351
 3174SOL     OW20983   0.781   1.757   2.183  0.4556 -0.4139  0.1136
 3174SOL    HW120984   0.726   1.797   2.251 -1.9389 -1.3679 -1.2657
 3174SOL    HW220985   0.865   1.784   2.220  1.1690 -0.8920 -1.1713
 3175SOL     OW20986   0.536   0.340  12.302  0.7923 -0.3779  0.0395
 3175SOL    HW120987   0.603   0.305  12.361  2.1340  1.9864 -0.0813
 3175SOL    HW220988   0.477   0.264  12.295  0.8102 -0.1466 -2.5314
 3176SOL     OW20989   2.544   3.885   9.821  0.1557  0.0098  0.4021
 3176SOL    HW120990   2.601   3.927   9.885  1.5427 -0.0851 -0.7629
 3176SOL    HW220991   2.605   3.835   9.766  0.5546  0.8343  0.0876
 3177SOL     OW20992   3.479   3.032   8.237 -0.0473 -0.2251  0.2831
 3177SOL    HW120993   3.467   2.955   8.293  1.5735 -1.5337 -1.1241
 3177SOL    HW220994   3.396   3.080   8.243  0.2773  0.3564  0.1168
 3178SOL     OW20995   2.894   0.011   7.730 -0.0124 -0.1086  0.4246
 3178SOL    HW120996   2.885   4.694   7.816  0.5828 -1.0077  0.0714
 3178SOL    HW220997   2.813   0.061   7.725  0.0553 -0.1785 -1.5357
 3179SOL     OW20998   0.350   4.588   5.473 -0.4284 -0.0328  0.3877
 3179SOL    HW120999   0.309   4.563   5.390 -1.6955  0.9860  0.7196
 3179SOL    HW221000   0.442   4.574   5.450  0.1704  1.6385  1.8069
 3180SOL     OW21001   0.457   0.971   2.670  0.0333  0.4791 -0.1221
 3180SOL    HW121002   0.514   0.920   2.728 -3.3383 -0.4677  2.4112
 3180SOL    HW221003   0.376   0.977   2.721 -0.0198  1.4716 -0.3340
 3181SOL     OW21004   4.280   2.593   2.307  0.1411 -0.4217 -0.8927
 3181SOL    HW121005   4.271   2.635   2.393  1.5886 -2.0941  0.0605
 3181SOL    HW221006   4.375   2.607   2.302  0.3632 -2.0739 -1.0154
 3182SOL     OW21007   2.843   0.269   7.555 -0.2718 -0.3093  0.3060
 3182SOL    HW121008   2.933   0.301   7.549  0.0996 -1.9045 -2.3996
 3182SOL    HW221009   2.858   0.183   7.515 -0.4729  0.2795 -0.9978
 3183SOL     OW21010   1.496   0.089   2.230  0.0866 -0.0504 -0.4535
 3183SOL    HW121011   1.551   0.051   2.162  1.6638  0.4525  0.5257
 3183SOL    HW221012   1.422   0.104   2.171 -0.2974 -0.2289 -0.0172
 3184SOL     OW21013   3.423   1.382  13.608  0.0051 -0.3433  0.1855
 3184SOL    HW121014   3.384   1.295  13.597 -1.2297  0.1878  0.3598
 3184SOL    HW221015   3.385   1.405  13.693  1.1136  0.3607  0.4929
 3185SOL     OW21016   2.909   2.277   5.715  0.0009  0.4124  0.5194
 3185SOL    HW121017   2.994   2.319   5.699 -1.4283  2.7013 -1.0486
 3185SOL    HW221018   2.925   2.192   5.674  0.8089  1.5426 -1.4696
 3186SOL     OW21019   2.032   1.339   8.290  0.9100  0.0276 -0.6592
 3186SOL    HW121020   1.973   1.263   8.281  0.5906  0.1001  0.7584
 3186SOL    HW221021   1.973   1.405   8.253  0.1872  0.1575  0.7155
 3187SOL     OW21022   0.703   2.752   2.479  0.4181  1.0359 -0.4402
 3187SOL    HW121023   0.710   2.824   2.417 -0.8349  0.6972 -0.9693
 3187SOL    HW221024   0.616   2.768   2.517  0.0353  0.8645 -1.2590
 3188SOL     OW21025   3.290   2.412   3.851  0.3077  0.4843  0.2695
 3188SOL    HW121026   3.216   2.466   3.879 -0.4447 -1.2801  1.6698
 3188SOL    HW221027   3.348   2.419   3.927  0.3781 -0.7416  0.3241
 3189SOL     OW21028   2.995   4.514   5.791  0.0608  0.4730 -0.0233
 3189SOL    HW121029   3.090   4.512   5.779 -0.2046 -1.5487 -1.7748
 3189SOL    HW221030   2.984   4.419   5.796 -1.0058  0.5385 -0.9642
 3190SOL     OW21031   2.994   0.035  12.852  0.5493  0.0826 -0.1313
 3190SOL    HW121032   3.084   0.068  12.850 -0.0133  1.5943 -0.9361
 3190SOL    HW221033   2.994   4.679  12.798 -1.8431  0.0189 -0.0081
 3191SOL     OW21034   3.765   1.807   7.985 -0.0537 -0.2613 -0.1869
 3191SOL    HW121035   3.731   1.885   8.028  1.9786  0.8512 -0.5890
 3191SOL    HW221036   3.684   1.758   7.998  0.0561 -0.7310 -1.2611
 3192SOL     OW21037   0.985   3.642   2.006  0.1752  0.1672  0.9710
 3192SOL    HW121038   1.019   3.556   1.980  0.8266  0.6796  0.1464
 3192SOL    HW221039   0.931   3.664   1.931  0.4575  0.3089  0.8095
 3193SOL     OW21040   0.318   0.296   2.713  0.2752 -0.2036  0.5131
 3193SOL    HW121041   0.332   0.209   2.750 -2.4409 -1.7199 -2.1549
 3193SOL    HW221042   0.236   0.297   2.665  0.4771  1.7060  0.2143
 3194SOL     OW21043   1.107   1.640   6.814 -0.7634  0.4972  0.5991
 3194SOL    HW121044   1.062   1.558   6.793  1.9734 -1.5523  2.7048
 3194SOL    HW221045   1.196   1.621   6.785 -1.5602 -0.0816 -1.5359
 3195SOL     OW21046   3.480   1.074   2.423  0.5926 -0.2334 -0.0913
 3195SOL    HW121047   3.472   1.117   2.338 -1.5997 -1.2702 -0.4062
 3195SOL    HW221048   3.413   1.005   2.418  1.7764 -1.3389 -0.5673
 3196SOL     OW21049   2.051   0.264   7.248 -0.2208  1.0737  0.3491
 3196SOL    HW121050   2.119   0.246   7.184  0.2178  1.8269  0.6181
 3196SOL    HW221051   1.979   0.211   7.213  0.1445 -0.6275  2.1495
 3197SOL     OW21052   2.985   4.137   9.318  0.2739  0.3444 -0.0673
 3197SOL    HW121053   2.962   4.101   9.232  0.9569  2.4050 -1.1066
 3197SOL    HW221054   2.902   4.162   9.359  0.5519  0.4930  0.4086
 3198SOL     OW21055   3.640   0.345   6.695  0.1956 -0.2958 -0.5444
 3198SOL    HW121056   3.592   0.314   6.618  1.2744 -2.3253 -0.4131
 3198SOL    HW221057   3.671   0.262   6.732 -1.0152  0.4951  2.2506
 3199SOL     OW21058   3.891   1.755   3.877  0.8355  0.2046  0.2630
 3199SOL    HW121059   3.957   1.729   3.941  1.1332 -0.4793 -0.3187
 3199SOL    HW221060   3.912   1.689   3.810 -2.8330  0.9312 -1.6462
 3200SOL     OW21061   3.378   3.918   4.089  0.0909  0.3809 -0.0894
 3200SOL    HW121062   3.403   3.942   4.178 -2.0360  2.4874 -0.0493
 3200SOL    HW221063   3.296   3.874   4.111  0.6470 -0.1103  1.0251
 3201SOL     OW21064   1.669   0.888   8.369 -0.5107 -0.0838 -0.6004
 3201SOL    HW121065   1.756   0.876   8.406 -0.3882  3.6710  0.2487
 3201SOL    HW221066   1.617   0.923   8.441 -0.8338 -2.3090  0.2599
 3202SOL     OW21067   0.532   2.448   8.256  0.3143  1.1047 -0.1515
 3202SOL    HW121068   0.574   2.368   8.289 -0.3881  0.4944 -0.7384
 3202SOL    HW221069   0.585   2.517   8.296  0.9846 -0.0907  1.0646
 3203SOL     OW21070   4.544   1.901   0.105 -0.4242  0.5114 -0.0580
 3203SOL    HW121071   4.470   1.882   0.163  1.0415  0.5198  1.8172
 3203SOL    HW221072   4.512   1.878   0.018 -0.8993  0.6931  0.0735
 3204SOL     OW21073   0.033   4.679   1.180 -0.4884 -0.3289  0.3082
 3204SOL    HW121074   0.067   4.685   1.091 -1.2341  1.6910  0.1784
 3204SOL    HW221075   4.687   4.613   1.176 -1.8384  1.1655 -0.6258
 3205SOL     OW21076   1.293   4.432  13.619 -0.0868 -0.0327  0.0200
 3205SOL    HW121077   1.320   4.341  13.605  0.3853  0.2075 -0.6265
 3205SOL    HW221078   1.213   4.425  13.670  0.4922  0.2613  0.9620
 3206SOL     OW21079   2.627   3.548   3.302 -0.3752  0.5128  0.2535
 3206SOL    HW121080   2.557   3.544   3.368  0.2666  0.5328  0.9393
 3206SOL    HW221081   2.595   3.625   3.255 -1.0688 -0.7517 -1.3435
 3207SOL     OW21082   0.529   1.401   3.759  0.5168 -0.3958 -0.3199
 3207SOL    HW121083   0.485   1.466   3.705 -1.3494 -1.4968 -0.1414
 3207SOL    HW221084   0.618   1.401   3.725  0.4628 -2.2781 -0.4503
 3208SOL     OW21085   1.905   0.450   2.501  0.3319  0.7244 -0.6344
 3208SOL    HW121086   1.953   0.517   2.452  1.3301 -0.9550 -1.9209
 3208SOL    HW221087   1.840   0.415   2.442 -0.8540  0.7705  0.6369
 3209SOL     OW21088   4.626   2.305   2.828 -0.2502  0.4669 -0.0381
 3209SOL    HW121089   4.687   2.323   2.755 -1.1438  1.5119 -0.5329
 3209SOL    HW221090   4.582   2.390   2.833 -1.9605 -0.4241 -0.1222
 3210SOL     OW21091   3.888   2.843  11.087  0.1275  0.6695 -0.0833
 3210SOL    HW121092   3.869   2.937  11.079  0.0789  0.7825  1.2196
 3210SOL    HW221093   3.981   2.839  11.065 -0.5718 -0.6441 -2.7519
 3211SOL     OW21094   1.906   0.173  12.818 -0.6133  0.0805 -0.7165
 3211SOL    HW121095   1.993   0.206  12.797  0.1268 -0.8578  0.8606
 3211SOL    HW221096   1.909   0.113  12.743  0.4149  0.3402 -0.8896
 3212SOL     OW21097   1.957   3.430  10.480 -0.0284  0.1411  0.2193
 3212SOL    HW121098   1.932   3.473  10.398  2.0256  1.8448  0.5008
 3212SOL    HW221099   1.970   3.343  10.442  0.8781  0.0302  0.7774
 3213SOL     OW21100   2.299   1.996   1.747  0.7543 -0.0370 -0.6344
 3213SOL    HW121101   2.262   2.057   1.811 -2.1713 -0.5457 -1.8713
 3213SOL    HW221102   2.323   2.063   1.683  1.5909  1.1808  0.9419
 3214SOL     OW21103   4.233   0.204   9.404  0.5987 -0.3052  0.7778
 3214SOL    HW121104   4.154   0.243   9.441  1.4825  3.0452 -0.8698
 3214SOL    HW221105   4.254   0.134   9.466 -1.5079 -1.1574  0.5437
 3215SOL     OW21106   1.603   0.908  11.613 -0.2241 -0.7235  0.1298
 3215SOL    HW121107   1.604   0.901  11.709  0.9326 -0.8493  0.1083
 3215SOL    HW221108   1.668   0.978  11.606 -0.6694 -0.0596  2.5730
 3216SOL     OW21109   3.290   3.722   3.666 -0.0904 -0.5854 -0.4730
 3216SOL    HW121110   3.305   3.652   3.603  0.9783 -2.2584  1.6326
 3216SOL    HW221111   3.316   3.798   3.614 -0.1170 -0.4345 -0.2660
 3217SOL     OW21112   0.786   3.884  14.648 -0.0465 -0.0442  0.0141
 3217SOL    HW121113   0.752   3.797  14.668  0.9708 -0.6561 -0.8914
 3217SOL    HW221114   0.788   3.920  14.736 -1.5705 -0.4658  0.2246
 3218SOL     OW21115   2.925   0.835  10.573  0.0927 -0.5147 -0.3648
 3218SOL    HW121116   2.926   0.867  10.663  1.8902  1.4525 -1.1024
 3218SOL    HW221117   2.863   0.894  10.529 -1.7074 -0.8916  1.6346
 3219SOL     OW21118   1.468   0.513   8.066  0.4799  0.0176  0.4569
 3219SOL    HW121119   1.532   0.567   8.113 -0.0072  0.2664  0.8231
 3219SOL    HW221120   1.414   0.581   8.026 -1.2428 -1.0855  0.9538
 3220SOL     OW21121   2.462   1.013   2.584  0.0859 -0.5088 -0.8458
 3220SOL    HW121122   2.497   0.991   2.497  0.7142 -1.0573 -0.4550
 3220SOL    HW221123   2.478   1.106   2.573 -2.1451 -0.0098  0.1332
 3221SOL     OW21124   1.157   4.500   5.556 -0.4549 -0.1060  0.5054
 3221SOL    HW121125   1.247   4.515   5.527 -1.1269  1.9221 -0.4983
 3221SOL    HW221126   1.104   4.574   5.527 -0.2273 -0.1370  0.0188
 3222SOL     OW21127   0.883   1.021   4.738  0.1202 -0.3936 -0.5638
 3222SOL    HW121128   0.821   1.081   4.781  1.6589 -0.3753  1.6313
 3222SOL    HW221129   0.849   1.036   4.650  1.0577  0.8702 -0.7203
 3223SOL     OW21130   2.209   0.690   1.324  0.0835  0.6785  0.0791
 3223SOL    HW121131   2.258   0.772   1.315 -0.1398  0.7964 -0.0639
 3223SOL    HW221132   2.173   0.712   1.410 -0.4138 -1.6162  0.4662
 3224SOL     OW21133   1.766   2.333   5.965  0.5474 -0.3333  0.0507
 3224SOL    HW121134   1.715   2.398   5.917 -1.8703 -0.7522  2.0857
 3224SOL    HW221135   1.837   2.329   5.901  0.0846 -0.9896 -0.4134
 3225SOL     OW21136   0.378   4.439   7.829 -0.6359  0.5162  0.0536
 3225SOL    HW121137   0.366   4.414   7.737 -3.6419  0.8147  0.3622
 3225SOL    HW221138   0.292   4.408   7.858  0.3653 -0.6370  1.8382
 3226SOL     OW21139   2.750   3.513   3.916  0.4710 -0.0908 -0.0181
 3226SOL    HW121140   2.691   3.565   3.862 -0.0614 -1.6432 -0.9580
 3226SOL    HW221141   2.803   3.578   3.961 -0.1366 -0.5705  1.4035
 3227SOL     OW21142   0.917   1.172   8.632  0.1503 -0.4958 -0.2031
 3227SOL    HW121143   0.931   1.212   8.718  1.4633  0.5688 -0.9182
 3227SOL    HW221144   0.905   1.079   8.650 -2.8444 -0.1947 -0.6216
 3228SOL     OW21145   4.636   2.507   6.491 -0.1890  0.4982  0.1218
 3228SOL    HW121146   4.560   2.541   6.538 -0.7323 -0.5750  0.0269
 3228SOL    HW221147   4.683   2.468   6.565  0.1294  1.5960  0.4927
 3229SOL     OW21148   0.526   1.357  17.066 -0.0628 -0.0959  0.0839
 3229SOL    HW121149   0.459   1.404  17.017  0.1053 -0.1439 -0.1923
 3229SOL    HW221150   0.502   1.376  17.156  1.3704  0.4389  0.3354
 3230SOL     OW21151   1.171   0.977   2.948 -0.4715 -0.3706 -0.0097
 3230SOL    HW121152   1.101   0.973   3.014 -1.9397  0.8639 -1.4673
 3230SOL    HW221153   1.152   1.062   2.908  1.6774 -0.1663 -0.5605
 3231SOL     OW21154   2.132   0.104  11.320  0.0117 -0.2017  0.2022
 3231SOL    HW121155   2.122   0.058  11.236 -0.7793 -1.1704  0.8230
 3231SOL    HW221156   2.227   0.100  11.334  0.1100  0.3088 -0.3570
 3232SOL     OW21157   3.859   2.841   2.928 -0.3566  0.3928 -0.3437
 3232SOL    HW121158   3.841   2.927   2.889 -0.4019  1.3178  1.7066
 3232SOL    HW221159   3.776   2.812   2.966 -1.2033  2.2225 -0.7872
 3233SOL     OW21160   3.250   3.113   7.569  0.4327  0.1461 -0.1695
 3233SOL    HW121161   3.336   3.153   7.558  1.2786 -1.0803  2.1639
 3233SOL    HW221162   3.219   3.149   7.652  2.9602  0.2505  0.7095
 3234SOL     OW21163   0.471   0.649   0.655 -0.7267  0.0393 -0.6195
 3234SOL    HW121164   0.526   0.686   0.724 -0.5166  0.5614 -1.0582
 3234SOL    HW221165   0.493   0.707   0.582 -0.3357 -0.4121 -0.8670
 3235SOL     OW21166   1.293   4.496   4.703  0.2809  1.4411  0.1912
 3235SOL    HW121167   1.359   4.466   4.641 -0.1090  1.2631 -0.1333
 3235SOL    HW221168   1.221   4.512   4.642  1.1715  2.0317 -0.7159
 3236SOL     OW21169   2.413   4.569   6.036  0.3430  0.2078 -0.3122
 3236SOL    HW121170   2.377   4.589   5.950 -0.3798 -2.5984 -0.6579
 3236SOL    HW221171   2.497   4.614   6.030 -0.0893  1.0527 -0.0364
 3237SOL     OW21172   2.429   0.981   8.816 -0.4722 -0.4410  0.1415
 3237SOL    HW121173   2.505   1.038   8.820 -1.6535  1.1941 -0.6805
 3237SOL    HW221174   2.439   0.931   8.897 -1.7946  1.5535  1.5537
 3238SOL     OW21175   0.548   0.765   5.641 -0.3300  0.4361  0.1007
 3238SOL    HW121176   0.550   0.846   5.589  3.1742  0.3124  0.0633
 3238SOL    HW221177   0.532   0.810   5.724 -0.0274  0.8870 -0.0829
 3239SOL     OW21178   0.436   3.928   7.357 -0.2882 -0.3169  0.0080
 3239SOL    HW121179   0.498   3.857   7.342  1.0688  0.9898 -0.6124
 3239SOL    HW221180   0.390   3.897   7.435  0.8364 -0.0366  0.7947
 3240SOL     OW21181   2.322   3.897   6.976 -1.2603 -0.0622 -0.1030
 3240SOL    HW121182   2.292   3.808   6.994  2.7253 -0.6531  3.8384
 3240SOL    HW221183   2.353   3.898   6.885  1.3180  1.4727  0.7893
 3241SOL     OW21184   1.557   2.522   0.184 -0.9560 -0.3248 -0.2680
 3241SOL    HW121185   1.624   2.532   0.117  0.5204 -1.9047  0.9959
 3241SOL    HW221186   1.582   2.585   0.251 -0.7596  1.2263 -1.8036
 3242SOL     OW21187   0.501   0.067   4.035  0.0715  0.1537 -0.8765
 3242SOL    HW121188   0.520   0.133   3.969 -0.8501  1.0890 -0.2004
 3242SOL    HW221189   0.517   4.709   3.986  0.2132 -0.5220  0.2713
 3243SOL     OW21190   3.959   0.294   3.022  0.0222  0.3847  0.2976
 3243SOL    HW121191   3.977   0.262   2.933 -0.5907 -2.1528  1.0782
 3243SOL    HW221192   3.871   0.331   3.015 -0.1667  0.0386  0.8787
 3244SOL     OW21193   1.933   4.217   6.094  0.0632 -0.2940  0.8775
 3244SOL    HW121194   2.027   4.235   6.101 -0.0828  0.1674  1.7071
 3244SOL    HW221195   1.903   4.211   6.185  1.8319  0.2043  1.5018
 3245SOL     OW21196   0.916   3.708   9.489 -0.1759  0.8381 -0.1140
 3245SOL    HW121197   0.858   3.783   9.505 -1.7365 -0.0999 -1.3388
 3245SOL    HW221198   0.981   3.706   9.558  0.1771 -0.7933 -0.4910
 3246SOL     OW21199   1.230   3.811  13.751  0.4414  0.1431  0.2045
 3246SOL    HW121200   1.188   3.728  13.729 -1.6281  1.3276 -0.2841
 3246SOL    HW221201   1.161   3.875  13.734 -0.6752 -0.8676  0.9525
 3247SOL     OW21202   2.254   3.084   5.400  0.0626 -0.0226  0.3640
 3247SOL    HW121203   2.254   3.176   5.428 -0.4444 -0.5366  2.0921
 3247SOL    HW221204   2.341   3.050   5.421  0.7693  0.8948 -1.0623
 3248SOL     OW21205   2.229   0.707   2.031 -0.1643 -0.0599  0.5383
 3248SOL    HW121206   2.312   0.719   2.077 -0.5127  1.0537  0.8768
 3248SOL    HW221207   2.252   0.676   1.943 -0.1241 -0.5186  0.7079
 3249SOL     OW21208   2.534   1.029   1.948 -0.3409  0.0178  0.0740
 3249SOL    HW121209   2.525   0.941   1.985 -1.4351  0.1379  0.0865
 3249SOL    HW221210   2.461   1.033   1.887  0.9421  1.3101 -1.3731
 3250SOL     OW21211   2.172   0.965   4.825  0.5569  0.0269 -0.0315
 3250SOL    HW121212   2.099   0.957   4.764  1.0416  2.2763 -0.9186
 3250SOL    HW221213   2.187   0.872   4.840  0.6844  0.3578  1.8986
 3251SOL     OW21214   4.130   0.549   5.416  0.7444 -0.3438  0.3530
 3251SOL    HW121215   4.085   0.493   5.480  0.2305  0.9136  1.0998
 3251SOL    HW221216   4.217   0.570   5.451  0.2065  2.7167 -0.1738
 3252SOL     OW21217   0.832   4.673  16.508  0.3720  0.2600  0.9670
 3252SOL    HW121218   0.872   4.666  16.595  1.2117  1.0912  0.6431
 3252SOL    HW221219   0.893   4.619  16.459  0.9279  2.0004 -0.2691
 3253SOL     OW21220   2.518   3.978  13.678  0.1455  0.1354 -0.1602
 3253SOL    HW121221   2.541   3.886  13.669  0.0599  0.1390 -0.4179
 3253SOL    HW221222   2.536   4.000  13.586 -0.5719  0.7770 -0.1470
 3254SOL     OW21223   2.300   3.550   2.634 -0.2080 -0.4411  0.1802
 3254SOL    HW121224   2.235   3.490   2.670 -0.9628  0.3930  0.2123
 3254SOL    HW221225   2.273   3.557   2.542 -0.9084  2.0125  0.5564
 3255SOL     OW21226   1.845   3.919   4.847 -0.1242  0.2102 -0.4152
 3255SOL    HW121227   1.868   4.009   4.871 -0.3914  0.2760 -0.4069
 3255SOL    HW221228   1.840   3.879   4.934  0.9466  0.8323 -0.0677
 3256SOL     OW21229   2.310   0.427   3.119  0.1714  0.0361 -0.2685
 3256SOL    HW121230   2.265   0.479   3.185 -1.8846 -2.4288  0.2785
 3256SOL    HW221231   2.236   0.399   3.065  0.2049 -0.4125 -0.0760
 3257SOL     OW21232   2.783   4.046   5.576 -0.1820 -0.4554  0.0622
 3257SOL    HW121233   2.822   3.983   5.636  1.4899 -0.9529 -1.5483
 3257SOL    HW221234   2.791   3.998   5.494 -0.2916  1.2745 -0.9718
 3258SOL     OW21235   0.358   3.661   5.885 -0.4628  0.2695  0.2227
 3258SOL    HW121236   0.363   3.682   5.979 -1.7589 -0.8794  0.5580
 3258SOL    HW221237   0.450   3.662   5.861 -0.1725  0.2867  1.3277
 3259SOL     OW21238   4.448   1.384   4.029 -0.1755  0.1733 -0.0484
 3259SOL    HW121239   4.459   1.342   4.114 -0.0137  0.2588 -0.0280
 3259SOL    HW221240   4.491   1.469   4.039  0.1369 -0.3883  3.5321
 3260SOL     OW21241   3.565   2.366   6.758 -0.1919 -0.1255  0.2579
 3260SOL    HW121242   3.517   2.449   6.753 -0.9430 -0.4854  1.3712
 3260SOL    HW221243   3.493   2.318   6.717 -1.1457  1.2583  0.3109
 3261SOL     OW21244   0.875   3.809  11.635 -0.5221  0.0733 -0.2481
 3261SOL    HW121245   0.863   3.899  11.663  1.4946 -0.1566  1.3654
 3261SOL    HW221246   0.925   3.810  11.554  1.5850  1.9958  1.0994
 3262SOL     OW21247   4.001   4.581   0.803 -0.2985 -0.4992  0.1897
 3262SOL    HW121248   3.973   4.613   0.888 -1.6529  0.2474 -0.5403
 3262SOL    HW221249   4.015   4.668   0.765  0.7519  0.1035  1.9565
 3263SOL     OW21250   4.614   0.017   2.846  0.3177  0.0651  0.1003
 3263SOL    HW121251   4.680   4.680   2.815 -0.1912 -0.7345  0.5641
 3263SOL    HW221252   4.663   0.081   2.899  0.5969 -1.4050  1.6093
 3264SOL     OW21253   3.661   3.469   8.966  0.4275  0.0666  0.3540
 3264SOL    HW121254   3.618   3.545   9.005 -0.0601 -0.0777  0.0997
 3264SOL    HW221255   3.673   3.494   8.874 -0.8226 -0.4661  0.0432
 3265SOL     OW21256   3.353   3.451   4.692  0.1896 -0.2408  0.4875
 3265SOL    HW121257   3.279   3.415   4.643  0.3581  0.4654 -0.2910
 3265SOL    HW221258   3.425   3.392   4.668 -0.2777 -1.6123  2.4434
 3266SOL     OW21259   0.522   3.801   9.090 -0.7038  0.4999  0.1796
 3266SOL    HW121260   0.474   3.820   9.009 -2.1301 -1.5098  0.5595
 3266SOL    HW221261   0.587   3.871   9.087 -0.6287  0.4735  1.2930
 3267SOL     OW21262   0.271   1.238   3.730 -0.0983  0.2389  0.2925
 3267SOL    HW121263   0.187   1.229   3.774 -0.1284 -0.7835  0.0156
 3267SOL    HW221264   0.311   1.319   3.764 -0.7118  0.4976  0.3886
 3268SOL     OW21265   4.570   3.325   1.680  0.2156 -0.3643 -0.2984
 3268SOL    HW121266   4.527   3.244   1.653  1.7754 -1.4814  0.5850
 3268SOL    HW221267   4.663   3.301   1.684  0.2642 -0.2213 -0.5513
 3269SOL     OW21268   1.841   2.238  12.618 -0.0070 -0.5677 -0.8411
 3269SOL    HW121269   1.853   2.253  12.524 -2.4345 -0.4266 -1.1280
 3269SOL    HW221270   1.915   2.292  12.646 -0.8355  0.1885 -0.1153
 3270SOL     OW21271   4.656   2.683   8.792 -0.4531  0.3334 -0.1641
 3270SOL    HW121272   4.684   2.611   8.735 -2.5881 -0.0141 -0.7738
 3270SOL    HW221273   4.567   2.686   8.757 -0.4706  1.2583 -0.0493
 3271SOL     OW21274   0.113   2.819   1.438  0.2160  0.5275  0.3100
 3271SOL    HW121275   0.098   2.725   1.446 -0.7559  0.4629 -2.1846
 3271SOL    HW221276   0.118   2.834   1.343 -1.0197  0.5772  0.2476
 3272SOL     OW21277   2.024   1.524   2.259  0.8987 -0.0284  0.1812
 3272SOL    HW121278   2.022   1.613   2.295  2.6292  0.6235 -1.3358
 3272SOL    HW221279   1.983   1.536   2.174 -0.8827  0.3045  1.0929
 3273SOL     OW21280   1.537   2.087   8.849 -0.2948 -0.4372  0.0916
 3273SOL    HW121281   1.449   2.119   8.869  0.0259  0.8332 -0.5143
 3273SOL    HW221282   1.538   2.003   8.895  0.1601 -1.1026 -1.1148
 3274SOL     OW21283   2.672   2.029   1.398 -0.2518 -0.3764 -0.0562
 3274SOL    HW121284   2.741   1.964   1.383  0.9647  1.1799 -1.1111
 3274SOL    HW221285   2.598   1.989   1.354 -2.2801  0.7416  2.3463
 3275SOL     OW21286   0.982   3.901   3.537 -0.2104 -0.0936 -0.0078
 3275SOL    HW121287   1.061   3.928   3.490 -1.0734  0.9079 -0.8976
 3275SOL    HW221288   0.975   3.814   3.498 -1.9600 -1.2148  2.7853
 3276SOL     OW21289   1.425   0.685  15.324  0.0922 -0.0955 -0.2695
 3276SOL    HW121290   1.481   0.642  15.389 -0.5822  2.5305  2.0879
 3276SOL    HW221291   1.447   0.641  15.242  0.2274 -2.5107  1.0599
 3277SOL     OW21292   3.895   2.658   8.595 -0.1917 -0.0742 -0.1092
 3277SOL    HW121293   3.812   2.631   8.634 -0.4934 -0.0128 -0.7120
 3277SOL    HW221294   3.911   2.576   8.547 -2.0018  0.6075 -1.8822
 3278SOL     OW21295   0.175   3.704  13.385  0.4059  0.1417  0.8201
 3278SOL    HW121296   0.175   3.623  13.436 -0.7724 -1.9864 -2.5900
 3278SOL    HW221297   0.249   3.692  13.325 -0.2948 -0.3288  0.0499
 3279SOL     OW21298   3.547   4.532  13.014  0.4665  0.3779  0.0791
 3279SOL    HW121299   3.482   4.507  13.080 -2.0891 -2.2723 -3.3969
 3279SOL    HW221300   3.491   4.516  12.938 -0.3003  0.5674  0.6040
 3280SOL     OW21301   0.595   3.535   6.630  0.1521 -0.1711 -0.7376
 3280SOL    HW121302   0.591   3.578   6.544  0.5375  1.6621  0.1601
 3280SOL    HW221303   0.505   3.534   6.663  0.3571 -1.7804 -0.2535
 3281SOL     OW21304   4.202   0.422  12.592  0.4284 -0.4321  0.1298
 3281SOL    HW121305   4.156   0.434  12.509 -2.1631  1.8446  1.8803
 3281SOL    HW221306   4.199   0.505  12.639 -1.2372 -0.9576  0.9386
 3282SOL     OW21307   4.472   1.538   8.749 -0.0669 -0.6578 -0.0811
 3282SOL    HW121308   4.505   1.556   8.661 -0.7269 -2.6733 -0.7362
 3282SOL    HW221309   4.382   1.570   8.753 -0.6748 -2.2240 -1.3413
 3283SOL     OW21310   0.211   0.410   5.322 -0.2946 -0.7509 -0.0913
 3283SOL    HW121311   0.126   0.368   5.337 -0.4366  0.3775  2.2622
 3283SOL    HW221312   0.182   0.465   5.249 -1.5123 -0.3991  0.6668
 3284SOL     OW21313   2.739   0.517   9.104 -0.1893 -0.0915 -0.0525
 3284SOL    HW121314   2.800   0.497   9.175 -0.5859 -1.1867 -0.0198
 3284SOL    HW221315   2.680   0.443   9.115 -2.1007  1.4909  0.2946
 3285SOL     OW21316   1.755   0.687  11.848 -0.0100  0.3325  0.0163
 3285SOL    HW121317   1.811   0.756  11.810  1.5123 -1.9436 -1.8780
 3285SOL    HW221318   1.730   0.632  11.774  0.6065 -0.3299  0.3021
 3286SOL     OW21319   0.030   4.564  16.804 -0.5126 -0.1349  0.0502
 3286SOL    HW121320   0.056   4.587  16.715  2.1360 -2.1091  0.3060
 3286SOL    HW221321   0.015   4.652  16.837  0.3075  0.0580 -0.1038
 3287SOL     OW21322   2.399   2.127   8.128 -0.3986  0.4262  0.7871
 3287SOL    HW121323   2.384   2.163   8.215 -1.3856  0.3267  0.6608
 3287SOL    HW221324   2.426   2.205   8.079  0.9330 -1.9200 -2.2077
 3288SOL     OW21325   3.277   1.928   8.033 -0.5573 -0.1768 -0.7234
 3288SOL    HW121326   3.243   1.973   7.956 -0.2110 -0.0682 -0.8112
 3288SOL    HW221327   3.229   1.844   8.033  0.2569 -0.6489  0.8272
 3289SOL     OW21328   0.223   3.939   2.776  0.0921 -0.5901  0.4773
 3289SOL    HW121329   0.234   4.019   2.827  1.3897 -0.0100 -0.7137
 3289SOL    HW221330   0.150   3.903   2.827  0.7338  1.5885  2.9136
 3290SOL     OW21331   3.461   4.554   7.305  0.0640 -0.0532 -0.1902
 3290SOL    HW121332   3.457   4.626   7.242 -0.1582  1.6161  1.7751
 3290SOL    HW221333   3.386   4.496   7.286 -0.0406 -0.2037  0.6892
 3291SOL     OW21334   4.063   4.600   3.182 -0.3449 -0.2255  0.2163
 3291SOL    HW121335   4.124   4.637   3.119 -2.9914  2.1327 -0.9622
 3291SOL    HW221336   3.998   4.670   3.187 -0.3858 -0.4416  2.8379
 3292SOL     OW21337   4.070   3.391  16.083 -0.7283 -0.0420  0.0990
 3292SOL    HW121338   4.132   3.344  16.029  0.3612  1.2631  0.2093
 3292SOL    HW221339   4.025   3.440  16.014  1.8995  2.3372  0.0641
 3293SOL     OW21340   1.447   1.961   8.562 -0.2955  0.0926  0.8596
 3293SOL    HW121341   1.444   1.876   8.518  0.2361  0.6490 -0.2318
 3293SOL    HW221342   1.542   1.967   8.573 -0.4816  0.1236  2.4642
 3294SOL     OW21343   4.132   4.718   4.122 -0.4392  0.6210  0.0534
 3294SOL    HW121344   4.106   0.080   4.088  1.8115  1.6500  0.9600
 3294SOL    HW221345   4.222   4.703   4.092 -0.7925  0.6565 -1.0408
 3295SOL     OW21346   3.572   3.459   9.214  0.2147 -0.1601 -0.1366
 3295SOL    HW121347   3.480   3.433   9.222 -0.0582  0.5172 -1.1823
 3295SOL    HW221348   3.592   3.410   9.135 -0.9735 -0.5961 -0.1775
 3296SOL     OW21349   4.703   0.449   0.349  0.3881  0.0720  0.5831
 3296SOL    HW121350   4.696   0.535   0.307 -0.1629 -0.3331 -0.1729
 3296SOL    HW221351   4.620   0.441   0.396  0.1174  0.7987  0.2316
 3297SOL     OW21352   4.347   2.320   6.821 -0.6169 -0.3228 -0.1941
 3297SOL    HW121353   4.351   2.412   6.846 -1.0125 -1.1097  2.7795
 3297SOL    HW221354   4.295   2.285   6.894 -0.9637  0.2551 -0.1691
 3298SOL     OW21355   3.991   4.622   8.552 -1.1780  0.3030  0.0239
 3298SOL    HW121356   4.003   4.586   8.640  1.6241 -0.4909 -0.7138
 3298SOL    HW221357   3.972   4.545   8.499  2.7820  0.2402 -1.2676
 3299SOL     OW21358   3.018   4.059   5.053 -0.4696 -0.0723  0.2736
 3299SOL    HW121359   3.099   4.009   5.040  1.0076  2.5841 -0.7692
 3299SOL    HW221360   2.973   4.037   4.971 -1.0663  2.3164 -0.0591
 3300SOL     OW21361   0.160   3.344   3.959  0.1650  0.3665  0.1490
 3300SOL    HW121362   0.065   3.339   3.975  0.0980  0.7811 -0.1055
 3300SOL    HW221363   0.170   3.438   3.974 -0.0014  0.4361 -0.1646
 3301SOL     OW21364   1.942   4.228   3.542  0.0145  0.6367  0.2206
 3301SOL    HW121365   2.004   4.203   3.610  0.9020  0.3731 -0.6941
 3301SOL    HW221366   1.941   4.150   3.486  0.4009  0.9960 -0.2835
 3302SOL     OW21367   1.444   2.686  17.636  0.9418 -0.2149 -0.3956
 3302SOL    HW121368   1.516   2.731  17.591  1.6457 -0.9118  0.0314
 3302SOL    HW221369   1.369   2.735  17.603 -0.5997 -1.4019  1.4039
 3303SOL     OW21370   1.919   2.457   1.483 -0.0011 -0.1103  0.5266
 3303SOL    HW121371   1.871   2.376   1.499 -0.1707 -0.0434  0.3568
 3303SOL    HW221372   2.006   2.432   1.515  0.1216 -0.4203 -0.0484
 3304SOL     OW21373   3.934   4.526   7.865 -0.5788  0.0203  0.1276
 3304SOL    HW121374   3.907   4.618   7.865  0.6772  0.3928  0.8969
 3304SOL    HW221375   3.968   4.513   7.777 -1.0175  0.5759 -0.1220
 3305SOL     OW21376   1.064   1.909   6.747  0.2365  0.2382  0.0942
 3305SOL    HW121377   1.038   1.817   6.750  0.0513  0.3178  1.1449
 3305SOL    HW221378   1.150   1.900   6.707  1.2601 -0.0966  2.3821
 3306SOL     OW21379   1.784   0.984  14.884 -0.6179 -0.1866 -0.4190
 3306SOL    HW121380   1.849   1.035  14.836  0.5266  0.4074  1.7646
 3306SOL    HW221381   1.769   0.916  14.819  0.3522  0.5396 -1.3957
 3307SOL     OW21382   2.888   4.292   7.094 -0.5994 -0.1898 -0.0954
 3307SOL    HW121383   2.976   4.254   7.097 -0.2255  0.8711  2.0432
 3307SOL    HW221384   2.896   4.347   7.015 -3.4054  0.1526 -0.1521
 3308SOL     OW21385   4.219   1.967   7.783  0.1078  0.6753 -0.3281
 3308SOL    HW121386   4.245   2.059   7.785  2.9255 -0.1420  0.9245
 3308SOL    HW221387   4.180   1.973   7.870  0.3288  1.9370 -0.3190
 3309SOL     OW21388   1.713   2.812   5.999  0.6200 -0.0890 -0.4068
 3309SOL    HW121389   1.626   2.775   6.013 -0.3863  3.1412  1.9785
 3309SOL    HW221390   1.720   2.795   5.905 -1.2896  2.9841 -1.0795
 3310SOL     OW21391   2.045   4.072   0.708 -0.0676  0.1013  0.0286
 3310SOL    HW121392   1.997   3.990   0.721  0.0448  0.0843  0.3265
 3310SOL    HW221393   2.113   4.059   0.774 -1.2153  0.8010  1.3592
 3311SOL     OW21394   2.875   3.523   3.617 -0.2348 -0.1584  0.5356
 3311SOL    HW121395   2.926   3.558   3.543 -1.0416 -1.5510 -0.6623
 3311SOL    HW221396   2.842   3.443   3.577 -0.0465 -1.6091  3.3321
 3312SOL     OW21397   0.465   4.482  15.221  0.1651  0.2440 -0.3003
 3312SOL    HW121398   0.404   4.553  15.242  0.0116 -0.7191  2.6134
 3312SOL    HW221399   0.550   4.523  15.238 -0.0761  1.0827 -1.1261
 3313SOL     OW21400   2.098   2.130   7.417  0.0937  0.4036 -0.4162
 3313SOL    HW121401   2.082   2.191   7.489 -0.5809  0.2744 -0.4558
 3313SOL    HW221402   2.061   2.047   7.445 -1.6635  1.0916 -0.6951
 3314SOL     OW21403   3.653   0.511  16.213  1.0707 -0.0398  0.5548
 3314SOL    HW121404   3.615   0.464  16.139  1.7597  0.2117  0.0445
 3314SOL    HW221405   3.745   0.508  16.187  1.7450  0.0295  2.8968
 3315SOL     OW21406   1.168   1.952  16.323  0.4867 -0.4745  0.3034
 3315SOL    HW121407   1.168   1.888  16.252 -1.1544 -0.2616  0.1048
 3315SOL    HW221408   1.224   2.016  16.280 -0.5773  0.5724  0.4651
 3316SOL     OW21409   3.909   3.179   9.178  0.0450  0.2714  0.1272
 3316SOL    HW121410   3.912   3.098   9.128  1.4724  0.4809 -0.1356
 3316SOL    HW221411   3.818   3.176   9.209  0.2724 -1.2163  0.6352
 3317SOL     OW21412   0.084   2.677   3.527  0.0884  0.4203 -0.0673
 3317SOL    HW121413   0.101   2.745   3.592  1.6803 -0.4901  0.4576
 3317SOL    HW221414   0.076   2.729   3.447  1.3532 -0.6716 -0.8985
 3318SOL     OW21415   3.887   2.782   3.940  0.1572 -0.4337 -0.3064
 3318SOL    HW121416   3.856   2.825   3.860  0.2437  0.6781  0.2504
 3318SOL    HW221417   3.968   2.737   3.916  1.1757  1.9686 -1.3786
 3319SOL     OW21418   2.656   3.663   3.697 -0.2235 -0.0743  0.1935
 3319SOL    HW121419   2.733   3.622   3.659  0.4342  1.3832 -0.0352
 3319SOL    HW221420   2.614   3.700   3.618 -0.0471 -0.0958  0.0909
 3320SOL     OW21421   0.654   1.661   6.727 -0.3157  0.4767 -0.1942
 3320SOL    HW121422   0.629   1.571   6.750 -0.2621  0.4140 -0.3802
 3320SOL    HW221423   0.613   1.671   6.641  0.2061  0.3158 -0.4567
 3321SOL     OW21424   3.546   0.937   8.122 -0.2697 -0.0108 -0.7467
 3321SOL    HW121425   3.530   0.861   8.067  0.0406  0.4126 -1.4129
 3321SOL    HW221426   3.638   0.951   8.099  0.1198 -0.2639  0.6170
 3322SOL     OW21427   1.678   4.109   4.467  0.3897  0.4535 -0.3590
 3322SOL    HW121428   1.759   4.130   4.419  1.4286 -2.8104 -0.0883
 3322SOL    HW221429   1.634   4.051   4.405 -1.8969 -0.6023  2.3017
 3323SOL     OW21430   3.368   1.969   4.342  0.0475 -0.1822 -0.2294
 3323SOL    HW121431   3.346   1.880   4.315 -1.1190 -0.3732  1.3258
 3323SOL    HW221432   3.461   1.959   4.362  0.3704  1.1833 -1.0421
 3324SOL     OW21433   1.235   4.604  13.422  0.0240  0.2628  0.1372
 3324SOL    HW121434   1.276   4.540  13.480  0.6621 -0.3030 -0.9375
 3324SOL    HW221435   1.155   4.630  13.467 -0.2581 -0.9299  0.3332
 3325SOL     OW21436   2.604   0.494   3.059  0.1645  0.0817 -1.0342
 3325SOL    HW121437   2.510   0.497   3.074  0.4240  0.9119  0.5114
 3325SOL    HW221438   2.615   0.484   2.965 -0.5156 -0.1116 -1.0888
 3326SOL     OW21439   1.882   3.458  11.912  0.1157 -0.5289 -0.1463
 3326SOL    HW121440   1.846   3.369  11.915 -1.0475 -0.0162  1.0446
 3326SOL    HW221441   1.832   3.507  11.848 -0.8187 -1.1459  0.0984
 3327SOL     OW21442   0.273   2.281   7.336  0.3080  0.0763  0.0739
 3327SOL    HW121443   0.349   2.329   7.369  0.8339 -0.0406 -0.9987
 3327SOL    HW221444   0.203   2.346   7.337 -1.1585 -1.5361  2.1530
 3328SOL     OW21445   3.095   0.685   1.371  0.1550  0.2664 -0.2228
 3328SOL    HW121446   3.017   0.698   1.426  0.2585  0.0834 -0.0301
 3328SOL    HW221447   3.170   0.702   1.428 -0.9669 -0.0397  1.3553
 3329SOL     OW21448   3.686   4.154  11.826 -0.4120 -0.2646 -0.3145
 3329SOL    HW121449   3.760   4.190  11.875  1.0028  0.2112 -2.8379
 3329SOL    HW221450   3.711   4.063  11.843 -2.2765 -0.5306  1.0305
 3330SOL     OW21451   4.606   1.105  14.931 -0.4460  0.8677 -0.5556
 3330SOL    HW121452   4.522   1.078  14.968  0.8916 -2.1064  0.3237
 3330SOL    HW221453   4.635   1.180  14.982 -2.8041  1.1275  0.3999
 3331SOL     OW21454   1.706   1.784   2.064  0.4628  0.3736 -0.2482
 3331SOL    HW121455   1.650   1.764   1.989 -0.0839 -1.5221  0.6551
 3331SOL    HW221456   1.738   1.868   2.031 -2.9615  1.4093 -0.9970
 3332SOL     OW21457   0.309   1.432   7.451  0.1973  0.9499 -0.4397
 3332SOL    HW121458   0.225   1.422   7.406  0.2283 -0.7793 -0.1023
 3332SOL    HW221459   0.298   1.523   7.479 -1.1732  0.2193  1.4008
 3333SOL     OW21460   3.866   0.724   8.990 -0.2896  0.2983 -0.6153
 3333SOL    HW121461   3.780   0.683   8.978  0.8575 -1.9192 -1.2880
 3333SOL    HW221462   3.916   0.642   8.982  0.3787  0.7148 -0.7068
 3334SOL     OW21463   2.241   2.354   9.676 -0.2787  0.5109  0.4865
 3334SOL    HW121464   2.189   2.399   9.744 -0.1413  1.4400 -0.0243
 3334SOL    HW221465   2.263   2.274   9.723 -0.4153  0.4542  0.4538
 3335SOL     OW21466   3.690   0.166   3.736 -0.0360 -0.2769 -0.0170
 3335SOL    HW121467   3.683   0.118   3.819  1.3527  0.0198  0.2720
 3335SOL    HW221468   3.729   0.246   3.771  1.6316 -0.5985 -1.1547
 3336SOL     OW21469   2.378   4.230   0.807 -0.3580  0.5195 -0.5911
 3336SOL    HW121470   2.350   4.141   0.826 -2.1310  1.5900  1.8499
 3336SOL    HW221471   2.312   4.284   0.852 -1.5998 -1.2648 -0.2846
 3337SOL     OW21472   2.213   1.667  17.423  0.4332  0.3116  0.7917
 3337SOL    HW121473   2.226   1.745  17.370  1.0980  0.1294  0.6833
 3337SOL    HW221474   2.301   1.627  17.426  0.3868  0.1517  0.0425
 3338SOL     OW21475   0.070   0.723   5.522  0.0047  0.0884  0.1948
 3338SOL    HW121476   0.153   0.729   5.476 -0.2230 -1.8958 -0.4783
 3338SOL    HW221477   0.091   0.661   5.592  2.1301 -0.6398 -1.0879
 3339SOL     OW21478   3.123   2.469   3.298  0.3719  0.5930 -0.6202
 3339SOL    HW121479   3.171   2.388   3.309 -0.0036  0.9474  3.5924
 3339SOL    HW221480   3.083   2.462   3.211 -1.5652 -0.8398  0.3783
 3340SOL     OW21481   4.258   4.433   4.398 -0.2580  0.1631 -0.0829
 3340SOL    HW121482   4.337   4.480   4.373 -0.5047  0.7866  0.3144
 3340SOL    HW221483   4.234   4.488   4.473 -0.5440  1.8152 -1.3931
 3341SOL     OW21484   0.461   3.644   2.456 -0.2466 -0.1312  0.2065
 3341SOL    HW121485   0.547   3.665   2.419 -0.0091  0.5147  1.1503
 3341SOL    HW221486   0.411   3.687   2.386 -1.0964 -0.4585  0.6110
 3342SOL     OW21487   0.234   3.881   2.482  0.1664 -0.3753 -0.0517
 3342SOL    HW121488   0.256   3.974   2.482  0.5135 -0.4618  0.4808
 3342SOL    HW221489   0.197   3.867   2.569  0.7588 -2.6665 -0.1676
 3343SOL     OW21490   1.074   4.311   9.104  0.0016  0.0095  0.2737
 3343SOL    HW121491   1.133   4.236   9.095 -0.7100 -0.6712  1.2643
 3343SOL    HW221492   1.138   4.368   9.148 -0.6579  0.0809  1.1521
 3344SOL     OW21493   2.683   0.924   9.077  1.2799  0.2872 -0.0780
 3344SOL    HW121494   2.604   0.872   9.064  0.1627  1.5308  1.7258
 3344SOL    HW221495   2.672   0.993   9.012  0.8052 -0.5947 -0.9207
 3345SOL     OW21496   2.162   2.723   9.255  0.0348  0.2131 -0.3433
 3345SOL    HW121497   2.090   2.748   9.313 -1.1809 -0.3425 -1.6126
 3345SOL    HW221498   2.184   2.636   9.288  1.2766  0.1235 -1.3959
 3346SOL     OW21499   4.375   2.247  17.334  0.3326  0.3205  0.5467
 3346SOL    HW121500   4.418   2.223  17.416  0.2157 -1.1749  0.1657
 3346SOL    HW221501   4.458   2.261  17.289 -0.6718 -1.1814 -1.7526
 3347SOL     OW21502   3.014   3.376  15.509 -0.5322 -0.2605  0.6814
 3347SOL    HW121503   2.996   3.448  15.448  0.7654 -0.2152  0.3491
 3347SOL    HW221504   3.048   3.312  15.447  1.5744  0.5817  0.9760
 3348SOL     OW21505   3.715   1.252   8.615  0.5135  0.0457  0.5304
 3348SOL    HW121506   3.619   1.258   8.615  0.6009  1.5449 -1.2435
 3348SOL    HW221507   3.731   1.164   8.582  0.3251  0.1360  0.1957
 3349SOL     OW21508   0.232   2.573  12.079 -0.0088  0.2005  0.6674
 3349SOL    HW121509   0.250   2.647  12.021  1.7555 -1.8425 -1.3896
 3349SOL    HW221510   0.323   2.545  12.094  0.4135  1.1106 -0.2306
 3350SOL     OW21511   2.132   0.289  12.695  0.3274 -0.6855  0.4409
 3350SOL    HW121512   2.221   0.303  12.664 -0.1445  0.9350 -0.1409
 3350SOL    HW221513   2.078   0.311  12.619 -1.0838 -0.2248  1.5728
 3351SOL     OW21514   0.150   1.565   1.679  0.0019  0.1132 -0.3027
 3351SOL    HW121515   0.099   1.500   1.726 -1.9629  2.9622  1.5106
 3351SOL    HW221516   0.100   1.600   1.605  0.7307  1.0504 -0.3673
 3352SOL     OW21517   0.536   0.582  16.119  0.1898  0.0312  0.5799
 3352SOL    HW121518   0.466   0.627  16.167 -0.6854 -0.6429 -0.0610
 3352SOL    HW221519   0.506   0.591  16.028  0.1044 -0.6148  0.5486
 3353SOL     OW21520   3.570   2.025   5.242  0.3265  0.2057  0.1919
 3353SOL    HW121521   3.489   2.000   5.287  0.0482 -0.0445 -0.4338
 3353SOL    HW221522   3.535   2.058   5.159 -3.2290 -0.4360  1.4297
 3354SOL     OW21523   2.202   4.540   0.861  0.3480 -0.5532 -0.0972
 3354SOL    HW121524   2.155   4.460   0.883  0.9599 -0.9436 -0.1960
 3354SOL    HW221525   2.144   4.600   0.909  0.8322 -0.4709  0.3907
 3355SOL     OW21526   0.185   0.562   6.937  0.2594  0.5640 -0.1749
 3355SOL    HW121527   0.124   0.492   6.915  0.9135  0.1244 -0.6060
 3355SOL    HW221528   0.141   0.600   7.013 -2.7137 -0.2931 -1.4840
 3356SOL     OW21529   2.538   3.366   7.260 -0.2030  0.6322 -0.1924
 3356SOL    HW121530   2.457   3.315   7.269  0.8916 -1.1839 -0.5721
 3356SOL    HW221531   2.530   3.424   7.184 -1.0608  0.8913  0.0989
 3357SOL     OW21532   3.133   0.498   3.241 -0.1527 -0.1733 -0.8328
 3357SOL    HW121533   3.047   0.494   3.199 -0.0419  1.0452 -1.1789
 3357SOL    HW221534   3.179   0.559   3.184 -1.2291  0.3645 -1.1327
 3358SOL     OW21535   1.801   1.022  12.731 -0.4699  0.3359  0.4692
 3358SOL    HW121536   1.714   1.062  12.724 -0.2222  0.9154  0.6514
 3358SOL    HW221537   1.834   1.038  12.643 -2.4619 -2.0793 -0.7150
 3359SOL     OW21538   4.722   2.764   8.296  0.6044 -0.0334 -0.1746
 3359SOL    HW121539   0.001   2.830   8.365  0.9786  1.9522 -2.1020
 3359SOL    HW221540   0.004   2.819   8.219  0.4710  0.2242  0.0014
 3360SOL     OW21541   0.358   1.872   0.178 -0.1612  0.3300 -0.2760
 3360SOL    HW121542   0.265   1.876   0.154 -0.5667  0.9065  1.3647
 3360SOL    HW221543   0.351   1.891   0.272  1.8058  0.5623 -0.1693
 3361SOL     OW21544   2.676   3.090   3.747  0.0169 -0.0815 -0.0927
 3361SOL    HW121545   2.652   3.018   3.806  1.3502 -0.3293  0.1650
 3361SOL    HW221546   2.749   3.125   3.799  1.0222 -1.7522 -0.3532
 3362SOL     OW21547   1.593   3.063   6.799  0.0315 -0.5016 -0.1383
 3362SOL    HW121548   1.598   3.118   6.721 -3.3149  0.9073  0.6303
 3362SOL    HW221549   1.675   3.014   6.790  0.2593 -0.1777  0.1491
 3363SOL     OW21550   2.992   1.032   4.487 -0.0414  0.1993 -0.0321
 3363SOL    HW121551   2.942   0.980   4.425 -1.4994  0.1490  1.1785
 3363SOL    HW221552   2.948   1.118   4.487  0.7045  0.5833  1.1633
 3364SOL     OW21553   1.546   4.484  13.411 -0.0558  0.0967  0.0060
 3364SOL    HW121554   1.478   4.426  13.378  1.2364 -1.5597  0.2647
 3364SOL    HW221555   1.528   4.563  13.360  2.0886  0.3066 -0.4468
 3365SOL     OW21556   2.744   2.877   7.548  0.0810 -0.1426  0.0801
 3365SOL    HW121557   2.688   2.955   7.553  1.8649  1.1215  0.1007
 3365SOL    HW221558   2.725   2.850   7.458  0.2247 -0.7011  0.2151
 3366SOL     OW21559   3.037   0.616   7.449 -0.2700  0.1987  0.2636
 3366SOL    HW121560   3.025   0.530   7.489  2.4450 -0.2391  0.1617
 3366SOL    HW221561   3.043   0.583   7.359 -2.0802  2.9306 -0.8385
 3367SOL     OW21562   3.206   4.239   5.928 -0.2884 -0.0265 -0.2317
 3367SOL    HW121563   3.211   4.152   5.888 -1.4835  0.0293 -0.5018
 3367SOL    HW221564   3.295   4.275   5.924  0.5022 -2.0737 -1.3674
 3368SOL     OW21565   2.916   1.164   2.978 -0.3907  0.1903  0.0454
 3368SOL    HW121566   2.894   1.230   2.912 -0.3339 -1.4616 -1.6262
 3368SOL    HW221567   2.862   1.089   2.952  0.2535  0.2440 -1.4412
 3369SOL     OW21568   3.450   4.377   5.884  0.1637  0.0309  0.5414
 3369SOL    HW121569   3.526   4.323   5.860 -0.5013 -0.9920  0.7073
 3369SOL    HW221570   3.486   4.465   5.886  2.9933 -1.1054 -0.2699
 3370SOL     OW21571   4.260   3.800   8.647  0.4668  0.1693  0.6703
 3370SOL    HW121572   4.343   3.809   8.600 -0.4047 -1.1400 -1.1259
 3370SOL    HW221573   4.218   3.728   8.601 -2.2248  1.5640  0.9434
 3371SOL     OW21574   4.270   1.195  11.553 -0.1647  0.5074  0.0194
 3371SOL    HW121575   4.343   1.198  11.615 -1.1280 -0.4345  1.2130
 3371SOL    HW221576   4.271   1.099  11.547  3.5555  0.6824 -2.4197
 3372SOL     OW21577   1.734   0.170   3.624  0.1314 -0.5429  0.0800
 3372SOL    HW121578   1.792   0.122   3.683  1.2547  2.1239  1.1689
 3372SOL    HW221579   1.754   0.126   3.542  2.5276  0.8184 -0.0775
 3373SOL     OW21580   1.416   1.093  16.100  0.2757 -0.1383  0.2764
 3373SOL    HW121581   1.394   1.010  16.057 -1.7237  0.0129  1.0427
 3373SOL    HW221582   1.503   1.118  16.068 -0.3061  0.9682 -0.4437
 3374SOL     OW21583   0.990   4.356   3.155 -0.3746  0.0986 -0.3737
 3374SOL    HW121584   1.067   4.329   3.106 -0.4088 -2.0239  0.7290
 3374SOL    HW221585   1.031   4.396   3.232 -3.3452  4.8906 -1.2828
 3375SOL     OW21586   3.940   3.199   8.428  0.3310 -0.2341 -0.5846
 3375SOL    HW121587   3.872   3.143   8.390  0.4575  0.8384 -2.3574
 3375SOL    HW221588   3.963   3.250   8.351 -0.0521  2.7738  1.3004
 3376SOL     OW21589   0.026   0.005   1.535  0.5228  0.2210 -0.2436
 3376SOL    HW121590   4.708   4.692   1.614  1.6017  1.0215  0.6821
 3376SOL    HW221591   4.694   0.076   1.502 -0.4058  0.0633  0.9592
 3377SOL     OW21592   0.296   1.115  13.519 -0.2289 -0.4576  0.8688
 3377SOL    HW121593   0.268   1.206  13.528  1.3539  0.1082  0.1961
 3377SOL    HW221594   0.255   1.090  13.437 -2.0826  0.0632  1.6449
 3378SOL     OW21595   0.160   4.320   1.027  0.0490  0.2813 -0.1778
 3378SOL    HW121596   0.149   4.409   0.994  1.7992  0.4960 -0.1331
 3378SOL    HW221597   0.155   4.349   1.118 -0.9105  0.8990 -0.4208
 3379SOL     OW21598   3.702   3.343   0.896 -0.3464  0.1828 -0.1051
 3379SOL    HW121599   3.737   3.414   0.842  0.4976  0.9720  1.4752
 3379SOL    HW221600   3.751   3.359   0.976  0.4249 -0.1589 -0.5110
 3380SOL     OW21601   3.480   3.773  13.759  0.2990 -0.7604 -0.5466
 3380SOL    HW121602   3.557   3.726  13.729  1.1108 -0.2677  0.7709
 3380SOL    HW221603   3.411   3.706  13.764 -0.4982  0.0449 -0.6637
 3381SOL     OW21604   4.287   2.072   6.024  0.2253  0.5355  0.3128
 3381SOL    HW121605   4.211   2.075   6.083 -2.2114 -4.2057 -2.5484
 3381SOL    HW221606   4.303   1.979   6.008  0.9415  0.8385 -0.6958
 3382SOL     OW21607   0.844   0.147   3.477  0.1158 -0.2558  0.6134
 3382SOL    HW121608   0.862   0.203   3.402 -0.0860 -1.2356 -0.1726
 3382SOL    HW221609   0.928   0.101   3.472  0.5378  0.5411  0.4463
 3383SOL     OW21610   4.167   1.748   4.016 -0.3072 -0.3466 -0.1221
 3383SOL    HW121611   4.123   1.753   4.100 -1.7652  2.1315 -1.0527
 3383SOL    HW221612   4.257   1.724   4.040 -0.8241 -1.7104  0.4318
 3384SOL     OW21613   3.708   2.719   8.217 -0.7433  0.2049  0.5457
 3384SOL    HW121614   3.803   2.724   8.213 -0.7982 -0.4359 -1.8341
 3384SOL    HW221615   3.691   2.668   8.137 -1.7515  3.1794 -1.1279
 3385SOL     OW21616   4.082   1.233   3.691 -0.1501 -0.2148 -0.1416
 3385SOL    HW121617   4.116   1.248   3.780 -0.4583 -0.1709 -0.0326
 3385SOL    HW221618   4.051   1.143   3.699 -1.5250  0.1470 -1.5595
 3386SOL     OW21619   1.143   0.487   7.544 -0.2127  0.0743 -0.0589
 3386SOL    HW121620   1.119   0.567   7.591  1.2294 -1.3387  3.0491
 3386SOL    HW221621   1.235   0.481   7.568 -0.0392  1.5829 -0.3702
 3387SOL     OW21622   0.645   2.397  11.513  0.0248 -0.2136 -0.3895
 3387SOL    HW121623   0.646   2.443  11.596  1.8866 -0.1591 -0.4450
 3387SOL    HW221624   0.654   2.304  11.534  0.4322 -0.0477  0.1602
 3388SOL     OW21625   1.755   1.650  14.150 -0.3040 -0.2679  0.3714
 3388SOL    HW121626   1.739   1.734  14.194  0.3041  1.1910 -2.2042
 3388SOL    HW221627   1.846   1.629  14.169  0.3776 -0.2656 -2.9644
 3389SOL     OW21628   3.329   0.518   5.798 -0.5184 -0.2847  0.0612
 3389SOL    HW121629   3.323   0.423   5.803  2.4141 -0.4352  1.0518
 3389SOL    HW221630   3.271   0.554   5.865 -0.6550 -0.1828 -0.1116
 3390SOL     OW21631   2.030   4.640   7.407 -0.2013  0.5126  0.1581
 3390SOL    HW121632   1.946   4.595   7.414  0.1571  0.0501  1.4364
 3390SOL    HW221633   2.061   4.626   7.317 -0.0810  0.7746  0.1571
 3391SOL     OW21634   2.625   4.670   9.962 -0.0662 -0.5519 -0.3304
 3391SOL    HW121635   2.673   4.607   9.908  0.1900 -0.2072 -0.5060
 3391SOL    HW221636   2.693   0.013   9.978 -1.2050  0.5056  0.1802
 3392SOL     OW21637   1.649   3.519  14.107  0.2283  0.1376 -0.0009
 3392SOL    HW121638   1.665   3.446  14.167  2.5807 -0.1032 -0.9349
 3392SOL    HW221639   1.735   3.529  14.067  0.9408  1.3947  1.8284
 3393SOL     OW21640   0.944   0.134   3.077  0.5204 -0.3840  0.0170
 3393SOL    HW121641   0.936   0.177   2.991 -0.8449  1.3533  1.0286
 3393SOL    HW221642   0.916   0.202   3.137 -0.1094 -1.1775  0.6060
 3394SOL     OW21643   3.001   2.504   6.062 -0.2429  0.9193 -0.0225
 3394SOL    HW121644   2.918   2.496   6.109  1.5057 -3.3798  2.2102
 3394SOL    HW221645   3.022   2.597   6.072 -0.6483  1.1468 -1.2481
 3395SOL     OW21646   1.718   3.519  10.937  0.4143 -0.5387 -0.3069
 3395SOL    HW121647   1.622   3.522  10.941  0.4556 -1.0649  0.9985
 3395SOL    HW221648   1.736   3.438  10.889  0.3139 -0.6035 -0.2343
 3396SOL     OW21649   1.505   2.205   1.538  0.2629 -0.0027  0.1224
 3396SOL    HW121650   1.461   2.162   1.464 -0.2660 -0.3785  0.6633
 3396SOL    HW221651   1.457   2.287   1.553 -1.4261 -0.1272 -4.3769
 3397SOL     OW21652   4.016   1.250   4.911  0.1194 -0.6094  0.3766
 3397SOL    HW121653   3.978   1.278   4.828 -0.0027  0.5947  0.8300
 3397SOL    HW221654   3.933   1.217   4.945 -1.2207  0.3369 -1.9396
 3398SOL     OW21655   3.789   0.734  11.069 -0.0321  0.1997  0.2644
 3398SOL    HW121656   3.729   0.783  11.014 -0.3791 -1.2212 -0.6123
 3398SOL    HW221657   3.733   0.663  11.098  1.5020 -0.5351  1.4678
 3399SOL     OW21658   0.672   3.826   7.846 -0.3786 -0.5315  0.2060
 3399SOL    HW121659   0.735   3.894   7.823  0.1346 -0.9768  0.2825
 3399SOL    HW221660   0.585   3.859   7.823 -0.4056 -1.6506 -1.2905
 3400SOL     OW21661   3.330   3.870   3.421 -0.5959 -0.5361  0.1167
 3400SOL    HW121662   3.338   3.965   3.418 -0.7763 -0.4803  1.2049
 3400SOL    HW221663   3.290   3.847   3.337  0.1341 -3.7589  0.6530
 3401SOL     OW21664   3.281   4.122   2.757 -0.3265 -0.3179  0.2584
 3401SOL    HW121665   3.210   4.106   2.819 -0.7641 -2.4458 -0.7693
 3401SOL    HW221666   3.321   4.201   2.793  0.4022 -0.8320  0.5630
 3402SOL     OW21667   0.492   4.378  14.579  0.2077  0.2313 -0.4354
 3402SOL    HW121668   0.506   4.423  14.496 -2.8026 -1.1054 -1.6693
 3402SOL    HW221669   0.506   4.439  14.651  0.9711  0.4123 -0.7337
 3403SOL     OW21670   2.145   4.477   9.821  0.3496 -0.1038 -0.4051
 3403SOL    HW121671   2.103   4.541   9.764  0.1871  0.2279  0.0882
 3403SOL    HW221672   2.236   4.501   9.803 -0.2195  2.5646  0.2137
 3404SOL     OW21673   0.126   2.340   0.731 -0.2135  0.6371 -0.1276
 3404SOL    HW121674   0.111   2.312   0.641 -0.1564  1.2692 -0.3313
 3404SOL    HW221675   0.079   2.423   0.736 -0.5150  0.3130  2.5522
 3405SOL     OW21676   1.318   1.059   5.144 -0.5226  0.1333  0.6337
 3405SOL    HW121677   1.325   1.049   5.239  0.4841 -2.7059  0.2516
 3405SOL    HW221678   1.398   1.016   5.115 -0.1798  1.4900 -0.4519
 3406SOL     OW21679   1.877   4.190   4.901 -0.0990 -0.5146 -0.1657
 3406SOL    HW121680   1.949   4.152   4.951 -0.3696  1.4605  1.7139
 3406SOL    HW221681   1.800   4.188   4.957  0.2672 -2.6149  0.2718
 3407SOL     OW21682   1.519   3.890  14.740 -0.4507  0.5315 -0.5907
 3407SOL    HW121683   1.535   3.899  14.646  0.7965  0.6106 -0.3766
 3407SOL    HW221684   1.599   3.840  14.758 -0.3519  1.2820  1.1200
 3408SOL     OW21685   1.622   2.427   5.240 -0.5045 -0.4379  0.7123
 3408SOL    HW121686   1.565   2.410   5.165 -1.2400 -0.2938  1.2330
 3408SOL    HW221687   1.692   2.363   5.234  0.7056  0.9811 -0.3703
 3409SOL     OW21688   1.590   4.077   2.225 -0.1217  0.1903 -0.1630
 3409SOL    HW121689   1.495   4.074   2.213 -0.2801 -2.6166  1.7462
 3409SOL    HW221690   1.602   4.015   2.297  1.8632 -0.3990 -0.9985
 3410SOL     OW21691   1.032   2.854   7.175 -0.2264 -0.1824  0.3278
 3410SOL    HW121692   0.982   2.934   7.192 -1.8002 -0.9352 -0.7785
 3410SOL    HW221693   0.994   2.823   7.093 -1.5991  0.3292  0.7714
 3411SOL     OW21694   2.361   0.737   0.945  0.1707 -0.7709  0.4446
 3411SOL    HW121695   2.423   0.694   1.005  1.6103 -1.4131 -1.5208
 3411SOL    HW221696   2.277   0.721   0.988 -0.3726 -0.8791 -0.6598
 3412SOL     OW21697   3.617   4.510  12.004  0.3088  0.2701  0.2328
 3412SOL    HW121698   3.541   4.543  12.051 -0.9974 -2.3046 -0.0444
 3412SOL    HW221699   3.581   4.500  11.915 -1.3639  0.0448  0.9304
 3413SOL     OW21700   3.025   4.102  16.222  0.3610  0.0772  0.7935
 3413SOL    HW121701   2.992   4.066  16.140  0.1109  0.9441  0.5108
 3413SOL    HW221702   3.071   4.181  16.193  2.1919 -2.0390 -2.0628
 3414SOL     OW21703   4.129   3.240   4.239 -0.2824  0.0010 -0.2413
 3414SOL    HW121704   4.109   3.150   4.264  1.8858 -0.1199  1.0685
 3414SOL    HW221705   4.045   3.285   4.244  0.4291  1.0957  1.7311
 3415SOL     OW21706   0.781   3.825   6.350  0.5213 -0.4598 -0.4729
 3415SOL    HW121707   0.811   3.873   6.428 -2.4627 -1.8987  1.5999
 3415SOL    HW221708   0.740   3.896   6.301  2.3856  0.5597 -0.5386
 3416SOL     OW21709   3.001   4.494   2.071  0.1326 -0.1163  0.3410
 3416SOL    HW121710   2.989   4.486   1.977 -1.9908  1.2503  0.5113
 3416SOL    HW221711   3.071   4.434   2.098 -1.4532 -2.5418 -0.9409
 3417SOL     OW21712   4.523   0.957   4.593  0.0184 -0.4417 -0.1440
 3417SOL    HW121713   4.490   0.870   4.615 -1.4778  0.0502 -0.4506
 3417SOL    HW221714   4.443   1.009   4.604 -0.1870 -0.9488  0.7824
 3418SOL     OW21715   1.082   1.842  15.346  0.1236  0.1798 -0.2557
 3418SOL    HW121716   1.115   1.928  15.320  0.8859  0.0162  0.1663
 3418SOL    HW221717   1.108   1.790  15.270 -1.3624  0.7416 -1.1427
 3419SOL     OW21718   4.390   3.720   9.492 -0.0189  0.6999 -0.2299
 3419SOL    HW121719   4.403   3.699   9.400 -0.9899 -0.6696 -0.0512
 3419SOL    HW221720   4.447   3.795   9.511 -1.4128  1.0502  2.6306
 3420SOL     OW21721   0.812   2.623   9.151 -0.0632 -0.4148 -0.3466
 3420SOL    HW121722   0.748   2.627   9.080  1.6958 -0.9683 -1.9738
 3420SOL    HW221723   0.888   2.603   9.096 -0.4800  0.0932 -1.1158
 3421SOL     OW21724   0.034   1.074  16.881 -0.1916 -0.3795  0.4129
 3421SOL    HW121725   0.020   1.043  16.792 -2.5819  1.2187  0.2233
 3421SOL    HW221726   0.039   0.994  16.933  0.4337 -0.3484  0.3923
 3422SOL     OW21727   2.191   2.223   2.728  0.1643 -0.2254  0.2738
 3422SOL    HW121728   2.103   2.228   2.766 -0.6092  1.4996 -1.7597
 3422SOL    HW221729   2.217   2.134   2.754 -1.1955 -0.5800  0.4286
 3423SOL     OW21730   4.632   2.882   2.334  0.3449  0.6152  0.1019
 3423SOL    HW121731   4.648   2.824   2.259  0.2469 -1.4893  1.7033
 3423SOL    HW221732   4.591   2.960   2.297 -0.6756 -0.1638 -0.3881
 3424SOL     OW21733   2.525   4.429   3.047 -1.0462  0.3007 -0.1321
 3424SOL    HW121734   2.511   4.487   2.972 -1.2664 -1.0860 -1.1458
 3424SOL    HW221735   2.597   4.379   3.009 -0.4332  1.7348 -0.8603
 3425SOL     OW21736   1.445   0.291   8.919 -0.1647 -0.3184 -0.1993
 3425SOL    HW121737   1.434   0.320   9.010 -0.6738  0.5202 -0.5300
 3425SOL    HW221738   1.435   0.377   8.877 -0.0401 -0.4604 -0.5173
 3426SOL     OW21739   1.794   1.496   8.844  0.0356 -0.2202  0.5453
 3426SOL    HW121740   1.698   1.501   8.850  0.0309 -0.8482  0.8951
 3426SOL    HW221741   1.820   1.587   8.859  1.5246 -0.6867  0.6935
 3427SOL     OW21742   3.815   3.162   5.130 -0.2250  0.4493 -0.2285
 3427SOL    HW121743   3.794   3.074   5.162 -1.6260  1.1666  0.8540
 3427SOL    HW221744   3.908   3.157   5.112  0.1151 -0.9257  1.8576
 3428SOL     OW21745   2.105   3.396  17.440 -0.4617  0.1692 -0.2436
 3428SOL    HW121746   2.186   3.347  17.427 -0.6831 -0.5019  0.9711
 3428SOL    HW221747   2.067   3.400  17.352  1.9365 -0.3626 -1.3224
 3429SOL     OW21748   4.530   2.541  17.065  0.1537  0.0098  0.1487
 3429SOL    HW121749   4.621   2.568  17.051  1.3326 -2.6568  2.6262
 3429SOL    HW221750   4.474   2.618  17.052  0.4383 -0.0506 -1.3880
 3430SOL     OW21751   2.000   2.596   8.185  0.1587  0.1363  0.2493
 3430SOL    HW121752   1.967   2.679   8.150  1.2393 -0.0652 -1.2276
 3430SOL    HW221753   1.919   2.551   8.209  0.4827  0.5814  2.2474
 3431SOL     OW21754   4.383   3.592   7.787  0.2236  0.0750 -0.4460
 3431SOL    HW121755   4.443   3.537   7.737 -0.4601  1.2686 -2.5831
 3431SOL    HW221756   4.346   3.534   7.853  4.9456  0.1663  2.3050
 3432SOL     OW21757   4.100   3.484   9.294  0.3919  0.3793  0.2915
 3432SOL    HW121758   4.118   3.562   9.242 -1.5065  1.3583  1.0833
 3432SOL    HW221759   4.041   3.433   9.239 -0.5742  3.1340 -1.2348
 3433SOL     OW21760   3.483   3.622   8.352 -0.4272  0.4806 -0.3060
 3433SOL    HW121761   3.528   3.598   8.271  0.1177  2.4552 -0.6048
 3433SOL    HW221762   3.459   3.712   8.329  2.2501  1.0780 -0.8004
 3434SOL     OW21763   1.539   3.156  12.550 -0.3163 -0.2205  0.1924
 3434SOL    HW121764   1.625   3.182  12.585 -1.0479  0.4878  1.4430
 3434SOL    HW221765   1.567   3.086  12.491 -1.7743 -0.5971 -0.0486
 3435SOL     OW21766   0.665   3.540   3.488 -0.4142  0.0365 -0.5834
 3435SOL    HW121767   0.656   3.609   3.422 -3.1165 -0.0322 -0.2936
 3435SOL    HW221768   0.713   3.588   3.556 -0.5921 -1.1516  0.3811
 3436SOL     OW21769   2.174   3.907   8.436 -0.4331  0.2375  0.1840
 3436SOL    HW121770   2.261   3.929   8.469 -0.4151  1.2647 -0.5451
 3436SOL    HW221771   2.193   3.873   8.349 -1.0809 -1.2944  0.6503
 3437SOL     OW21772   2.701   0.431   0.040 -0.8092 -0.4796  0.0466
 3437SOL    HW121773   2.631   0.401  17.677 -1.2246 -1.6063  1.1264
 3437SOL    HW221774   2.685   0.366   0.109 -2.3782 -3.1041 -2.7757
 3438SOL     OW21775   0.654   2.254   3.163  0.2516 -0.4415 -0.6418
 3438SOL    HW121776   0.624   2.297   3.243  0.1067  0.4795 -1.1949
 3438SOL    HW221777   0.668   2.335   3.115 -0.6798  0.7540  1.1092
 3439SOL     OW21778   1.327   1.972   9.650  0.0500  0.1002 -0.0358
 3439SOL    HW121779   1.315   2.064   9.674 -2.4435 -0.3532  0.4193
 3439SOL    HW221780   1.395   1.985   9.584  0.0754  1.8308  0.3356
 3440SOL     OW21781   2.713   2.394   8.782  0.1225  0.1548 -0.1563
 3440SOL    HW121782   2.750   2.344   8.854  0.9232  1.3166  0.2356
 3440SOL    HW221783   2.774   2.373   8.711  0.2227 -1.0559  0.2768
 3441SOL     OW21784   0.104   2.039   8.203  0.3191  0.2494  0.1520
 3441SOL    HW121785   0.023   2.075   8.240  1.0438 -0.5291  2.4987
 3441SOL    HW221786   0.156   2.116   8.179  1.0998 -0.3462 -0.0683
 3442SOL     OW21787   2.054   1.711   8.794  0.6643 -0.2125  0.3888
 3442SOL    HW121788   2.085   1.704   8.703  1.6595  0.0121  0.7095
 3442SOL    HW221789   1.988   1.779   8.779 -0.2445 -0.8798  1.3478
 3443SOL     OW21790   2.190   4.183   9.857 -0.0818 -0.2415  0.6202
 3443SOL    HW121791   2.200   4.276   9.876  0.3659 -0.1599 -0.0066
 3443SOL    HW221792   2.142   4.200   9.776  0.4400  0.0345  0.3691
 3444SOL     OW21793   2.196   4.230  14.135 -0.4229  0.4585 -0.0878
 3444SOL    HW121794   2.267   4.274  14.181 -0.8855  0.5106  0.5605
 3444SOL    HW221795   2.118   4.258  14.183  0.6293  2.2331  0.5754
 3445SOL     OW21796   1.185   1.487  10.581  0.1599  0.1727  0.0202
 3445SOL    HW121797   1.267   1.454  10.616  0.5491 -0.6892 -1.6982
 3445SOL    HW221798   1.196   1.479  10.486 -0.4028  0.3770 -0.0682
 3446SOL     OW21799   3.500   3.812  12.194 -0.0024  0.3368 -0.6808
 3446SOL    HW121800   3.496   3.795  12.100  0.2827  2.2211 -1.0270
 3446SOL    HW221801   3.563   3.884  12.188 -1.2395  1.4861  0.1540
 3447SOL     OW21802   2.915   1.235   8.345  0.3261 -0.1580  0.4872
 3447SOL    HW121803   2.842   1.215   8.403 -0.7109 -0.4630 -0.9317
 3447SOL    HW221804   2.963   1.153   8.355  1.1406  0.3405  0.6953
 3448SOL     OW21805   0.468   4.027   1.991  0.2168  0.2284 -0.5907
 3448SOL    HW121806   0.411   3.962   1.950 -0.3335  0.3322  0.0066
 3448SOL    HW221807   0.538   3.965   2.008  0.9777  1.2384 -0.0618
 3449SOL     OW21808   1.045   1.601   3.593  0.0931  0.4019  0.2479
 3449SOL    HW121809   1.058   1.691   3.623  0.1868  0.8610 -1.1609
 3449SOL    HW221810   1.128   1.573   3.553 -1.2983 -0.1882 -2.1893
 3450SOL     OW21811   0.555   4.329   4.390 -0.1558  0.3056 -0.1047
 3450SOL    HW121812   0.461   4.316   4.401 -0.1646  0.0564 -0.4848
 3450SOL    HW221813   0.583   4.238   4.397  1.5949  0.8827  0.4618
 3451SOL     OW21814   0.542   0.836   0.461  0.4431 -0.0039  0.0334
 3451SOL    HW121815   0.539   0.815   0.368 -2.1963  1.5207 -0.2371
 3451SOL    HW221816   0.636   0.842   0.478  0.7198  0.5135 -1.7329
 3452SOL     OW21817   2.910   0.175  15.033 -0.5659 -0.0735  0.2253
 3452SOL    HW121818   2.923   0.131  15.117 -1.8350 -0.5668  0.1620
 3452SOL    HW221819   2.826   0.221  15.038 -1.7897 -2.3084  0.0393
 3453SOL     OW21820   3.027   1.545   4.900  0.1155 -0.3867  0.5407
 3453SOL    HW121821   3.037   1.611   4.969  0.8458 -0.4814  0.5223
 3453SOL    HW221822   3.069   1.595   4.830 -2.2315  0.4281 -0.3014
 3454SOL     OW21823   2.474   2.208   7.639 -0.0996 -0.3845  0.4608
 3454SOL    HW121824   2.523   2.155   7.576  0.7891  0.0875  0.7662
 3454SOL    HW221825   2.393   2.159   7.657  0.5604 -2.0333 -1.0438
 3455SOL     OW21826   3.436   0.558   5.080  0.4868  0.1861 -0.1865
 3455SOL    HW121827   3.523   0.542   5.116  0.5876  1.2568  0.0343
 3455SOL    HW221828   3.389   0.492   5.131 -0.5035  0.1693 -1.0994
 3456SOL     OW21829   4.627   1.847  12.416  0.4280 -0.1564 -0.0547
 3456SOL    HW121830   4.718   1.853  12.387  1.0454  2.1931  2.3380
 3456SOL    HW221831   4.581   1.868  12.334 -1.7802 -1.0405  0.9494
 3457SOL     OW21832   1.243   0.358   1.172  0.2855  0.5673 -0.3113
 3457SOL    HW121833   1.190   0.423   1.127  0.6026 -1.7671 -4.0875
 3457SOL    HW221834   1.326   0.369   1.126  0.9882  1.3740  1.1556
 3458SOL     OW21835   2.789   2.851   7.249  0.1116  0.0470  0.1689
 3458SOL    HW121836   2.860   2.912   7.225 -0.5818  1.6141  2.0691
 3458SOL    HW221837   2.730   2.869   7.176 -0.5567 -2.4812  0.1187
 3459SOL     OW21838   1.291   2.048   0.468  0.2836 -0.3209 -0.0378
 3459SOL    HW121839   1.272   2.021   0.557 -0.3785 -1.5662 -0.5540
 3459SOL    HW221840   1.379   2.017   0.444  0.2634 -0.9547  0.7364
 3460SOL     OW21841   0.600   3.870   7.013 -0.5016 -0.3417 -0.0088
 3460SOL    HW121842   0.583   3.777   7.028 -0.7626 -0.0641  1.4378
 3460SOL    HW221843   0.634   3.867   6.924  0.8069  0.6037  0.4439
 3461SOL     OW21844   2.506   2.052   3.295 -0.1342 -0.0675  0.1095
 3461SOL    HW121845   2.472   2.131   3.254  1.1088  1.3419  1.7810
 3461SOL    HW221846   2.599   2.076   3.292  0.5311 -2.8919 -3.0924
 3462SOL     OW21847   2.878   3.715   4.805  0.1392  0.5049 -0.4774
 3462SOL    HW121848   2.969   3.740   4.791  0.3345 -0.4075 -0.8524
 3462SOL    HW221849   2.878   3.674   4.891 -4.2645  0.7849 -0.3074
 3463SOL     OW21850   0.241   2.170   8.562 -0.1799 -0.2784 -0.6191
 3463SOL    HW121851   0.145   2.180   8.568  0.1069  2.5765 -0.5532
 3463SOL    HW221852   0.273   2.249   8.517  2.0024 -0.8869 -0.1255
 3464SOL     OW21853   1.808   0.155  13.080 -0.5229  0.1349 -0.4225
 3464SOL    HW121854   1.769   0.243  13.073 -0.3957  0.0691 -2.0498
 3464SOL    HW221855   1.843   0.156  12.991  1.3728 -1.8494  0.3060
 3465SOL     OW21856   4.328   4.193   7.695 -0.0477 -0.4163 -0.6011
 3465SOL    HW121857   4.406   4.192   7.750 -0.4599 -0.0646 -0.0087
 3465SOL    HW221858   4.280   4.127   7.745  1.3580 -0.9816  0.0040
 3466SOL     OW21859   1.606   1.127   2.687 -0.6820 -0.0408  0.5116
 3466SOL    HW121860   1.567   1.195   2.631 -1.3451 -3.1751 -2.8049
 3466SOL    HW221861   1.554   1.050   2.664  0.6759 -0.6818 -0.3723
 3467SOL     OW21862   1.224   2.800   4.333 -0.6430 -0.1209  0.3860
 3467SOL    HW121863   1.246   2.712   4.303  0.0350  0.4283 -0.7075
 3467SOL    HW221864   1.313   2.831   4.348 -1.0176  0.8605  0.5842
 3468SOL     OW21865   0.900   2.763   1.436 -0.2782  0.7470 -0.0650
 3468SOL    HW121866   0.855   2.743   1.354 -0.2476 -1.0192  0.3499
 3468SOL    HW221867   0.982   2.777   1.389  0.0784 -1.5668 -0.1454
 3469SOL     OW21868   3.306   3.719   1.866  0.1414 -0.0015 -0.0333
 3469SOL    HW121869   3.231   3.774   1.889 -1.1701 -0.3544 -3.5605
 3469SOL    HW221870   3.370   3.790   1.866 -0.2382  0.3343 -0.9356
 3470SOL     OW21871   0.991   0.866  13.536  0.1149  0.1887  0.0112
 3470SOL    HW121872   1.049   0.805  13.579 -0.1906 -0.6012 -0.6844
 3470SOL    HW221873   1.003   0.832  13.447  0.3937 -0.5439  0.3357
 3471SOL     OW21874   3.795   4.396  13.038  0.3846 -0.0882  0.0205
 3471SOL    HW121875   3.861   4.435  12.979 -0.3760  0.2704 -0.5949
 3471SOL    HW221876   3.724   4.459  13.027  0.3908  0.3725  2.7713
 3472SOL     OW21877   2.065   4.596   4.653  0.0101  0.0045  0.2096
 3472SOL    HW121878   2.001   4.558   4.714 -0.6172  2.0148  0.7783
 3472SOL    HW221879   2.026   4.577   4.568  1.0110  0.2000 -0.2893
 3473SOL     OW21880   0.614   4.520   6.214 -0.2260  0.1321  0.1764
 3473SOL    HW121881   0.524   4.516   6.246  0.1409  1.6612  1.3907
 3473SOL    HW221882   0.604   4.482   6.127 -1.5998 -1.8574  1.1829
 3474SOL     OW21883   2.136   0.636   6.416  0.0568  0.1722 -0.1984
 3474SOL    HW121884   2.107   0.692   6.345 -2.6020 -1.2750 -0.2778
 3474SOL    HW221885   2.076   0.665   6.485  0.2325  0.9529 -0.3786
 3475SOL     OW21886   2.977   4.454  17.637 -0.1000 -0.2143 -0.6985
 3475SOL    HW121887   2.976   4.538  17.590  1.4388  0.5991  0.7412
 3475SOL    HW221888   3.063   4.415  17.622  1.1050  2.1563  0.1192
 3476SOL     OW21889   3.848   0.562  15.442 -0.2051  0.6542 -0.0199
 3476SOL    HW121890   3.855   0.511  15.362  0.0271 -1.2501  1.2138
 3476SOL    HW221891   3.920   0.520  15.489 -1.0762 -0.0202  0.7124
 3477SOL     OW21892   4.247   3.942   4.576  0.0391 -0.3045  0.4025
 3477SOL    HW121893   4.170   3.895   4.543  0.7389 -1.0802 -0.0985
 3477SOL    HW221894   4.273   3.877   4.641 -1.6108 -1.9855 -0.6128
 3478SOL     OW21895   3.633   3.516   7.897  0.3146 -0.0277  0.5052
 3478SOL    HW121896   3.565   3.465   7.941  1.3779 -0.5913  1.4713
 3478SOL    HW221897   3.669   3.574   7.965  0.5551  1.7386 -1.1214
 3479SOL     OW21898   1.223   0.428   8.620  0.0607  0.3625 -0.4784
 3479SOL    HW121899   1.196   0.358   8.679 -0.7577  0.5494 -0.6325
 3479SOL    HW221900   1.295   0.464   8.672  0.5479 -0.4455 -0.5892
 3480SOL     OW21901   0.397   2.072   4.667 -0.0660 -0.0987  0.1018
 3480SOL    HW121902   0.317   2.080   4.718  0.0358  1.1570  0.0605
 3480SOL    HW221903   0.362   2.051   4.581 -1.3458 -0.4280  0.7128
 3481SOL     OW21904   1.888   3.622   5.709 -0.6204  0.1949  0.7023
 3481SOL    HW121905   1.973   3.666   5.721 -0.1351  0.3640 -3.3802
 3481SOL    HW221906   1.897   3.568   5.788 -0.1142  1.1165  1.2751
 3482SOL     OW21907   1.155   1.219   2.792  0.1558 -0.0342  0.4972
 3482SOL    HW121908   1.188   1.304   2.820 -2.8340  1.1900  0.3510
 3482SOL    HW221909   1.063   1.241   2.808  0.6107  0.2114  2.8483
 3483SOL     OW21910   4.110   4.391   3.790 -0.0193  0.1388  0.0310
 3483SOL    HW121911   4.112   4.449   3.714 -1.4798 -1.8632 -1.5298
 3483SOL    HW221912   4.040   4.333   3.760 -0.2144 -0.2257  1.1968
 3484SOL     OW21913   4.411   2.557   4.739 -0.1818  0.0451 -0.3192
 3484SOL    HW121914   4.506   2.565   4.748 -0.3135  1.4279 -0.0940
 3484SOL    HW221915   4.401   2.470   4.775  1.4261 -0.1416 -0.3202
 3485SOL     OW21916   4.394   1.898   8.987  0.3185  0.3016 -0.7734
 3485SOL    HW121917   4.378   1.818   9.037 -1.5743  1.0293 -0.2042
 3485SOL    HW221918   4.313   1.948   8.999  0.3939  0.2171  0.1379
 3486SOL     OW21919   0.853   0.871   3.831  0.1365  0.4965 -0.0168
 3486SOL    HW121920   0.809   0.847   3.912 -0.1777  3.2880  0.6401
 3486SOL    HW221921   0.875   0.962   3.852  1.6215 -0.2083  1.4495
 3487SOL     OW21922   4.163   2.134   2.423 -0.0868  0.0882 -0.0690
 3487SOL    HW121923   4.252   2.141   2.390 -0.0932  0.1013 -0.0833
 3487SOL    HW221924   4.122   2.085   2.352  0.4544 -2.2946  1.2575
 3488SOL     OW21925   0.970   2.083  16.451 -0.3177  0.0994 -0.4033
 3488SOL    HW121926   0.905   2.020  16.484  0.4591 -0.6441 -0.2990
 3488SOL    HW221927   1.037   2.028  16.411 -1.5934 -3.0676  1.8122
 3489SOL     OW21928   2.561   0.166   1.320  0.5997 -0.0493 -0.2047
 3489SOL    HW121929   2.500   0.118   1.377  0.4503 -0.3702 -0.6330
 3489SOL    HW221930   2.522   0.248   1.292 -2.6834 -1.7014 -0.5250
 3490SOL     OW21931   4.070   3.952   8.468 -0.5936 -0.2545 -0.1689
 3490SOL    HW121932   3.992   4.002   8.492 -0.0018  0.1778  0.8456
 3490SOL    HW221933   4.099   3.924   8.554  0.9427 -0.2051 -0.6700
 3491SOL     OW21934   0.572   0.444   8.627 -0.7434 -0.1572  0.2685
 3491SOL    HW121935   0.668   0.443   8.630 -0.7312  0.0243 -0.1199
 3491SOL    HW221936   0.554   0.412   8.539 -1.8546 -0.1754  0.5048
 3492SOL     OW21937   4.523   3.775  13.039 -0.0615  0.0330 -0.3102
 3492SOL    HW121938   4.535   3.867  13.019  0.2055  0.4563  1.8364
 3492SOL    HW221939   4.471   3.748  12.963  0.9148 -1.3467 -0.4895
 3493SOL     OW21940   2.987   1.727   1.136 -0.2446  0.1236 -0.2523
 3493SOL    HW121941   2.962   1.750   1.046  0.1586 -2.6709 -1.0878
 3493SOL    HW221942   2.967   1.633   1.136 -2.5995  0.6472  4.1481
 3494SOL     OW21943   3.814   0.335   8.043 -0.0845  0.2101 -0.2794
 3494SOL    HW121944   3.898   0.333   8.088  0.5395  0.8366 -1.3964
 3494SOL    HW221945   3.814   0.424   8.006  3.1307  1.6355  3.1940
 3495SOL     OW21946   1.651   3.310   1.968  0.2446  0.0627  0.4210
 3495SOL    HW121947   1.575   3.300   2.025 -1.3140 -1.0772 -1.8610
 3495SOL    HW221948   1.610   3.264   1.894  0.8141  1.0302 -0.5025
 3496SOL     OW21949   1.867   2.069   5.090  0.0367 -0.1084  0.4044
 3496SOL    HW121950   1.840   2.001   5.029  1.1131  1.7342 -2.1406
 3496SOL    HW221951   1.784   2.103   5.122  1.7029  2.0619  2.4123
 3497SOL     OW21952   3.007   1.323   1.723  0.2445  0.1421  0.1499
 3497SOL    HW121953   3.091   1.295   1.760 -0.3015 -0.3617  1.0309
 3497SOL    HW221954   3.037   1.350   1.636  0.2585  0.2358  0.1841
 3498SOL     OW21955   4.574   2.740  16.495 -0.6362  0.2597  0.3708
 3498SOL    HW121956   4.659   2.700  16.474 -0.9108 -0.0539 -0.1344
 3498SOL    HW221957   4.584   2.761  16.588  0.1479  0.8149  0.1609
 3499SOL     OW21958   0.909   4.411   2.638 -0.1577  0.2949 -0.3632
 3499SOL    HW121959   0.874   4.440   2.553  0.8445  1.9493 -0.1968
 3499SOL    HW221960   0.827   4.390   2.683 -0.2771  0.1996 -0.6237
 3500SOL     OW21961   2.756   0.529  15.807  0.0772  0.0475 -0.2114
 3500SOL    HW121962   2.677   0.581  15.821  0.8990  1.6147 -1.3702
 3500SOL    HW221963   2.817   0.603  15.799 -0.2738  0.3118 -0.4742
 3501SOL     OW21964   3.473   3.764  10.312  0.4753  0.2736  0.0729
 3501SOL    HW121965   3.447   3.676  10.285  0.4677  0.3608 -0.2086
 3501SOL    HW221966   3.407   3.818  10.267 -1.8067 -2.0814  0.6034
 3502SOL     OW21967   0.473   1.011   7.766 -0.0043 -0.0888  0.5048
 3502SOL    HW121968   0.454   0.998   7.674 -1.9180  0.9933  0.7460
 3502SOL    HW221969   0.448   1.103   7.777  3.5383  0.9365 -0.1069
 3503SOL     OW21970   4.395   2.133  17.590 -0.4600  0.2527 -0.2087
 3503SOL    HW121971   4.335   2.063  17.564 -0.1074  1.0231 -3.1024
 3503SOL    HW221972   4.469   2.074  17.609 -0.3261  0.4452 -0.1319
 3504SOL     OW21973   1.288   1.715   5.767 -0.1983 -0.4604 -0.1086
 3504SOL    HW121974   1.347   1.698   5.693 -1.2822 -1.0008 -0.8547
 3504SOL    HW221975   1.356   1.735   5.832  0.1717  3.9015 -1.7956
 3505SOL     OW21976   0.416   1.982   4.095  0.1460  0.9420  0.5972
 3505SOL    HW121977   0.487   1.957   4.037  0.2595 -0.6311  1.3984
 3505SOL    HW221978   0.425   1.915   4.163 -0.9146  0.3027  0.1162
 3506SOL     OW21979   2.208   2.095  15.127  0.2267 -0.0420  0.5169
 3506SOL    HW121980   2.258   2.127  15.203  1.4521 -2.4809  0.7293
 3506SOL    HW221981   2.138   2.161  15.121  0.3337  0.0282  0.0899
 3507SOL     OW21982   2.746   3.420   5.435  0.2622 -0.0995  0.0522
 3507SOL    HW121983   2.721   3.501   5.478 -1.7586 -0.9009  0.4037
 3507SOL    HW221984   2.750   3.366   5.514  2.6409 -0.4404 -0.2937
 3508SOL     OW21985   3.127   0.941  10.096 -0.1198 -0.0164  0.6931
 3508SOL    HW121986   3.138   1.035  10.081  3.8332 -0.6217 -0.1530
 3508SOL    HW221987   3.097   0.937  10.187 -0.5163  0.5486  0.5874
 3509SOL     OW21988   1.932   4.157   4.402 -0.1297  0.6184  0.4113
 3509SOL    HW121989   2.019   4.189   4.378  0.6811 -0.5308  1.8403
 3509SOL    HW221990   1.946   4.171   4.495 -1.6444 -0.4188  0.7820
 3510SOL     OW21991   3.338   3.927  16.642  0.6557 -0.2119 -0.1098
 3510SOL    HW121992   3.246   3.920  16.667  1.1143 -0.5314  1.4852
 3510SOL    HW221993   3.320   3.954  16.551 -1.3822 -1.0936  0.0397
 3511SOL     OW21994   0.634   1.372  11.142  0.7073  0.4594  0.7088
 3511SOL    HW121995   0.703   1.438  11.135  1.8338 -1.0093 -2.0890
 3511SOL    HW221996   0.591   1.376  11.057  0.8736 -0.6701  0.5747
 3512SOL     OW21997   2.021   4.331   0.899 -0.1072  0.4458 -0.2359
 3512SOL    HW121998   1.942   4.332   0.953  1.5426  0.7925  2.1700
 3512SOL    HW221999   2.022   4.244   0.860  1.4095  0.3872 -0.0436
 3513SOL     OW22000   1.363   4.182   0.092  0.4695  0.8002  0.1883
 3513SOL    HW122001   1.304   4.257   0.100 -2.1175 -1.1044 -1.1769
 3513SOL    HW222002   1.300   4.112   0.106  1.1320 -0.0399 -1.0483
 3514SOL     OW22003   0.151   4.658   5.682  0.3986  0.5827 -0.1389
 3514SOL    HW122004   0.185   4.618   5.602  0.6619  0.5909 -0.0319
 3514SOL    HW222005   0.226   4.671   5.742  1.6048 -1.3993 -1.2110
 3515SOL     OW22006   3.600   3.750  16.982 -0.7396  0.4938  0.3403
 3515SOL    HW122007   3.681   3.745  16.931  0.3328  0.6488  2.0390
 3515SOL    HW222008   3.618   3.683  17.047  1.7515  0.5953 -0.2503
 3516SOL     OW22009   0.604   2.422   3.363  0.5257 -0.0479 -0.3578
 3516SOL    HW122010   0.638   2.387   3.445  1.5325  1.4611 -0.1323
 3516SOL    HW222011   0.510   2.419   3.384  0.1825  0.3682 -1.8218
 3517SOL     OW22012   3.665   1.587   4.969  0.7814 -0.4250 -0.6969
 3517SOL    HW122013   3.748   1.571   5.015 -1.2136 -2.0260  2.2815
 3517SOL    HW222014   3.625   1.627   5.046 -0.6131 -2.0730 -0.5760
 3518SOL     OW22015   2.210   2.787  13.786 -0.2657 -0.0229  0.2154
 3518SOL    HW122016   2.241   2.706  13.828  2.6279  0.6699 -0.6012
 3518SOL    HW222017   2.257   2.795  13.703 -1.7712  2.2340 -0.3994
 3519SOL     OW22018   4.503   1.638   0.591 -0.2405 -0.8981  0.0594
 3519SOL    HW122019   4.590   1.653   0.628 -0.2620  0.3134 -0.3566
 3519SOL    HW222020   4.448   1.700   0.639  0.2836  1.3903 -2.3019
 3520SOL     OW22021   0.708   2.520  13.514 -0.4011  0.2773 -0.2519
 3520SOL    HW122022   0.717   2.598  13.569 -2.3049  0.9776 -0.9294
 3520SOL    HW222023   0.766   2.547  13.443 -0.2817  0.9176  0.0873
 3521SOL     OW22024   0.921   0.979  17.230 -0.5902 -0.3807 -0.1697
 3521SOL    HW122025   0.923   1.067  17.193  1.5904 -0.5498 -0.4716
 3521SOL    HW222026   0.861   0.931  17.174  1.6378 -2.4814 -0.7476
 3522SOL     OW22027   0.727   2.119  11.518 -0.5024  0.5071  0.5811
 3522SOL    HW122028   0.794   2.076  11.571  0.4827  0.6291 -0.5612
 3522SOL    HW222029   0.699   2.048  11.460 -0.4989  0.7885  0.2409
 3523SOL     OW22030   4.585   2.253   3.348  0.0456 -0.3826 -0.2919
 3523SOL    HW122031   4.622   2.221   3.266 -0.1126  1.0679 -0.9436
 3523SOL    HW222032   4.497   2.268   3.314 -0.0225  1.8042  0.8397
 3524SOL     OW22033   3.088   0.519  11.312  0.2271  0.0440 -0.7388
 3524SOL    HW122034   3.015   0.579  11.299 -0.4179 -1.1768 -2.7246
 3524SOL    HW222035   3.159   0.582  11.329  0.6577 -0.9857  1.2001
 3525SOL     OW22036   2.727   2.758  15.641 -0.2346  0.2259 -0.3631
 3525SOL    HW122037   2.668   2.833  15.642  0.4913  0.8119 -1.9941
 3525SOL    HW222038   2.690   2.703  15.572  1.2478 -0.6402 -0.4542
 3526SOL     OW22039   2.326   4.656   8.329 -0.1433  0.7230  0.0062
 3526SOL    HW122040   2.347   4.591   8.396 -0.5586 -0.4511 -1.0076
 3526SOL    HW222041   2.259   4.711   8.368 -0.1469  0.6429  0.1127
 3527SOL     OW22042   3.716   1.575   1.864 -0.7796  0.0469  0.1119
 3527SOL    HW122043   3.717   1.480   1.854 -3.0492  0.2503 -2.0641
 3527SOL    HW222044   3.727   1.599   1.772  1.0089 -0.3096  0.2406
 3528SOL     OW22045   4.035   4.241   6.559  0.0067  0.0068  0.6737
 3528SOL    HW122046   4.025   4.302   6.632  0.9895 -1.1094  1.7312
 3528SOL    HW222047   4.125   4.257   6.532 -0.0205  0.5801  0.9216
 3529SOL     OW22048   1.183   2.892  12.046  0.0775  0.5682 -0.1567
 3529SOL    HW122049   1.170   2.799  12.065  0.0012  1.1772  2.7070
 3529SOL    HW222050   1.221   2.925  12.127  0.6079 -2.5775  0.8429
 3530SOL     OW22051   1.546   3.699  13.355 -0.1986 -0.0883  0.1556
 3530SOL    HW122052   1.630   3.658  13.334 -0.2301 -0.9090  1.6710
 3530SOL    HW222053   1.575   3.756  13.426 -0.6458 -1.8047  1.7045
 3531SOL     OW22054   3.324   2.008  15.687 -0.5396 -0.5257  0.6443
 3531SOL    HW122055   3.330   2.013  15.783 -2.3421 -0.2661  0.7321
 3531SOL    HW222056   3.270   1.929  15.683 -0.5794 -0.4139 -0.7775
 3532SOL     OW22057   2.315   0.816   3.476  0.2696  0.2533 -0.1753
 3532SOL    HW122058   2.395   0.786   3.433  0.7228  1.3668 -0.1156
 3532SOL    HW222059   2.315   0.761   3.555  0.3573 -0.4787 -0.6859
 3533SOL     OW22060   3.440   0.880   6.497  0.6000  1.0528 -0.4331
 3533SOL    HW122061   3.473   0.867   6.586  0.0219  1.1231 -0.2012
 3533SOL    HW222062   3.379   0.954   6.509 -2.3777 -1.3700 -0.5240
 3534SOL     OW22063   0.162   3.174  12.991 -0.1518 -0.0901  0.2163
 3534SOL    HW122064   0.158   3.211  13.079  0.2792  0.6474 -0.0768
 3534SOL    HW222065   0.099   3.102  12.992 -1.1091  0.7723  1.9139
 3535SOL     OW22066   0.039   0.825   0.004 -0.3949 -0.4041 -0.7859
 3535SOL    HW122067   0.090   0.864   0.076 -3.3205  1.4907  0.2312
 3535SOL    HW222068   0.089   0.744   0.009  0.0175 -0.0789  0.3884
 3536SOL     OW22069   4.115   0.547   4.911  0.2706  0.2958  0.1697
 3536SOL    HW122070   4.097   0.592   4.994  0.1058 -1.6804  1.1937
 3536SOL    HW222071   4.210   0.546   4.919  0.3812 -2.5295 -1.6415
 3537SOL     OW22072   4.223   3.358   2.571  0.3234 -0.4655 -0.3580
 3537SOL    HW122073   4.306   3.405   2.575  0.0788 -0.0706  0.0644
 3537SOL    HW222074   4.218   3.327   2.662  0.3493  1.0153  0.1507
 3538SOL     OW22075   1.432   2.192   5.969 -0.2226 -0.0413  0.1611
 3538SOL    HW122076   1.446   2.285   5.984 -0.2131 -0.6036  3.7580
 3538SOL    HW222077   1.363   2.173   6.032 -0.3940  2.9336  0.8701
 3539SOL     OW22078   3.023   3.869   4.394 -0.6843 -0.5408 -0.2692
 3539SOL    HW122079   3.098   3.842   4.342 -0.1282  0.1233  0.1724
 3539SOL    HW222080   2.958   3.860   4.324 -0.0860  1.6151 -1.1062
 3540SOL     OW22081   1.795   3.452  13.860 -0.1359 -0.0065  0.3557
 3540SOL    HW122082   1.817   3.379  13.803 -0.5764  0.0803  0.0782
 3540SOL    HW222083   1.701   3.461  13.848 -0.0953  0.8514  0.6584
 3541SOL     OW22084   3.908   4.551   7.576  0.4984  0.5376  0.6219
 3541SOL    HW122085   3.960   4.472   7.560 -1.3270 -0.2671 -1.4281
 3541SOL    HW222086   3.824   4.535   7.533  0.7364  0.1336  0.3036
 3542SOL     OW22087   3.765   2.793   5.480  0.6215  0.6233 -0.1558
 3542SOL    HW122088   3.825   2.863   5.453  0.9180  1.0401  1.5817
 3542SOL    HW222089   3.728   2.823   5.563  0.5688 -1.1990  0.4745
 3543SOL     OW22090   1.063   3.773  15.195 -0.2943 -0.1001  0.0849
 3543SOL    HW122091   0.978   3.819  15.197 -0.2626  0.0494 -1.7472
 3543SOL    HW222092   1.099   3.809  15.276  0.2970 -2.1880  0.7442
 3544SOL     OW22093   0.512   0.060   8.373  0.2698 -0.3465 -0.0819
 3544SOL    HW122094   0.521   0.015   8.457  0.7374 -2.2044 -1.1213
 3544SOL    HW222095   0.587   0.022   8.327  0.8140 -1.1620  1.4400
 3545SOL     OW22096   4.113   2.450   4.874 -0.0169  0.2417 -0.4802
 3545SOL    HW122097   4.157   2.532   4.851 -2.3764  1.1419 -1.7920
 3545SOL    HW222098   4.178   2.382   4.857 -0.3111 -0.0980 -0.2289
 3546SOL     OW22099   1.398   0.413  12.873 -0.1182  1.0286 -0.5688
 3546SOL    HW122100   1.378   0.494  12.826 -0.3088  0.2071 -1.9046
 3546SOL    HW222101   1.438   0.450  12.952  0.4816 -0.2736 -0.2557
 3547SOL     OW22102   4.158   0.413  13.645 -0.4387  0.4331 -0.1829
 3547SOL    HW122103   4.212   0.346  13.602 -2.1236 -0.4043 -0.9724
 3547SOL    HW222104   4.072   0.380  13.622 -0.0919  1.6948 -3.1708
 3548SOL     OW22105   2.137   0.540  13.160 -0.1902 -0.6091  0.0572
 3548SOL    HW122106   2.120   0.628  13.127 -1.2984 -1.0217 -0.4619
 3548SOL    HW222107   2.210   0.554  13.221 -0.5676 -1.3631  0.6907
 3549SOL     OW22108   0.022   3.511   4.811 -0.4161 -0.2204 -0.1053
 3549SOL    HW122109   0.083   3.532   4.741 -0.3151 -1.5028 -0.4154
 3549SOL    HW222110   0.062   3.433   4.851 -2.6750 -0.7677  1.1277
 3550SOL     OW22111   1.080   2.820   4.915  0.1807  0.3484  0.1029
 3550SOL    HW122112   1.156   2.875   4.936  1.0271  0.7137 -3.9395
 3550SOL    HW222113   1.119   2.751   4.861 -0.0394 -0.9595  1.6085
 3551SOL     OW22114   4.653   4.676   4.297 -0.2081  0.0174  0.1135
 3551SOL    HW122115   4.650   4.632   4.213 -0.4136  0.5323 -0.1490
 3551SOL    HW222116   0.023   4.700   4.297 -0.0470 -0.5854 -2.5906
 3552SOL     OW22117   1.209   3.194   1.402  0.2317 -0.5600  0.2626
 3552SOL    HW122118   1.146   3.160   1.338 -0.0841  1.0170 -0.2489
 3552SOL    HW222119   1.224   3.286   1.384 -0.6889 -0.4640 -0.0096
 3553SOL     OW22120   0.815   2.860   0.535  0.4844  0.0131  0.5754
 3553SOL    HW122121   0.819   2.951   0.566  2.8493  0.4130 -0.8581
 3553SOL    HW222122   0.727   2.862   0.498  0.5832 -1.6985  0.2508
 3554SOL     OW22123   2.884   4.486  15.986  0.0092 -0.2311 -0.3964
 3554SOL    HW122124   2.813   4.502  16.048 -1.5505  1.8246 -2.7414
 3554SOL    HW222125   2.865   4.544  15.913  1.4582 -0.1627 -0.7227
 3555SOL     OW22126   3.219   0.447   8.015  0.4648 -0.2604 -0.0295
 3555SOL    HW122127   3.196   0.523   7.963  0.3200 -0.7405 -0.6752
 3555SOL    HW222128   3.315   0.453   8.015  0.5264 -1.1399  0.2320
 3556SOL     OW22129   3.628   1.909   4.314 -0.2581 -0.0146 -0.2005
 3556SOL    HW122130   3.674   1.983   4.274  0.5391 -0.7266 -0.6137
 3556SOL    HW222131   3.684   1.915   4.392  0.8119  1.9196 -1.1029
 3557SOL     OW22132   2.439   2.288   3.155 -0.0718 -0.0467 -0.2880
 3557SOL    HW122133   2.466   2.355   3.093 -1.9891  0.5846 -0.4322
 3557SOL    HW222134   2.349   2.287   3.123 -0.4664  2.2941  0.7680
 3558SOL     OW22135   3.952   0.982   4.034 -0.2556  0.3599 -0.0340
 3558SOL    HW122136   3.977   1.010   3.946  0.6084 -3.3090 -0.9563
 3558SOL    HW222137   3.874   0.926   4.024  0.8704 -1.5110  1.4540
 3559SOL     OW22138   2.895   3.692   8.828 -0.2919  0.4291 -0.0168
 3559SOL    HW122139   2.950   3.615   8.839  0.1758  0.7670 -0.0191
 3559SOL    HW222140   2.827   3.667   8.891  0.3679  1.7529  1.1912
 3560SOL     OW22141   0.117   2.192   4.119 -0.0160 -0.1225  0.3157
 3560SOL    HW122142   0.048   2.256   4.137  0.6308  0.4417  0.7918
 3560SOL    HW222143   0.171   2.205   4.197  0.2586  0.0598  0.0917
 3561SOL     OW22144   2.030   4.486   8.514  0.0933  0.8826  0.4543
 3561SOL    HW122145   2.012   4.529   8.430  1.4792  0.0250 -0.2817
 3561SOL    HW222146   2.008   4.558   8.573 -1.6847  0.2823  0.5159
 3562SOL     OW22147   2.893   4.640   1.234  0.4288 -0.0805 -0.8941
 3562SOL    HW122148   2.980   4.618   1.198  0.5552  0.8143 -1.1363
 3562SOL    HW222149   2.848   4.669   1.155  0.5954  1.1860 -0.5246
 3563SOL     OW22150   3.406   3.951  11.258  0.5924  0.0325 -0.1236
 3563SOL    HW122151   3.383   3.939  11.166  0.1286 -1.8382  0.2212
 3563SOL    HW222152   3.383   4.043  11.260  0.0441 -0.0941 -0.5949
 3564SOL     OW22153   2.735   3.634   6.149  0.0293 -0.3120  0.2763
 3564SOL    HW122154   2.802   3.641   6.080 -0.5451  3.6005  0.1012
 3564SOL    HW222155   2.733   3.724   6.180  0.3759  0.2355 -1.2693
 3565SOL     OW22156   1.323   3.169   2.442 -0.0341  0.0533 -0.1392
 3565SOL    HW122157   1.290   3.080   2.433 -1.5046  0.4852  0.9373
 3565SOL    HW222158   1.416   3.154   2.425  0.3023  2.1375 -0.2069
 3566SOL     OW22159   4.319   4.653   2.605  0.2867  0.0009 -0.9735
 3566SOL    HW122160   4.343   4.621   2.519  1.0079  0.3574 -0.9053
 3566SOL    HW222161   4.312   4.570   2.652  2.0005 -0.1335 -0.9412
 3567SOL     OW22162   0.007   2.223  12.650 -0.4984 -0.1078 -0.2270
 3567SOL    HW122163   4.678   2.240  12.729 -1.1527  2.4460 -1.2171
 3567SOL    HW222164   0.012   2.312  12.614 -0.7415 -0.3092 -0.7522
 3568SOL     OW22165   3.351   0.853   7.765 -0.2267 -0.0710 -0.2195
 3568SOL    HW122166   3.368   0.943   7.794  1.2977 -0.6566  0.6971
 3568SOL    HW222167   3.438   0.818   7.747 -0.4603 -0.0106 -1.4239
 3569SOL     OW22168   2.898   2.545  11.464  0.0786  0.5899  0.3277
 3569SOL    HW122169   2.864   2.456  11.475  1.0066  0.3366  1.1180
 3569SOL    HW222170   2.821   2.578  11.416 -0.8258  1.6301  2.5097
 3570SOL     OW22171   1.440   3.655  12.658 -0.6315 -0.0281 -0.4961
 3570SOL    HW122172   1.466   3.730  12.710 -2.2118  0.6398 -0.6628
 3570SOL    HW222173   1.527   3.626  12.630 -0.2044  1.0408 -0.2587
 3571SOL     OW22174   0.189   1.577   2.287  0.4264  0.0823  0.0762
 3571SOL    HW122175   0.237   1.617   2.359  1.7857  2.3103 -2.0517
 3571SOL    HW222176   0.122   1.646   2.285  0.5135  0.1757  0.4342
 3572SOL     OW22177   0.529   4.663   8.620 -0.4528  0.1224 -0.8307
 3572SOL    HW122178   0.561   4.574   8.631  1.6782  0.7339 -2.0887
 3572SOL    HW222179   0.600   4.706   8.668 -0.9394 -0.3106  0.2679
 3573SOL     OW22180   1.395   3.462   1.640 -0.0798 -0.1589 -0.1884
 3573SOL    HW122181   1.455   3.467   1.566  3.7189  1.6643  2.9923
 3573SOL    HW222182   1.423   3.378   1.678 -1.4561 -0.0809  1.0400
 3574SOL     OW22183   0.390   0.348   1.432 -0.4607  0.4664  0.4890
 3574SOL    HW122184   0.430   0.409   1.371 -2.0976  3.0616  1.9893
 3574SOL    HW222185   0.417   0.381   1.518  1.2059  0.6012 -0.0894
 3575SOL     OW22186   3.988   2.219  13.724  0.1570 -0.1583 -0.3154
 3575SOL    HW122187   3.933   2.295  13.706  0.4276  0.4702  1.5054
 3575SOL    HW222188   3.963   2.156  13.657  0.2930 -0.4696 -0.0711
 3576SOL     OW22189   0.439   1.825   2.957 -0.2914  0.5414 -0.1851
 3576SOL    HW122190   0.394   1.908   2.973 -2.5618 -1.0815  1.8845
 3576SOL    HW222191   0.375   1.779   2.901 -2.1521  0.8509  1.6834
 3577SOL     OW22192   1.215   0.339   4.860  0.8706 -0.2260  0.4046
 3577SOL    HW122193   1.277   0.308   4.926  1.9567  1.1340  0.0396
 3577SOL    HW222194   1.152   0.268   4.866  1.4808 -0.9580 -1.9247
 3578SOL     OW22195   1.486   3.523   3.664  0.2842 -0.1102  0.2628
 3578SOL    HW122196   1.540   3.444   3.674  0.2277  0.0191  1.6413
 3578SOL    HW222197   1.499   3.540   3.571 -0.2709 -1.2001 -0.0183
 3579SOL     OW22198   1.803   2.667   3.376  0.2321 -0.6474  0.1025
 3579SOL    HW122199   1.761   2.610   3.440 -1.0882  0.5786  0.3306
 3579SOL    HW222200   1.889   2.672   3.419  0.0019  1.0444  0.3984
 3580SOL     OW22201   2.766   0.340  10.623 -0.1359 -0.4389  0.6698
 3580SOL    HW122202   2.809   0.421  10.594 -0.0062 -0.5556  0.5372
 3580SOL    HW222203   2.791   0.343  10.716  0.3643 -1.1595  0.5641
 3581SOL     OW22204   4.537   1.643  14.608  0.0104 -0.1092 -0.9119
 3581SOL    HW122205   4.527   1.705  14.680  3.9625  0.0491 -0.4725
 3581SOL    HW222206   4.631   1.627  14.618 -0.3789 -0.5008  2.0299
 3582SOL     OW22207   2.820   0.856   1.961 -0.3885 -0.2858  0.3421
 3582SOL    HW122208   2.762   0.921   1.922 -0.2719 -0.1337  0.4241
 3582SOL    HW222209   2.765   0.779   1.979  1.9492 -2.2586 -0.9816
 3583SOL     OW22210   3.531   0.069   3.445 -0.3786  0.4143 -0.4831
 3583SOL    HW122211   3.437   0.082   3.461 -0.3754  1.7455 -1.5323
 3583SOL    HW222212   3.577   0.078   3.529  2.2875  2.1206 -2.1284
 3584SOL     OW22213   4.662   0.358   8.684  0.2899 -0.2575  0.0234
 3584SOL    HW122214   0.027   0.322   8.696 -0.0910 -1.4442 -0.7912
 3584SOL    HW222215   4.610   0.285   8.649  0.6814 -0.9862  0.9582
 3585SOL     OW22216   3.308   1.149   2.207 -0.2802 -0.3305 -0.2215
 3585SOL    HW122217   3.254   1.227   2.198 -0.0247 -0.2085 -0.7028
 3585SOL    HW222218   3.257   1.107   2.277 -1.5253 -0.2578 -1.0891
 3586SOL     OW22219   0.637   0.010   5.903  0.0742  0.1528  0.2467
 3586SOL    HW122220   0.729   4.721   5.879 -0.1450 -3.2965  1.2070
 3586SOL    HW222221   0.651   0.073   5.974  2.6440  1.7785 -1.7076
 3587SOL     OW22222   0.436   4.351   6.565 -0.2871 -0.6470  0.4529
 3587SOL    HW122223   0.406   4.418   6.504  1.6871  1.3401  1.6844
 3587SOL    HW222224   0.355   4.328   6.611 -0.1760  0.0712  1.0030
 3588SOL     OW22225   3.383   1.018   4.911  0.3554 -0.5883 -0.2353
 3588SOL    HW122226   3.345   0.945   4.960  1.5521 -0.4193  0.9570
 3588SOL    HW222227   3.313   1.034   4.848 -0.3180  0.1798  0.6955
 3589SOL     OW22228   2.971   2.545   1.764 -0.8099 -0.0771 -0.7080
 3589SOL    HW122229   2.906   2.587   1.820  1.0480  1.1644  0.5122
 3589SOL    HW222230   3.046   2.544   1.823 -0.3678  0.9338 -1.2560
 3590SOL     OW22231   3.734   1.484   7.426 -0.2824  0.0768  0.1386
 3590SOL    HW122232   3.695   1.543   7.490 -3.0690  1.5417 -2.9259
 3590SOL    HW222233   3.828   1.502   7.431 -0.1895 -1.0493  2.2266
 3591SOL     OW22234   4.036   0.355   2.124 -0.0326  1.0597  0.4037
 3591SOL    HW122235   4.087   0.296   2.068  0.1845  1.1954  0.4603
 3591SOL    HW222236   4.035   0.316   2.211 -1.4732 -0.6314 -0.3657
 3592SOL     OW22237   0.489   3.609   8.301  0.2859  0.1287 -0.0443
 3592SOL    HW122238   0.498   3.548   8.375 -0.0548  1.6509  1.2581
 3592SOL    HW222239   0.578   3.610   8.265  0.7559 -1.5432  1.0516
 3593SOL     OW22240   1.448   4.674   1.185 -0.4684  0.3715  0.0794
 3593SOL    HW122241   1.405   4.719   1.112 -0.4041 -1.2423 -0.9569
 3593SOL    HW222242   1.535   4.660   1.147  0.2195 -0.0980  1.8503
 3594SOL     OW22243   3.170   3.372   0.831 -0.5358 -0.6441  0.4430
 3594SOL    HW122244   3.241   3.422   0.871 -0.6664 -2.2082  2.6600
 3594SOL    HW222245   3.131   3.337   0.912 -0.1596  1.4731  1.5273
 3595SOL     OW22246   1.622   0.352   1.965 -0.0767 -0.0680  0.0727
 3595SOL    HW122247   1.655   0.282   2.021  0.5276 -0.9704 -1.3880
 3595SOL    HW222248   1.572   0.298   1.904 -1.2444  1.3514 -0.2114
 3596SOL     OW22249   1.591   2.707   7.632 -0.2528  0.3324 -0.8724
 3596SOL    HW122250   1.496   2.709   7.625 -0.4908 -3.1822  1.1292
 3596SOL    HW222251   1.608   2.783   7.576 -0.2403  0.6440 -0.4435
 3597SOL     OW22252   0.906   1.078  13.667  0.7836 -0.0505  0.0665
 3597SOL    HW122253   0.972   1.126  13.716  0.7426  0.1546 -0.0804
 3597SOL    HW222254   0.949   0.995  13.644 -1.3845 -1.3464  0.6879
 3598SOL     OW22255   4.107   1.005  10.911 -0.3134  0.3390 -0.0090
 3598SOL    HW122256   4.100   0.918  10.872 -1.0835 -0.9402  2.9267
 3598SOL    HW222257   4.150   0.990  10.996  1.8951  0.8734 -1.0319
 3599SOL     OW22258   1.847   3.706  16.948 -0.0287 -0.0110  0.3083
 3599SOL    HW122259   1.806   3.668  17.026 -1.1454 -0.9999 -0.7561
 3599SOL    HW222260   1.819   3.637  16.888  1.9922 -0.2939 -0.2931
 3600SOL     OW22261   4.635   0.215   7.007  0.7626  0.1282 -0.5367
 3600SOL    HW122262   4.704   0.150   7.013 -0.4266 -1.1269 -0.5327
 3600SOL    HW222263   4.633   0.245   7.098 -1.4481 -2.9171  0.4143
 3601SOL     OW22264   0.236   1.048  17.510 -0.3412 -0.1378 -0.4686
 3601SOL    HW122265   0.171   1.098  17.559  0.3390 -0.1317  0.4286
 3601SOL    HW222266   0.315   1.052  17.565 -0.3680  2.7219 -0.6699
 3602SOL     OW22267   2.255   1.059   0.121  0.3340  0.3149  0.2204
 3602SOL    HW122268   2.267   1.152   0.101  0.1289 -0.0286 -1.4909
 3602SOL    HW222269   2.185   1.054   0.055  0.2744  0.8324  0.2433
 3603SOL     OW22270   4.590   1.337   5.130  1.0547 -0.0114 -0.1747
 3603SOL    HW122271   4.591   1.296   5.217  2.9122  0.8232  0.2077
 3603SOL    HW222272   4.511   1.389   5.141  0.7471 -0.6942  0.8544
 3604SOL     OW22273   2.215   0.165  16.960 -0.3567  0.3403  0.1062
 3604SOL    HW122274   2.214   0.258  16.937  1.1080 -0.4266 -3.0784
 3604SOL    HW222275   2.175   0.130  16.880 -1.4418 -0.4172  0.9869
 3605SOL     OW22276   3.618   0.449  15.133 -0.2617 -0.4475  0.3168
 3605SOL    HW122277   3.619   0.364  15.178 -0.5626 -0.4218  0.3738
 3605SOL    HW222278   3.708   0.475  15.154 -0.0873  0.4393 -1.5594
 3606SOL     OW22279   2.119   2.161   1.902  0.0930  0.1449 -0.5682
 3606SOL    HW122280   2.044   2.216   1.881 -0.2770  0.1273  0.7363
 3606SOL    HW222281   2.163   2.212   1.970 -0.5859  2.4957 -1.8949
 3607SOL     OW22282   4.323   3.771   4.768  0.0541 -1.3077  0.0480
 3607SOL    HW122283   4.268   3.809   4.837  0.0532  1.1902 -1.3287
 3607SOL    HW222284   4.407   3.765   4.812  0.0051  1.5541  0.5454
 3608SOL     OW22285   4.491   4.099  12.951  0.3942  0.2370  0.2450
 3608SOL    HW122286   4.496   4.194  12.963 -1.8778  0.3912 -0.0909
 3608SOL    HW222287   4.411   4.094  12.899 -0.5943  1.5447  1.6246
 3609SOL     OW22288   2.687   1.785   2.742  0.2619 -0.7890 -0.6863
 3609SOL    HW122289   2.726   1.698   2.740 -1.2420 -1.5438  1.8252
 3609SOL    HW222290   2.593   1.769   2.756  0.4330 -1.1705  0.0579
 3610SOL     OW22291   2.075   0.235   3.391 -0.5057  0.0275 -0.1908
 3610SOL    HW122292   2.004   0.178   3.420 -0.1152 -0.6888 -0.6076
 3610SOL    HW222293   2.138   0.167   3.364 -1.0906 -0.6623  0.1699
 3611SOL     OW22294   4.329   2.224   8.523 -0.2756  0.2800  0.0081
 3611SOL    HW122295   4.359   2.231   8.613 -2.8381 -0.9400  0.9597
 3611SOL    HW222296   4.307   2.133   8.508 -2.9467  0.8786  0.2763
 3612SOL     OW22297   1.132   2.598   7.170  0.0166  0.2222 -0.5629
 3612SOL    HW122298   1.109   2.690   7.175 -1.0117 -0.1869  2.7143
 3612SOL    HW222299   1.196   2.595   7.100  0.9053 -0.1411  0.2586
 3613SOL     OW22300   2.072   2.449   7.877 -0.0584 -0.0582  0.3897
 3613SOL    HW122301   2.094   2.523   7.820  0.8764  1.1586  2.3356
 3613SOL    HW222302   2.096   2.478   7.965 -1.3459  0.5999  0.5184
 3614SOL     OW22303   3.800   3.647   7.512  0.4933 -0.1787  0.2943
 3614SOL    HW122304   3.895   3.637   7.512  0.4026 -1.0861  1.0123
 3614SOL    HW222305   3.792   3.725   7.457 -0.4937  0.3044  1.1186
 3615SOL     OW22306   2.631   0.077   1.828 -0.7040 -0.1857  0.4093
 3615SOL    HW122307   2.725   0.059   1.826 -0.1529  2.8604 -1.3111
 3615SOL    HW222308   2.620   0.092   1.922  1.0675  1.0879  0.4249
 3616SOL     OW22309   0.033   1.089   3.407 -0.2939  0.5493  0.2964
 3616SOL    HW122310   0.030   1.052   3.319  0.1996  0.2395  0.4075
 3616SOL    HW222311   4.685   1.152   3.401 -1.2187 -0.8048 -3.0706
 3617SOL     OW22312   0.381   1.913  10.128  0.4593  0.3358  0.0192
 3617SOL    HW122313   0.377   1.819  10.109  1.0029 -0.0212  1.7172
 3617SOL    HW222314   0.427   1.945  10.051  0.9495  0.3611  0.3250
 3618SOL     OW22315   0.004   1.860   6.763 -0.0857 -1.2274 -0.4748
 3618SOL    HW122316   4.668   1.933   6.780 -0.4345 -1.8357  0.8875
 3618SOL    HW222317   0.057   1.868   6.842 -0.5756 -1.7606 -0.0899
 3619SOL     OW22318   4.159   3.190  12.055 -0.6709  0.3381  0.4240
 3619SOL    HW122319   4.205   3.140  11.988 -1.7859  2.2485 -1.7592
 3619SOL    HW222320   4.067   3.172  12.034 -0.3463  0.2056 -0.8885
 3620SOL     OW22321   0.468   0.476   0.349  0.3724  0.2352  0.1431
 3620SOL    HW122322   0.468   0.381   0.338  2.3701  0.1080  1.2513
 3620SOL    HW222323   0.394   0.492   0.408 -2.2574  0.4683 -3.2474
 3621SOL     OW22324   2.646   3.838   5.402  0.4096  0.2641  0.2840
 3621SOL    HW122325   2.594   3.795   5.335  0.1940  0.6606  0.2013
 3621SOL    HW222326   2.730   3.845   5.357  0.7404  0.2391  0.9005
 3622SOL     OW22327   2.147   1.703   9.596 -0.0797 -0.4860 -0.1899
 3622SOL    HW122328   2.092   1.644   9.543  1.6906 -1.5691 -0.8094
 3622SOL    HW222329   2.153   1.654   9.678 -0.9007 -0.6571 -0.2307
 3623SOL     OW22330   1.613   4.583   7.693 -0.1215  0.3585  0.0549
 3623SOL    HW122331   1.622   4.670   7.732  2.3728 -0.5749  1.5538
 3623SOL    HW222332   1.554   4.601   7.620 -2.1909 -0.1155  1.5849
 3624SOL     OW22333   3.878   1.260   8.848 -0.7077 -0.1765 -0.0757
 3624SOL    HW122334   3.901   1.172   8.877 -0.1118  0.1609  0.4812
 3624SOL    HW222335   3.813   1.251   8.778 -0.0945 -0.2906 -0.6288
 3625SOL     OW22336   1.460   4.638   3.165  0.0831  0.2545 -0.3172
 3625SOL    HW122337   1.504   4.566   3.120  0.9754  1.0092 -0.6485
 3625SOL    HW222338   1.394   4.674   3.106 -0.7897  1.6210  1.4961
 3626SOL     OW22339   4.197   2.732   4.884  0.2541  0.4522  0.2370
 3626SOL    HW122340   4.281   2.750   4.926  0.7547  1.8011 -1.3632
 3626SOL    HW222341   4.179   2.805   4.825  2.0030  0.3640 -0.3970
 3627SOL     OW22342   4.637   2.489   4.891  0.3535 -0.4528 -0.1172
 3627SOL    HW122343   4.568   2.424   4.903 -2.4762  2.6421  0.5321
 3627SOL    HW222344   4.707   2.449   4.941  0.2420 -2.3170 -1.4669
 3628SOL     OW22345   1.125   0.344   5.758 -0.3687  0.5175  0.0845
 3628SOL    HW122346   1.179   0.301   5.824 -2.3015 -2.8839 -0.5453
 3628SOL    HW222347   1.045   0.291   5.759  0.6970 -1.0295  3.2281
 3629SOL     OW22348   3.615   1.694   0.999 -0.0705 -0.1820 -0.0131
 3629SOL    HW122349   3.671   1.698   0.922 -0.1035 -1.3905 -0.0997
 3629SOL    HW222350   3.663   1.747   1.063  1.2142 -1.8823  0.4170
 3630SOL     OW22351   1.935   3.832   0.814 -0.3517  0.7265 -0.8080
 3630SOL    HW122352   1.976   3.753   0.849  1.0500  1.5962 -0.4859
 3630SOL    HW222353   1.922   3.886   0.893  0.1357 -1.3292  0.6895
 3631SOL     OW22354   2.590   4.032   1.290  0.4379 -0.2920 -0.0100
 3631SOL    HW122355   2.605   4.122   1.318  1.1131 -0.0759 -1.0626
 3631SOL    HW222356   2.610   3.978   1.366 -2.3209 -2.0361 -0.5360
 3632SOL     OW22357   0.063   1.403   2.891 -0.0870  0.4966  0.0627
 3632SOL    HW122358   0.079   1.490   2.854 -1.7274  0.0198 -1.8082
 3632SOL    HW222359   4.692   1.392   2.875 -0.0804  1.9759 -0.9922
 3633SOL     OW22360   1.873   4.148   3.106  0.2573 -0.2155 -0.3141
 3633SOL    HW122361   1.956   4.100   3.103  1.3421  1.6059  0.5361
 3633SOL    HW222362   1.883   4.200   3.027 -1.1764 -1.7014 -1.4848
 3634SOL     OW22363   0.776   4.298  14.297  0.5259  0.5564  0.0872
 3634SOL    HW122364   0.693   4.343  14.310 -0.7113 -2.1681  1.5675
 3634SOL    HW222365   0.747   4.247  14.221 -0.0255  0.9310  0.0546
 3635SOL     OW22366   0.113   2.384  17.434  0.2264 -0.2996  0.2664
 3635SOL    HW122367   0.078   2.362  17.520  0.1230  1.9415  0.7849
 3635SOL    HW222368   0.042   2.357  17.375 -0.2300  1.6599 -0.0938
 3636SOL     OW22369   3.908   0.103   7.944 -0.1934 -0.0624  0.1913
 3636SOL    HW122370   3.857   0.180   7.969 -0.8125 -0.4029 -0.0337
 3636SOL    HW222371   3.918   0.127   7.852 -2.0588  2.6956  0.7239
 3637SOL     OW22372   4.373   3.989   9.175  0.2532 -0.5881 -0.7822
 3637SOL    HW122373   4.294   3.957   9.131  0.1910 -2.6172  0.7899
 3637SOL    HW222374   4.359   3.982   9.269 -4.4710  5.7427 -1.0427
 3638SOL     OW22375   3.728   2.612   7.679 -0.0611 -0.5104 -0.0647
 3638SOL    HW122376   3.771   2.563   7.608  1.9973  2.9391 -1.1894
 3638SOL    HW222377   3.768   2.698   7.692 -0.3369 -0.6568  1.7339
 3639SOL     OW22378   3.560   3.361   4.308  0.2557  0.2092  0.6255
 3639SOL    HW122379   3.584   3.436   4.255  3.6990 -0.9681  0.5388
 3639SOL    HW222380   3.534   3.405   4.389 -0.3649 -1.2616  1.2416
 3640SOL     OW22381   0.265   1.099   4.639 -0.0548  0.8585 -0.7800
 3640SOL    HW122382   0.339   1.087   4.699  0.5244  1.1334 -1.4345
 3640SOL    HW222383   0.312   1.151   4.574  0.2080 -0.6115 -1.7626
 3641SOL     OW22384   3.844   4.180   6.384  0.1776 -0.4005 -0.1611
 3641SOL    HW122385   3.870   4.247   6.320 -0.8329  1.5347  1.4296
 3641SOL    HW222386   3.899   4.208   6.457  2.3726 -0.8515 -1.6562
 3642SOL     OW22387   3.999   3.417  11.974 -0.2978 -0.4183 -0.7162
 3642SOL    HW122388   3.991   3.386  11.884  1.5886 -0.7677 -0.7773
 3642SOL    HW222389   4.072   3.363  12.007 -0.8550  0.1700  1.4932
 3643SOL     OW22390   1.180   3.493   3.418  0.5281 -0.0328 -0.4340
 3643SOL    HW122391   1.237   3.529   3.486  0.3611 -2.5327  1.0432
 3643SOL    HW222392   1.127   3.442   3.480  1.9611  0.0793  0.8727
 3644SOL     OW22393   3.542   2.465   2.953  0.2614  0.0424  0.6151
 3644SOL    HW122394   3.511   2.515   2.878  0.4472 -0.1058  0.4407
 3644SOL    HW222395   3.459   2.445   2.998 -0.0935 -0.9887 -0.5238
 3645SOL     OW22396   3.257   1.929   2.645 -1.0979  0.2681 -0.0057
 3645SOL    HW122397   3.191   1.885   2.590  0.7529 -1.5010 -0.8085
 3645SOL    HW222398   3.323   1.949   2.579  1.6829 -1.2170  2.3438
 3646SOL     OW22399   3.768   1.837   9.386  0.1787 -0.4781 -0.1341
 3646SOL    HW122400   3.809   1.817   9.471 -0.3068  1.1416  0.4810
 3646SOL    HW222401   3.833   1.902   9.358 -0.9041 -0.6364 -2.9144
 3647SOL     OW22402   2.958   1.054  14.621  0.0815 -0.1818 -0.4037
 3647SOL    HW122403   2.886   1.098  14.666  0.5273 -3.5555  3.6807
 3647SOL    HW222404   3.016   1.124  14.591 -1.7008  1.5224  0.1794
 3648SOL     OW22405   0.577   3.590   6.971  0.1524  0.1024  0.2202
 3648SOL    HW122406   0.654   3.597   6.914  0.5275  1.4386  0.8794
 3648SOL    HW222407   0.512   3.578   6.902 -0.4410  0.7647  0.6645
 3649SOL     OW22408   3.452   0.842  12.530  0.4230 -0.4249 -0.7996
 3649SOL    HW122409   3.475   0.933  12.546  0.5641 -0.9296  1.7570
 3649SOL    HW222410   3.466   0.829  12.436 -0.2335  2.2279 -1.2565
 3650SOL     OW22411   4.218   3.620   9.678  0.1676  0.1080 -0.2450
 3650SOL    HW122412   4.151   3.562   9.643  0.8281 -0.7048 -0.1478
 3650SOL    HW222413   4.277   3.637   9.605 -0.9908 -1.3391 -1.5170
 3651SOL     OW22414   1.419   2.325  13.274 -0.2720 -0.0908  0.0261
 3651SOL    HW122415   1.424   2.416  13.247  2.0747 -0.4442 -0.7187
 3651SOL    HW222416   1.327   2.312  13.298 -0.2042 -0.9879 -0.2114
 3652SOL     OW22417   1.568   2.042   0.842  0.7552 -0.4870 -0.0014
 3652SOL    HW122418   1.660   2.031   0.818  0.6764 -0.4414 -0.3212
 3652SOL    HW222419   1.586   2.062   0.934 -1.3589  2.2210 -0.1856
 3653SOL     OW22420   2.953   4.247   5.808 -0.0252  0.2706 -0.1700
 3653SOL    HW122421   3.040   4.226   5.840  0.0044 -0.6664 -0.8487
 3653SOL    HW222422   2.923   4.163   5.774 -0.0831 -0.9415  2.9234
 3654SOL     OW22423   1.475   1.774   0.631 -0.2894 -0.1752  0.3543
 3654SOL    HW122424   1.470   1.710   0.560 -2.3695  1.6240 -1.1349
 3654SOL    HW222425   1.528   1.839   0.586 -1.2425  0.0225 -0.4911
 3655SOL     OW22426   2.342   0.382   2.313  0.4061 -0.2194 -0.2950
 3655SOL    HW122427   2.401   0.314   2.281  1.6247  0.2596  0.9287
 3655SOL    HW222428   2.261   0.383   2.262 -0.0110 -3.2194  0.2725
 3656SOL     OW22429   2.507   1.731   5.548  0.2286 -0.1515  0.6622
 3656SOL    HW122430   2.549   1.800   5.599  0.0210  1.1952 -0.9777
 3656SOL    HW222431   2.574   1.691   5.493 -0.4362  1.6254 -1.4292
 3657SOL     OW22432   0.852   1.235  15.744  0.1288  0.2650  0.1725
 3657SOL    HW122433   0.773   1.219  15.796  0.8894  1.8652  1.8475
 3657SOL    HW222434   0.831   1.280  15.663 -0.3305 -0.5698 -0.1686
 3658SOL     OW22435   3.460   0.555   4.491  0.0949 -0.0608  0.1194
 3658SOL    HW122436   3.470   0.617   4.563 -0.6683  1.0692 -0.7407
 3658SOL    HW222437   3.366   0.556   4.475  0.3054  1.9919 -0.9722
 3659SOL     OW22438   2.296   0.216   6.806  0.3358  0.0714  0.6980
 3659SOL    HW122439   2.284   0.126   6.776  1.9040  1.1641 -3.2418
 3659SOL    HW222440   2.326   0.265   6.729  1.0147  0.4119  1.1715
 3660SOL     OW22441   3.814   2.273   7.832 -0.4252 -0.7799 -0.1405
 3660SOL    HW122442   3.719   2.261   7.835 -0.7441  1.3739 -1.9845
 3660SOL    HW222443   3.829   2.367   7.836 -1.9098 -0.5572  0.0305
 3661SOL     OW22444   4.130   2.160   4.680 -0.2157 -0.1328 -0.2592
 3661SOL    HW122445   4.135   2.192   4.590  2.6651  1.1310  0.3455
 3661SOL    HW222446   4.069   2.087   4.672 -0.1421  0.0318 -2.2922
 3662SOL     OW22447   0.317   2.314  12.885 -0.1153 -0.2314 -0.3265
 3662SOL    HW122448   0.247   2.343  12.827  0.4947 -2.3315 -2.1368
 3662SOL    HW222449   0.394   2.352  12.842  1.7557 -0.6973  2.5692
 3663SOL     OW22450   0.463   0.090  15.075  0.5452 -0.1959  0.6043
 3663SOL    HW122451   0.376   0.080  15.037  0.4778  0.8737  0.4638
 3663SOL    HW222452   0.438   0.150  15.145  0.8357  0.1497  0.4110
 3664SOL     OW22453   0.403   4.413   4.095 -0.5015 -0.2749  0.0811
 3664SOL    HW122454   0.354   4.442   4.172  0.7652  2.4098 -0.1460
 3664SOL    HW222455   0.492   4.406   4.129  0.4099 -0.4589 -2.3738
 3665SOL     OW22456   1.057   2.543   3.318  0.4784  0.3114  0.1874
 3665SOL    HW122457   1.114   2.576   3.249 -0.1471 -0.2719 -0.6125
 3665SOL    HW222458   1.016   2.628   3.334 -0.3931 -0.1550  0.4375
 3666SOL     OW22459   1.997   1.018   1.626  0.0336  0.3735  0.4284
 3666SOL    HW122460   2.075   1.063   1.594 -0.0374  0.4181  0.3189
 3666SOL    HW222461   1.940   1.042   1.554  1.1581  0.1644 -0.5407
 3667SOL     OW22462   4.274   3.258   7.009  0.9122 -0.2803  0.0671
 3667SOL    HW122463   4.360   3.297   7.025  0.9978 -0.1000 -0.8753
 3667SOL    HW222464   4.223   3.331   6.975 -0.7544 -0.5587  1.9287
 3668SOL     OW22465   0.188   2.584   5.430  0.4935 -0.7997  0.1181
 3668SOL    HW122466   0.212   2.492   5.443 -0.4525 -0.8954  1.1494
 3668SOL    HW222467   0.116   2.573   5.368  1.5067 -1.6303 -0.9122
 3669SOL     OW22468   0.276   2.578  17.302 -0.3743  0.2349 -0.5230
 3669SOL    HW122469   0.225   2.511  17.349 -0.2054 -1.4995 -2.8232
 3669SOL    HW222470   0.213   2.632  17.254 -2.1872 -0.6386  0.8512
 3670SOL     OW22471   0.798   4.368   9.400  0.6857  0.0203 -0.8062
 3670SOL    HW122472   0.841   4.442   9.443  0.8854 -1.2671  1.2180
 3670SOL    HW222473   0.730   4.345   9.464  1.8236 -2.2495 -0.4224
 3671SOL     OW22474   2.229   1.763  11.654 -0.2037  0.7114 -0.2380
 3671SOL    HW122475   2.204   1.833  11.594  1.2539 -0.0111 -1.6815
 3671SOL    HW222476   2.299   1.805  11.704 -0.9284  1.4841  0.1403
 3672SOL     OW22477   2.891   1.921  10.891 -0.0468  0.0548  0.3989
 3672SOL    HW122478   2.900   1.981  10.965  0.6387 -0.3078  0.6064
 3672SOL    HW222479   2.944   1.974  10.831 -1.3521  0.7315 -0.1467
 3673SOL     OW22480   1.581   3.077   9.119  0.5432 -0.2957 -0.4681
 3673SOL    HW122481   1.553   3.167   9.105  2.6399 -0.0725 -3.2271
 3673SOL    HW222482   1.579   3.071   9.215  1.9618  1.8029 -0.3026
 3674SOL     OW22483   1.764   1.246   4.329  0.5448 -0.1016  0.0402
 3674SOL    HW122484   1.800   1.257   4.417 -2.2618  1.3198  1.0383
 3674SOL    HW222485   1.752   1.151   4.335  1.1068 -0.2804 -1.8416
 3675SOL     OW22486   2.744   1.384  13.835 -0.6430  0.0810  0.8646
 3675SOL    HW122487   2.770   1.292  13.827 -3.7427 -0.9925  3.2225
 3675SOL    HW222488   2.824   1.417  13.874 -0.3172  3.9016 -3.1327
 3676SOL     OW22489   4.347   2.593   8.877 -0.4003 -0.9032 -0.9642
 3676SOL    HW122490   4.329   2.686   8.889 -0.8646 -0.7856 -2.4624
 3676SOL    HW222491   4.273   2.550   8.919  0.3089 -0.9991  0.1664
 3677SOL     OW22492   2.420   0.571   5.123  0.7892  0.5118  0.3984
 3677SOL    HW122493   2.388   0.623   5.196  2.1541 -1.5085  2.4422
 3677SOL    HW222494   2.387   0.486   5.150 -0.1509  1.0273  0.8891
 3678SOL     OW22495   2.366   2.202   4.384 -0.4626 -0.2860 -0.2101
 3678SOL    HW122496   2.387   2.206   4.291 -0.7634 -0.7340 -0.2995
 3678SOL    HW222497   2.402   2.117   4.413  1.0163  0.0213 -1.1500
 3679SOL     OW22498   3.842   0.842   5.907  0.3849 -0.1621  0.1969
 3679SOL    HW122499   3.877   0.821   5.994  0.5748  0.8046  0.3484
 3679SOL    HW222500   3.784   0.767   5.894  0.0376  0.4615 -1.7454
 3680SOL     OW22501   0.338   2.121  13.071 -0.1567  0.0815 -0.9694
 3680SOL    HW122502   0.365   2.190  13.010 -1.1455 -0.8477 -2.4635
 3680SOL    HW222503   0.243   2.133  13.077 -0.0229  0.5451  0.3022
 3681SOL     OW22504   1.752   3.740   9.214  0.0620 -0.0195  1.0489
 3681SOL    HW122505   1.842   3.753   9.246 -0.5803  1.2095  2.3650
 3681SOL    HW222506   1.715   3.821   9.248 -0.6703  0.4609 -0.9253
 3682SOL     OW22507   3.165   3.461   3.031  0.4985 -0.6122 -0.2498
 3682SOL    HW122508   3.237   3.499   2.980  0.3085 -0.9603 -0.7743
 3682SOL    HW222509   3.141   3.391   2.970  0.0112  0.3554 -1.1607
 3683SOL     OW22510   1.953   2.294   2.879 -0.0115 -0.2755 -0.0213
 3683SOL    HW122511   1.869   2.250   2.863 -0.5817  1.0149 -0.5830
 3683SOL    HW222512   1.932   2.349   2.954  1.7371  1.4184 -0.7711
 3684SOL     OW22513   3.705   1.485  10.313  0.2124  0.0599 -0.3989
 3684SOL    HW122514   3.756   1.511  10.390  0.3701 -0.2824 -0.3895
 3684SOL    HW222515   3.775   1.465  10.251 -1.2750  2.1300 -2.7780
 3685SOL     OW22516   3.229   2.050   9.224 -0.1283  0.1757 -0.1386
 3685SOL    HW122517   3.188   2.114   9.281  2.4784  0.5350  1.2942
 3685SOL    HW222518   3.320   2.048   9.253  0.5071  1.0245 -2.0954
 3686SOL     OW22519   1.913   0.635   7.630 -0.2950  0.1231  0.4321
 3686SOL    HW122520   1.877   0.611   7.715 -3.6324  2.3089 -0.3430
 3686SOL    HW222521   1.983   0.697   7.649 -1.3675  1.4756  0.0085
 3687SOL     OW22522   2.688   3.820  13.323  0.7615 -0.0189  0.0724
 3687SOL    HW122523   2.662   3.817  13.414  2.1881  1.6785  0.5470
 3687SOL    HW222524   2.779   3.791  13.328  0.3156 -1.0643  1.8068
 3688SOL     OW22525   3.131   4.198   4.158 -0.5963 -0.4032 -0.3775
 3688SOL    HW122526   3.096   4.164   4.241  0.9158 -0.7176  0.1320
 3688SOL    HW222527   3.139   4.117   4.108  0.0693 -1.4597  1.4461
 3689SOL     OW22528   4.592   0.538   4.179 -0.4607 -0.0809 -0.0013
 3689SOL    HW122529   4.572   0.587   4.099 -1.4167  0.8628  0.8145
 3689SOL    HW222530   4.593   0.602   4.250 -0.8682  1.2600 -1.1845
 3690SOL     OW22531   0.607   0.419   7.673 -0.4286  0.0620  0.3187
 3690SOL    HW122532   0.667   0.462   7.733  1.6328 -1.6039 -0.5706
 3690SOL    HW222533   0.654   0.423   7.590 -0.5217  0.6014  0.2893
 3691SOL     OW22534   0.440   2.603   0.043  0.6121 -0.0941 -0.2877
 3691SOL    HW122535   0.398   2.523   0.012  1.6655 -1.1999  1.0977
 3691SOL    HW222536   0.487   2.635  17.660  2.8461 -0.7666  0.7680
 3692SOL     OW22537   4.690   3.648  15.090 -0.1838  0.9187 -0.1373
 3692SOL    HW122538   0.002   3.737  15.087  1.6476  0.1649 -1.0515
 3692SOL    HW222539   4.699   3.628  15.184 -2.8434 -1.4776 -0.4014
 3693SOL     OW22540   2.504   0.113   1.590 -0.0847 -0.6925 -0.2829
 3693SOL    HW122541   2.536   0.094   1.678  0.2694  1.1295 -0.0274
 3693SOL    HW222542   2.546   0.040   1.545 -0.1082 -1.1956  0.5100
 3694SOL     OW22543   4.587   1.437   3.121  0.0283  0.8551 -0.3490
 3694SOL    HW122544   4.507   1.467   3.165 -0.8162 -1.3198 -0.4043
 3694SOL    HW222545   4.563   1.417   3.030  1.8322  1.4564 -0.9658
 3695SOL     OW22546   2.245   0.017   1.557 -0.2874  0.1910 -0.1974
 3695SOL    HW122547   2.330   0.044   1.592 -1.5620  2.0783  1.4362
 3695SOL    HW222548   2.243   0.052   1.469 -1.3962  2.3747  0.6976
 3696SOL     OW22549   0.506   1.251   0.505 -0.4456 -0.3198 -0.2086
 3696SOL    HW122550   0.568   1.318   0.476  1.5330 -1.3735  1.5963
 3696SOL    HW222551   0.550   1.227   0.586  1.0423 -1.9978 -1.5176
 3697SOL     OW22552   3.725   3.701  12.362 -0.1009  0.4225 -0.1425
 3697SOL    HW122553   3.634   3.707  12.334  0.1238 -1.2863 -1.2230
 3697SOL    HW222554   3.772   3.688  12.279 -1.7394 -1.0806 -0.8166
 3698SOL     OW22555   2.036   2.013  10.741 -0.3284 -0.2211  0.3128
 3698SOL    HW122556   2.045   2.096  10.696  1.9706  0.6960  2.4490
 3698SOL    HW222557   1.942   1.996  10.732 -0.2448 -0.5826  0.1121
 3699SOL     OW22558   4.319   1.392   4.577  0.1157 -0.8310 -0.6096
 3699SOL    HW122559   4.243   1.363   4.525 -0.6541  0.6587 -0.3038
 3699SOL    HW222560   4.324   1.482   4.546 -2.8103 -0.9063 -1.3309
 3700SOL     OW22561   2.989   4.704  13.338 -0.1043  0.1697 -0.3025
 3700SOL    HW122562   3.028   4.714  13.425 -2.5805 -1.5360  1.0121
 3700SOL    HW222563   3.054   0.029  13.286  0.5036 -0.4354 -0.0956
 3701SOL     OW22564   1.551   3.604   4.783 -0.0127 -0.2210 -0.3010
 3701SOL    HW122565   1.559   3.664   4.857 -1.9423 -2.3925  1.6425
 3701SOL    HW222566   1.640   3.594   4.749 -0.1658 -0.3991 -0.6600
 3702SOL     OW22567   3.067   1.742  13.553 -0.3787 -0.0199 -0.0133
 3702SOL    HW122568   3.029   1.783  13.475 -2.0855  0.9911  1.3316
 3702SOL    HW222569   3.153   1.726  13.516 -0.9443  0.6253 -1.6134
 3703SOL     OW22570   2.753   0.307  11.753  0.4167 -0.0494  0.1503
 3703SOL    HW122571   2.804   0.233  11.720  1.5016  0.2768  1.0628
 3703SOL    HW222572   2.818   0.375  11.740 -1.3389  1.4649 -0.6245
 3704SOL     OW22573   4.000   4.305   6.934  0.6498  0.3640 -0.2002
 3704SOL    HW122574   3.931   4.329   6.872  0.7680  2.4277  0.4724
 3704SOL    HW222575   4.086   4.337   6.906  0.5635  0.5266 -0.2771
 3705SOL     OW22576   2.934   1.764  16.311 -0.1864 -0.2132  0.0675
 3705SOL    HW122577   2.863   1.704  16.289 -0.0678 -0.5762  0.6758
 3705SOL    HW222578   2.907   1.833  16.250  1.5362 -1.3314 -2.0000
 3706SOL     OW22579   2.732   4.370  10.090  0.2496 -0.0960 -0.0732
 3706SOL    HW122580   2.799   4.438  10.099  0.4991 -0.5242  1.1988
 3706SOL    HW222581   2.726   4.319  10.170 -2.7380  0.1674 -0.1305
 3707SOL     OW22582   1.182   1.109  16.279 -0.2140  0.8928 -0.2660
 3707SOL    HW122583   1.238   1.121  16.202 -0.1631  2.4264 -0.0030
 3707SOL    HW222584   1.102   1.144  16.238  0.7136 -0.2554 -3.0356
 3708SOL     OW22585   2.702   3.551   0.885  0.0418 -0.4012  0.0703
 3708SOL    HW122586   2.784   3.582   0.924 -0.0633 -0.3538  0.2543
 3708SOL    HW222587   2.735   3.527   0.799 -0.5157  1.0340 -0.5448
 3709SOL     OW22588   2.343   3.710  16.196 -0.1329  0.6965 -0.0656
 3709SOL    HW122589   2.321   3.786  16.143 -0.7214  1.8474  1.8373
 3709SOL    HW222590   2.435   3.693  16.175 -0.6663  0.3676 -2.1445
 3710SOL     OW22591   3.925   1.197   1.117 -0.3535 -0.3457  0.1542
 3710SOL    HW122592   3.965   1.132   1.174  0.5448 -0.9571 -1.1823
 3710SOL    HW222593   4.003   1.249   1.098 -0.6587 -0.0222 -0.2051
 3711SOL     OW22594   0.912   0.601   5.746  0.1377  0.0114  0.1194
 3711SOL    HW122595   0.924   0.506   5.747 -0.2229 -0.0256  0.8256
 3711SOL    HW222596   0.847   0.611   5.815 -0.2354  1.1352 -0.3964
 3712SOL     OW22597   0.792   3.610  13.067  0.3745 -0.0650 -0.4781
 3712SOL    HW122598   0.698   3.591  13.065  0.2597  0.3153  0.8972
 3712SOL    HW222599   0.808   3.610  13.162  2.9949  2.8077 -0.9396
 3713SOL     OW22600   1.638   2.570  16.450  0.0549  0.1260 -0.1213
 3713SOL    HW122601   1.680   2.514  16.384  1.5980  1.1590 -0.0278
 3713SOL    HW222602   1.668   2.657  16.423 -2.6705  1.0903  0.0220
 3714SOL     OW22603   0.205   4.256   3.298 -0.0629  0.1063 -0.1021
 3714SOL    HW122604   0.288   4.209   3.290 -1.1885 -1.9766  0.5641
 3714SOL    HW222605   0.204   4.301   3.213 -1.0344 -0.4853 -0.4053
 3715SOL     OW22606   2.201   4.432   2.258  0.2295 -0.3059  0.2923
 3715SOL    HW122607   2.231   4.458   2.171 -1.8546 -1.7104 -0.8463
 3715SOL    HW222608   2.148   4.505   2.289  0.8695  0.0903  0.4370
 3716SOL     OW22609   3.377   1.903   6.989  0.5348 -0.3743  0.1476
 3716SOL    HW122610   3.359   1.994   7.011  0.2071 -1.1337  3.1070
 3716SOL    HW222611   3.450   1.915   6.928  0.2843 -0.8666 -0.2466
 3717SOL     OW22612   3.700   0.476   7.159  0.6039  0.1366  0.3241
 3717SOL    HW122613   3.766   0.539   7.188  0.0352  1.1915 -0.6740
 3717SOL    HW222614   3.757   0.410   7.122 -0.9681  0.4228 -2.6088
 3718SOL     OW22615   4.479   0.117   5.895  0.2904 -0.8141 -0.7661
 3718SOL    HW122616   4.387   0.091   5.891  0.4579 -1.1966 -2.0992
 3718SOL    HW222617   4.512   0.058   5.963  1.8413  0.4863 -0.4024
 3719SOL     OW22618   0.040   4.471   8.801 -0.0872 -0.0378  0.1530
 3719SOL    HW122619   0.033   4.547   8.859 -0.6468  1.3677 -1.7737
 3719SOL    HW222620   0.131   4.445   8.815 -0.4493 -0.8844  0.9120
 3720SOL     OW22621   1.893   2.318   1.877 -0.1966 -1.0413  0.7320
 3720SOL    HW122622   1.904   2.397   1.928  0.4009 -1.0155  0.5604
 3720SOL    HW222623   1.798   2.304   1.881 -0.4157  0.4536  0.7493
 3721SOL     OW22624   1.125   0.235  17.322  0.1828  0.5999  0.8383
 3721SOL    HW122625   1.164   0.223  17.236 -0.4292 -0.7587  0.7548
 3721SOL    HW222626   1.112   0.330  17.319  4.3009  1.1348  0.4961
 3722SOL     OW22627   4.669   2.284   7.264  0.4951  0.8513  0.1131
 3722SOL    HW122628   4.700   2.315   7.179 -0.5622 -1.2069 -1.0278
 3722SOL    HW222629   4.701   2.347   7.328  2.1318 -1.6613  1.7760
 3723SOL     OW22630   2.483   1.586  10.085  1.1102 -0.1504 -0.3536
 3723SOL    HW122631   2.481   1.652  10.154 -1.9722  1.5311 -2.0241
 3723SOL    HW222632   2.411   1.623  10.033  0.8801 -1.2269 -0.7951
 3724SOL     OW22633   3.508   0.964  11.637 -0.0777  0.3808  0.3481
 3724SOL    HW122634   3.435   0.957  11.576  0.7312 -1.5767 -0.3868
 3724SOL    HW222635   3.474   0.898  11.698 -0.9947 -0.2397 -0.8499
 3725SOL     OW22636   3.315   2.500  10.721 -0.2916  0.0253 -0.3118
 3725SOL    HW122637   3.281   2.412  10.702 -0.0244  0.4040 -2.5104
 3725SOL    HW222638   3.248   2.529  10.783  2.0295 -1.1901  2.7441
 3726SOL     OW22639   0.583   0.757  14.303  0.3717 -0.1166 -0.2368
 3726SOL    HW122640   0.535   0.821  14.250  0.7353 -0.1987 -0.6641
 3726SOL    HW222641   0.508   0.737  14.359 -0.3258  0.6906 -0.8773
 3727SOL     OW22642   0.062   0.862   6.450  0.2841  0.1596  0.1850
 3727SOL    HW122643   0.113   0.825   6.378 -0.4460  3.3928 -2.0492
 3727SOL    HW222644   4.701   0.817   6.449  1.3434 -1.7606 -0.5296
 3728SOL     OW22645   0.492   0.164   4.835  0.2208  0.6412 -0.3130
 3728SOL    HW122646   0.577   0.206   4.842  0.8535 -0.3861 -1.8441
 3728SOL    HW222647   0.450   0.229   4.890 -0.3459  1.6270 -1.8998
 3729SOL     OW22648   0.974   0.556   6.658  0.1864  0.0429 -0.1161
 3729SOL    HW122649   1.011   0.575   6.572  1.5698  0.3210  0.5344
 3729SOL    HW222650   0.884   0.540   6.629  0.0004  0.2836  0.3107
 3730SOL     OW22651   2.088   3.086  15.866 -0.5881  0.1556  0.3590
 3730SOL    HW122652   2.039   3.168  15.855 -0.1575  0.5600  1.4779
 3730SOL    HW222653   2.075   3.058  15.775  1.0696 -1.0586  0.5139
 3731SOL     OW22654   0.597   3.231   0.695  0.4442  0.0356  0.5104
 3731SOL    HW122655   0.527   3.194   0.749  0.7591 -0.3377  0.6642
 3731SOL    HW222656   0.537   3.284   0.643 -0.3201 -0.2984  1.0439
 3732SOL     OW22657   0.164   2.419   2.410 -0.6582  0.3583 -0.0968
 3732SOL    HW122658   0.210   2.470   2.343 -1.6969  0.3340 -0.8306
 3732SOL    HW222659   0.233   2.409   2.475  0.1712  2.0085 -0.7212
 3733SOL     OW22660   1.677   1.041   9.080 -0.1401  0.7249 -0.1239
 3733SOL    HW122661   1.611   1.031   9.149  1.4618 -2.6197  0.8909
 3733SOL    HW222662   1.749   1.082   9.129  0.0363  0.2599  0.0081
 3734SOL     OW22663   1.590   2.888   7.908  0.6417 -0.2606 -0.1794
 3734SOL    HW122664   1.575   2.793   7.914  2.1894 -0.5242 -0.4737
 3734SOL    HW222665   1.665   2.891   7.848  0.7445 -1.0916 -0.0950
 3735SOL     OW22666   4.289   4.578   5.993 -0.3339 -0.3054 -0.0665
 3735SOL    HW122667   4.265   4.486   5.985  1.4431 -0.6611 -1.2296
 3735SOL    HW222668   4.384   4.573   6.000 -0.3235 -0.8128 -0.6383
 3736SOL     OW22669   3.391   0.498   9.475  0.2438  0.2642 -0.0094
 3736SOL    HW122670   3.455   0.454   9.531 -1.1364  1.5554  2.5655
 3736SOL    HW222671   3.344   0.551   9.539  0.7766 -0.2156  0.7734
 3737SOL     OW22672   4.253   4.138   5.915 -0.0619 -0.1204  0.6757
 3737SOL    HW122673   4.191   4.171   5.850 -0.5707 -1.4087  0.5126
 3737SOL    HW222674   4.338   4.174   5.890 -0.2701  0.9533  1.5302
 3738SOL     OW22675   0.466   2.746  14.506  0.4603  0.9897 -0.6267
 3738SOL    HW122676   0.528   2.692  14.457  0.6138 -0.8250  1.5492
 3738SOL    HW222677   0.448   2.822  14.451 -1.9043  1.5056  0.8684
 3739SOL     OW22678   0.750   3.092   3.662 -0.1287  0.2855  0.1419
 3739SOL    HW122679   0.823   3.118   3.719  1.4735 -2.8644 -0.4528
 3739SOL    HW222680   0.716   3.173   3.626 -1.7657 -0.2034  0.5935
 3740SOL     OW22681   3.805   1.257  12.921  0.1373  0.3376  0.3490
 3740SOL    HW122682   3.712   1.239  12.927  0.2688 -0.2881  0.4609
 3740SOL    HW222683   3.798   1.279  12.828 -0.1136  0.6584  0.4438
 3741SOL     OW22684   0.528   2.200  16.444 -0.2679 -0.3907 -0.3460
 3741SOL    HW122685   0.548   2.259  16.518 -0.2049 -2.4421  1.2746
 3741SOL    HW222686   0.586   2.234  16.376 -0.9020  0.2655 -0.5512
 3742SOL     OW22687   0.976   0.914   8.374 -0.2269  0.3307  0.6526
 3742SOL    HW122688   1.022   0.998   8.379 -0.0503  0.2220  0.8753
 3742SOL    HW222689   0.883   0.927   8.390 -0.7406 -1.2872 -1.0569
 3743SOL     OW22690   4.156   3.256   3.956  0.1752  0.2591  0.7818
 3743SOL    HW122691   4.146   3.252   4.051 -2.9620  1.3041  0.4905
 3743SOL    HW222692   4.086   3.200   3.922  0.0254  1.2125 -0.5092
 3744SOL     OW22693   2.754   2.756   5.881 -0.1136 -0.2110 -0.0756
 3744SOL    HW122694   2.812   2.820   5.838  0.1666 -0.5144 -0.1554
 3744SOL    HW222695   2.740   2.693   5.810 -0.3513 -0.5181  0.2526
 3745SOL     OW22696   4.164   4.242   2.684  0.1537  0.5299  0.0050
 3745SOL    HW122697   4.240   4.295   2.664  0.6202  0.5687  1.8756
 3745SOL    HW222698   4.181   4.221   2.776  0.8847  0.5615 -0.1234
 3746SOL     OW22699   2.751   2.235   2.931 -0.1414  0.1943 -0.2102
 3746SOL    HW122700   2.692   2.306   2.907 -0.7623 -0.0051  0.7205
 3746SOL    HW222701   2.679   2.177   2.954  1.5183 -1.2795  1.3549
 3747SOL     OW22702   1.269   1.098  15.797  0.4488  0.4938  0.0998
 3747SOL    HW122703   1.248   1.074  15.707 -3.0040  0.6439  0.8383
 3747SOL    HW222704   1.258   1.193  15.796  0.8086  0.5018 -3.6093
 3748SOL     OW22705   2.451   3.303  12.479 -0.7843 -0.1023 -0.0008
 3748SOL    HW122706   2.414   3.363  12.544 -0.7210 -1.2571  1.1032
 3748SOL    HW222707   2.525   3.269  12.530 -0.0572 -2.8884 -2.9512
 3749SOL     OW22708   3.610   4.384   2.258  0.4084 -0.3158  0.0033
 3749SOL    HW122709   3.634   4.355   2.346  0.2870  0.7543  0.3961
 3749SOL    HW222710   3.517   4.407   2.268  0.7905  0.9634  0.5684
 3750SOL     OW22711   4.172   0.210   0.033  0.4848 -0.1080 -0.5527
 3750SOL    HW122712   4.262   0.242   0.032 -0.2666  1.9672 -1.6796
 3750SOL    HW222713   4.177   0.121  17.692 -1.4611 -1.0714  1.5444
 3751SOL     OW22714   1.557   1.698   7.646  0.0294 -0.0730  0.3459
 3751SOL    HW122715   1.582   1.753   7.721  2.3235  0.0539 -0.5136
 3751SOL    HW222716   1.632   1.638   7.645 -0.3723 -0.5868  0.8768
 3752SOL     OW22717   2.428   0.322  11.049  0.0027 -0.6172 -0.1700
 3752SOL    HW122718   2.412   0.318  11.144  1.5672 -1.0963  0.0676
 3752SOL    HW222719   2.522   0.337  11.040  0.2328 -0.8925  1.7451
 3753SOL     OW22720   1.567   1.118  13.630 -0.1991 -0.5689  0.0616
 3753SOL    HW122721   1.621   1.171  13.571  1.7013 -2.2430  0.3058
 3753SOL    HW222722   1.485   1.129  13.581 -0.5599  0.6390  0.9439
 3754SOL     OW22723   1.672   4.228   3.252 -0.2749 -0.3758  0.5621
 3754SOL    HW122724   1.755   4.191   3.224  0.4142 -0.2975  2.5128
 3754SOL    HW222725   1.657   4.300   3.191 -1.2032 -0.6890  0.4175
 3755SOL     OW22726   0.950   0.601   0.321 -0.3001  0.3271  0.4073
 3755SOL    HW122727   0.996   0.615   0.238 -1.2664  2.0836  0.1882
 3755SOL    HW222728   1.015   0.624   0.387  0.2112  2.2257 -0.7611
 3756SOL     OW22729   3.955   1.071   0.864  0.0417  0.6416  0.6030
 3756SOL    HW122730   4.019   1.142   0.852 -1.1062  1.4786 -0.5391
 3756SOL    HW222731   3.909   1.112   0.937 -3.0120  4.0197 -3.2221
 3757SOL     OW22732   0.267   2.377   9.540  0.3957 -0.0652  0.0827
 3757SOL    HW122733   0.270   2.374   9.636 -0.7562 -1.8125  0.0609
 3757SOL    HW222734   0.237   2.467   9.523 -2.1065 -0.9122 -0.0797
 3758SOL     OW22735   2.624   2.597  10.339  0.3986  0.5580 -0.2237
 3758SOL    HW122736   2.667   2.618  10.257 -0.1881  0.1582 -0.6332
 3758SOL    HW222737   2.645   2.672  10.395  1.9708 -0.3719  0.4452
 3759SOL     OW22738   1.504   1.459   4.379  0.0732  0.4681  0.2288
 3759SOL    HW122739   1.588   1.457   4.425  0.3924 -0.3988 -0.3800
 3759SOL    HW222740   1.502   1.521   4.306 -0.3853 -0.7628 -0.8081
 3760SOL     OW22741   0.861   2.695   7.022  0.1031 -0.1604 -0.3098
 3760SOL    HW122742   0.893   2.667   6.936  1.5716 -0.8452  0.4454
 3760SOL    HW222743   0.780   2.735   6.993  0.9467  0.4098 -1.8948
 3761SOL     OW22744   1.150   0.161   5.193  0.2611 -0.0485  0.3631
 3761SOL    HW122745   1.241   0.175   5.219  0.6376 -0.4304 -0.7725
 3761SOL    HW222746   1.109   0.244   5.220 -1.4316 -0.7742  0.0081
 3762SOL     OW22747   1.140   1.498   2.652 -0.2631  0.3465 -0.0443
 3762SOL    HW122748   1.079   1.439   2.696  1.2505 -1.9798 -1.1051
 3762SOL    HW222749   1.083   1.559   2.605 -2.1833 -2.2697 -1.1224
 3763SOL     OW22750   2.274   1.347   8.198  0.1965  0.8446  0.1973
 3763SOL    HW122751   2.183   1.331   8.224  0.5059  0.6730  1.1505
 3763SOL    HW222752   2.259   1.366   8.105 -2.3170 -0.8509  0.2360
 3764SOL     OW22753   3.721   1.131  16.339 -0.3071  0.4171 -0.1990
 3764SOL    HW122754   3.812   1.142  16.364  0.6836 -2.3537 -2.5778
 3764SOL    HW222755   3.684   1.148  16.426  1.0141  0.6644  0.3035
 3765SOL     OW22756   2.275   2.463   4.476  0.2450  0.1754 -0.3393
 3765SOL    HW122757   2.341   2.481   4.410  0.5039  1.6411  0.3345
 3765SOL    HW222758   2.295   2.371   4.492 -1.9536 -0.0375  1.2525
 3766SOL     OW22759   4.024   1.351   9.916  0.8635 -0.0722 -0.2076
 3766SOL    HW122760   4.111   1.314   9.927  1.4425  1.2872 -0.2652
 3766SOL    HW222761   3.983   1.277   9.871  1.7376 -1.1171  0.6935
 3767SOL     OW22762   3.447   4.102   7.095 -0.1549  0.0053  0.0266
 3767SOL    HW122763   3.487   4.121   7.180  0.4844  0.3000 -0.3416
 3767SOL    HW222764   3.438   4.008   7.087 -2.3177  0.2231 -0.1357
 3768SOL     OW22765   2.672   0.514   1.534 -0.8854  0.1776  0.3505
 3768SOL    HW122766   2.712   0.431   1.509 -2.6443 -0.6968  0.4328
 3768SOL    HW222767   2.585   0.478   1.555 -0.1915 -0.1214  2.7761
 3769SOL     OW22768   0.644   3.269   3.474 -0.0599 -0.7857 -0.6438
 3769SOL    HW122769   0.655   3.363   3.456 -1.4852 -0.3916  0.4516
 3769SOL    HW222770   0.638   3.242   3.382 -1.8456  0.0137 -0.7801
 3770SOL     OW22771   4.262   0.621   4.207  0.0037 -0.1078  0.0393
 3770SOL    HW122772   4.346   0.663   4.224 -1.5870  2.2650  2.0278
 3770SOL    HW222773   4.201   0.688   4.235  0.5475  0.0335  0.8625
 3771SOL     OW22774   2.068   3.040   5.213  0.4542 -0.3374  0.1546
 3771SOL    HW122775   2.088   3.108   5.149  0.5753 -1.9735 -1.5440
 3771SOL    HW222776   2.142   3.054   5.272  0.3339  0.4355  0.1172
 3772SOL     OW22777   2.067   4.633   7.139 -0.2128  0.2811  0.4276
 3772SOL    HW122778   2.122   4.578   7.083  0.3757  1.3076 -0.0188
 3772SOL    HW222779   2.112   4.716   7.124  0.6331 -0.1918  0.3365
 3773SOL     OW22780   0.313   2.427   8.461  0.2757 -0.1899  0.5531
 3773SOL    HW122781   0.406   2.449   8.459  0.4768 -1.0643  0.2112
 3773SOL    HW222782   0.276   2.513   8.481  0.5600  0.5026 -1.9748
 3774SOL     OW22783   4.694   3.491  14.015 -0.7123 -0.5689 -0.1684
 3774SOL    HW122784   4.665   3.483  13.924 -0.9111  0.0340 -0.1585
 3774SOL    HW222785   0.054   3.444  14.009  0.7667  1.8972  1.3775
 3775SOL     OW22786   1.881   1.831   3.710  0.6175 -0.6423  0.4117
 3775SOL    HW122787   1.894   1.917   3.748 -1.0525 -0.7724  1.2667
 3775SOL    HW222788   1.934   1.846   3.631 -1.0287  0.1358 -0.5430
 3776SOL     OW22789   3.319   1.930  15.952  0.3597  0.3489 -0.5115
 3776SOL    HW122790   3.225   1.948  15.955  0.1834 -0.7094  0.0702
 3776SOL    HW222791   3.317   1.848  16.001 -0.1025  0.4404 -0.3755
 3777SOL     OW22792   3.738   3.580   5.463  0.0844 -1.1183  0.0211
 3777SOL    HW122793   3.663   3.575   5.404 -2.2650  0.5468  2.8414
 3777SOL    HW222794   3.777   3.496   5.439 -0.1828 -1.3297  0.3349
 3778SOL     OW22795   1.696   0.027   1.005 -0.5899 -0.1108 -0.0450
 3778SOL    HW122796   1.692   0.114   1.046 -1.3477 -0.4770  0.6331
 3778SOL    HW222797   1.718   0.054   0.916 -2.5633  0.8423 -0.2346
 3779SOL     OW22798   4.686   3.051   6.955  0.1702 -0.0732 -0.2900
 3779SOL    HW122799   0.037   3.037   7.014 -0.6086  1.5555  1.0970
 3779SOL    HW222800   0.013   3.080   6.879 -0.9814  0.6792 -0.7701
 3780SOL     OW22801   2.404   2.816  13.491  0.4622 -0.2328 -0.1917
 3780SOL    HW122802   2.443   2.730  13.476  1.2170 -0.2395  1.9346
 3780SOL    HW222803   2.357   2.840  13.410  0.0392  0.1264  0.1564
 3781SOL     OW22804   4.676   4.341   8.594 -0.1561 -0.6231  0.0534
 3781SOL    HW122805   4.582   4.329   8.605  0.0332 -1.0006  1.2968
 3781SOL    HW222806   4.701   4.414   8.652  0.4399 -1.6483  1.0920
 3782SOL     OW22807   0.260   2.684   8.560 -0.3687  0.0426  0.5411
 3782SOL    HW122808   0.168   2.710   8.559 -0.4865 -0.3827  0.3990
 3782SOL    HW222809   0.283   2.730   8.479  1.2540  1.7038  1.9311
 3783SOL     OW22810   4.617   4.441   5.211  0.1310  0.4049 -0.4766
 3783SOL    HW122811   4.651   4.363   5.168  1.2477  1.1029 -0.8494
 3783SOL    HW222812   4.687   4.439   5.276 -1.8272 -0.4569  1.6028
 3784SOL     OW22813   3.028   2.147   9.736 -0.5052  0.2169  0.0053
 3784SOL    HW122814   3.058   2.071   9.785  0.3575  0.4338 -0.1923
 3784SOL    HW222815   2.952   2.110   9.690  1.6335 -0.8590 -2.6735
 3785SOL     OW22816   1.635   1.736   6.943  0.6127  0.1235  0.0337
 3785SOL    HW122817   1.552   1.769   6.977  0.8667 -3.0973  3.7786
 3785SOL    HW222818   1.641   1.649   6.983  0.2475  0.7134  1.3642
 3786SOL     OW22819   2.883   1.860   1.341  0.4764  0.5564 -0.0066
 3786SOL    HW122820   2.949   1.816   1.394 -0.7862  0.3700  1.4052
 3786SOL    HW222821   2.898   1.813   1.259  0.0405  1.0630 -0.3746
 3787SOL     OW22822   0.291   3.225   5.956 -0.2911  0.0059 -0.0138
 3787SOL    HW122823   0.253   3.152   5.907  1.6581 -1.3298  0.4481
 3787SOL    HW222824   0.384   3.202   5.965 -0.3806 -0.1347  0.5709
 3788SOL     OW22825   0.664   1.705  17.487  0.1136 -0.0080 -0.4157
 3788SOL    HW122826   0.625   1.732  17.570  0.5113  1.0667 -0.5768
 3788SOL    HW222827   0.725   1.778  17.476 -0.6825  0.8965  1.2122
 3789SOL     OW22828   3.624   4.422   4.431 -0.0719 -0.5863  0.5172
 3789SOL    HW122829   3.710   4.411   4.472 -0.2972 -1.5618  0.7413
 3789SOL    HW222830   3.597   4.512   4.448 -0.5607 -0.1504 -2.6653
 3790SOL     OW22831   0.263   3.829   7.558  0.0564  0.0630 -0.3479
 3790SOL    HW122832   0.296   3.905   7.607  0.4822  0.7049 -1.6512
 3790SOL    HW222833   0.262   3.760   7.625 -3.4970  1.1249  0.7085
 3791SOL     OW22834   1.122   4.548   2.921  0.5973  0.1163 -0.4892
 3791SOL    HW122835   1.121   4.461   2.882  3.9124  0.6003 -1.6168
 3791SOL    HW222836   1.130   4.607   2.846  1.2573 -2.5360 -2.4921
 3792SOL     OW22837   4.445   3.090  12.327 -0.0658 -0.3234  0.1766
 3792SOL    HW122838   4.392   3.170  12.330 -1.4590 -1.2326  0.1228
 3792SOL    HW222839   4.368   3.033  12.314 -1.6434  1.9569 -0.5093
 3793SOL     OW22840   3.951   4.106  12.224  0.3516  0.0319 -0.2903
 3793SOL    HW122841   3.972   4.098  12.317  1.0189  2.3317 -0.2481
 3793SOL    HW222842   3.943   4.200  12.212  1.0337  0.5894  3.6261
 3794SOL     OW22843   1.469   2.693   6.057  0.1194 -0.0953  0.0465
 3794SOL    HW122844   1.407   2.762   6.081  1.6798  1.3671 -0.0833
 3794SOL    HW222845   1.407   2.621   6.069  0.0783  0.0535  0.7091
 3795SOL     OW22846   0.470   0.319  13.841  0.3439 -0.2658  0.2207
 3795SOL    HW122847   0.379   0.346  13.830 -0.2277 -2.8001 -1.4894
 3795SOL    HW222848   0.503   0.398  13.883  0.3126  0.8010 -1.7547
 3796SOL     OW22849   0.014   2.551   5.242 -0.3972  0.0395  1.0536
 3796SOL    HW122850   0.013   2.618   5.174 -0.3211  0.3317  1.3380
 3796SOL    HW222851   4.644   2.530   5.249 -0.9364  1.6649 -1.3021
 3797SOL     OW22852   1.329   4.657  12.207 -0.8627 -0.1429 -0.3607
 3797SOL    HW122853   1.244   4.649  12.163 -1.1966 -0.2238  0.3054
 3797SOL    HW222854   1.383   4.718  12.156 -1.1797  1.7212  1.5075
 3798SOL     OW22855   3.904   2.578  11.001  0.5074  0.1329 -0.2594
 3798SOL    HW122856   3.877   2.668  11.021  0.4295 -0.6480  3.1371
 3798SOL    HW222857   3.900   2.536  11.087 -0.9728  0.5628 -0.1309
 3799SOL     OW22858   2.033   2.410   9.000  0.2015  0.2156 -0.5344
 3799SOL    HW122859   2.040   2.478   8.933 -2.0440  0.9762  0.0114
 3799SOL    HW222860   1.982   2.338   8.963 -0.7498  1.5774 -1.8448
 3800SOL     OW22861   1.095   0.693   0.081 -0.4519 -0.4522  0.1553
 3800SOL    HW122862   1.171   0.650   0.041 -1.2188 -0.0068 -1.7888
 3800SOL    HW222863   1.058   0.730   0.001 -2.8494 -1.1318  0.9423
 3801SOL     OW22864   4.656   0.939   0.806 -0.6596  0.4924 -0.3183
 3801SOL    HW122865   4.647   0.849   0.775  1.6846  0.8633 -2.0152
 3801SOL    HW222866   4.575   0.975   0.769 -2.4242 -1.7983  1.3248
 3802SOL     OW22867   4.195   4.699   1.766 -0.2753  0.4349 -0.6165
 3802SOL    HW122868   4.283   4.695   1.803 -0.2268 -1.8436 -0.9983
 3802SOL    HW222869   4.154   4.711   1.852 -0.0433  0.0240 -0.4495
 3803SOL     OW22870   0.823   2.035   0.110  0.4351  1.0902 -0.4644
 3803SOL    HW122871   0.896   2.083   0.069  3.0860 -1.2805  1.5068
 3803SOL    HW222872   0.764   2.109   0.122 -0.1301  0.8484 -1.7332
 3804SOL     OW22873   1.966   0.521   2.093 -0.2711  0.5123 -0.2024
 3804SOL    HW122874   1.877   0.551   2.116 -0.7297 -1.6077  0.7599
 3804SOL    HW222875   1.973   0.558   2.005  2.7919 -1.0609 -0.6045
 3805SOL     OW22876   1.447   2.285   7.104  0.1753 -0.3454  0.1707
 3805SOL    HW122877   1.374   2.225   7.118  0.5293 -0.9803 -0.7697
 3805SOL    HW222878   1.447   2.301   7.010  2.4704  0.1855  0.2395
 3806SOL     OW22879   3.299   2.509   1.656 -0.0530  0.2122  0.3236
 3806SOL    HW122880   3.338   2.458   1.727 -1.2575 -2.1534 -0.7068
 3806SOL    HW222881   3.359   2.584   1.660 -0.8612  0.9339 -1.0520
 3807SOL     OW22882   0.632   3.809  12.888  0.1004 -0.1870  0.0419
 3807SOL    HW122883   0.725   3.789  12.875  0.2041  0.9838 -1.0873
 3807SOL    HW222884   0.609   3.734  12.942 -0.8852 -0.9510 -1.4559
 3808SOL     OW22885   4.503   3.186  17.345  0.4453  0.1848  0.6067
 3808SOL    HW122886   4.537   3.125  17.280  0.9425  0.2836  0.7731
 3808SOL    HW222887   4.522   3.134  17.423 -0.2408  0.9057  1.2571
 3809SOL     OW22888   0.599   2.549   5.143  0.1854 -0.0930 -0.7705
 3809SOL    HW122889   0.519   2.502   5.165 -0.2931  0.8727 -0.4833
 3809SOL    HW222890   0.639   2.487   5.081 -1.3049 -0.0666 -1.7496
 3810SOL     OW22891   0.065   2.034   7.805  0.5671 -0.2197 -0.1114
 3810SOL    HW122892   0.023   1.950   7.787  0.3619 -0.2149  0.3334
 3810SOL    HW222893   4.709   2.082   7.831  0.5206 -0.3083 -0.0893
 3811SOL     OW22894   0.482   3.535   0.775  0.1091 -0.3260  0.2025
 3811SOL    HW122895   0.566   3.500   0.803  0.7045  0.5440 -0.5145
 3811SOL    HW222896   0.451   3.565   0.861  0.9881  1.7361 -0.2091
 3812SOL     OW22897   4.433   3.125  11.633  0.0298 -0.1590 -0.0402
 3812SOL    HW122898   4.527   3.123  11.618 -0.2552  1.7140 -2.1101
 3812SOL    HW222899   4.397   3.208  11.602 -0.2103  0.6739  2.4613
 3813SOL     OW22900   1.888   0.248   8.621  0.0284 -0.1928  0.3764
 3813SOL    HW122901   1.945   0.321   8.596  0.0636 -0.4749 -0.3814
 3813SOL    HW222902   1.841   0.291   8.693 -1.0871 -0.0020 -0.4637
 3814SOL     OW22903   2.896   2.283   3.916  0.1081  0.6088 -0.3490
 3814SOL    HW122904   2.925   2.251   3.830  0.3178 -2.6804  0.9545
 3814SOL    HW222905   2.968   2.253   3.971 -0.3532 -1.4326 -0.8427
 3815SOL     OW22906   1.341   3.027   1.642  0.1012  0.1147  0.3856
 3815SOL    HW122907   1.249   3.022   1.619  0.2574  2.3898 -0.7239
 3815SOL    HW222908   1.364   2.998   1.554  2.3212 -0.5107  1.1525
 3816SOL     OW22909   4.603   3.756  10.725 -0.4325 -0.4594 -0.1998
 3816SOL    HW122910   4.523   3.734  10.678 -1.5837 -0.5058  1.7821
 3816SOL    HW222911   4.588   3.845  10.757  0.1616  0.1061 -1.5059
 3817SOL     OW22912   3.887   3.060   3.182 -0.1308 -0.2274 -0.6322
 3817SOL    HW122913   3.838   3.134   3.147  1.0641  0.5889 -0.5855
 3817SOL    HW222914   3.808   3.015   3.212  0.5348  0.0436  1.4979
 3818SOL     OW22915   1.700   4.028   9.291  0.1531  0.1462  0.4557
 3818SOL    HW122916   1.714   4.114   9.250 -1.3752  1.0132  1.7588
 3818SOL    HW222917   1.728   4.048   9.380  2.7461  1.7480 -0.6793
 3819SOL     OW22918   4.035   0.303  11.338  0.0222  0.1844 -0.0823
 3819SOL    HW122919   4.049   0.366  11.267 -1.3920  2.7762  1.9632
 3819SOL    HW222920   4.126   0.292  11.366 -0.0879  3.0406  1.4049
 3820SOL     OW22921   3.580   2.704   8.892 -0.5180 -0.1819  0.3517
 3820SOL    HW122922   3.559   2.767   8.961  0.0136 -0.2289  0.5576
 3820SOL    HW222923   3.501   2.723   8.843 -0.7157  1.3483  1.2398
 3821SOL     OW22924   4.025   1.825   7.647  0.0694  0.4783 -0.3989
 3821SOL    HW122925   4.099   1.863   7.694 -0.3569  0.2745  0.4274
 3821SOL    HW222926   3.956   1.853   7.708 -0.2725  1.8475 -1.4260
 3822SOL     OW22927   3.083   2.418   1.505 -0.2430  0.2970 -0.6321
 3822SOL    HW122928   3.154   2.453   1.558 -1.9439 -0.0017  1.8538
 3822SOL    HW222929   3.126   2.406   1.420  0.3389  1.5976 -0.5130
 3823SOL     OW22930   1.353   2.377   3.566 -0.2869 -0.0420 -0.2442
 3823SOL    HW122931   1.325   2.301   3.516  0.1474  0.2270 -0.9004
 3823SOL    HW222932   1.273   2.429   3.577 -0.6985 -0.0024 -3.4475
 3824SOL     OW22933   3.438   1.720  11.136 -0.1035 -0.1992  0.2386
 3824SOL    HW122934   3.454   1.653  11.202 -1.3144  0.7374  1.4815
 3824SOL    HW222935   3.523   1.760  11.116  0.4008 -2.8092 -2.8579
 3825SOL     OW22936   0.343   3.348   1.052 -0.6257 -0.0156  0.2083
 3825SOL    HW122937   0.378   3.434   1.030  1.0568 -1.0866 -1.3789
 3825SOL    HW222938   0.251   3.363   1.032 -0.6770 -0.0256  0.4484
 3826SOL     OW22939   1.765   4.296   4.209  0.1474 -0.3990  0.8421
 3826SOL    HW122940   1.835   4.265   4.266  1.8522  3.6642  0.9759
 3826SOL    HW222941   1.764   4.219   4.152 -4.9829  2.1554 -2.4732
 3827SOL     OW22942   2.602   3.863   2.773 -0.4300 -1.2283  1.2025
 3827SOL    HW122943   2.520   3.896   2.738  0.2924  0.4718  1.1167
 3827SOL    HW222944   2.579   3.772   2.792 -2.6909 -0.5620  1.6093
 3828SOL     OW22945   1.910   3.256   2.037 -0.0215  0.1028  0.0830
 3828SOL    HW122946   1.824   3.292   2.012 -0.0021 -0.9528 -1.5470
 3828SOL    HW222947   1.882   3.164   2.042  2.7294 -0.7744 -0.9089
 3829SOL     OW22948   1.856   1.753   0.566  0.1621  0.0336  0.4315
 3829SOL    HW122949   1.828   1.836   0.605  1.1799  0.5609  0.0053
 3829SOL    HW222950   1.910   1.722   0.638  0.4983  0.4129  0.3412
 3830SOL     OW22951   2.021   1.358   3.174 -0.5884 -0.3641 -0.2201
 3830SOL    HW122952   2.060   1.298   3.238  0.1808  0.7346  0.3348
 3830SOL    HW222953   2.028   1.305   3.094  0.6511  0.6070 -0.7369
 3831SOL     OW22954   0.514   1.773   8.999  0.1784 -0.3156  0.1640
 3831SOL    HW122955   0.431   1.734   9.024 -0.4829  1.1317  0.2224
 3831SOL    HW222956   0.509   1.868   8.992  0.2298 -0.2634  0.8177
 3832SOL     OW22957   1.314   1.326   2.284  0.5676 -0.0001 -0.7006
 3832SOL    HW122958   1.274   1.405   2.319  0.0529 -1.5503  2.2705
 3832SOL    HW222959   1.254   1.256   2.312 -0.4899  1.4427  0.6408
 3833SOL     OW22960   3.131   0.767   7.201 -0.0700  0.7169 -0.5785
 3833SOL    HW122961   3.187   0.840   7.227 -0.4730  0.6963  0.3474
 3833SOL    HW222962   3.046   0.805   7.221 -1.8500 -1.9627 -3.0966
 3834SOL     OW22963   4.614   1.892  11.945  0.9357 -0.1104  0.1048
 3834SOL    HW122964   4.677   1.841  11.896  1.5592 -0.3592  1.1651
 3834SOL    HW222965   4.655   1.978  11.938 -2.9648  1.6704 -0.9478
 3835SOL     OW22966   1.981   4.535  16.835 -0.0604  0.4130 -0.5109
 3835SOL    HW122967   1.998   4.479  16.759 -2.9166  0.5599 -1.2623
 3835SOL    HW222968   1.903   4.491  16.869  2.0821 -0.9272  2.6406
 3836SOL     OW22969   1.294   3.016   6.386 -0.5491  0.1828  0.3575
 3836SOL    HW122970   1.234   2.945   6.411 -0.3539  0.4365  1.5614
 3836SOL    HW222971   1.317   3.048   6.473  1.0331  1.0448 -0.3868
 3837SOL     OW22972   0.593   0.582   4.673  0.2477 -0.2917  0.8935
 3837SOL    HW122973   0.667   0.545   4.722  1.0823  0.3985  0.1359
 3837SOL    HW222974   0.631   0.601   4.587 -1.4731 -0.2933  0.1424
 3838SOL     OW22975   3.747   1.234   4.965  0.0302 -0.2716 -0.4068
 3838SOL    HW122976   3.679   1.258   4.902  2.0582  2.9930 -1.3629
 3838SOL    HW222977   3.707   1.229   5.052 -1.1533 -1.7970 -1.0456
 3839SOL     OW22978   0.281   3.830  16.508  0.0061 -0.1265  0.0091
 3839SOL    HW122979   0.213   3.835  16.440 -0.9389  1.1448  1.0329
 3839SOL    HW222980   0.302   3.737  16.505  0.6426  0.0664 -1.3845
 3840SOL     OW22981   0.687   0.876   8.788  0.2176  0.3361 -0.0019
 3840SOL    HW122982   0.658   0.966   8.773  1.5452  0.5192 -1.5159
 3840SOL    HW222983   0.611   0.834   8.748  1.6841 -0.1501 -2.3158
 3841SOL     OW22984   1.468   3.491   4.040  0.4292 -0.6760 -0.3686
 3841SOL    HW122985   1.557   3.514   4.065  0.1350  0.5198 -0.4332
 3841SOL    HW222986   1.478   3.491   3.945 -0.6980  1.6901 -0.4800
 3842SOL     OW22987   2.542   1.269   2.678 -0.3803  0.0790 -0.1240
 3842SOL    HW122988   2.491   1.302   2.751 -1.3376  2.0141 -1.6894
 3842SOL    HW222989   2.535   1.341   2.615 -2.0361  1.8578  2.1279
 3843SOL     OW22990   3.904   0.550   2.660 -0.0521  0.4753  0.3252
 3843SOL    HW122991   3.950   0.477   2.702  0.4595 -0.2053 -1.4163
 3843SOL    HW222992   3.947   0.547   2.575  0.9663  0.6062  0.8218
 3844SOL     OW22993   0.757   0.315   4.055 -0.1568  0.6828  0.1682
 3844SOL    HW122994   0.806   0.306   3.973 -2.4985 -2.0996 -0.9450
 3844SOL    HW222995   0.673   0.345   4.020  1.0783  2.8240 -0.9637
 3845SOL     OW22996   1.605   4.400   3.054  0.1451 -0.3649  0.3626
 3845SOL    HW122997   1.543   4.344   3.007  1.4240 -1.9180  0.5543
 3845SOL    HW222998   1.653   4.447   2.985  2.4842 -2.9176  0.2595
 3846SOL     OW22999   0.069   3.779   8.642  0.6541 -0.4365  0.2417
 3846SOL    HW123000   4.697   3.785   8.652  0.3620 -1.2785 -1.9453
 3846SOL    HW223001   0.094   3.866   8.610  1.0622 -0.3481  0.8148
 3847SOL     OW23002   4.604   0.797   1.041 -0.0156  0.2277  0.0343
 3847SOL    HW123003   4.564   0.733   0.983 -0.4291  2.0479 -1.6871
 3847SOL    HW223004   4.602   0.878   0.990  0.2480  0.3745  0.2540
 3848SOL     OW23005   0.276   3.059   4.279  0.5924 -0.6842 -0.5246
 3848SOL    HW123006   0.282   3.001   4.354  2.5843  1.0776  0.6814
 3848SOL    HW223007   0.182   3.043   4.270  0.7689 -2.4821  0.8478
 3849SOL     OW23008   2.245   3.518   8.431 -0.2268  0.2970 -0.3427
 3849SOL    HW123009   2.324   3.551   8.388  1.3384 -0.5361  1.8989
 3849SOL    HW223010   2.185   3.542   8.361  0.7898  1.3885 -0.8312
 3850SOL     OW23011   2.179   4.474   5.324 -0.4489 -0.0423 -0.1273
 3850SOL    HW123012   2.271   4.450   5.326 -0.3905  0.1887 -0.0737
 3850SOL    HW223013   2.139   4.429   5.399  0.3540 -0.1776  0.2181
 3851SOL     OW23014   0.829   0.061  11.990 -0.2173 -0.0848  0.5355
 3851SOL    HW123015   0.797   0.033  12.076  2.6856  1.9773  2.2679
 3851SOL    HW223016   0.753   0.045  11.934  0.5232 -0.5489 -0.3325
 3852SOL     OW23017   1.624   0.794   5.395 -0.7063  0.4445 -0.0015
 3852SOL    HW123018   1.616   0.877   5.441  1.9423  1.1945 -0.9411
 3852SOL    HW223019   1.717   0.784   5.377 -0.5506  1.6230  0.2224
 3853SOL     OW23020   4.470   2.148   5.234  0.6628  0.0366 -0.1000
 3853SOL    HW123021   4.399   2.086   5.216  1.4828 -0.7112 -0.7200
 3853SOL    HW223022   4.495   2.111   5.319 -1.6919  0.2322  0.7056
 3854SOL     OW23023   4.274   1.929  12.367  0.0548 -0.1049  0.0822
 3854SOL    HW123024   4.359   1.933  12.322 -0.0515  0.8863 -0.0302
 3854SOL    HW223025   4.305   1.898  12.452  4.1707  0.9930 -0.9959
 3855SOL     OW23026   3.805   0.256   6.442  0.0184 -0.3041 -0.6518
 3855SOL    HW123027   3.853   0.209   6.374  0.4023 -1.8045  0.6629
 3855SOL    HW223028   3.757   0.181   6.477 -0.0741 -0.1367 -0.4194
 3856SOL     OW23029   4.490   0.567   0.917  0.0484  1.3416 -0.1930
 3856SOL    HW123030   4.430   0.518   0.862  0.3980  0.5127  0.1723
 3856SOL    HW223031   4.460   0.524   0.997  5.3368 -2.6262 -0.3409
 3857SOL     OW23032   3.519   0.064  10.474  0.0526 -0.5823 -0.1851
 3857SOL    HW123033   3.459   0.080  10.547 -2.0627  3.1062 -2.7664
 3857SOL    HW223034   3.602   0.105  10.500  0.2300 -1.1641  0.1793
 3858SOL     OW23035   1.614   4.009   3.633  0.3316  0.1588  0.0690
 3858SOL    HW123036   1.690   4.007   3.691 -0.9477 -0.0177  1.7290
 3858SOL    HW223037   1.649   4.062   3.561  0.7004 -0.0123  0.1221
 3859SOL     OW23038   0.273   1.206   3.201  0.5389  0.1019  0.7430
 3859SOL    HW123039   0.305   1.224   3.113 -0.6265  1.1349  0.5337
 3859SOL    HW223040   0.210   1.134   3.192  1.8057 -0.6687 -2.0199
 3860SOL     OW23041   4.168   3.209  14.607  0.0215  0.0628  0.2471
 3860SOL    HW123042   4.211   3.276  14.661 -0.3340  0.6942 -0.2522
 3860SOL    HW223043   4.197   3.229  14.518 -0.3236  3.6680  0.9655
 3861SOL     OW23044   1.696   2.836  16.298 -0.3699  0.0969  0.4186
 3861SOL    HW123045   1.777   2.867  16.338 -0.4576 -0.7087  1.2167
 3861SOL    HW223046   1.720   2.855  16.207  0.1044 -1.4276  0.2197
 3862SOL     OW23047   0.006   3.840   7.373  0.5197  0.0815 -0.4948
 3862SOL    HW123048   4.670   3.765   7.374 -1.1262  1.3674 -0.8210
 3862SOL    HW223049   0.068   3.817   7.442 -2.1899 -1.1403  1.5364
 3863SOL     OW23050   3.004   2.831   3.193  0.2470 -0.0901  0.1093
 3863SOL    HW123051   2.925   2.879   3.218  1.5835  1.3754  1.5991
 3863SOL    HW223052   2.965   2.756   3.149 -1.8111 -0.2619  2.1705
 3864SOL     OW23053   4.201   3.872   6.023  0.2742  1.0367 -0.2025
 3864SOL    HW123054   4.193   3.958   5.981 -1.7612 -1.1307 -4.2005
 3864SOL    HW223055   4.229   3.820   5.948 -2.6972 -1.2073  0.2816
 3865SOL     OW23056   2.917   1.225   2.247  0.2832 -0.6795  0.1416
 3865SOL    HW123057   2.838   1.239   2.195 -0.0975  0.9072  1.1503
 3865SOL    HW223058   2.913   1.129   2.250  0.3793 -0.7092 -0.5689
 3866SOL     OW23059   1.748   1.666   0.338 -0.5241  0.0035 -0.2615
 3866SOL    HW123060   1.773   1.706   0.421  2.0049 -0.0468 -0.9899
 3866SOL    HW223061   1.836   1.648   0.305  0.2888  1.2539  1.2324
 3867SOL     OW23062   3.191   0.316  11.784  0.1071  0.1203 -0.2370
 3867SOL    HW123063   3.283   0.317  11.810 -0.2661 -0.0478  1.0645
 3867SOL    HW223064   3.192   0.233  11.737  0.0586 -0.5024  0.8765
 3868SOL     OW23065   0.729   1.280   4.799 -0.6430  0.3937  0.0914
 3868SOL    HW123066   0.749   1.269   4.707  0.5575 -0.4382  0.4471
 3868SOL    HW223067   0.799   1.343   4.814 -0.2557 -0.4789  1.9695
 3869SOL     OW23068   4.286   1.135   5.510 -0.4821  0.2168  0.4843
 3869SOL    HW123069   4.343   1.093   5.574  0.0862 -1.2337 -0.9442
 3869SOL    HW223070   4.320   1.224   5.501  2.0703 -0.5522  2.4993
 3870SOL     OW23071   2.216   0.081   1.994 -0.0002 -0.1319  0.2076
 3870SOL    HW123072   2.182   0.153   2.048 -0.4018  0.5293 -0.9246
 3870SOL    HW223073   2.183   0.101   1.906  2.0542  1.4854 -0.2037
 3871SOL     OW23074   3.014   2.248   4.873  0.4652 -0.0249 -0.1642
 3871SOL    HW123075   3.101   2.256   4.834  0.2456 -0.9151 -0.8134
 3871SOL    HW223076   2.956   2.289   4.809  1.3899  1.7766  0.1208
 3872SOL     OW23077   0.724   1.705   5.019 -0.3678 -1.2797 -0.3330
 3872SOL    HW123078   0.719   1.711   4.923 -0.6336  0.6049 -0.2115
 3872SOL    HW223079   0.803   1.656   5.039 -0.2523 -1.2562 -0.7258
 3873SOL     OW23080   0.116   3.267  13.813 -0.4728  0.3000  0.5160
 3873SOL    HW123081   0.150   3.310  13.892  2.9862 -0.1697 -0.6836
 3873SOL    HW223082   0.027   3.302  13.814 -0.4576  0.3165  1.5500
 3874SOL     OW23083   1.583   0.733  10.770  0.4350  0.2413 -0.0919
 3874SOL    HW123084   1.570   0.744  10.676  0.5924  0.5548 -0.0773
 3874SOL    HW223085   1.570   0.825  10.793 -1.0493  0.6753 -2.7357
 3875SOL     OW23086   0.355   2.497   1.910  0.1623 -0.1404 -0.6454
 3875SOL    HW123087   0.418   2.485   1.840 -0.1169  1.4748 -1.1710
 3875SOL    HW223088   0.397   2.565   1.963  1.4706 -1.4566  0.0178
 3876SOL     OW23089   3.312   2.799   2.564  0.2510  0.7864  0.1077
 3876SOL    HW123090   3.317   2.770   2.472  0.2502  2.1607 -0.3189
 3876SOL    HW223091   3.404   2.789   2.591 -0.3350  0.9112  2.1134
 3877SOL     OW23092   0.104   2.879   1.165  0.0114  0.1614  0.1586
 3877SOL    HW123093   0.060   2.962   1.147 -1.1455 -0.4502  0.1332
 3877SOL    HW223094   0.073   2.828   1.091 -3.3424  2.5159 -0.0595
 3878SOL     OW23095   3.704   2.496   2.491  0.1864 -0.5504 -0.0722
 3878SOL    HW123096   3.708   2.545   2.409 -1.8080 -0.4872 -0.1302
 3878SOL    HW223097   3.648   2.426   2.458  0.2841  0.4803 -2.4448
 3879SOL     OW23098   0.959   2.228   9.654  0.3492  0.4783 -0.2136
 3879SOL    HW123099   0.955   2.244   9.560  0.8699  0.7349 -0.1886
 3879SOL    HW223100   1.051   2.220   9.679  0.7993  0.4062 -1.9193
 3880SOL     OW23101   4.508   4.080  11.356 -0.0457 -0.4096  0.2218
 3880SOL    HW123102   4.467   4.020  11.418 -0.0542  0.6513  1.2214
 3880SOL    HW223103   4.596   4.073  11.392 -0.7427  0.0600  2.0369
 3881SOL     OW23104   0.490   1.640   3.610  0.5124 -0.3674  0.1212
 3881SOL    HW123105   0.470   1.696   3.535  1.5658  1.8392  1.4631
 3881SOL    HW223106   0.559   1.688   3.657  0.9079 -2.1888  1.3954
 3882SOL     OW23107   3.950   2.606   3.257  0.1975  0.6881 -0.0902
 3882SOL    HW123108   4.044   2.616   3.239  0.1483  0.2468 -0.5733
 3882SOL    HW223109   3.949   2.517   3.223 -2.6245  0.2792  1.1144
 3883SOL     OW23110   1.552   1.015   7.963 -0.2575  0.0348  0.3077
 3883SOL    HW123111   1.604   1.095   7.971 -0.9107  0.5572 -0.6153
 3883SOL    HW223112   1.522   1.006   8.054 -0.5309 -0.8499  0.1270
 3884SOL     OW23113   1.755   4.691   8.740  0.3838  0.5704 -0.8739
 3884SOL    HW123114   1.754   0.015   8.823  1.1938  0.2668 -0.6834
 3884SOL    HW223115   1.841   4.723   8.712  0.9956 -0.0764  0.2733
 3885SOL     OW23116   3.643   4.165   0.878  0.0679  0.3839 -0.9029
 3885SOL    HW123117   3.573   4.105   0.902  1.5725 -1.2100 -0.4925
 3885SOL    HW223118   3.582   4.228   0.840  2.0216  0.4734 -3.8522
 3886SOL     OW23119   1.067   1.503   2.045  0.0893 -0.0389  0.5277
 3886SOL    HW123120   1.092   1.479   1.955  0.3520  1.4070  0.2170
 3886SOL    HW223121   0.991   1.445   2.040 -1.9138  2.5591  0.7400
 3887SOL     OW23122   0.342   0.778   7.891  0.5811 -0.3508  0.3885
 3887SOL    HW123123   0.283   0.826   7.834  1.2485 -0.7672 -0.6660
 3887SOL    HW223124   0.432   0.788   7.857  0.7813  0.1693  1.0777
 3888SOL     OW23125   0.892   3.011  13.710  0.1678  0.0462  0.4248
 3888SOL    HW123126   0.897   3.012  13.614  2.5028  0.5031  0.5620
 3888SOL    HW223127   0.798   3.022  13.726  0.1188 -0.5207  0.5166
 3889SOL     OW23128   4.615   2.242   5.031 -0.7434 -0.5408  0.3592
 3889SOL    HW123129   4.556   2.236   5.107 -2.8882 -0.3542 -1.2693
 3889SOL    HW223130   4.688   2.188   5.059 -0.3647  0.3486  1.0951
 3890SOL     OW23131   0.377   1.685   3.959 -0.3108 -0.5673  0.2601
 3890SOL    HW123132   0.369   1.684   4.054 -1.2585  0.9210  0.2146
 3890SOL    HW223133   0.469   1.673   3.935 -0.9682 -2.2666 -1.4593
 3891SOL     OW23134   4.292   2.768   4.574 -0.5377  0.1387  0.0693
 3891SOL    HW123135   4.335   2.717   4.641  3.8758  1.5589 -1.6959
 3891SOL    HW223136   4.206   2.794   4.609 -1.1807 -0.2948 -1.1650
 3892SOL     OW23137   1.235   3.622  12.476 -0.1539  0.3711  0.0382
 3892SOL    HW123138   1.290   3.634  12.398  0.7726 -2.0166  0.3288
 3892SOL    HW223139   1.299   3.623  12.547 -1.9966  1.3945  1.6601
 3893SOL     OW23140   2.690   0.109   8.870  0.3132 -0.0528 -0.2045
 3893SOL    HW123141   2.772   0.148   8.900 -0.4839  1.3687  0.1060
 3893SOL    HW223142   2.648   0.180   8.822 -1.3701 -2.9029 -2.9631
 3894SOL     OW23143   4.229   1.405   6.349  0.2567  0.0571  0.5352
 3894SOL    HW123144   4.314   1.430   6.386  0.7846 -0.4690 -0.3493
 3894SOL    HW223145   4.207   1.337   6.413  0.7478 -0.1395  0.4936
 3895SOL     OW23146   3.732   2.102   6.491  0.2598  0.7469 -0.4122
 3895SOL    HW123147   3.690   2.029   6.445  0.9493  0.7906 -1.0990
 3895SOL    HW223148   3.678   2.174   6.457 -0.6098  0.5521  0.5472
 3896SOL     OW23149   0.971   4.417   4.711 -0.0879  0.0389 -0.3790
 3896SOL    HW123150   1.034   4.392   4.778 -1.8232 -0.2515  1.1605
 3896SOL    HW223151   0.895   4.419   4.770  0.0999 -2.5906 -0.0757
 3897SOL     OW23152   3.542   2.046   2.544  0.2526  0.7112 -0.0711
 3897SOL    HW123153   3.633   2.021   2.563 -0.2538 -2.1761 -1.4383
 3897SOL    HW223154   3.552   2.131   2.502  3.7618  0.3452  0.0206
 3898SOL     OW23155   4.447   3.855  13.456 -0.5622  0.1145 -0.5349
 3898SOL    HW123156   4.454   3.939  13.410  0.5628 -0.6863 -1.7789
 3898SOL    HW223157   4.520   3.806  13.420 -1.1539 -0.7506 -0.5718
 3899SOL     OW23158   0.805   4.080   4.740 -0.1412 -0.3479  0.4795
 3899SOL    HW123159   0.834   4.139   4.669 -1.5098  2.2686  2.0868
 3899SOL    HW223160   0.862   4.003   4.738  0.0686 -0.1232 -2.9280
 3900SOL     OW23161   1.211   0.506   5.388 -0.5272 -0.0012  0.6989
 3900SOL    HW123162   1.292   0.546   5.358 -1.7205  2.1830  0.3680
 3900SOL    HW223163   1.205   0.539   5.477 -1.4820  0.5186  0.4392
 3901SOL     OW23164   4.105   0.813   3.599 -0.5562 -0.1241 -0.0861
 3901SOL    HW123165   4.166   0.801   3.527  1.1287 -2.4824  1.7466
 3901SOL    HW223166   4.159   0.770   3.665  0.0342 -1.5338 -1.4960
 3902SOL     OW23167   1.189   1.859   4.637  0.6642 -0.4521 -0.4170
 3902SOL    HW123168   1.218   1.816   4.557  0.5162  0.5171 -0.9935
 3902SOL    HW223169   1.185   1.951   4.612  0.5209  0.2823  2.2959
 3903SOL     OW23170   2.233   4.539   0.344 -0.3465  0.3384  0.1802
 3903SOL    HW123171   2.184   4.476   0.397  1.1742 -0.4617  0.6066
 3903SOL    HW223172   2.225   4.507   0.254 -0.3834  2.1041 -0.4513
 3904SOL     OW23173   4.485   4.320  11.554  0.6188 -0.4707 -0.5231
 3904SOL    HW123174   4.423   4.286  11.620 -1.0534  1.7689 -0.9417
 3904SOL    HW223175   4.449   4.283  11.473  0.7886 -1.2692 -0.2409
 3905SOL     OW23176   3.473   1.591   2.623  0.4841  0.0813 -0.0927
 3905SOL    HW123177   3.403   1.596   2.558  0.2545  0.7795  0.2036
 3905SOL    HW223178   3.534   1.659   2.596  1.1010 -0.2387  0.4962
 3906SOL     OW23179   3.317   1.204   3.819  0.1180 -0.0129  0.0590
 3906SOL    HW123180   3.232   1.190   3.860  0.3568  0.3685  0.6846
 3906SOL    HW223181   3.290   1.153   3.743  1.1033 -2.7290  1.5486
 3907SOL     OW23182   4.044   1.362   0.895 -0.2525 -0.1906  0.2830
 3907SOL    HW123183   4.053   1.338   0.802 -1.1559  2.3435 -0.4685
 3907SOL    HW223184   4.125   1.324   0.929 -0.2270 -0.9307 -0.6139
 3908SOL     OW23185   0.414   4.014   8.426  0.0625 -0.0813  0.0160
 3908SOL    HW123186   0.436   4.005   8.334  1.3422 -1.4685  0.4576
 3908SOL    HW223187   0.439   3.926   8.454  0.5366  0.2402  0.6191
 3909SOL     OW23188   3.169   2.272  10.725  0.3571 -0.3239 -0.4058
 3909SOL    HW123189   3.111   2.202  10.695  0.8934 -0.3837 -1.2843
 3909SOL    HW223190   3.128   2.299  10.807 -0.2278  0.8752 -1.1007
 3910SOL     OW23191   3.619   0.104   0.456  0.6632  0.1937  0.0586
 3910SOL    HW123192   3.668   0.171   0.408  0.3717  0.9526  0.8265
 3910SOL    HW223193   3.679   0.100   0.530  0.2572  2.4717  0.4927
 3911SOL     OW23194   0.573   0.854   2.872 -0.7508 -0.3335  0.1384
 3911SOL    HW123195   0.570   0.920   2.941 -0.7728  0.2580 -0.4328
 3911SOL    HW223196   0.644   0.795   2.897 -0.6154  0.4364  1.5439
 3912SOL     OW23197   2.657   3.633   2.591  0.1413  0.0772  0.4761
 3912SOL    HW123198   2.634   3.677   2.509  0.2035 -1.2835 -0.2597
 3912SOL    HW223199   2.752   3.636   2.579 -0.0515 -1.0165 -1.2922
 3913SOL     OW23200   3.169   4.462   6.892 -0.4629 -0.1586  0.0817
 3913SOL    HW123201   3.264   4.468   6.893 -0.4272 -1.8122  4.3551
 3913SOL    HW223202   3.142   4.490   6.804  0.6472  0.6285 -0.0093
 3914SOL     OW23203   2.107   3.232   5.019 -0.1707 -0.1251  0.4503
 3914SOL    HW123204   2.184   3.209   4.967  0.7273  1.2498  1.1770
 3914SOL    HW223205   2.037   3.220   4.955  1.6787  0.8927 -1.7458
 3915SOL     OW23206   3.061   1.934   8.266  1.3737  0.3959 -0.0885
 3915SOL    HW123207   3.080   1.929   8.360 -0.5301 -1.3390  0.2058
 3915SOL    HW223208   3.120   1.866   8.233 -0.3201 -0.5872 -1.0739
 3916SOL     OW23209   0.544   1.439   6.832  0.0787  0.3792 -0.2454
 3916SOL    HW123210   0.556   1.365   6.891 -0.5664  0.5523  0.0998
 3916SOL    HW223211   0.497   1.507   6.880 -3.7810 -1.5512 -1.3290
 3917SOL     OW23212   0.505   1.255   7.897  0.6689 -0.0421 -0.2538
 3917SOL    HW123213   0.600   1.240   7.901  0.6541 -0.0250  0.2693
 3917SOL    HW223214   0.493   1.258   7.803  3.4377  0.5400 -0.6072
 3918SOL     OW23215   4.308   0.287  11.365  0.1070 -0.1457 -0.4258
 3918SOL    HW123216   4.315   0.350  11.293 -0.6871 -1.4097 -1.6150
 3918SOL    HW223217   4.373   0.219  11.343  1.0871  1.3570 -2.2250
 3919SOL     OW23218   2.952   3.192   1.774 -0.3278  0.5377  0.1848
 3919SOL    HW123219   2.918   3.226   1.691 -1.3268 -1.1366 -0.1028
 3919SOL    HW223220   2.900   3.233   1.842 -1.0282 -2.3298  1.3969
 3920SOL     OW23221   4.471   0.897   3.651  0.1219  0.1774 -0.5342
 3920SOL    HW123222   4.526   0.949   3.709  2.5205 -2.5755 -0.3414
 3920SOL    HW223223   4.411   0.964   3.619  0.6775  0.2866 -1.3383
 3921SOL     OW23224   2.295   2.872  10.227 -0.4230 -0.0341 -0.0839
 3921SOL    HW123225   2.284   2.838  10.315 -0.2584  0.4559  0.1254
 3921SOL    HW223226   2.383   2.908  10.239 -0.1469 -0.5200 -0.6161
 3922SOL     OW23227   4.148   4.266  13.347  0.4473  0.8906 -0.3360
 3922SOL    HW123228   4.193   4.196  13.300 -1.7155 -1.0288  0.4566
 3922SOL    HW223229   4.126   4.332  13.282  0.5595  1.3492  0.0910
 3923SOL     OW23230   0.060   3.512   2.159  0.3088  0.4982 -0.9066
 3923SOL    HW123231   4.688   3.510   2.147  0.4324  1.3551 -2.0154
 3923SOL    HW223232   0.093   3.527   2.070  0.6536  1.1081 -0.6765
 3924SOL     OW23233   0.230   3.801  14.884 -0.6072  0.2828  0.6791
 3924SOL    HW123234   0.231   3.724  14.941 -2.0508  0.1476  0.5245
 3924SOL    HW223235   0.270   3.869  14.938  1.5635  0.7315 -1.4994
 3925SOL     OW23236   1.625   3.770   1.081  0.1101 -0.8335 -0.4597
 3925SOL    HW123237   1.558   3.719   1.128  1.2118 -1.3866  0.4968
 3925SOL    HW223238   1.577   3.849   1.058  0.3825  0.1167  2.2090
 3926SOL     OW23239   4.611   3.548   0.109  0.4882 -0.1810 -0.0552
 3926SOL    HW123240   4.674   3.582   0.046  0.3428  4.2270  2.1918
 3926SOL    HW223241   4.604   3.463   0.066  0.2974 -0.4799  0.5622
 3927SOL     OW23242   1.770   2.358   5.503 -0.3283 -0.3838 -0.3637
 3927SOL    HW123243   1.805   2.332   5.588 -0.3922 -0.4937 -0.3713
 3927SOL    HW223244   1.843   2.412   5.475 -1.1685  1.0999  0.2828
 3928SOL     OW23245   2.508   1.671  13.809 -0.1331  0.4680 -0.2276
 3928SOL    HW123246   2.569   1.686  13.881 -1.7438  0.9950  1.0355
 3928SOL    HW223247   2.452   1.626  13.873 -1.7164 -1.1860 -2.7654
 3929SOL     OW23248   0.819   1.863   7.678 -0.3229  0.1480  0.0595
 3929SOL    HW123249   0.898   1.818   7.709  0.4959  1.1940 -0.5099
 3929SOL    HW223250   0.789   1.800   7.612 -0.5595 -0.1455  0.4480
 3930SOL     OW23251   0.695   0.295   6.778 -0.1660  0.2317  0.7744
 3930SOL    HW123252   0.687   0.209   6.737  2.9504 -0.6036  1.9132
 3930SOL    HW223253   0.764   0.273   6.841  1.1126 -0.2491 -0.7843
 3931SOL     OW23254   2.440   3.444   5.234  0.5626 -0.4712  0.1544
 3931SOL    HW123255   2.413   3.427   5.324  0.6661 -1.8606 -0.0761
 3931SOL    HW223256   2.362   3.426   5.181  0.2374  2.5822 -0.4241
 3932SOL     OW23257   2.399   4.248   8.395  0.3101 -0.1783 -0.1209
 3932SOL    HW123258   2.341   4.258   8.320 -0.0939 -0.9022  0.0921
 3932SOL    HW223259   2.335   4.238   8.466 -0.7578 -0.8658 -1.1925
 3933SOL     OW23260   2.223   2.587   2.120 -0.6031  0.3473 -0.4454
 3933SOL    HW123261   2.251   2.496   2.111  2.9110  1.4295 -0.6090
 3933SOL    HW223262   2.248   2.601   2.211 -0.2461 -1.8533 -0.2122
 3934SOL     OW23263   2.171   0.303   4.679 -0.4449 -0.2001 -0.1493
 3934SOL    HW123264   2.214   0.234   4.731 -1.6214  0.7200  2.0261
 3934SOL    HW223265   2.089   0.301   4.728 -0.2077 -1.9884  0.2095
 3935SOL     OW23266   3.966   0.566   0.292 -0.5838  0.0089 -0.1882
 3935SOL    HW123267   3.876   0.594   0.273 -1.2005 -2.2829 -0.6129
 3935SOL    HW223268   4.016   0.564   0.211 -0.8297  0.9857 -0.3676
 3936SOL     OW23269   3.125   1.037  12.156 -0.2793 -0.2188 -0.2390
 3936SOL    HW123270   3.043   1.058  12.112 -1.2381 -2.9094  0.2761
 3936SOL    HW223271   3.174   1.016  12.076 -2.9897  1.6923 -2.3783
 3937SOL     OW23272   4.008   4.058  11.505 -0.5526 -0.6053 -0.1019
 3937SOL    HW123273   4.087   4.005  11.517  0.3682  0.6013 -0.8919
 3937SOL    HW223274   4.039   4.148  11.493  0.3145 -0.3411  4.0427
 3938SOL     OW23275   0.857   3.843   8.895  0.0211 -0.9381  0.0897
 3938SOL    HW123276   0.944   3.805   8.905  0.1617 -0.5005  0.5109
 3938SOL    HW223277   0.849   3.909   8.964  1.1688  0.0104 -0.6748
 3939SOL     OW23278   4.344   1.406   3.357  0.2669 -0.1058 -0.0022
 3939SOL    HW123279   4.310   1.387   3.270  1.4134 -1.9398 -0.0454
 3939SOL    HW223280   4.316   1.493   3.387 -1.7827 -0.4176 -1.0241
 3940SOL     OW23281   0.713   2.489   1.223  0.3947 -0.7120  0.3208
 3940SOL    HW123282   0.679   2.470   1.310  0.7357  2.2710  1.0985
 3940SOL    HW223283   0.710   2.584   1.231 -0.8591 -0.4800 -2.7182
 3941SOL     OW23284   3.005   0.190   3.275  1.1080 -0.3930  0.5789
 3941SOL    HW123285   3.078   0.252   3.280 -0.3674  1.2645  1.6056
 3941SOL    HW223286   2.979   0.184   3.367  0.4863 -1.4031  0.3326
 3942SOL     OW23287   0.174   2.943   4.494  0.8698 -0.4698 -0.3688
 3942SOL    HW123288   0.103   3.006   4.508  0.9634 -0.8775  1.9447
 3942SOL    HW223289   0.161   2.885   4.569 -0.4909 -0.7748 -0.8319
 3943SOL     OW23290   0.750   4.427   2.999 -0.4564  0.7491  0.4554
 3943SOL    HW123291   0.743   4.473   3.083  1.2539 -0.3068  1.1795
 3943SOL    HW223292   0.832   4.384   3.021 -1.3191  0.0274  2.2707
 3944SOL     OW23293   0.911   1.998   4.847  0.1853  0.6110  0.8449
 3944SOL    HW123294   0.820   1.968   4.844  0.1386  0.6181  2.0133
 3944SOL    HW223295   0.938   2.012   4.757 -0.3039 -0.2167  0.5641
 3945SOL     OW23296   1.759   4.091  10.548 -0.3285 -0.3404 -0.8972
 3945SOL    HW123297   1.709   4.148  10.490 -2.3857 -1.4549 -0.2254
 3945SOL    HW223298   1.736   4.130  10.632  1.8355  1.3164 -1.0748
 3946SOL     OW23299   1.759   1.652   6.677  0.1806 -0.6935  0.4591
 3946SOL    HW123300   1.745   1.719   6.745 -1.8161 -3.6171  2.9428
 3946SOL    HW223301   1.762   1.569   6.725 -1.0656 -1.1185 -0.2032
 3947SOL     OW23302   3.064   4.691   2.250 -0.1506  0.1589  0.5865
 3947SOL    HW123303   3.039   4.672   2.160 -1.4784  1.0552  0.7612
 3947SOL    HW223304   3.101   4.605   2.269 -0.9073 -0.1885  0.5066
 3948SOL     OW23305   3.830   0.964   1.833  0.4525 -0.2702 -0.3053
 3948SOL    HW123306   3.823   1.031   1.901  2.5047 -0.6947  0.3374
 3948SOL    HW223307   3.890   0.997   1.765  1.5372 -0.7020  0.4346
 3949SOL     OW23308   0.593   4.040   4.467 -0.0594 -0.2780  0.1281
 3949SOL    HW123309   0.516   3.991   4.438  0.0639  0.2748 -1.1446
 3949SOL    HW223310   0.558   4.046   4.556  2.0625  1.1556  0.8552
 3950SOL     OW23311   2.712   2.069   9.076  0.8614 -0.2328 -0.5535
 3950SOL    HW123312   2.765   2.122   9.135 -2.2741  1.6714  0.5449
 3950SOL    HW223313   2.623   2.081   9.108  0.7901  1.1808 -1.2591
 3951SOL     OW23314   0.577   2.195   7.731  0.2245  0.1577  0.0365
 3951SOL    HW123315   0.495   2.158   7.762 -0.6965  2.0388 -0.1715
 3951SOL    HW223316   0.631   2.201   7.810  1.9683 -3.1271 -0.8859
 3952SOL     OW23317   4.709   3.046   1.517  0.4789 -0.7958  0.0006
 3952SOL    HW123318   4.700   3.098   1.437 -1.3810 -1.9620 -0.5528
 3952SOL    HW223319   0.039   2.968   1.498  0.3990 -1.1288  1.1455
 3953SOL     OW23320   2.618   4.723   7.545  0.2479  0.3527  0.6143
 3953SOL    HW123321   2.616   0.093   7.565  0.0475  0.7316 -1.1536
 3953SOL    HW223322   2.524   4.704   7.543  0.2124  0.3027  2.3876
 3954SOL     OW23323   4.017   4.309   2.151  0.0871  0.1382 -0.1357
 3954SOL    HW123324   4.049   4.305   2.060  1.2225 -3.6688  0.4349
 3954SOL    HW223325   4.065   4.390   2.171 -1.1471  1.5022 -2.7331
 3955SOL     OW23326   3.884   0.962   8.900 -0.7051 -0.1992  0.1731
 3955SOL    HW123327   3.881   0.873   8.936 -2.3163 -0.0584  0.3992
 3955SOL    HW223328   3.794   0.975   8.873 -1.4801 -2.5037  1.5985
 3956SOL     OW23329   1.634   0.679   8.663  0.0613 -0.2700  0.1442
 3956SOL    HW123330   1.724   0.684   8.695  0.9143 -0.4283 -2.1917
 3956SOL    HW223331   1.627   0.765   8.623  0.3250  0.1159  0.9237
 3957SOL     OW23332   1.267   0.330   8.035 -0.2564  0.3932  0.0373
 3957SOL    HW123333   1.299   0.289   7.955  2.1706 -0.1233  1.2900
 3957SOL    HW223334   1.342   0.382   8.064  1.4086 -1.1502 -1.5106
 3958SOL     OW23335   2.657   2.348   4.019  0.6068 -0.2567  0.0071
 3958SOL    HW123336   2.739   2.315   3.982 -0.4064  0.0541 -2.5244
 3958SOL    HW223337   2.628   2.404   3.947  1.4564 -0.1295 -0.2364
 3959SOL     OW23338   3.446   1.523  13.328 -0.2127 -0.0758 -0.5641
 3959SOL    HW123339   3.492   1.451  13.286  0.9216 -0.2315  0.9487
 3959SOL    HW223340   3.422   1.500  13.417 -1.5117 -3.3455 -1.7592
 3960SOL     OW23341   0.056   0.904  15.214  0.3696  0.1640 -0.3231
 3960SOL    HW123342   0.142   0.943  15.230  0.0246 -0.2327  2.3780
 3960SOL    HW223343   0.071   0.843  15.286  0.0198  1.9797  1.2835
 3961SOL     OW23344   1.952   3.162   7.876 -0.0311  0.3579 -0.1727
 3961SOL    HW123345   1.961   3.233   7.812 -1.1807  0.6875  0.0362
 3961SOL    HW223346   2.046   3.145   7.871  0.1516  0.4677  2.7636
 3962SOL     OW23347   1.290   1.325  12.822 -0.4198  0.2562 -0.2681
 3962SOL    HW123348   1.273   1.362  12.735  0.0455 -0.4033 -0.6357
 3962SOL    HW223349   1.231   1.250  12.829  0.8518 -0.9110 -2.0683
 3963SOL     OW23350   2.455   3.683   1.461  0.3698  0.1782  0.6507
 3963SOL    HW123351   2.536   3.636   1.479  0.1574 -0.1205  0.8154
 3963SOL    HW223352   2.405   3.691   1.542  0.0385 -0.9583  0.5595
 3964SOL     OW23353   0.320   2.991   9.513 -0.7544  0.5942 -0.0146
 3964SOL    HW123354   0.351   3.044   9.586 -1.1623  0.2135  0.4376
 3964SOL    HW223355   0.317   2.904   9.554 -2.1438  1.0291  0.7791
 3965SOL     OW23356   0.680   0.913   7.374  0.3043 -0.1446 -0.7062
 3965SOL    HW123357   0.732   0.854   7.430 -1.2975  0.1924  1.1186
 3965SOL    HW223358   0.710   1.001   7.395  0.6444 -0.6924  1.1037
 3966SOL     OW23359   3.788   1.016   8.516  0.5597  0.1193  0.2260
 3966SOL    HW123360   3.852   0.967   8.568 -1.6281 -1.3614  1.5348
 3966SOL    HW223361   3.741   0.945   8.473 -0.1521 -0.1419  1.4517
 3967SOL     OW23362   1.705   0.813  14.693  0.3126  0.3174  0.3456
 3967SOL    HW123363   1.725   0.719  14.689  2.3525  0.6337  3.3733
 3967SOL    HW223364   1.636   0.812  14.627  0.0808  1.5142  0.5801
 3968SOL     OW23365   3.703   1.896   2.185  0.3847 -0.1541  0.5093
 3968SOL    HW123366   3.742   1.853   2.109  0.8597 -0.1857  0.7709
 3968SOL    HW223367   3.778   1.910   2.243  1.3190  0.4757 -0.8443
 3969SOL     OW23368   4.611   4.002   8.620 -0.4888 -0.3395 -0.2022
 3969SOL    HW123369   4.592   4.050   8.701  3.3145  3.1479 -1.4349
 3969SOL    HW223370   4.550   4.048   8.561 -1.8454 -0.7838  0.8522
 3970SOL     OW23371   0.477   4.101   5.082  0.1014 -0.5046 -0.4459
 3970SOL    HW123372   0.558   4.110   5.032  1.9942 -0.7516  2.5741
 3970SOL    HW223373   0.441   4.188   5.067  0.5926 -0.3895 -0.9694
 3971SOL     OW23374   1.012   2.143   8.847 -0.4281  0.3991  0.2351
 3971SOL    HW123375   0.959   2.192   8.784  0.4879  0.7069 -0.2930
 3971SOL    HW223376   1.033   2.064   8.797 -0.1091  0.7843 -0.2453
 3972SOL     OW23377   1.813   0.604   2.909  0.1927  0.2568  0.2449
 3972SOL    HW123378   1.815   0.646   2.995 -2.9335  0.7644  0.0433
 3972SOL    HW223379   1.879   0.662   2.870  0.0538 -0.0656 -0.4762
 3973SOL     OW23380   0.937   3.211   9.014  0.3086  0.1607 -0.2451
 3973SOL    HW123381   0.900   3.272   9.078  1.3366 -0.5357  1.0159
 3973SOL    HW223382   0.863   3.156   8.990  1.7928 -1.4918 -1.0216
 3974SOL     OW23383   1.665   4.386   8.352 -0.6808 -0.0907  0.0069
 3974SOL    HW123384   1.723   4.419   8.420 -0.9832 -0.1159  0.2803
 3974SOL    HW223385   1.592   4.447   8.358 -2.1934 -2.0475  1.6507
 3975SOL     OW23386   2.993   4.066   6.179 -0.5217  0.3364  0.1805
 3975SOL    HW123387   3.084   4.088   6.196 -0.4153 -1.6792  2.3125
 3975SOL    HW223388   2.959   4.150   6.147  1.7081  1.4523  0.7357
 3976SOL     OW23389   0.730   4.238   2.107  0.1686 -0.1868 -0.0831
 3976SOL    HW123390   0.766   4.326   2.097  0.2520 -0.1592  0.4751
 3976SOL    HW223391   0.774   4.198   2.032  0.2990 -1.5229  0.7120
 3977SOL     OW23392   3.606   1.913   6.352  0.0193  0.5427 -0.1745
 3977SOL    HW123393   3.591   1.830   6.307 -1.2382  0.8256 -0.2794
 3977SOL    HW223394   3.532   1.964   6.317 -0.8254  0.9971  2.2787
 3978SOL     OW23395   3.035   1.502   7.366  0.0048 -0.1801 -0.4558
 3978SOL    HW123396   3.040   1.407   7.380 -0.8125 -0.0562  0.6919
 3978SOL    HW223397   3.052   1.503   7.272  2.6584 -0.3052  0.0083
 3979SOL     OW23398   1.612   2.762   5.571  0.4516  0.0522  0.5553
 3979SOL    HW123399   1.629   2.725   5.485 -0.2786  0.3677  0.2742
 3979SOL    HW223400   1.544   2.704   5.605 -1.4272  1.5955 -0.5413
 3980SOL     OW23401   2.382   2.415   7.492 -0.3375 -0.4778 -0.0422
 3980SOL    HW123402   2.297   2.401   7.534 -1.0311 -0.3539 -1.3815
 3980SOL    HW223403   2.435   2.354   7.542  1.8726 -0.6631 -2.6026
 3981SOL     OW23404   0.341   0.474   7.605  0.9599 -0.0585  0.2416
 3981SOL    HW123405   0.423   0.476   7.655  0.3166  0.5579  1.2729
 3981SOL    HW223406   0.366   0.489   7.513 -1.5991 -0.5521 -0.5484
 3982SOL     OW23407   4.454   1.728  16.872 -0.2155 -0.0196  0.1737
 3982SOL    HW123408   4.483   1.779  16.797 -0.6863 -1.2961 -0.8708
 3982SOL    HW223409   4.369   1.699  16.839  0.1817 -1.0891  0.1073
 3983SOL     OW23410   2.213   3.892   1.745  0.3057  0.1490  0.1367
 3983SOL    HW123411   2.218   3.797   1.734  0.6838  0.4752 -2.7084
 3983SOL    HW223412   2.306   3.914   1.744 -0.5304  3.5805 -2.4220
 3984SOL     OW23413   3.440   3.348   4.949  0.5656  0.5704 -0.4935
 3984SOL    HW123414   3.407   3.371   5.036  2.4527  1.0474  0.1020
 3984SOL    HW223415   3.376   3.392   4.893 -1.0674  0.4356  1.2662
 3985SOL     OW23416   3.794   2.337   7.159 -0.6975  0.0262 -0.1839
 3985SOL    HW123417   3.734   2.400   7.199  0.8093  1.9704 -0.9377
 3985SOL    HW223418   3.741   2.302   7.088 -1.0969  0.6475 -0.1936
 3986SOL     OW23419   1.412   4.705   9.168 -0.9096  0.0577  0.5910
 3986SOL    HW123420   1.424   0.062   9.220 -0.5034  1.6140 -1.8686
 3986SOL    HW223421   1.350   4.651   9.217 -0.3867  1.6588  3.0195
 3987SOL     OW23422   1.189   2.421   6.734  0.5572 -0.0002  0.1151
 3987SOL    HW123423   1.128   2.349   6.749  1.2311 -0.4578  0.6800
 3987SOL    HW223424   1.272   2.382   6.760 -0.5917 -2.5003  0.0202
 3988SOL     OW23425   2.296   1.398   6.323  0.3874 -0.0873  0.1125
 3988SOL    HW123426   2.367   1.333   6.320  0.4564  0.0423 -1.0972
 3988SOL    HW223427   2.244   1.348   6.385  1.7718 -2.2494 -0.4494
 3989SOL     OW23428   4.011   3.168   2.297  0.2702 -0.3774 -0.6159
 3989SOL    HW123429   4.049   3.253   2.276 -1.4605  0.3568 -0.7981
 3989SOL    HW223430   3.955   3.162   2.220 -1.2607  0.9829  0.3900
 3990SOL     OW23431   0.822   0.423   4.670  0.5959  0.1418  0.1593
 3990SOL    HW123432   0.767   0.345   4.664 -0.6621  1.1094 -0.9945
 3990SOL    HW223433   0.857   0.424   4.581 -1.0611  0.1034 -0.4817
 3991SOL     OW23434   3.150   4.488  12.955 -0.1714 -0.3739  0.4665
 3991SOL    HW123435   3.215   4.496  13.025  0.3992  1.9558 -0.3033
 3991SOL    HW223436   3.111   4.575  12.960 -1.3719 -0.8817 -0.2347
 3992SOL     OW23437   0.003   4.342   2.611 -0.1472 -0.0115  0.0335
 3992SOL    HW123438   4.695   4.255   2.587  1.0322 -0.4705  0.1721
 3992SOL    HW223439   0.051   4.368   2.532 -2.1542 -0.0495 -1.2093
 3993SOL     OW23440   3.018   3.460   8.786 -0.2845 -0.4678 -0.4700
 3993SOL    HW123441   3.089   3.421   8.735 -2.0433 -1.8625 -1.8682
 3993SOL    HW223442   2.961   3.383   8.788 -0.0311 -0.7026 -2.0145
 3994SOL     OW23443   2.661   2.506   8.453  0.1154 -0.1828  0.5902
 3994SOL    HW123444   2.570   2.515   8.478 -0.6033 -2.5134 -1.1285
 3994SOL    HW223445   2.715   2.541   8.524 -1.5551  2.8392  0.3598
 3995SOL     OW23446   4.444   0.787   4.358  0.3352  0.1664  0.3364
 3995SOL    HW123447   4.421   0.879   4.343 -0.3850  0.4492  3.0363
 3995SOL    HW223448   4.494   0.795   4.440  0.4677  0.9987  0.1728
 3996SOL     OW23449   0.213   4.292   6.771  0.0122 -0.3242  0.3424
 3996SOL    HW123450   0.145   4.241   6.727 -0.8164  0.4897  0.6763
 3996SOL    HW223451   0.261   4.225   6.821 -0.1800 -0.1600  0.7522
 3997SOL     OW23452   0.302   0.700   4.286  0.0160  0.2513  0.0942
 3997SOL    HW123453   0.283   0.606   4.289  1.3511  0.0398  1.5239
 3997SOL    HW223454   0.245   0.735   4.354  0.2585  1.7691 -0.4937
 3998SOL     OW23455   2.947   0.389   5.626 -0.4740  0.0939  0.4138
 3998SOL    HW123456   2.892   0.367   5.701  0.2900 -0.5537  0.7807
 3998SOL    HW223457   2.961   0.477   5.661 -1.1322 -0.3057  1.6972
 3999SOL     OW23458   0.649   0.755  12.999  0.0963  0.8638  0.2569
 3999SOL    HW123459   0.653   0.832  12.942  1.3828  1.1183  0.6767
 3999SOL    HW223460   0.620   0.790  13.083  0.2791  0.0986  0.6379
 4000SOL     OW23461   4.544   3.475   7.604 -0.6992  0.5156  0.6796
 4000SOL    HW123462   4.637   3.485   7.622 -0.7580  0.1837  1.1549
 4000SOL    HW223463   4.552   3.544   7.538  0.9295  0.5683  0.9359
 4001SOL     OW23464   3.959   0.780   0.064 -0.2437  0.6645 -0.2284
 4001SOL    HW123465   3.874   0.737   0.066  0.7876 -1.3883 -0.0374
 4001SOL    HW223466   4.006   0.718   0.008  0.9287  0.4675  0.9593
 4002SOL     OW23467   3.522   4.388   2.691  0.0346 -0.2779  0.5346
 4002SOL    HW123468   3.477   4.462   2.731 -1.9007 -2.1889  1.8918
 4002SOL    HW223469   3.564   4.346   2.766 -0.7433  0.9859  1.6779
 4003SOL     OW23470   2.498   2.127   9.215  0.5270 -0.4527  0.0690
 4003SOL    HW123471   2.498   2.037   9.247  1.3115  0.0868  1.6075
 4003SOL    HW223472   2.408   2.152   9.235  0.6768  0.8510 -0.8646
 4004SOL     OW23473   2.779   3.344   7.001 -0.2642 -0.2269 -0.2985
 4004SOL    HW123474   2.810   3.289   7.073  0.3963  0.0313 -0.3898
 4004SOL    HW223475   2.799   3.434   7.025 -0.2793  0.2524 -2.1204
 4005SOL     OW23476   2.235   2.708   2.863 -0.2465  0.0811  0.0281
 4005SOL    HW123477   2.183   2.781   2.832  0.4325  0.8868  0.7765
 4005SOL    HW223478   2.171   2.649   2.903 -1.0001 -0.1172 -1.4746
 4006SOL     OW23479   0.492   4.360   3.815 -0.3852 -0.0395  0.3879
 4006SOL    HW123480   0.492   4.403   3.901 -0.8726  2.6508 -0.9557
 4006SOL    HW223481   0.422   4.295   3.826 -1.1670  0.5960 -0.9024
 4007SOL     OW23482   0.833   1.999  12.766 -0.4650  0.1615 -0.5985
 4007SOL    HW123483   0.909   1.992  12.824  1.1721  2.0982 -2.4883
 4007SOL    HW223484   0.779   1.930  12.804  3.1061 -1.2395  1.8899
 4008SOL     OW23485   1.630   0.414   1.651 -0.4378 -0.2225  0.0892
 4008SOL    HW123486   1.693   0.431   1.582 -1.1652  1.0033 -0.2744
 4008SOL    HW223487   1.629   0.318   1.652  1.5086 -0.2284  0.7432
 4009SOL     OW23488   3.323   2.716  14.731 -0.5248  0.1728  0.1849
 4009SOL    HW123489   3.237   2.702  14.770 -0.7103  1.5972  0.2810
 4009SOL    HW223490   3.323   2.638  14.676 -2.6771 -0.0959  0.5766
 4010SOL     OW23491   1.444   3.058   1.143  0.1306  0.5588  0.1094
 4010SOL    HW123492   1.362   3.090   1.106  0.3457  1.5866  0.5054
 4010SOL    HW223493   1.513   3.108   1.099  0.9166 -1.7357 -1.2576
 4011SOL     OW23494   1.616   1.020  15.552  0.4847  0.0723  0.2265
 4011SOL    HW123495   1.657   0.965  15.486 -1.0444 -2.6753  1.5511
 4011SOL    HW223496   1.701   1.052  15.581  0.5207 -0.5138  0.7760
 4012SOL     OW23497   0.806   2.280   7.278  0.1851 -0.7566  0.5013
 4012SOL    HW123498   0.717   2.244   7.286 -0.3185  0.7757  1.6863
 4012SOL    HW223499   0.854   2.197   7.282  1.2419 -0.1718 -0.1768
 4013SOL     OW23500   1.485   4.087   6.294 -0.0576  0.0598 -0.5260
 4013SOL    HW123501   1.545   4.160   6.278  2.2080 -1.1047  2.7195
 4013SOL    HW223502   1.542   4.034   6.350  2.1721  2.3442 -0.6167
 4014SOL     OW23503   0.994   2.008   7.019 -0.3704  0.7886  0.5451
 4014SOL    HW123504   0.912   1.960   7.028 -0.5196  0.8467 -0.4273
 4014SOL    HW223505   1.036   1.974   6.940  0.8273  0.9922  1.0995
 4015SOL     OW23506   3.457   1.417   1.436 -0.4249  0.2403  0.1894
 4015SOL    HW123507   3.460   1.475   1.360  1.9497 -0.5556 -0.3402
 4015SOL    HW223508   3.489   1.340   1.389  1.4117  2.8390 -2.8111
 4016SOL     OW23509   1.234   2.603   3.116 -0.4090 -0.5433  0.0921
 4016SOL    HW123510   1.317   2.632   3.079 -0.9700  1.9704  0.7754
 4016SOL    HW223511   1.252   2.509   3.121  1.3151 -0.2051  0.2586
 4017SOL     OW23512   1.088   2.791   1.260 -0.1856 -0.2850  0.7108
 4017SOL    HW123513   1.103   2.859   1.195  1.2171 -0.9866  0.2827
 4017SOL    HW223514   1.168   2.746   1.231  0.8829  0.8412  1.8968
 4018SOL     OW23515   3.381   2.722   8.734 -0.3950 -0.2238  0.0612
 4018SOL    HW123516   3.330   2.757   8.661  1.0281  0.0848 -0.7735
 4018SOL    HW223517   3.340   2.636   8.747 -2.1461  0.5282 -0.5841
 4019SOL     OW23518   4.682   1.097  13.720  0.4793  0.3734 -0.5887
 4019SOL    HW123519   4.673   1.067  13.630 -1.1313 -1.6005  0.2345
 4019SOL    HW223520   4.603   1.149  13.732  0.7760  0.7896 -0.4529
 4020SOL     OW23521   1.393   0.153   7.319  0.5512 -0.2279 -0.0541
 4020SOL    HW123522   1.406   0.238   7.362 -1.0746  0.0995 -0.2247
 4020SOL    HW223523   1.436   0.166   7.234  1.1792  0.9292  0.4385
 4021SOL     OW23524   1.865   3.463   5.006  0.4266  0.4826  0.8311
 4021SOL    HW123525   1.838   3.533   4.948 -2.6854 -0.3887  1.2043
 4021SOL    HW223526   1.881   3.394   4.941 -2.1535 -1.5725  2.3670
 4022SOL     OW23527   0.478   1.121   4.371 -0.6569 -0.0770 -0.0224
 4022SOL    HW123528   0.392   1.151   4.342  0.8677  0.8702 -3.5779
 4022SOL    HW223529   0.498   1.193   4.431  0.0224  1.0140 -1.5743
 4023SOL     OW23530   1.504   2.956  15.794 -0.1717  0.0786 -0.1024
 4023SOL    HW123531   1.596   2.941  15.819  0.4899 -2.4346 -4.1539
 4023SOL    HW223532   1.511   3.020  15.723 -1.1926  0.7391  0.3868
 4024SOL     OW23533   1.088   1.027  16.702 -0.1615  0.0162  0.3814
 4024SOL    HW123534   1.111   1.060  16.789  0.7492 -0.2569  0.2448
 4024SOL    HW223535   1.058   1.102  16.649  0.3899  0.4583  0.6900
 4025SOL     OW23536   3.499   1.915   5.740  0.5152 -1.1230  0.7169
 4025SOL    HW123537   3.421   1.960   5.708  0.1390 -0.2055  2.9209
 4025SOL    HW223538   3.461   1.828   5.725  1.4174 -1.7272  1.8537
 4026SOL     OW23539   2.173   0.720   2.608 -0.5275  0.6712 -0.3622
 4026SOL    HW123540   2.150   0.662   2.535  1.0230 -1.5737  0.9367
 4026SOL    HW223541   2.268   0.705   2.613 -0.4885  0.5452 -1.4774
 4027SOL     OW23542   2.867   3.211   9.092 -0.7749  0.3192  0.2589
 4027SOL    HW123543   2.771   3.212   9.098 -0.6377 -0.3060  2.3557
 4027SOL    HW223544   2.886   3.160   9.013  1.4608  0.8137  0.5041
 4028SOL     OW23545   3.386   0.228   4.341  0.6007 -0.7464 -0.2959
 4028SOL    HW123546   3.458   0.286   4.365  0.2360  0.5647 -2.4208
 4028SOL    HW223547   3.433   0.145   4.332  0.9559 -0.5416 -0.3426
 4029SOL     OW23548   4.659   0.253   2.659  0.3971 -0.1845  0.8140
 4029SOL    HW123549   4.694   0.207   2.583  0.7888  1.2812  0.1126
 4029SOL    HW223550   4.634   0.178   2.714 -0.9264 -0.5461 -0.2776
 4030SOL     OW23551   2.295   2.913   3.673  0.1250  0.0775  0.5790
 4030SOL    HW123552   2.316   2.896   3.581  0.6607  1.1651  0.4942
 4030SOL    HW223553   2.343   2.996   3.684 -0.1704  0.3348 -0.1014
 4031SOL     OW23554   2.868   0.579  17.540  0.2381  0.0520 -0.1999
 4031SOL    HW123555   2.800   0.544  17.482  0.1877 -2.3113  1.2784
 4031SOL    HW223556   2.830   0.563  17.626 -0.6326 -0.5789 -0.7010
 4032SOL     OW23557   1.373   1.007   7.274  0.0738 -0.0454  0.0055
 4032SOL    HW123558   1.409   1.076   7.217  0.1684 -0.2618 -0.1980
 4032SOL    HW223559   1.281   1.033   7.283  0.0492  0.4176 -1.4669
 4033SOL     OW23560   4.413   0.537  15.548  0.4291  0.4448 -0.0353
 4033SOL    HW123561   4.454   0.614  15.588  1.1936  0.4920 -0.9011
 4033SOL    HW223562   4.433   0.561  15.457 -1.6286 -1.9875 -1.1243
 4034SOL     OW23563   2.587   1.865   6.830  0.2390  0.4305  0.0391
 4034SOL    HW123564   2.600   1.841   6.738 -0.2552  1.7720 -0.3754
 4034SOL    HW223565   2.675   1.890   6.861  0.2531  1.8092 -1.0971
 4035SOL     OW23566   3.769   0.595  11.678  0.1023 -0.6408 -0.1924
 4035SOL    HW123567   3.686   0.549  11.663  0.4413 -0.8595 -1.4254
 4035SOL    HW223568   3.811   0.556  11.754  1.2196 -0.0208 -0.4880
 4036SOL     OW23569   3.374   0.067   0.167  0.2591 -0.2018 -0.1647
 4036SOL    HW123570   3.355   0.160   0.164 -1.8424 -0.5842  1.2936
 4036SOL    HW223571   3.469   0.079   0.167  0.1263  0.8267 -2.5640
 4037SOL     OW23572   3.935   1.190  10.203  0.2110 -0.4594 -0.3580
 4037SOL    HW123573   4.001   1.235  10.255 -0.1453  0.5874 -0.8212
 4037SOL    HW223574   3.995   1.133  10.154  0.3986  0.1743 -0.8677
 4038SOL     OW23575   0.366   1.521   1.856  0.4417  0.2987 -0.0826
 4038SOL    HW123576   0.293   1.544   1.798 -0.5172 -1.2210  0.5301
 4038SOL    HW223577   0.326   1.550   1.937 -0.4150  0.1893 -0.4708
 4039SOL     OW23578   4.247   1.218   0.997  0.5145 -0.4086  0.1305
 4039SOL    HW123579   4.308   1.155   0.959 -1.4557 -1.1908 -1.7498
 4039SOL    HW223580   4.276   1.236   1.087 -0.0688  1.6835 -0.0949
 4040SOL     OW23581   4.065   2.295   6.480 -0.0520 -0.3575  0.4267
 4040SOL    HW123582   3.997   2.308   6.415 -1.1009  0.0899  1.6246
 4040SOL    HW223583   4.140   2.347   6.453 -0.9158  0.7844  0.2454
 4041SOL     OW23584   2.717   1.876  14.803 -0.1491  0.2068 -0.0512
 4041SOL    HW123585   2.713   1.786  14.836 -1.3731  0.9967  1.9502
 4041SOL    HW223586   2.710   1.927  14.883 -0.5937 -0.8117  0.5569
 4042SOL     OW23587   3.700   4.403   6.107 -0.4344 -0.4678 -0.0931
 4042SOL    HW123588   3.743   4.451   6.036  0.5773  0.3241  1.0509
 4042SOL    HW223589   3.624   4.365   6.062 -0.1530 -0.0898 -0.8896
 4043SOL     OW23590   3.353   0.990  16.244  0.2705 -0.4781  0.4193
 4043SOL    HW123591   3.270   0.968  16.203 -0.3125 -0.8208  1.7881
 4043SOL    HW223592   3.409   0.915  16.228 -0.3383 -1.2927  2.0976
 4044SOL     OW23593   0.115   3.452   7.590  0.3859 -0.0784 -0.4154
 4044SOL    HW123594   0.141   3.487   7.505  1.4242 -0.1482 -0.1328
 4044SOL    HW223595   0.163   3.507   7.652 -1.2129  0.8906 -0.0444
 4045SOL     OW23596   0.411   2.674  16.489 -0.0461  0.1312 -0.5196
 4045SOL    HW123597   0.440   2.724  16.565 -3.6009 -0.2423  1.0967
 4045SOL    HW223598   0.491   2.671  16.436  1.6771 -0.2618  2.0600
 4046SOL     OW23599   2.876   3.548  13.603  0.2268 -0.4643  0.0900
 4046SOL    HW123600   2.875   3.581  13.513 -0.3510  0.4689  0.4448
 4046SOL    HW223601   2.961   3.572  13.639  1.2940 -3.8611 -0.1117
 4047SOL     OW23602   1.798   2.445  16.263 -0.1362  0.2603  0.2071
 4047SOL    HW123603   1.873   2.460  16.320  0.1202 -0.7583  0.1281
 4047SOL    HW223604   1.820   2.353  16.250 -1.1397 -0.0780  0.9674
 4048SOL     OW23605   3.499   2.453   4.052  0.0422  0.6452 -0.1143
 4048SOL    HW123606   3.542   2.538   4.057  0.1551  0.6716 -1.4668
 4048SOL    HW223607   3.571   2.409   4.007 -1.8115 -1.8614 -0.6647
 4049SOL     OW23608   0.143   3.985  17.566 -0.1879 -0.6614  0.0425
 4049SOL    HW123609   0.191   3.902  17.571 -0.9864 -1.2402 -1.6738
 4049SOL    HW223610   0.127   3.986  17.471  0.8503  1.2074 -0.1108
 4050SOL     OW23611   3.676   0.530   5.516  0.5876  0.7621  0.1360
 4050SOL    HW123612   3.690   0.571   5.601 -1.8978 -2.4342  2.0878
 4050SOL    HW223613   3.647   0.605   5.464  0.7787 -0.3155 -1.5467
 4051SOL     OW23614   3.291   2.174   6.950 -0.4399  0.1057  0.1201
 4051SOL    HW123615   3.307   2.264   6.922  0.3285  0.0801  0.4690
 4051SOL    HW223616   3.296   2.188   7.045  2.7726  1.6817 -0.2939
 4052SOL     OW23617   2.389   3.546  11.048 -0.1886  0.0329  0.5952
 4052SOL    HW123618   2.316   3.569  10.991  1.5973  0.9903 -1.3071
 4052SOL    HW223619   2.414   3.633  11.079  2.6670 -0.0333 -1.5143
 4053SOL     OW23620   1.020   2.497  13.115 -0.2183 -0.3115  0.0367
 4053SOL    HW123621   1.081   2.425  13.101 -0.5951 -0.6162 -0.0609
 4053SOL    HW223622   1.004   2.494  13.209  1.4302 -0.9830  0.2856
 4054SOL     OW23623   3.998   2.072   8.233 -0.4033  0.1521  0.0628
 4054SOL    HW123624   3.949   2.035   8.307 -0.6257 -0.3554 -0.3327
 4054SOL    HW223625   3.922   2.116   8.195 -0.0134 -1.1624 -2.2943
 4055SOL     OW23626   2.717   0.884   9.678 -0.0524  0.2009  0.6446
 4055SOL    HW123627   2.708   0.794   9.649  0.2654  0.5336 -0.4969
 4055SOL    HW223628   2.709   0.921   9.590 -3.0597 -0.6848  0.5571
 4056SOL     OW23629   3.271   2.921   4.020  0.5710  0.0762 -0.3034
 4056SOL    HW123630   3.355   2.965   4.033 -0.0203  0.9305  0.6510
 4056SOL    HW223631   3.257   2.883   4.107 -2.8921 -0.3394 -1.0519
 4057SOL     OW23632   4.200   3.047  15.976  0.1503  0.0362  0.4952
 4057SOL    HW123633   4.235   3.064  16.063  1.6198 -1.4445  0.1896
 4057SOL    HW223634   4.233   3.121  15.925  0.6553  0.1553  1.0014
 4058SOL     OW23635   1.318   4.046   2.212  0.1219  0.2968 -0.6025
 4058SOL    HW123636   1.262   4.032   2.288  1.7079 -2.2586  0.0942
 4058SOL    HW223637   1.286   3.980   2.152 -1.4044 -0.0146  0.5648
 4059SOL     OW23638   4.163   0.568  11.665 -0.3708 -0.0960  0.2445
 4059SOL    HW123639   4.125   0.555  11.578 -0.6780 -1.6622  0.6222
 4059SOL    HW223640   4.156   0.486  11.714  0.0661 -0.1073  0.2878
 4060SOL     OW23641   0.570   3.077   9.390 -0.2098  0.4883  0.0013
 4060SOL    HW123642   0.491   3.123   9.415 -0.2328  0.5782 -0.2410
 4060SOL    HW223643   0.544   3.062   9.299  0.7182 -0.2982 -0.1385
 4061SOL     OW23644   3.587   0.852   3.397 -0.2131  0.8715  0.3049
 4061SOL    HW123645   3.600   0.917   3.328  2.8898  0.1855  0.2444
 4061SOL    HW223646   3.514   0.890   3.446 -0.4602 -1.9044  2.0659
 4062SOL     OW23647   2.836   3.864   2.078  0.0210 -0.1581 -0.3221
 4062SOL    HW123648   2.770   3.858   2.009  0.3030 -2.1552 -0.4266
 4062SOL    HW223649   2.847   3.958   2.089 -1.8729  0.1159 -0.8550
 4063SOL     OW23650   0.481   2.047   8.938 -0.3882  0.4801  0.1292
 4063SOL    HW123651   0.399   2.021   8.898  1.0226  0.3831 -2.6954
 4063SOL    HW223652   0.521   2.077   8.856  0.8571 -0.6510  0.3119
 4064SOL     OW23653   1.626   0.919   2.275  0.1332 -0.8576  0.2345
 4064SOL    HW123654   1.585   1.005   2.273 -0.9053 -1.3710 -0.4481
 4064SOL    HW223655   1.653   0.906   2.184  2.3166  2.5950  0.4246
 4065SOL     OW23656   0.908   0.379  12.535 -0.0344 -0.5339 -0.0599
 4065SOL    HW123657   0.907   0.362  12.630 -1.3545 -0.2708 -0.0234
 4065SOL    HW223658   0.836   0.322  12.508 -1.4758  2.1940 -1.9879
 4066SOL     OW23659   4.362   4.102   0.133 -0.1436 -0.5247  0.1199
 4066SOL    HW123660   4.402   4.092   0.219 -1.4022 -0.3249  0.7222
 4066SOL    HW223661   4.432   4.158   0.100  0.0825  0.1563  1.7698
 4067SOL     OW23662   3.636   3.140   5.572  0.2815 -0.1996 -0.1791
 4067SOL    HW123663   3.731   3.154   5.571  0.3281 -0.4361  0.7413
 4067SOL    HW223664   3.609   3.153   5.663 -2.1714 -2.7453 -0.5281
 4068SOL     OW23665   3.612   4.445   7.699 -0.3096 -0.0401  0.1945
 4068SOL    HW123666   3.653   4.427   7.614 -0.9314  1.1584 -0.3431
 4068SOL    HW223667   3.543   4.509   7.683 -2.1722 -1.5813  2.1117
 4069SOL     OW23668   1.436   2.942  17.452  0.4212 -0.1220 -0.1357
 4069SOL    HW123669   1.357   2.897  17.423 -0.0618 -0.3445  1.5035
 4069SOL    HW223670   1.397   3.012  17.504  2.1977 -0.4742  1.6651
 4070SOL     OW23671   2.598   2.786  15.348  0.7692  0.6340 -0.8372
 4070SOL    HW123672   2.688   2.787  15.315  0.9545 -3.0889 -0.4113
 4070SOL    HW223673   2.566   2.709  15.301  2.3826 -0.3971 -0.2695
 4071SOL     OW23674   3.871   2.172  13.978 -0.0133 -0.5529 -0.2262
 4071SOL    HW123675   3.911   2.173  13.891  3.8581  0.8905  1.5729
 4071SOL    HW223676   3.908   2.249  14.020  0.3322  0.3006 -2.0733
 4072SOL     OW23677   4.068   0.690   6.065  0.1249 -0.1946  0.0058
 4072SOL    HW123678   4.136   0.739   6.018 -0.4352 -0.6778 -1.2991
 4072SOL    HW223679   4.029   0.762   6.113  0.4429 -2.2641  3.4095
 4073SOL     OW23680   3.580   1.681  14.425 -0.2778 -0.4330 -0.2669
 4073SOL    HW123681   3.659   1.642  14.388 -0.5211  2.2685 -3.6066
 4073SOL    HW223682   3.614   1.755  14.474  0.1125  0.0196 -1.2292
 4074SOL     OW23683   3.327   3.481  12.774 -0.7076  0.3141  0.3404
 4074SOL    HW123684   3.296   3.390  12.777  3.5061 -1.1732 -1.0519
 4074SOL    HW223685   3.369   3.493  12.859 -1.9944 -0.5052  1.0975
 4075SOL     OW23686   3.648   2.104  16.348  0.0350 -0.3886 -0.0450
 4075SOL    HW123687   3.739   2.127  16.364 -0.1972  2.1191 -2.3357
 4075SOL    HW223688   3.652   2.133  16.257  2.1658  0.1625  0.2324
 4076SOL     OW23689   1.456   4.060   4.930  0.0477 -0.2096  0.1122
 4076SOL    HW123690   1.457   4.073   4.835  1.1045  1.5520  0.3704
 4076SOL    HW223691   1.526   4.116   4.964  0.3887 -0.9311  0.5970
 4077SOL     OW23692   3.259   3.359  11.626  0.1355 -0.3711  0.0620
 4077SOL    HW123693   3.213   3.442  11.639 -0.9392 -0.9760  0.0687
 4077SOL    HW223694   3.194   3.312  11.575  1.2300 -0.6932 -1.0104
 4078SOL     OW23695   1.696   4.647   2.572  0.6330 -0.8370  0.3746
 4078SOL    HW123696   1.626   4.704   2.541  1.3056 -0.4920 -0.5104
 4078SOL    HW223697   1.701   4.589   2.496 -1.5238  0.4770 -0.7671
 4079SOL     OW23698   4.175   3.431   7.940  0.3973  0.0900 -0.1928
 4079SOL    HW123699   4.095   3.444   7.889 -2.0732 -0.0911  3.6540
 4079SOL    HW223700   4.160   3.490   8.014 -1.8969  1.9967 -2.2154
 4080SOL     OW23701   0.112   3.262   0.315  0.0929  0.1094  0.2892
 4080SOL    HW123702   0.080   3.205   0.385  0.6630 -1.2955 -0.5874
 4080SOL    HW223703   0.046   3.330   0.326 -0.7343 -1.2672  3.9312
 4081SOL     OW23704   1.130   1.885   5.524  0.1362 -0.0735  0.5135
 4081SOL    HW123705   1.145   1.948   5.595 -0.1044 -0.0063  0.5040
 4081SOL    HW223706   1.168   1.936   5.452 -1.6539  0.8528  0.2423
 4082SOL     OW23707   4.650   3.169   5.847  0.2156  0.2520 -0.4006
 4082SOL    HW123708   4.691   3.099   5.897 -0.2886  0.5917  0.4828
 4082SOL    HW223709   4.688   3.241   5.897 -1.3047 -1.4289  3.1293
 4083SOL     OW23710   0.339   2.224   6.460 -0.3116 -0.1198 -0.3264
 4083SOL    HW123711   0.367   2.183   6.378 -1.2572  0.9320 -1.1801
 4083SOL    HW223712   0.400   2.181   6.520  1.2771  3.3438  0.5487
 4084SOL     OW23713   0.893   4.330   7.673  0.0287  0.0707  0.3200
 4084SOL    HW123714   0.805   4.342   7.636  0.2543 -0.9322 -0.5459
 4084SOL    HW223715   0.922   4.417   7.698  0.8170 -1.3127  4.2140
 4085SOL     OW23716   3.437   3.940   7.430 -0.3196  0.4602  0.0388
 4085SOL    HW123717   3.477   4.008   7.377 -2.2395  1.6915  0.1615
 4085SOL    HW223718   3.519   3.908   7.469 -0.9258 -1.2367 -0.0546
 4086SOL     OW23719   3.971   2.101   3.106  0.1667  0.1845 -0.1592
 4086SOL    HW123720   3.991   2.194   3.094 -3.0015  0.8060 -0.5351
 4086SOL    HW223721   4.060   2.069   3.120  0.2423 -0.2324 -1.5783
 4087SOL     OW23722   3.932   2.460   8.405 -0.0586 -0.1759  0.1211
 4087SOL    HW123723   3.880   2.380   8.414 -1.6290  0.5468 -2.4530
 4087SOL    HW223724   3.907   2.486   8.316  1.8375  1.4380  0.0398
 4088SOL     OW23725   2.506   0.746   5.532 -0.4788 -0.3678  0.6855
 4088SOL    HW123726   2.432   0.766   5.474  0.0671  1.2208  0.5556
 4088SOL    HW223727   2.569   0.716   5.466 -1.5839 -4.0269  1.2803
 4089SOL     OW23728   1.480   3.570   7.874 -0.1061  0.0441 -0.3347
 4089SOL    HW123729   1.419   3.585   7.947  1.9371  2.2526  0.9611
 4089SOL    HW223730   1.528   3.495   7.910  1.1746  0.7642 -0.5502
 4090SOL     OW23731   2.713   4.502  17.580 -0.4742 -0.0597 -0.3590
 4090SOL    HW123732   2.689   4.409  17.582  2.2507 -0.7561  0.6063
 4090SOL    HW223733   2.803   4.483  17.607 -1.1128 -0.1093  1.7418
 4091SOL     OW23734   1.290   1.768   7.760 -0.0325 -0.3436 -0.2745
 4091SOL    HW123735   1.323   1.818   7.835  1.2664 -0.9773 -0.4313
 4091SOL    HW223736   1.318   1.680   7.782 -0.9689 -0.2385  1.3488
 4092SOL     OW23737   4.083   0.646   0.534 -0.0056 -0.2996 -0.3620
 4092SOL    HW123738   4.060   0.734   0.505 -2.3580 -0.3775  1.2710
 4092SOL    HW223739   4.044   0.600   0.459  3.3128 -3.2553 -0.2613
 4093SOL     OW23740   3.138   2.181   4.037 -0.4039 -0.0142 -0.4971
 4093SOL    HW123741   3.179   2.094   4.029  0.7977  0.3639  1.6331
 4093SOL    HW223742   3.207   2.230   4.081 -1.0677  0.6227 -0.1660
 4094SOL     OW23743   1.364   3.505   0.198  0.6101 -0.4930 -0.3663
 4094SOL    HW123744   1.307   3.515   0.121  3.9270 -2.0420 -3.0374
 4094SOL    HW223745   1.432   3.570   0.180  1.1956 -0.9396  0.2401
 4095SOL     OW23746   2.886   2.266   3.492 -0.8446  0.2006 -0.4618
 4095SOL    HW123747   2.836   2.231   3.418 -2.4306  0.6931  0.3790
 4095SOL    HW223748   2.852   2.355   3.496 -2.2326 -0.3140 -0.6166
 4096SOL     OW23749   0.394   2.227   0.254 -0.0806  0.3991  0.2461
 4096SOL    HW123750   0.402   2.283   0.332 -0.2830 -1.4956  1.6226
 4096SOL    HW223751   0.311   2.188   0.281  0.0117  0.1872  0.2177
 4097SOL     OW23752   3.637   1.563   8.272 -0.1122 -0.1485 -0.0287
 4097SOL    HW123753   3.544   1.570   8.247 -0.2799  1.8698  1.2127
 4097SOL    HW223754   3.626   1.511   8.351  1.5491 -0.4904 -0.0321
 4098SOL     OW23755   2.328   1.942  13.626  0.2051 -0.2042  0.4443
 4098SOL    HW123756   2.242   1.936  13.668 -0.7796  0.2506 -1.5128
 4098SOL    HW223757   2.355   2.031  13.648 -3.0245  0.5818  1.2532
 4099SOL     OW23758   1.277   3.795   6.910 -0.7795  0.7810  0.7989
 4099SOL    HW123759   1.346   3.862   6.906 -0.5725  0.4818 -0.5351
 4099SOL    HW223760   1.326   3.720   6.945 -1.0804  0.0993 -0.2693
 4100SOL     OW23761   0.112   2.500  12.504  0.8244 -0.3093  0.1369
 4100SOL    HW123762   0.129   2.584  12.461  0.6479 -1.3815 -2.0476
 4100SOL    HW223763   0.143   2.526  12.590  0.5135 -1.0007  0.4523
 4101SOL     OW23764   3.495   1.525  12.295 -0.3844 -0.1586 -0.2595
 4101SOL    HW123765   3.459   1.500  12.210 -0.3760 -0.4401 -0.1805
 4101SOL    HW223766   3.505   1.620  12.294 -1.1023 -0.0816 -0.3635
 4102SOL     OW23767   3.790   1.155  12.484 -0.1614  0.4211  0.4510
 4102SOL    HW123768   3.795   1.138  12.578 -2.8965  0.8514  0.6708
 4102SOL    HW223769   3.772   1.249  12.478 -1.0972  0.0522 -2.2790
 4103SOL     OW23770   0.296   0.323  10.067 -0.7755 -0.0641 -0.8875
 4103SOL    HW123771   0.334   0.373   9.995 -0.5008  1.7525  0.5351
 4103SOL    HW223772   0.274   0.390  10.131 -0.3708 -0.6694 -0.1175
 4104SOL     OW23773   0.664   2.374   8.948 -0.5177  0.4945 -0.0324
 4104SOL    HW123774   0.653   2.467   8.929  1.1312  0.8010  0.5166
 4104SOL    HW223775   0.607   2.347   8.876 -1.0608  1.9887 -0.1613
 4105SOL     OW23776   3.095   2.283  10.970 -0.3601 -0.3036  0.0372
 4105SOL    HW123777   3.041   2.208  10.995 -0.1792 -0.6469 -0.6075
 4105SOL    HW223778   3.151   2.285  11.047  0.8336 -1.8194 -0.8014
 4106SOL     OW23779   1.284   0.193   6.706  0.1756  0.5284 -0.1832
 4106SOL    HW123780   1.351   0.129   6.682 -1.4203 -1.0796 -0.3540
 4106SOL    HW223781   1.217   0.139   6.749  0.8548  1.2187  1.7674
 4107SOL     OW23782   2.598   2.363   9.346 -0.1898 -0.1565  0.6394
 4107SOL    HW123783   2.534   2.297   9.319 -0.3595  0.7949 -1.3366
 4107SOL    HW223784   2.670   2.308   9.375  0.4517 -0.9535 -2.4810
 4108SOL     OW23785   4.424   0.953   2.516 -0.2902 -0.2351 -0.6101
 4108SOL    HW123786   4.345   0.901   2.531 -1.0678  0.6381 -1.6962
 4108SOL    HW223787   4.452   0.928   2.428  0.4181 -1.1651 -0.1146
 4109SOL     OW23788   2.080   4.530  15.703 -0.3730 -0.0909  0.0550
 4109SOL    HW123789   2.045   4.619  15.716 -0.8729 -0.5165  1.6174
 4109SOL    HW223790   2.115   4.513  15.790 -0.6163  1.1350  0.4016
 4110SOL     OW23791   3.847   2.892   3.704 -0.2996 -0.3714 -0.0122
 4110SOL    HW123792   3.778   2.959   3.701 -1.1306 -1.2061  0.1772
 4110SOL    HW223793   3.838   2.835   3.627  1.7827 -0.0087 -0.5222
 4111SOL     OW23794   2.203   2.330   3.038  0.1568  0.0255 -0.8145
 4111SOL    HW123795   2.123   2.373   3.069 -0.0416 -1.4029  0.6413
 4111SOL    HW223796   2.173   2.278   2.963  0.4416 -0.0386 -0.8835
 4112SOL     OW23797   3.945   3.431   6.593 -0.1502  0.5546  0.0834
 4112SOL    HW123798   3.867   3.480   6.616 -0.5347  0.0793 -0.1969
 4112SOL    HW223799   3.929   3.399   6.504 -0.6662 -0.2577  0.4640
 4113SOL     OW23800   0.142   1.461   3.221 -0.1340  0.7916  0.0662
 4113SOL    HW123801   0.053   1.477   3.189 -0.2249  1.9176  0.9196
 4113SOL    HW223802   0.162   1.372   3.191 -0.4550  0.5644  0.5274
 4114SOL     OW23803   3.430   2.179  15.516  0.1013  0.2074  0.0174
 4114SOL    HW123804   3.370   2.250  15.536  0.5008  0.5868 -0.1346
 4114SOL    HW223805   3.383   2.116  15.571 -0.8699  0.1767 -0.8465
 4115SOL     OW23806   0.072   3.668   6.626 -0.6359  0.2252 -0.0376
 4115SOL    HW123807   0.063   3.755   6.665 -1.6023  0.6734 -1.2534
 4115SOL    HW223808   4.710   3.626   6.637  0.0982 -0.9568  1.0127
 4116SOL     OW23809   2.806   4.659   8.254  0.8703  0.0435 -0.1479
 4116SOL    HW123810   2.772   4.687   8.339  1.2489 -0.9484  0.3420
 4116SOL    HW223811   2.893   4.699   8.255  0.2721  1.3638 -1.4854
 4117SOL     OW23812   1.606   2.367  16.905  0.1896 -0.7875 -0.0323
 4117SOL    HW123813   1.547   2.384  16.832  1.1252 -0.5319 -0.7374
 4117SOL    HW223814   1.689   2.344  16.864 -0.9636 -1.8896 -1.7551
 4118SOL     OW23815   1.623   0.708  15.731  0.4718 -0.2675 -0.2902
 4118SOL    HW123816   1.710   0.721  15.692  0.8611  0.1539  0.7188
 4118SOL    HW223817   1.590   0.638  15.675 -1.4972  0.4154  0.0116
 4119SOL     OW23818   2.417   3.974   8.791  0.3004  0.2638 -0.1215
 4119SOL    HW123819   2.396   3.899   8.735  2.2036 -1.9222  2.0992
 4119SOL    HW223820   2.457   3.929   8.866 -1.2362  0.0697  0.5823
 4120SOL     OW23821   1.850   2.606  12.614  0.2053 -0.4784  0.1905
 4120SOL    HW123822   1.760   2.587  12.587  0.1151  1.0481 -0.5269
 4120SOL    HW223823   1.860   2.701  12.621 -1.5794 -0.2273 -0.6492
 4121SOL     OW23824   0.908   0.192   6.923 -0.8461 -0.3474 -0.0346
 4121SOL    HW123825   0.937   0.283   6.938  0.9323 -0.8957 -0.0843
 4121SOL    HW223826   0.877   0.167   7.010  0.9781 -0.2080  0.6737
 4122SOL     OW23827   3.369   2.308   0.173  0.2697  0.4621  0.2373
 4122SOL    HW123828   3.326   2.393   0.186  2.8191  1.5763  1.4756
 4122SOL    HW223829   3.332   2.273   0.092 -0.7286  2.1325 -0.0195
 4123SOL     OW23830   3.664   4.360  14.625  0.7643  0.2506  0.2577
 4123SOL    HW123831   3.686   4.287  14.682 -0.2135 -0.3310 -0.1200
 4123SOL    HW223832   3.745   4.400  14.592  1.3221 -0.3359  0.9268
 4124SOL     OW23833   2.388   4.204   1.883  0.1859 -0.1891 -0.0185
 4124SOL    HW123834   2.439   4.207   1.802  0.3105  1.1261  0.1042
 4124SOL    HW223835   2.306   4.241   1.850  1.4728 -0.0045 -2.9987
 4125SOL     OW23836   0.113   3.602  10.632  0.5817  0.1552 -0.1150
 4125SOL    HW123837   0.046   3.630  10.695 -0.7003  0.5448 -1.6529
 4125SOL    HW223838   0.116   3.678  10.574 -0.6723 -0.3602 -0.8545
 4126SOL     OW23839   2.817   2.865   4.448 -0.5177 -0.7054  0.4373
 4126SOL    HW123840   2.872   2.926   4.400  2.3652 -1.9012  2.2160
 4126SOL    HW223841   2.746   2.874   4.385  0.3095  2.1490 -0.0894
 4127SOL     OW23842   0.083   1.313   1.941  0.4131 -0.4737 -0.2930
 4127SOL    HW123843   0.054   1.223   1.927 -1.1345  0.0175 -0.2526
 4127SOL    HW223844   0.177   1.298   1.953  0.2617  0.0092  1.4481
 4128SOL     OW23845   1.671   4.645   6.313  0.4037  0.2814 -0.2273
 4128SOL    HW123846   1.765   4.638   6.298  0.2704 -0.0936 -0.9244
 4128SOL    HW223847   1.661   0.008   6.352 -0.5500  0.1771 -0.2272
 4129SOL     OW23848   4.495   4.398   4.147 -0.5347 -0.1765  0.1022
 4129SOL    HW123849   4.506   4.492   4.131 -0.4270 -0.3548 -0.8534
 4129SOL    HW223850   4.477   4.369   4.057 -0.9691 -0.0915  0.1641
 4130SOL     OW23851   3.957   0.716  12.888  0.0826 -0.4440 -0.1830
 4130SOL    HW123852   3.952   0.799  12.842 -1.0931  0.3502  1.3477
 4130SOL    HW223853   4.001   0.742  12.969 -0.3846 -0.7542  0.1742
 4131SOL     OW23854   4.592   0.477   3.099  0.2639  0.3516 -0.1743
 4131SOL    HW123855   4.684   0.482   3.126  0.4846 -0.9456 -0.7032
 4131SOL    HW223856   4.597   0.474   3.003 -0.8686 -2.0658 -0.1371
 4132SOL     OW23857   4.613   4.156   9.124  0.1579 -0.4122 -0.6029
 4132SOL    HW123858   4.559   4.231   9.100  1.3953  0.6052 -0.2279
 4132SOL    HW223859   4.538   4.103   9.150 -0.5428  0.6808 -0.3734
 4133SOL     OW23860   1.259   3.194   4.114 -0.0970 -0.0311 -0.2016
 4133SOL    HW123861   1.198   3.238   4.172  2.0915  0.4702  1.7506
 4133SOL    HW223862   1.339   3.212   4.164 -0.7098  1.1792  0.3365
 4134SOL     OW23863   0.245   0.463   0.924 -0.5783 -0.0512 -0.0270
 4134SOL    HW123864   0.176   0.462   0.990 -1.2020  1.0267 -0.6518
 4134SOL    HW223865   0.243   0.553   0.890 -0.9229 -0.5485 -1.3306
 4135SOL     OW23866   2.891   0.673  11.208 -0.5396  0.8086 -0.3884
 4135SOL    HW123867   2.905   0.747  11.267 -1.7782  0.8972 -0.2114
 4135SOL    HW223868   2.898   0.719  11.125 -2.3415  0.0171 -0.9726
 4136SOL     OW23869   1.926   4.545   0.680  0.0117 -0.8513 -0.2256
 4136SOL    HW123870   1.908   4.465   0.729 -3.2291  0.1262  0.2182
 4136SOL    HW223871   2.009   4.523   0.637 -0.3595 -1.3239 -0.7032
 4137SOL     OW23872   1.846   3.459   3.543  0.2336 -0.0641 -0.2328
 4137SOL    HW123873   1.764   3.435   3.586 -0.3441 -0.6805 -1.6445
 4137SOL    HW223874   1.907   3.391   3.573  1.8532  1.3798 -0.2573
 4138SOL     OW23875   1.272   4.104   5.488 -0.2071  0.3509 -0.8143
 4138SOL    HW123876   1.188   4.065   5.462  0.5704 -1.7976 -0.0751
 4138SOL    HW223877   1.337   4.039   5.462  0.4311  1.8948 -3.0758
 4139SOL     OW23878   4.719   0.775   2.172  0.1667 -0.3617  0.0716
 4139SOL    HW123879   0.030   0.701   2.222 -0.2707 -0.1627  0.6704
 4139SOL    HW223880   4.685   0.729   2.096  0.2061  0.3749 -0.3849
 4140SOL     OW23881   1.058   2.119   0.047  0.0864  0.6933  0.2984
 4140SOL    HW123882   1.130   2.116  17.678  0.2960  2.7383  0.4249
 4140SOL    HW223883   1.096   2.156   0.126  2.1735 -2.4028  0.7294
 4141SOL     OW23884   1.136   3.692  17.479 -0.4117 -0.5394  0.3343
 4141SOL    HW123885   1.124   3.649  17.394 -2.2038 -0.6397  0.6437
 4141SOL    HW223886   1.212   3.641  17.507 -1.3265 -0.5916  2.7205
 4142SOL     OW23887   0.557   3.996  10.658  0.4465 -0.6266 -0.5389
 4142SOL    HW123888   0.620   4.011  10.588  1.6837 -0.3396  0.6333
 4142SOL    HW223889   0.542   4.085  10.688  1.5061 -1.2105  1.7250
 4143SOL     OW23890   2.919   4.386   3.293 -0.4256  0.5515 -0.4168
 4143SOL    HW123891   2.936   4.464   3.241  1.5297 -0.6076 -1.5072
 4143SOL    HW223892   2.947   4.412   3.381 -0.4058  2.0024 -0.8615
 4144SOL     OW23893   2.137   4.658   5.645 -0.1054  0.0175 -0.2254
 4144SOL    HW123894   2.050   4.678   5.611 -0.2912 -2.2423 -1.0481
 4144SOL    HW223895   2.146   0.006   5.708 -1.4600  0.0385 -0.0678
 4145SOL     OW23896   2.478   2.015   5.296 -0.3507  0.4680  0.0150
 4145SOL    HW123897   2.431   2.028   5.379 -0.3197 -1.1595  0.2925
 4145SOL    HW223898   2.515   2.102   5.282  1.1688  0.0638  1.5747
 4146SOL     OW23899   2.275   2.138   9.836  0.0310 -0.4798  0.4695
 4146SOL    HW123900   2.338   2.147   9.907 -0.0494 -0.6696  0.5662
 4146SOL    HW223901   2.220   2.064   9.862 -2.9479  1.7271  0.4877
 4147SOL     OW23902   1.670   0.357   1.361  0.0499 -0.1415 -0.8876
 4147SOL    HW123903   1.672   0.421   1.290 -1.3919  1.9484  0.9255
 4147SOL    HW223904   1.761   0.326   1.360 -1.0608 -3.3899 -0.2584
 4148SOL     OW23905   4.125   0.983  11.760 -0.0808  0.2200  0.0388
 4148SOL    HW123906   4.103   1.070  11.726  1.0356 -0.3118 -2.0410
 4148SOL    HW223907   4.199   0.955  11.707 -1.6780 -2.7110 -0.6512
 4149SOL     OW23908   1.232   3.500  12.772 -0.0195 -0.0607 -0.6537
 4149SOL    HW123909   1.292   3.574  12.761  0.5667 -0.4486 -0.0026
 4149SOL    HW223910   1.153   3.545  12.804  0.7170  0.1661  0.8263
 4150SOL     OW23911   1.745   2.752   6.300  0.0068 -0.0205  0.4157
 4150SOL    HW123912   1.750   2.739   6.205 -0.5653  0.1668  0.3594
 4150SOL    HW223913   1.722   2.844   6.310  0.5616  0.2655 -0.9859
 4151SOL     OW23914   0.039   3.831   2.067 -0.7126 -0.3027 -0.0092
 4151SOL    HW123915   0.037   3.855   1.975 -1.4346  5.0572  1.3709
 4151SOL    HW223916   0.116   3.878   2.099 -3.5022  1.0865  4.6634
 4152SOL     OW23917   0.905   2.264   9.133  0.5517  0.4993  0.3163
 4152SOL    HW123918   0.855   2.197   9.086 -0.5939  1.5899 -0.0317
 4152SOL    HW223919   0.912   2.332   9.066 -0.0851  0.4488  0.1972
 4153SOL     OW23920   4.159   2.704   3.857  0.0927 -0.1652 -0.2432
 4153SOL    HW123921   4.235   2.674   3.807 -1.6583 -1.6395 -1.9581
 4153SOL    HW223922   4.146   2.789   3.815  4.4856  0.8343  0.3311
 4154SOL     OW23923   0.955   0.621  12.654 -0.1232 -0.7738  0.3068
 4154SOL    HW123924   0.908   0.623  12.570 -3.4754 -1.2323  2.1678
 4154SOL    HW223925   0.951   0.529  12.679  0.4942  0.0796  3.5666
 4155SOL     OW23926   1.023   0.312   7.889 -0.2294  0.4117  0.1062
 4155SOL    HW123927   1.102   0.321   7.943  1.5334 -0.9878 -2.2058
 4155SOL    HW223928   0.983   0.399   7.885  0.9469  0.9630  0.4316
 4156SOL     OW23929   4.459   1.294   7.188 -0.4400 -0.8027 -0.2376
 4156SOL    HW123930   4.527   1.302   7.121  0.3402 -1.0893  0.5210
 4156SOL    HW223931   4.462   1.386   7.217 -2.8195 -0.6412 -0.5130
 4157SOL     OW23932   1.666   0.380   2.987 -0.9792  0.4706  0.0847
 4157SOL    HW123933   1.724   0.445   2.947 -0.6874  0.3579  0.3198
 4157SOL    HW223934   1.580   0.400   2.951 -0.5939 -2.0944 -2.2140
 4158SOL     OW23935   1.949   1.721   3.068 -0.3723 -0.5786 -0.2755
 4158SOL    HW123936   1.950   1.816   3.053 -1.6257 -0.9069 -2.4832
 4158SOL    HW223937   1.928   1.690   2.980 -0.4438  2.1898 -1.2600
 4159SOL     OW23938   3.996   0.968   2.332 -0.1240  0.1287  0.2464
 4159SOL    HW123939   3.916   0.916   2.327 -0.3320  0.3204  1.4893
 4159SOL    HW223940   3.966   1.038   2.391  0.8722 -1.0370  2.1242
 4160SOL     OW23941   3.145   0.635  10.817  0.2412  0.7146 -0.0898
 4160SOL    HW123942   3.167   0.723  10.786 -0.1546  1.3284  1.3768
 4160SOL    HW223943   3.179   0.636  10.906  0.9795 -0.6637 -0.3448
 4161SOL     OW23944   4.597   0.816   5.685 -0.2761  0.2499  0.1397
 4161SOL    HW123945   4.635   0.795   5.770 -2.0274  1.7657  1.2899
 4161SOL    HW223946   4.665   0.799   5.621 -0.2881 -1.3225  0.5415
 4162SOL     OW23947   2.225   0.125   8.849  0.1315  0.4058 -0.1841
 4162SOL    HW123948   2.272   0.207   8.865 -1.6933  1.2817  0.6955
 4162SOL    HW223949   2.277   0.088   8.778  2.4497 -0.9444  2.2146
 4163SOL     OW23950   0.168   1.360   8.822 -0.3570  0.0143 -0.3932
 4163SOL    HW123951   0.255   1.400   8.818  0.6857 -2.1603  0.6173
 4163SOL    HW223952   0.168   1.337   8.729 -0.4236  0.3987 -0.4918
 4164SOL     OW23953   4.458   2.331  14.445  0.4245  0.3605  0.6286
 4164SOL    HW123954   4.548   2.299  14.455  0.7530  0.7650 -0.9172
 4164SOL    HW223955   4.419   2.257  14.493 -0.6594  0.1881 -0.5074
 4165SOL     OW23956   0.014   1.845   8.939 -0.6968  0.2469 -0.1558
 4165SOL    HW123957   4.660   1.817   8.989  0.7272 -0.6073  1.5559
 4165SOL    HW223958   0.040   1.769   8.887  0.9306  0.8877 -0.2699
 4166SOL     OW23959   2.265   4.185  15.669  0.0547  0.0138 -0.3734
 4166SOL    HW123960   2.229   4.263  15.627 -0.2548  0.2943  0.4266
 4166SOL    HW223961   2.259   4.130  15.591 -0.7646 -2.1350  1.2069
 4167SOL     OW23962   2.778   2.600  14.877 -0.0905  0.5542  0.2779
 4167SOL    HW123963   2.768   2.517  14.831  0.5318  2.4877 -3.2961
 4167SOL    HW223964   2.692   2.603  14.919 -0.4117 -0.1759 -0.3209
 4168SOL     OW23965   4.494   2.362   8.798 -0.1849  0.0422  0.2936
 4168SOL    HW123966   4.465   2.452   8.817 -1.3674 -0.0013 -1.2817
 4168SOL    HW223967   4.421   2.304   8.820 -1.3075  0.8736 -1.2965
 4169SOL     OW23968   2.434   1.003   0.931 -0.3400  0.5512  0.3657
 4169SOL    HW123969   2.347   1.034   0.908  0.2339  3.4351  1.9740
 4169SOL    HW223970   2.418   0.909   0.934 -2.1275  0.8334 -0.8392
 4170SOL     OW23971   1.024   2.742   0.375 -0.0425  0.4465  0.3379
 4170SOL    HW123972   1.057   2.831   0.391  0.2284  0.4719 -0.3698
 4170SOL    HW223973   0.957   2.740   0.443 -1.6608 -2.3714 -1.3660
 4171SOL     OW23974   2.018   2.512  13.739 -0.5706  0.0469  0.8080
 4171SOL    HW123975   2.063   2.428  13.725  0.6070  0.6224  1.1980
 4171SOL    HW223976   2.044   2.559  13.660 -1.4781 -1.5186 -0.4371
 4172SOL     OW23977   2.683   1.181   7.052 -0.8526 -0.1956 -0.0305
 4172SOL    HW123978   2.594   1.212   7.037 -1.2002 -0.6049  1.2177
 4172SOL    HW223979   2.685   1.093   7.015  1.5650 -1.4404  3.0861
 4173SOL     OW23980   3.098   3.093   4.847 -0.3554 -0.1300  0.4521
 4173SOL    HW123981   3.025   3.036   4.822  0.5143 -0.4948 -1.2348
 4173SOL    HW223982   3.048   3.173   4.865  1.7934  1.2070  0.4200
 4174SOL     OW23983   4.237   2.873   7.130  0.4508  0.2312  0.2762
 4174SOL    HW123984   4.199   2.917   7.055  1.1225 -1.4431 -1.0574
 4174SOL    HW223985   4.285   2.944   7.171  0.2552  0.1730  0.6081
 4175SOL     OW23986   2.970   1.178  15.361 -0.0086  0.4134  0.5175
 4175SOL    HW123987   3.026   1.194  15.438  0.6566 -2.3244  0.5779
 4175SOL    HW223988   2.901   1.244  15.363 -1.0908 -0.6966 -0.9192
 4176SOL     OW23989   4.119   3.553   8.621 -0.2656  0.5558  0.3159
 4176SOL    HW123990   4.163   3.476   8.658 -1.8621  0.7089  2.5021
 4176SOL    HW223991   4.082   3.591   8.700 -1.8743  3.2922 -1.7744
 4177SOL     OW23992   2.054   0.191  10.899  0.3879 -0.1009 -0.2753
 4177SOL    HW123993   2.065   0.280  10.933  1.7809 -0.3180 -0.1831
 4177SOL    HW223994   1.973   0.201  10.848  0.2573  2.0349  0.3491
 4178SOL     OW23995   2.027   3.875  15.326 -0.0138 -0.3901  0.2886
 4178SOL    HW123996   2.113   3.883  15.367 -0.7323 -3.4459  2.4326
 4178SOL    HW223997   2.004   3.968  15.330 -1.2734 -0.6559 -0.7661
 4179SOL     OW23998   1.479   1.817  16.001 -0.1008  0.1245 -0.8342
 4179SOL    HW123999   1.396   1.847  15.963 -0.7211 -0.1884  0.2771
 4179SOL    HW224000   1.455   1.803  16.092  3.7465  1.0491  0.3030
 4180SOL     OW24001   2.869   2.381   6.505 -0.2350 -0.2946  0.5737
 4180SOL    HW124002   2.877   2.444   6.576  1.0758 -1.2517  1.2872
 4180SOL    HW224003   2.951   2.401   6.459 -0.5058  0.9194  0.6329
 4181SOL     OW24004   0.143   0.859   4.745 -0.1248 -0.9334 -0.4214
 4181SOL    HW124005   0.193   0.931   4.708 -1.5907  0.1725 -0.2496
 4181SOL    HW224006   0.101   0.829   4.665  1.2867  1.0457 -1.8805
 4182SOL     OW24007   2.138   0.051   8.054 -0.0890 -0.3800  0.4824
 4182SOL    HW124008   2.234   0.061   8.055 -0.1429 -0.2984  3.9688
 4182SOL    HW224009   2.114   0.098   7.974  2.2007  0.3447  0.2097
 4183SOL     OW24010   2.932   1.940   3.229 -0.5801  0.0825  0.2023
 4183SOL    HW124011   3.019   1.910   3.254 -1.5418 -0.8610  2.4479
 4183SOL    HW224012   2.928   1.903   3.141 -0.2078 -0.0621  0.2485
 4184SOL     OW24013   4.428   0.777  17.368 -0.1097 -0.1597  0.5363
 4184SOL    HW124014   4.510   0.752  17.410  0.0717 -0.9182 -0.2619
 4184SOL    HW224015   4.398   0.849  17.423 -0.8523  0.7906 -1.0970
 4185SOL     OW24016   0.613   4.567   3.921  1.5316  0.3067 -0.2029
 4185SOL    HW124017   0.670   4.582   3.996  2.6117 -0.8687 -0.7732
 4185SOL    HW224018   0.669   4.518   3.861 -0.2072  0.2828 -1.8109
 4186SOL     OW24019   0.059   2.678   2.101 -0.3579  0.2845 -0.2291
 4186SOL    HW124020   0.076   2.625   2.023  0.0755 -2.0163  1.4249
 4186SOL    HW224021   0.128   2.745   2.098 -1.0802  1.0843  1.2229
 4187SOL     OW24022   0.783   1.218   3.222  0.0284 -0.4823 -0.1886
 4187SOL    HW124023   0.743   1.222   3.309  2.5511 -0.9980  0.9721
 4187SOL    HW224024   0.810   1.309   3.218  0.2732 -0.4771  1.5376
 4188SOL     OW24025   4.350   3.623   3.523  0.1479  0.1522  0.6952
 4188SOL    HW124026   4.274   3.681   3.526 -2.3180 -3.0035 -1.1353
 4188SOL    HW224027   4.359   3.610   3.617 -1.0421 -0.8636  0.6636
 4189SOL     OW24028   0.743   2.722  15.658  0.4895  0.4566 -0.2651
 4189SOL    HW124029   0.800   2.689  15.728  2.2426  2.8662 -0.5557
 4189SOL    HW224030   0.712   2.636  15.631 -0.3104  1.4712 -2.5423
 4190SOL     OW24031   4.498   3.382   2.182  0.6984 -0.1663 -0.4007
 4190SOL    HW124032   4.565   3.318   2.159 -0.0129 -0.0399 -2.7937
 4190SOL    HW224033   4.419   3.348   2.140  0.3099  0.0869  0.1141
 4191SOL     OW24034   3.371   2.448  15.896 -0.6803  0.0218 -1.1709
 4191SOL    HW124035   3.362   2.478  15.805 -2.7093 -2.1946 -1.7060
 4191SOL    HW224036   3.328   2.364  15.879 -0.8241  0.2699 -2.0151
 4192SOL     OW24037   0.052   2.107   3.551 -0.7571 -0.0704  0.3677
 4192SOL    HW124038   4.699   2.142   3.504 -0.1464 -1.2408 -1.4944
 4192SOL    HW224039   0.057   2.021   3.509 -0.9774  1.0128 -1.8842
 4193SOL     OW24040   2.832   3.257   8.784  0.5741 -0.5153 -0.0604
 4193SOL    HW124041   2.780   3.200   8.727 -2.0043  1.4242  0.3111
 4193SOL    HW224042   2.772   3.322   8.822  3.1075  1.1982  0.9879
 4194SOL     OW24043   4.575   4.562  11.493 -0.2682  0.1059 -0.5540
 4194SOL    HW124044   4.544   4.472  11.507  1.9291 -0.6365 -0.5005
 4194SOL    HW224045   4.669   4.548  11.496 -0.4220 -0.9999 -0.7483
 4195SOL     OW24046   0.809   4.287   9.145 -0.5799  0.4260 -0.7339
 4195SOL    HW124047   0.788   4.318   9.233  2.1602  0.4436 -0.0837
 4195SOL    HW224048   0.904   4.297   9.134 -0.6026  1.1300 -0.2748
 4196SOL     OW24049   1.223   0.612  14.439 -0.1478 -0.3060 -0.0122
 4196SOL    HW124050   1.151   0.673  14.451  1.5283  1.1960  2.4790
 4196SOL    HW224051   1.174   0.530  14.444  3.9015 -2.7119  0.7532
 4197SOL     OW24052   4.532   3.034   9.141 -1.3547  0.0106  0.4341
 4197SOL    HW124053   4.614   2.992   9.168 -0.7910  0.9904  0.2458
 4197SOL    HW224054   4.465   2.983   9.187 -0.9086  0.6314  1.7624
 4198SOL     OW24055   2.390   0.350  14.334 -0.1425  0.0296  0.5562
 4198SOL    HW124056   2.462   0.360  14.395 -1.1658 -1.0560  1.9391
 4198SOL    HW224057   2.406   0.263  14.296  1.7543  0.1373  1.1118
 4199SOL     OW24058   0.480   0.081  17.073 -0.6231 -0.3681  0.2706
 4199SOL    HW124059   0.425   0.159  17.061 -2.3673 -1.7121 -0.5318
 4199SOL    HW224060   0.451   0.067  17.163  0.4585 -4.8091 -0.0870
 4200SOL     OW24061   3.196   4.019   7.622  0.1656  0.1879 -0.7140
 4200SOL    HW124062   3.260   4.049   7.557 -0.9547  1.2220 -1.3301
 4200SOL    HW224063   3.152   4.100   7.648 -0.5271 -0.2286 -0.5837
 4201SOL     OW24064   3.341   3.226   1.099 -0.6024  0.1284 -0.0524
 4201SOL    HW124065   3.265   3.208   1.044 -0.5479 -0.3021  0.0082
 4201SOL    HW224066   3.300   3.209   1.183 -1.2839  2.4680  0.0788
 4202SOL     OW24067   0.385   1.521   5.164 -0.0168  0.6099 -0.0567
 4202SOL    HW124068   0.295   1.490   5.151 -0.0133  0.1711  0.9708
 4202SOL    HW224069   0.371   1.610   5.130 -3.1107 -0.1830 -0.8453
 4203SOL     OW24070   3.672   2.828   5.889  0.1743 -0.0591  0.0875
 4203SOL    HW124071   3.688   2.736   5.866 -3.5059 -1.0471  1.4392
 4203SOL    HW224072   3.621   2.823   5.970  0.5740  1.3439  0.4169
 4204SOL     OW24073   3.762   1.041   3.225 -0.2940  0.3778 -0.3383
 4204SOL    HW124074   3.837   1.035   3.283  0.2483  0.6221 -1.0162
 4204SOL    HW224075   3.812   1.081   3.154  2.4258 -1.4405  0.5792
 4205SOL     OW24076   2.804   2.170   7.365  0.0912  0.1785  0.0743
 4205SOL    HW124077   2.720   2.164   7.320 -0.7567 -0.3632  1.7061
 4205SOL    HW224078   2.788   2.123   7.447  1.1526  0.2353  0.3249
 4206SOL     OW24079   4.630   1.592   6.724  0.3554 -0.0598  0.6507
 4206SOL    HW124080   4.558   1.602   6.662 -2.0035 -0.8702  3.2878
 4206SOL    HW224081   4.651   1.683   6.742  0.4639  0.5795 -2.6840
 4207SOL     OW24082   2.796   1.070   0.160  0.1094  0.0162  0.0923
 4207SOL    HW124083   2.711   1.089   0.121 -0.7889 -2.3063  0.8787
 4207SOL    HW224084   2.835   1.014   0.092 -0.8140  1.2020 -1.3965
 4208SOL     OW24085   0.663   0.477  13.002  0.4700  0.0876  0.3089
 4208SOL    HW124086   0.697   0.565  12.985 -0.0290  0.3101  0.4617
 4208SOL    HW224087   0.580   0.499  13.046 -0.6216 -1.9432 -0.7108
 4209SOL     OW24088   2.647   3.980   4.273 -0.1052 -0.3625  0.6078
 4209SOL    HW124089   2.678   4.068   4.253 -1.8276  0.5388  1.9936
 4209SOL    HW224090   2.723   3.928   4.246 -0.4865 -1.1095  0.9803
 4210SOL     OW24091   4.441   2.302   4.824 -0.0722  0.0199 -0.3345
 4210SOL    HW124092   4.402   2.230   4.775  0.1351 -0.7720  0.6641
 4210SOL    HW224093   4.481   2.257   4.899 -1.3341  1.9352  1.4843
 4211SOL     OW24094   0.533   2.850  12.377 -0.1456 -0.4702  0.0604
 4211SOL    HW124095   0.610   2.905  12.368  0.0735 -0.8606 -0.4532
 4211SOL    HW224096   0.487   2.862  12.294 -1.0514 -0.4171  0.5721
 4212SOL     OW24097   0.518   2.166  13.551  0.5632 -0.8902  0.3650
 4212SOL    HW124098   0.608   2.198  13.559  0.2192  0.6341 -1.9621
 4212SOL    HW224099   0.469   2.247  13.565  4.3005  1.4342  0.0118
 4213SOL     OW24100   3.391   0.036   6.759 -0.1576 -0.4930  0.0502
 4213SOL    HW124101   3.339   0.066   6.834  0.9859 -0.0355  0.6574
 4213SOL    HW224102   3.436   4.682   6.791  1.9606  1.1545  1.0778
 4214SOL     OW24103   2.643   2.368  15.027 -0.7599 -0.9404 -0.2551
 4214SOL    HW124104   2.665   2.352  14.935  1.4446 -0.7785  0.2400
 4214SOL    HW224105   2.624   2.277  15.051 -0.2837 -1.0236 -0.1831
 4215SOL     OW24106   1.447   1.198   7.116  0.5170  0.0233 -0.0929
 4215SOL    HW124107   1.541   1.201   7.133  0.2959 -0.1486  1.1316
 4215SOL    HW224108   1.444   1.168   7.025 -1.5041 -0.6144  0.1909
 4216SOL     OW24109   0.783   1.190   7.410  0.2102 -0.5934 -0.1661
 4216SOL    HW124110   0.744   1.253   7.471  1.5799 -0.8905  1.0087
 4216SOL    HW224111   0.792   1.249   7.335 -1.0141 -1.9392 -1.3725
 4217SOL     OW24112   4.306   2.982  13.965 -0.7292  0.1266 -0.0789
 4217SOL    HW124113   4.241   3.003  14.033 -1.7062 -0.8793 -0.6876
 4217SOL    HW224114   4.245   2.961  13.894 -1.5647 -2.0155  1.2480
 4218SOL     OW24115   1.045   1.637  15.780  0.5717 -0.0373  0.2331
 4218SOL    HW124116   1.082   1.694  15.713 -0.1787  2.1426  1.6727
 4218SOL    HW224117   0.952   1.660  15.774  0.5349  0.0675  1.1793
 4219SOL     OW24118   3.302   1.694   4.328 -0.2369  0.5555 -0.3545
 4219SOL    HW124119   3.288   1.683   4.234  1.0928  4.3723 -1.0232
 4219SOL    HW224120   3.349   1.614   4.353  1.2254  1.2043 -0.9660
 4220SOL     OW24121   0.145   0.123   9.582  0.4800 -0.3000 -0.1895
 4220SOL    HW124122   0.176   0.042   9.543  0.1142  0.1064 -1.3205
 4220SOL    HW224123   0.073   0.085   9.633  0.0551  0.3315 -0.3171
 4221SOL     OW24124   4.556   3.563   6.683  0.4015 -0.1714 -0.0853
 4221SOL    HW124125   4.528   3.571   6.774  1.1381 -0.5783  0.1772
 4221SOL    HW224126   4.475   3.528   6.645  0.7577 -1.4042  0.2985
 4222SOL     OW24127   3.475   2.075   2.819  0.0288  0.2514  0.4678
 4222SOL    HW124128   3.453   1.983   2.836 -1.5872  0.7143  0.8165
 4222SOL    HW224129   3.484   2.075   2.724  0.5704 -0.4120  0.5210
 4223SOL     OW24130   0.305   1.323   2.961 -0.7918  0.3036 -0.3506
 4223SOL    HW124131   0.358   1.320   2.881 -0.2423 -0.2693  0.0424
 4223SOL    HW224132   0.217   1.344   2.927 -0.9487 -1.6076 -1.1050
 4224SOL     OW24133   3.284   3.513   1.667  0.2328  0.0491  0.0266
 4224SOL    HW124134   3.357   3.463   1.705  1.4481  0.8533 -1.2526
 4224SOL    HW224135   3.276   3.589   1.724 -1.5377 -0.0910 -0.0447
 4225SOL     OW24136   2.391   0.898   7.762  0.2315  0.2651  0.1826
 4225SOL    HW124137   2.354   0.892   7.850 -1.0640  2.6202 -0.2062
 4225SOL    HW224138   2.455   0.827   7.758 -0.1379 -0.0785  0.3202
 4226SOL     OW24139   1.233   0.521   4.680 -0.3324  0.1613  0.1652
 4226SOL    HW124140   1.224   0.458   4.751  0.7971  0.6824  0.7770
 4226SOL    HW224141   1.146   0.559   4.669  0.1239  0.8420 -1.0479
 4227SOL     OW24142   1.066   3.383   2.205 -0.7532  0.0221 -0.2291
 4227SOL    HW124143   1.136   3.386   2.140  0.6762  2.3154  1.4019
 4227SOL    HW224144   1.098   3.455   2.259  0.9921 -0.2186 -0.9322
 4228SOL     OW24145   0.629   4.629  11.522  0.3842  0.1648  0.0824
 4228SOL    HW124146   0.544   4.585  11.515  0.5511 -0.3495  1.2287
 4228SOL    HW224147   0.619   4.656  11.613  0.3338  0.8234 -0.1226
 4229SOL     OW24148   3.661   0.268   5.446  0.3791 -0.0532  0.1384
 4229SOL    HW124149   3.668   0.364   5.440  1.5208 -0.2495 -1.4608
 4229SOL    HW224150   3.566   0.265   5.460  0.7382  2.1678  3.0091
 4230SOL     OW24151   0.584   1.540   9.585 -0.5928  0.8565 -0.3544
 4230SOL    HW124152   0.565   1.582   9.669  1.4522  0.0907  0.5052
 4230SOL    HW224153   0.674   1.510   9.597  0.2608  3.5131 -0.2874
 4231SOL     OW24154   0.256   4.553   3.912 -0.1011  0.3181  0.2079
 4231SOL    HW124155   0.208   4.476   3.879 -2.0942  1.0101  1.5074
 4231SOL    HW224156   0.329   4.525   3.967  0.2039 -0.4758 -0.5984
 4232SOL     OW24157   1.035   0.095   8.616  0.5262  0.4142 -0.5087
 4232SOL    HW124158   0.973   0.040   8.664 -1.5612  2.5917 -0.6856
 4232SOL    HW224159   1.092   0.124   8.687 -0.5292 -0.7195  0.8162
 4233SOL     OW24160   3.101   1.643  15.889 -0.6102 -0.4396 -0.2302
 4233SOL    HW124161   3.180   1.636  15.942 -0.2785 -1.3580 -0.8295
 4233SOL    HW224162   3.143   1.633  15.804 -0.0259  1.9496 -0.2273
 4234SOL     OW24163   0.593   0.197   3.061 -0.0241 -0.2413  0.3307
 4234SOL    HW124164   0.678   0.232   3.034 -0.5058 -0.0079 -0.9202
 4234SOL    HW224165   0.610   0.135   3.131 -0.2721 -0.3163  0.3227
 4235SOL     OW24166   1.130   0.314   6.510  0.8968 -0.0214  0.6196
 4235SOL    HW124167   1.173   0.290   6.592 -0.3959  1.6211  1.7708
 4235SOL    HW224168   1.118   0.408   6.516 -0.4380 -0.1627  0.1989
 4236SOL     OW24169   4.588   1.103   7.840  0.0542 -0.2471 -0.1807
 4236SOL    HW124170   4.565   1.070   7.754  1.1115 -0.9943 -0.1708
 4236SOL    HW224171   4.593   1.197   7.823  0.0268  0.1391  1.9461
 4237SOL     OW24172   0.558   4.584   7.945  0.3630 -0.6083 -0.3089
 4237SOL    HW124173   0.486   4.546   7.895  0.9523  1.4908 -2.7573
 4237SOL    HW224174   0.550   4.524   8.020 -2.4446 -0.5700 -0.5797
 4238SOL     OW24175   2.932   2.218   6.134 -0.0249  0.1370 -0.1790
 4238SOL    HW124176   2.989   2.148   6.167  1.9799  1.4156 -0.9357
 4238SOL    HW224177   2.991   2.268   6.077  0.0547 -1.0706 -1.1436
 4239SOL     OW24178   0.849   3.736   3.124 -0.1663 -0.0060 -0.2056
 4239SOL    HW124179   0.813   3.682   3.053 -2.5557 -0.2098  1.1686
 4239SOL    HW224180   0.906   3.790   3.070 -0.7117  2.4076  1.6545
 4240SOL     OW24181   0.871   3.242   2.652 -0.2198 -0.3385  0.5490
 4240SOL    HW124182   0.803   3.236   2.585 -1.7197 -0.5378  2.0923
 4240SOL    HW224183   0.945   3.287   2.611 -0.4378  0.1187  0.6575
 4241SOL     OW24184   0.275   1.158   2.496  0.2315  0.0687  0.0619
 4241SOL    HW124185   0.314   1.081   2.537 -0.8967 -0.4969  0.0582
 4241SOL    HW224186   0.188   1.143   2.534 -0.1956  1.0876 -0.5170
 4242SOL     OW24187   3.677   3.914   5.004 -0.6728 -0.4642  0.2848
 4242SOL    HW124188   3.738   3.904   5.077  0.0414 -2.4053 -0.5804
 4242SOL    HW224189   3.703   3.840   4.949 -0.8098 -0.3811  0.1090
 4243SOL     OW24190   2.751   3.920   6.214  0.5535  0.0976 -0.2533
 4243SOL    HW124191   2.844   3.941   6.221  0.1791  1.5268  0.3659
 4243SOL    HW224192   2.737   3.932   6.308  0.0153  0.2172 -0.3495
 4244SOL     OW24193   3.030   0.261  15.625  0.1137  0.3120 -0.6208
 4244SOL    HW124194   3.090   0.284  15.696 -0.6575  1.5998 -0.3920
 4244SOL    HW224195   3.073   0.306  15.552 -1.0903 -1.1237 -2.1999
 4245SOL     OW24196   3.291   0.327   6.108 -0.0112  0.0548 -0.1070
 4245SOL    HW124197   3.242   0.284   6.038  1.2741 -2.1830  0.3512
 4245SOL    HW224198   3.277   0.276   6.188 -0.9232 -2.3878 -1.8134
 4246SOL     OW24199   1.105   2.303   7.980  0.2716  0.2602  0.1479
 4246SOL    HW124200   1.052   2.232   7.945  1.0620  0.3738 -1.2673
 4246SOL    HW224201   1.150   2.262   8.054  2.0245 -1.2630 -1.7800
 4247SOL     OW24202   0.153   0.327   4.768 -0.2873  0.2739  0.1518
 4247SOL    HW124203   0.237   0.299   4.733 -0.2972 -0.2932  0.5656
 4247SOL    HW224204   0.092   0.278   4.712  1.8877 -1.5930 -0.5602
 4248SOL     OW24205   0.366   0.298   6.764 -0.2830  0.4414 -0.5784
 4248SOL    HW124206   0.422   0.370   6.794  0.0928 -1.0950  2.4153
 4248SOL    HW224207   0.361   0.311   6.669 -2.5070 -0.1183 -0.5356
 4249SOL     OW24208   3.457   3.821  10.010 -0.0958  0.6486 -0.5058
 4249SOL    HW124209   3.412   3.905  10.022  0.8026  0.9441  0.7903
 4249SOL    HW224210   3.380   3.766  10.000  1.0330 -0.4412 -3.0333
 4250SOL     OW24211   1.703   1.870   7.467  0.0382  0.0039 -0.4312
 4250SOL    HW124212   1.632   1.931   7.453 -0.7638 -0.9395 -0.4871
 4250SOL    HW224213   1.654   1.808   7.522  0.8584 -0.4688 -0.2165
 4251SOL     OW24214   2.981   1.924  17.085  0.6123 -0.6833  0.4502
 4251SOL    HW124215   2.897   1.968  17.069  3.0541  3.5888 -0.5966
 4251SOL    HW224216   2.979   1.852  17.021 -1.5481  0.2069 -0.4888
 4252SOL     OW24217   0.392   1.976   4.404  0.8248 -0.0015 -0.1654
 4252SOL    HW124218   0.458   1.908   4.412  0.2386 -0.8850 -3.1391
 4252SOL    HW224219   0.312   1.927   4.388  1.1824 -0.4520 -0.5659
 4253SOL     OW24220   1.314   1.527   3.554 -0.5208  0.0540 -0.4251
 4253SOL    HW124221   1.367   1.448   3.562  0.0818  0.6145  1.0440
 4253SOL    HW224222   1.323   1.573   3.637 -0.3312  0.8440 -0.8792
 4254SOL     OW24223   2.350   4.027  14.111  0.3251  0.6228 -0.0042
 4254SOL    HW124224   2.323   3.985  14.030 -0.4551  0.7005  0.2224
 4254SOL    HW224225   2.297   4.106  14.118  1.0691  1.1298 -0.1185
 4255SOL     OW24226   1.430   0.903   6.730 -0.6000 -0.5166  0.3060
 4255SOL    HW124227   1.418   0.938   6.818 -0.6119  0.0026  0.0996
 4255SOL    HW224228   1.352   0.935   6.685 -0.7750 -3.7594 -1.7637
 4256SOL     OW24229   0.250   3.521  11.483 -0.4017  1.1173 -0.2198
 4256SOL    HW124230   0.174   3.574  11.509 -2.3219 -0.1279 -3.2969
 4256SOL    HW224231   0.224   3.484  11.398  2.1553  0.8294 -0.8689
 4257SOL     OW24232   0.281   4.076  11.779  0.3951 -0.2476 -0.3986
 4257SOL    HW124233   0.306   4.045  11.866 -1.8580  1.4471  0.8500
 4257SOL    HW224234   0.316   4.004  11.727  1.3744 -1.3845  1.8641
 4258SOL     OW24235   1.161   3.526   8.277 -0.7644  0.5517  0.3562
 4258SOL    HW124236   1.244   3.482   8.296 -1.0101  0.4119  1.1102
 4258SOL    HW224237   1.101   3.475   8.332  0.3592  0.2377  1.2721
 4259SOL     OW24238   2.555   4.184   6.625  0.5416 -0.4231  0.4920
 4259SOL    HW124239   2.561   4.246   6.552  0.8624  0.0202  0.8903
 4259SOL    HW224240   2.471   4.198   6.669 -1.0102 -2.6521 -1.7784
 4260SOL     OW24241   4.622   0.966  10.238 -0.5360  0.4450  0.2868
 4260SOL    HW124242   4.677   1.036  10.274  1.0216 -0.2771 -0.6492
 4260SOL    HW224243   4.574   0.925  10.309  0.4059  0.6841  1.0705
 4261SOL     OW24244   3.406   0.365   9.784 -0.3296  0.8642 -0.1011
 4261SOL    HW124245   3.473   0.316   9.736  1.7535  0.9178  2.7935
 4261SOL    HW224246   3.457   0.403   9.855  0.3741 -0.1554 -0.0606
 4262SOL     OW24247   3.940   2.328   4.214 -0.2655  0.2947 -0.4700
 4262SOL    HW124248   3.991   2.354   4.137 -1.8799  0.7323 -1.3988
 4262SOL    HW224249   3.953   2.407   4.267  1.3778  1.3547 -2.4361
 4263SOL     OW24250   2.452   2.750   5.383 -0.0246 -0.1965  0.5950
 4263SOL    HW124251   2.461   2.710   5.469  0.6469  0.3585  0.7847
 4263SOL    HW224252   2.543   2.737   5.354  0.7024 -1.5943  3.4918
 4264SOL     OW24253   3.622   3.171   1.203 -0.5499  0.1516  0.0302
 4264SOL    HW124254   3.530   3.192   1.184  0.1314  0.8536 -2.4736
 4264SOL    HW224255   3.672   3.242   1.163  0.9275 -0.8390  0.1083
 4265SOL     OW24256   2.631   2.945   3.979  0.2959  0.2747  0.0777
 4265SOL    HW124257   2.597   2.856   3.991 -2.2433  1.3601  0.9732
 4265SOL    HW224258   2.604   2.988   4.060  1.4170 -0.7939  1.0352
 4266SOL     OW24259   0.078   4.456   9.208 -0.0637 -0.2238 -0.0677
 4266SOL    HW124260   0.096   4.389   9.274  1.4023 -0.3048 -0.5310
 4266SOL    HW224261   0.098   4.404   9.130 -1.2620 -1.2811  0.3307
 4267SOL     OW24262   3.039   0.494  10.356  0.1615 -0.2645 -0.0312
 4267SOL    HW124263   3.037   0.566  10.292 -2.8905 -1.0186 -0.7582
 4267SOL    HW224264   2.985   0.536  10.423 -2.3359 -1.2040 -1.4676
 4268SOL     OW24265   1.557   0.806   8.920 -0.5931  0.0101  0.0223
 4268SOL    HW124266   1.615   0.866   8.966  0.6825 -2.3699  1.5176
 4268SOL    HW224267   1.584   0.813   8.828  1.3323 -3.8200  0.2761
 4269SOL     OW24268   3.198   0.676   3.023 -0.1682  0.0868  0.7142
 4269SOL    HW124269   3.224   0.606   2.963 -1.0622  1.1058 -0.8843
 4269SOL    HW224270   3.135   0.717   2.962  0.4527 -1.3823 -0.9103
 4270SOL     OW24271   0.321   1.990   8.741 -0.3997 -0.0562  0.5794
 4270SOL    HW124272   0.284   1.902   8.726 -2.6339  0.9300  0.3281
 4270SOL    HW224273   0.297   2.048   8.669  0.0055  0.7839  1.1242
 4271SOL     OW24274   2.735   1.610   5.482  0.1590  0.6365  0.4405
 4271SOL    HW124275   2.812   1.555   5.471 -0.8610 -0.9005  1.0288
 4271SOL    HW224276   2.741   1.620   5.577 -0.6521 -0.3668  0.5918
 4272SOL     OW24277   2.686   3.217  12.607 -0.1359 -0.7272 -0.2521
 4272SOL    HW124278   2.756   3.254  12.661  1.5047 -4.1817 -0.0153
 4272SOL    HW224279   2.694   3.123  12.622 -2.4530 -1.1700 -1.8592
 4273SOL     OW24280   3.440   0.571  15.830 -0.2600 -0.3603  0.6676
 4273SOL    HW124281   3.400   0.524  15.757  0.0661  0.1665  0.1500
 4273SOL    HW224282   3.516   0.611  15.787 -1.5062 -1.3567 -2.4589
 4274SOL     OW24283   3.224   3.178   1.351  0.1210 -0.0817 -0.2746
 4274SOL    HW124284   3.214   3.092   1.394  1.9856 -0.8485 -1.4075
 4274SOL    HW224285   3.229   3.226   1.434 -2.0355  1.3359 -0.9654
 4275SOL     OW24286   0.434   0.750   4.986 -0.0554  0.4055 -0.3609
 4275SOL    HW124287   0.389   0.770   5.068 -2.4363 -0.2220 -1.5116
 4275SOL    HW224288   0.483   0.675   5.017 -0.5214  0.4608  0.4882
 4276SOL     OW24289   1.574   3.435   5.779 -0.6457  0.1024  0.0242
 4276SOL    HW124290   1.649   3.404   5.830 -1.6395 -1.5392  0.4910
 4276SOL    HW224291   1.538   3.501   5.838 -0.2313 -0.8534  1.3366
 4277SOL     OW24292   3.710   3.191   8.058  0.0173 -0.0756  0.4493
 4277SOL    HW124293   3.784   3.132   8.072  1.4319  2.4414  3.6422
 4277SOL    HW224294   3.672   3.194   8.146  0.6790  0.4780  0.7184
 4278SOL     OW24295   1.629   3.222   6.530  0.9233 -0.2445  0.2376
 4278SOL    HW124296   1.672   3.301   6.564  0.7344 -1.0326  2.2993
 4278SOL    HW224297   1.542   3.260   6.518  1.3421  0.6608  0.0749
 4279SOL     OW24298   3.880   3.658  15.368 -0.3684 -0.7903 -0.2909
 4279SOL    HW124299   3.938   3.718  15.320  0.3874 -0.1715  1.4047
 4279SOL    HW224300   3.809   3.648  15.305  0.5976  1.5066 -1.7752
 4280SOL     OW24301   0.341   2.844   5.382 -0.2418 -0.2611  0.9631
 4280SOL    HW124302   0.284   2.921   5.392 -0.0678  0.2411 -1.7607
 4280SOL    HW224303   0.276   2.774   5.377 -0.8778  0.3137  1.1442
 4281SOL     OW24304   0.572   2.805   6.930  0.5621 -0.0625 -0.0707
 4281SOL    HW124305   0.596   2.828   6.840  1.0394 -0.7198 -0.1186
 4281SOL    HW224306   0.477   2.805   6.933  0.6255 -3.2121  1.6618
 4282SOL     OW24307   3.136   3.343   6.805 -0.1014 -0.3407 -0.5718
 4282SOL    HW124308   3.110   3.371   6.717  0.8008 -2.2495 -1.4382
 4282SOL    HW224309   3.121   3.249   6.795 -1.9460 -0.1312  0.2794
 4283SOL     OW24310   3.695   0.803   6.396 -0.2401  0.2265 -0.1782
 4283SOL    HW124311   3.674   0.742   6.466  3.6892 -0.7068  0.2002
 4283SOL    HW224312   3.624   0.862   6.422  0.5317  1.2830 -0.4834
 4284SOL     OW24313   2.838   4.595   0.860 -0.3793  0.1962  0.3676
 4284SOL    HW124314   2.925   4.635   0.859 -1.1963  2.0408  2.3697
 4284SOL    HW224315   2.782   4.663   0.897  0.2450  1.4046 -0.9204
 4285SOL     OW24316   3.459   2.304  16.155 -0.2903  0.5358  0.8554
 4285SOL    HW124317   3.441   2.320  16.247 -0.0877  1.7270  0.6919
 4285SOL    HW224318   3.481   2.211  16.159 -2.4872 -0.0108  0.2402
 4286SOL     OW24319   3.910   2.228   6.138  0.3365  0.2779 -0.0388
 4286SOL    HW124320   3.984   2.179   6.175  0.0285 -0.8440 -0.9303
 4286SOL    HW224321   3.944   2.243   6.050  1.1223 -0.4171  0.1402
 4287SOL     OW24322   3.757   1.721  12.093  0.0040  0.0115 -0.0329
 4287SOL    HW124323   3.663   1.731  12.078  0.0595 -0.4162 -0.6618
 4287SOL    HW224324   3.782   1.813  12.084  2.1881 -0.7231 -1.4898
 4288SOL     OW24325   2.030   1.242   6.187 -0.0548  0.1205  0.4680
 4288SOL    HW124326   2.071   1.213   6.105 -1.7486 -0.6486 -0.1261
 4288SOL    HW224327   2.087   1.197   6.249  0.6472 -2.8519 -2.3139
 4289SOL     OW24328   1.535   2.281   7.947 -0.4364  0.1648  0.0136
 4289SOL    HW124329   1.459   2.320   7.903  1.9228  1.4825 -2.8588
 4289SOL    HW224330   1.501   2.276   8.037 -0.1749  0.7248  0.1421
 4290SOL     OW24331   3.598   2.288   8.138 -0.6598 -0.2397 -0.1945
 4290SOL    HW124332   3.557   2.371   8.113  0.4218 -0.2671 -2.0501
 4290SOL    HW224333   3.524   2.230   8.157 -0.4460 -0.1327  0.9744
 4291SOL     OW24334   0.531   0.330   8.380 -0.7587 -0.2209 -0.0114
 4291SOL    HW124335   0.475   0.353   8.305  0.2672 -0.4845 -0.8598
 4291SOL    HW224336   0.525   0.235   8.372 -0.7411 -0.2055 -0.2251
 4292SOL     OW24337   0.271   2.258  12.422 -0.3135 -0.1034  0.4654
 4292SOL    HW124338   0.214   2.333  12.440 -0.8460 -0.3960  0.0215
 4292SOL    HW224339   0.220   2.188  12.464 -1.0060  1.8309  2.8567
 4293SOL     OW24340   1.227   1.066  15.529 -0.0847  0.1013 -0.2195
 4293SOL    HW124341   1.244   1.112  15.447 -1.0245  1.6331  0.4354
 4293SOL    HW224342   1.282   0.988  15.528  0.1733  0.3144 -2.0895
 4294SOL     OW24343   1.343   4.421  13.209 -0.3074 -0.2822 -0.2181
 4294SOL    HW124344   1.263   4.377  13.182  0.5943 -0.4162 -2.7090
 4294SOL    HW224345   1.316   4.513  13.209 -1.8299 -0.7309 -1.5543
 4295SOL     OW24346   1.870   1.494   6.057  0.1286  0.6693 -0.1614
 4295SOL    HW124347   1.942   1.520   5.999  0.4691 -3.0055 -1.3877
 4295SOL    HW224348   1.907   1.503   6.144  0.9253  1.8341 -0.6187
 4296SOL     OW24349   0.457   2.280   3.801  0.1507 -0.4749 -0.1630
 4296SOL    HW124350   0.362   2.271   3.814  0.5312 -1.0647  2.1919
 4296SOL    HW224351   0.491   2.270   3.889 -0.8478  1.5100  0.4349
 4297SOL     OW24352   4.410   3.750   6.196 -0.0209 -0.1703 -0.2732
 4297SOL    HW124353   4.398   3.667   6.150 -0.9094 -0.1699 -0.0309
 4297SOL    HW224354   4.337   3.805   6.170  2.4293  3.0756 -0.2841
 4298SOL     OW24355   1.387   0.771   3.105 -0.1900  0.4737  0.0096
 4298SOL    HW124356   1.455   0.832   3.134 -0.7106  1.1631 -0.2181
 4298SOL    HW224357   1.400   0.781   3.010  2.0898 -2.6661 -0.0186
 4299SOL     OW24358   2.641   0.224   6.512  0.0062 -0.3617  0.5187
 4299SOL    HW124359   2.690   0.296   6.551  0.9525 -0.2422 -0.8762
 4299SOL    HW224360   2.691   0.148   6.543 -1.3962 -0.4625  2.5304
 4300SOL     OW24361   3.080   1.773   1.976 -0.1230 -0.1921  0.1874
 4300SOL    HW124362   3.011   1.806   2.034 -0.6055  0.2940 -0.6478
 4300SOL    HW224363   3.021   1.766   1.901 -0.4962 -0.9574  0.5554
 4301SOL     OW24364   2.018   0.025   0.991 -0.2168  0.9528 -0.0107
 4301SOL    HW124365   1.983   0.101   1.038 -0.6665  0.8327 -0.1499
 4301SOL    HW224366   2.032   0.067   0.906 -0.8983  1.3635  0.0806
 4302SOL     OW24367   3.287   4.088   5.561  0.4544 -0.2477  0.4752
 4302SOL    HW124368   3.342   4.163   5.539 -1.7920  0.9555 -1.1510
 4302SOL    HW224369   3.215   4.089   5.498 -0.2461 -2.1434  1.2353
 4303SOL     OW24370   0.958   3.181   7.719 -0.4262  0.4645  0.4817
 4303SOL    HW124371   0.979   3.124   7.793 -1.7074  1.3576  1.5307
 4303SOL    HW224372   0.940   3.263   7.765 -1.2732  0.6488 -0.1790
 4304SOL     OW24373   3.269   0.899  12.761 -0.7699 -0.7733  0.8002
 4304SOL    HW124374   3.302   0.850  12.686  0.3432  1.0917  0.0603
 4304SOL    HW224375   3.349   0.923  12.809 -1.2582  1.3165  0.5679
 4305SOL     OW24376   1.799   0.698   1.313  0.2833 -0.2847  0.3431
 4305SOL    HW124377   1.737   0.765   1.341 -0.1851 -0.6851  0.2642
 4305SOL    HW224378   1.855   0.701   1.391  0.6366 -1.3125  0.1294
 4306SOL     OW24379   3.773   4.138   8.192  0.1528  0.2376 -0.5064
 4306SOL    HW124380   3.722   4.172   8.119 -0.8248 -0.0670  0.0260
 4306SOL    HW224381   3.801   4.223   8.228 -2.3433  0.1483  1.6472
 4307SOL     OW24382   1.160   3.435   5.440  0.4200 -0.4172  0.4317
 4307SOL    HW124383   1.214   3.511   5.462 -0.6232  0.1947  0.8827
 4307SOL    HW224384   1.148   3.393   5.525  0.0044 -0.1239  0.5151
 4308SOL     OW24385   2.148   2.657   4.624 -0.2565  0.3814  0.4414
 4308SOL    HW124386   2.228   2.707   4.639 -0.7463  1.4571 -0.4439
 4308SOL    HW224387   2.186   2.584   4.575 -0.6617  1.0600 -0.8981
 4309SOL     OW24388   0.656   0.827   0.926 -0.0653 -0.1407  0.2103
 4309SOL    HW124389   0.721   0.885   0.887 -0.1970 -0.3453 -0.3106
 4309SOL    HW224390   0.576   0.870   0.896  0.3597  0.8505  0.5255
 4310SOL     OW24391   1.645   4.220   5.049  0.0449  0.2032  0.1735
 4310SOL    HW124392   1.600   4.200   5.131  0.0815 -0.2483  0.0849
 4310SOL    HW224393   1.627   4.314   5.044 -0.6746  0.1497  1.8870
 4311SOL     OW24394   0.619   1.123  15.877  0.4439 -0.5430 -0.1015
 4311SOL    HW124395   0.544   1.130  15.818 -0.2181  1.3535  0.9749
 4311SOL    HW224396   0.583   1.162  15.956 -0.5483  0.9515 -1.2793
 4312SOL     OW24397   1.927   1.432   6.339 -0.2360 -0.5947  0.1305
 4312SOL    HW124398   1.970   1.466   6.417  1.0514 -1.4410 -0.2082
 4312SOL    HW224399   1.994   1.385   6.289  0.0562 -0.3017  0.2534
 4313SOL     OW24400   2.084   4.445   3.464  0.0916  0.7257  0.1403
 4313SOL    HW124401   2.070   4.461   3.371  0.1608 -0.9494 -0.1691
 4313SOL    HW224402   2.012   4.382   3.472  1.0832 -0.5128 -0.7825
 4314SOL     OW24403   1.786   2.811   9.086  0.4423  0.2121  0.1574
 4314SOL    HW124404   1.787   2.765   9.002  0.3754  0.3655  0.0720
 4314SOL    HW224405   1.694   2.820   9.111  0.4822 -0.2832  0.4652
 4315SOL     OW24406   3.066   3.729   6.870  0.1535  0.4574 -0.1387
 4315SOL    HW124407   3.070   3.650   6.925  1.4363 -0.6669 -1.8467
 4315SOL    HW224408   2.984   3.775   6.887  0.3241  0.5326  0.4895
 4316SOL     OW24409   3.845   0.055  10.353 -0.4572 -0.4756  0.2576
 4316SOL    HW124410   3.819   0.110  10.427  0.0420  0.3366 -0.1779
 4316SOL    HW224411   3.825   0.111  10.278  0.6932  1.4277  1.3810
 4317SOL     OW24412   2.557   2.905   4.922 -0.4578 -0.4884  0.3443
 4317SOL    HW124413   2.611   2.965   4.974  0.2216  0.5388 -1.5535
 4317SOL    HW224414   2.508   2.862   4.992  0.3811 -2.9596 -0.5726
 4318SOL     OW24415   2.429   4.006   2.622  0.1161 -0.1585  0.5678
 4318SOL    HW124416   2.460   4.015   2.532  2.0922 -0.1097  1.2401
 4318SOL    HW224417   2.342   4.043   2.635 -0.5791 -0.4067 -3.4645
 4319SOL     OW24418   2.356   0.662  13.288 -0.4689 -0.2502  0.0916
 4319SOL    HW124419   2.381   0.713  13.365 -1.6633 -0.0346  0.3336
 4319SOL    HW224420   2.362   0.726  13.216  0.1476  1.0195  1.2661
 4320SOL     OW24421   4.095   4.662   7.263  0.5795  0.3932 -0.0299
 4320SOL    HW124422   4.031   4.596   7.234  1.9744 -0.7721 -0.4578
 4320SOL    HW224423   4.040   4.704   7.329 -0.8813  0.3410 -1.2153
 4321SOL     OW24424   0.710   2.472   6.340 -0.0969  0.3674 -0.4688
 4321SOL    HW124425   0.681   2.389   6.378  1.2346  0.1270  0.0019
 4321SOL    HW224426   0.799   2.452   6.313 -0.3181  1.0568 -1.7144
 4322SOL     OW24427   1.608   4.268   1.054  0.0159  0.0498 -0.6807
 4322SOL    HW124428   1.605   4.346   0.999 -0.8339  0.1057 -0.5441
 4322SOL    HW224429   1.637   4.210   0.983 -0.7076 -0.4455 -0.5659
 4323SOL     OW24430   3.123   3.820   4.042 -0.0680  0.0010  0.3054
 4323SOL    HW124431   3.074   3.824   3.960  0.1596  1.1039  0.2249
 4323SOL    HW224432   3.089   3.735   4.068  0.3711  0.0879  1.1499
 4324SOL     OW24433   4.498   3.131   6.625  0.3261  0.4585  0.7140
 4324SOL    HW124434   4.448   3.116   6.544  1.9388 -0.1510 -0.1812
 4324SOL    HW224435   4.493   3.045   6.666  1.2617  0.0404 -0.0521
 4325SOL     OW24436   4.621   1.374   2.452 -0.0453  0.2982 -0.7191
 4325SOL    HW124437   4.541   1.333   2.484 -0.5703  1.2059 -0.8531
 4325SOL    HW224438   4.642   1.436   2.522  1.0275 -0.7671 -0.1047
 4326SOL     OW24439   0.749   0.397   9.496 -0.3346 -0.2791 -0.0599
 4326SOL    HW124440   0.737   0.491   9.478  2.3443 -0.2208 -1.5189
 4326SOL    HW224441   0.720   0.357   9.414  1.0616  0.3581 -0.8633
 4327SOL     OW24442   0.401   1.864   6.444 -0.8944 -0.3868  0.1569
 4327SOL    HW124443   0.387   1.903   6.358 -0.8964 -0.3639  0.1678
 4327SOL    HW224444   0.311   1.843   6.470 -0.5381  1.2887  2.7712
 4328SOL     OW24445   3.166   1.174   1.475 -0.6467 -0.3842 -0.6721
 4328SOL    HW124446   3.153   1.115   1.400 -1.7792 -0.2636 -0.5730
 4328SOL    HW224447   3.178   1.115   1.549  2.3167 -0.9480 -1.5825
 4329SOL     OW24448   1.369   2.240   1.136  0.7679  0.1985  0.2333
 4329SOL    HW124449   1.350   2.318   1.189  0.8766  1.2138 -1.2171
 4329SOL    HW224450   1.390   2.170   1.198  2.1005 -0.7587 -1.3042
 4330SOL     OW24451   0.642   0.456   6.338  0.1645  0.1478  0.5041
 4330SOL    HW124452   0.721   0.417   6.301 -1.1576 -1.4429 -0.6496
 4330SOL    HW224453   0.661   0.482   6.429  0.2763 -2.3951  1.1979
 4331SOL     OW24454   1.958   3.767  10.925 -0.1297  0.3730  1.0972
 4331SOL    HW124455   1.959   3.861  10.908 -0.8892  0.3242  0.7469
 4331SOL    HW224456   2.020   3.750  10.995  0.4646  0.7668  0.6658
 4332SOL     OW24457   4.224   4.689   4.947 -0.4586 -0.1920 -0.3375
 4332SOL    HW124458   4.255   4.704   5.036 -2.2687 -0.1582  0.2854
 4332SOL    HW224459   4.267   0.036   4.899  0.7248 -0.2106  0.7162
 4333SOL     OW24460   3.834   2.440   6.817  0.2171 -0.4258  0.1254
 4333SOL    HW124461   3.757   2.416   6.765  0.5255  0.9935 -0.9786
 4333SOL    HW224462   3.859   2.352   6.844 -2.0844 -1.8196 -2.1877
 4334SOL     OW24463   2.408   0.586   8.068  0.2882  0.1408 -0.3985
 4334SOL    HW124464   2.433   0.670   8.029  2.0365  1.9168  4.4857
 4334SOL    HW224465   2.411   0.522   7.997 -0.3818  2.8753 -2.9153
 4335SOL     OW24466   0.015   1.668   3.009  0.0691 -0.0223  0.2243
 4335SOL    HW124467   4.675   1.732   3.042  1.1435  0.3654  1.5191
 4335SOL    HW224468   4.704   1.585   3.041 -1.8804 -0.3741 -2.7471
 4336SOL     OW24469   2.569   2.426   3.730 -0.1015  0.3277  0.0913
 4336SOL    HW124470   2.523   2.355   3.686 -0.0600  0.2791  0.1266
 4336SOL    HW224471   2.493   2.467   3.773  0.0670 -2.2213  2.8321
 4337SOL     OW24472   1.034   1.856  10.868 -0.2074 -0.5129 -0.0188
 4337SOL    HW124473   1.002   1.912  10.798 -1.7622 -1.9143 -0.4135
 4337SOL    HW224474   1.128   1.875  10.872 -0.1990 -0.4343 -0.5435
 4338SOL     OW24475   1.052   2.064   1.903  0.5705  0.0891  0.2160
 4338SOL    HW124476   1.145   2.083   1.913  0.4506  1.1470 -0.6453
 4338SOL    HW224477   1.014   2.108   1.980 -1.6722 -0.0704 -0.7850
 4339SOL     OW24478   1.485   1.316   3.636  0.2997 -0.0562  0.4080
 4339SOL    HW124479   1.571   1.355   3.650  0.2541 -0.4087  1.6351
 4339SOL    HW224480   1.506   1.223   3.627 -2.0607 -0.6810  1.5710
 4340SOL     OW24481   2.183   3.019   4.411  0.4606 -0.3193  0.0514
 4340SOL    HW124482   2.195   3.024   4.316 -2.3333 -1.5452 -0.3577
 4340SOL    HW224483   2.273   3.025   4.442  0.5389 -1.0481 -0.0433
 4341SOL     OW24484   3.507   0.073  12.474  0.6429 -0.2990  0.5136
 4341SOL    HW124485   3.595   0.110  12.471  0.3188  0.5593  1.7057
 4341SOL    HW224486   3.515   4.718  12.529  3.0987  0.1562  0.8197
 4342SOL     OW24487   4.161   3.552  15.865 -0.7472 -0.1250 -0.1079
 4342SOL    HW124488   4.108   3.620  15.824 -1.0633  0.6885  1.6473
 4342SOL    HW224489   4.221   3.602  15.921  0.8381 -0.1860 -1.7511
 4343SOL     OW24490   3.653   1.416  11.666 -0.1912  0.0677 -0.0657
 4343SOL    HW124491   3.660   1.497  11.717  1.8583  1.6280 -2.8345
 4343SOL    HW224492   3.572   1.436  11.619  0.6493  0.7571 -1.2316
 4344SOL     OW24493   1.228   4.561  10.882  0.0709 -0.7952  0.1314
 4344SOL    HW124494   1.173   4.586  10.956  0.2705  2.1025 -0.7006
 4344SOL    HW224495   1.229   4.466  10.898  1.5108 -0.6730  0.7912
 4345SOL     OW24496   0.678   3.371   5.338  0.3850 -0.1062  0.5272
 4345SOL    HW124497   0.691   3.463   5.362  0.3403 -0.1873  0.8604
 4345SOL    HW224498   0.764   3.333   5.320 -0.6801 -1.4868 -1.6386
 4346SOL     OW24499   3.128   0.495  16.081  0.3524 -0.3864  0.9914
 4346SOL    HW124500   3.186   0.570  16.074 -0.2097 -0.1599 -1.0726
 4346SOL    HW224501   3.050   0.540  16.049  1.7965  2.8988  2.0985
 4347SOL     OW24502   1.571   0.136   8.511  0.3480 -0.1391 -0.3062
 4347SOL    HW124503   1.616   0.108   8.590  0.0990 -0.9855 -0.4704
 4347SOL    HW224504   1.576   0.232   8.512  1.2988 -0.1798 -1.0822
 4348SOL     OW24505   2.550   0.825  17.632 -0.6780 -0.0921  0.0145
 4348SOL    HW124506   2.551   0.846   0.031 -0.4399 -1.8212  0.3915
 4348SOL    HW224507   2.531   0.731  17.627  2.8917 -0.6289 -3.0236
 4349SOL     OW24508   0.267   1.227   7.072 -0.1804  0.6732  0.5844
 4349SOL    HW124509   0.357   1.252   7.056 -1.0178  2.6384 -1.0706
 4349SOL    HW224510   0.284   1.176   7.152  1.2176  1.1792  0.5926
 4350SOL     OW24511   1.281   2.799  15.743 -0.5256  0.0412  0.0195
 4350SOL    HW124512   1.354   2.859  15.759 -0.6970  0.2022  0.1922
 4350SOL    HW224513   1.213   2.863  15.764 -0.3397  0.6714 -1.3218
 4351SOL     OW24514   3.587   3.122   3.680  0.3270 -0.2607 -0.1898
 4351SOL    HW124515   3.577   3.216   3.697 -0.6225 -0.5544  0.8599
 4351SOL    HW224516   3.497   3.097   3.659  1.5213 -1.9924 -3.2071
 4352SOL     OW24517   2.001   4.045   7.491 -0.0357  0.1888 -0.0142
 4352SOL    HW124518   2.036   4.120   7.540 -1.4105  1.4165 -0.9005
 4352SOL    HW224519   1.923   4.017   7.539  0.8441 -2.1230  0.0717
 4353SOL     OW24520   0.104   4.344   7.879  0.0014  0.1846 -0.4583
 4353SOL    HW124521   0.126   4.269   7.935 -3.1932  0.6441  1.4312
 4353SOL    HW224522   0.066   4.298   7.804 -0.8205  1.8721 -1.0682
 4354SOL     OW24523   4.523   1.386   2.852 -0.1826  0.4018  0.3226
 4354SOL    HW124524   4.513   1.449   2.781  1.0369  1.7847  1.3944
 4354SOL    HW224525   4.438   1.341   2.858  0.0346  0.2654  2.6461
 4355SOL     OW24526   0.524   0.201   2.533 -0.0771  0.0668  0.4428
 4355SOL    HW124527   0.514   0.284   2.487  0.5468  0.1519  0.4586
 4355SOL    HW224528   0.456   0.208   2.599 -0.4972 -0.8996  0.1283
 4356SOL     OW24529   1.005   0.523  15.513 -0.6219 -0.2200 -0.9224
 4356SOL    HW124530   0.986   0.444  15.563  1.0863  0.0301  0.1121
 4356SOL    HW224531   1.093   0.547  15.541 -0.7226 -2.2319  1.0524
 4357SOL     OW24532   2.026   0.372  12.452  0.0734 -0.1243  0.2303
 4357SOL    HW124533   1.953   0.421  12.488  0.8407 -0.3449  2.0594
 4357SOL    HW224534   2.100   0.429  12.428 -1.4995  2.3434  1.3122
 4358SOL     OW24535   1.271   2.655  15.533  0.1952 -0.9273 -0.8307
 4358SOL    HW124536   1.268   2.706  15.615 -1.5326  1.1273 -2.1524
 4358SOL    HW224537   1.299   2.571  15.569 -0.6098 -0.7145  0.2896
 4359SOL     OW24538   2.226   3.216   4.659  0.1963  0.1420  0.4976
 4359SOL    HW124539   2.156   3.263   4.614  1.4341 -0.0111 -1.5732
 4359SOL    HW224540   2.198   3.125   4.652 -1.0389  0.5124  0.6681
 4360SOL     OW24541   3.252   0.619   1.950 -0.3426  0.5172  0.4616
 4360SOL    HW124542   3.245   0.578   2.036 -2.3334  2.9528  1.4625
 4360SOL    HW224543   3.293   0.549   1.898 -2.3510 -0.4205  0.1564
 4361SOL     OW24544   4.643   1.461   4.477 -0.3584  0.4140 -0.6058
 4361SOL    HW124545   4.685   1.510   4.547 -1.2381  0.6025 -0.2098
 4361SOL    HW224546   4.636   1.374   4.516 -0.6515  0.7031 -0.0089
 4362SOL     OW24547   3.901   0.247   4.464  0.2683 -0.4065  0.2290
 4362SOL    HW124548   3.816   0.280   4.494 -1.0524 -2.5456 -1.1318
 4362SOL    HW224549   3.959   0.288   4.528 -0.6297  1.4017 -0.1328
 4363SOL     OW24550   4.091   3.545   5.708  0.3633  0.2291  0.1971
 4363SOL    HW124551   4.006   3.564   5.749  0.6076  1.5256  0.0933
 4363SOL    HW224552   4.142   3.624   5.728  2.2106 -1.1678  0.9572
 4364SOL     OW24553   3.728   1.646  15.782  0.2853  0.0272  0.1617
 4364SOL    HW124554   3.786   1.634  15.707 -0.4746  1.0315 -0.5887
 4364SOL    HW224555   3.651   1.592  15.767 -0.7494  0.8598  2.4729
 4365SOL     OW24556   4.566   2.874   7.323 -0.7250 -0.7669 -0.5744
 4365SOL    HW124557   4.503   2.819   7.368 -0.8727  0.4448  0.7121
 4365SOL    HW224558   4.548   2.853   7.231 -1.4632 -2.1673 -0.0997
 4366SOL     OW24559   4.146   0.240  10.328 -0.0896 -0.0759  0.0947
 4366SOL    HW124560   4.240   0.222  10.332 -0.0293  0.5142  1.3954
 4366SOL    HW224561   4.132   0.325  10.370  0.1501  0.2758 -0.5289
 4367SOL     OW24562   1.434   0.606  14.635 -0.4960  0.4404 -0.2164
 4367SOL    HW124563   1.417   0.700  14.641 -0.0518  0.5073 -0.0387
 4367SOL    HW224564   1.355   0.583  14.586 -0.0926 -1.1040 -0.1299
 4368SOL     OW24565   1.920   0.957  16.102 -0.0039 -0.1762  0.3612
 4368SOL    HW124566   1.936   0.963  16.197  0.3030 -3.1463  0.5081
 4368SOL    HW224567   1.827   0.946  16.086  0.4700 -1.8777 -1.1943
 4369SOL     OW24568   0.989   0.230   1.216 -0.4777  0.3153  0.8650
 4369SOL    HW124569   1.071   0.275   1.196  0.6351 -1.1196  2.2183
 4369SOL    HW224570   0.930   0.278   1.158 -0.3347  0.2429  0.6581
 4370SOL     OW24571   1.496   1.600   0.400  0.2586 -0.2587  0.1194
 4370SOL    HW124572   1.444   1.600   0.320  0.4572  1.4484 -0.0109
 4370SOL    HW224573   1.587   1.617   0.375 -0.1349 -0.3627 -1.4114
 4371SOL     OW24574   2.706   4.589   3.627 -0.6844 -0.0973 -0.1571
 4371SOL    HW124575   2.652   4.524   3.672 -1.3281  1.0353  0.7049
 4371SOL    HW224576   2.780   4.535   3.599 -1.1528 -3.0978  4.2972
 4372SOL     OW24577   2.186   0.174   1.329  0.4870  0.2693 -0.4831
 4372SOL    HW124578   2.242   0.128   1.266 -0.6011  1.0351 -2.0126
 4372SOL    HW224579   2.185   0.264   1.296 -0.2137  0.5268  0.2444
 4373SOL     OW24580   2.275   0.037   9.481 -0.0495  0.4690  0.1285
 4373SOL    HW124581   2.236   0.123   9.464  1.2909  1.8255  4.0019
 4373SOL    HW224582   2.207   0.000   9.537  1.1304  0.7875  1.7574
 4374SOL     OW24583   1.884   3.092   3.738 -0.1773 -0.1556  0.3823
 4374SOL    HW124584   1.852   3.005   3.716 -0.6189 -0.5745  2.6427
 4374SOL    HW224585   1.805   3.129   3.777 -1.0121  0.8978 -2.3577
 4375SOL     OW24586   4.282   4.136   3.703  0.1684 -0.1599 -0.2369
 4375SOL    HW124587   4.331   4.185   3.637  0.1988  2.7597  1.9875
 4375SOL    HW224588   4.227   4.208   3.734  1.8515  1.7561 -1.7054
 4376SOL     OW24589   0.862   2.811   5.945  0.4297 -0.2027  0.1586
 4376SOL    HW124590   0.922   2.867   5.994  0.9889 -1.4426  0.8968
 4376SOL    HW224591   0.789   2.802   6.007  0.3185  0.6572  0.1551
 4377SOL     OW24592   3.541   2.520   5.388 -0.6706  0.2128 -0.0487
 4377SOL    HW124593   3.535   2.438   5.437  3.1451  1.3543  2.3036
 4377SOL    HW224594   3.563   2.495   5.299 -0.5534  2.0108 -0.5164
 4378SOL     OW24595   0.432   1.336   4.536 -0.0121  0.2492 -0.2364
 4378SOL    HW124596   0.499   1.404   4.529 -0.9372  1.2068  0.2449
 4378SOL    HW224597   0.366   1.375   4.594  2.2445  1.6814  1.3721
 4379SOL     OW24598   2.022   0.932   3.401 -0.0032 -0.3988 -0.0091
 4379SOL    HW124599   2.044   0.999   3.466 -1.3975 -0.3742  0.4229
 4379SOL    HW224600   1.984   0.868   3.461  0.6790 -1.0919 -0.3188
 4380SOL     OW24601   3.551   2.499  15.563 -0.3703  0.2479 -0.6203
 4380SOL    HW124602   3.489   2.432  15.589 -0.9468 -0.6244 -4.2531
 4380SOL    HW224603   3.506   2.583  15.556 -3.3355 -1.0318  3.3632
 4381SOL     OW24604   3.842   0.765   6.910  0.4240 -0.3810  0.5494
 4381SOL    HW124605   3.900   0.766   6.986  1.5399  1.3628 -0.3328
 4381SOL    HW224606   3.808   0.676   6.924 -0.4582  0.1674  1.8998
 4382SOL     OW24607   2.432   3.861   9.247  0.1441 -0.0681 -0.0467
 4382SOL    HW124608   2.484   3.806   9.306 -0.6195 -1.1716 -0.4018
 4382SOL    HW224609   2.365   3.885   9.311  1.7682  0.1743  1.5746
 4383SOL     OW24610   4.592   1.886  17.039 -0.0830 -0.6878  0.1052
 4383SOL    HW124611   4.554   1.833  16.969 -1.0447 -0.8496  0.7439
 4383SOL    HW224612   4.616   1.826  17.110 -6.3583 -2.9211  0.3321
 4384SOL     OW24613   3.165   1.275   9.530 -0.4395 -0.1056  0.1726
 4384SOL    HW124614   3.160   1.370   9.519  0.4740  0.0305  0.8712
 4384SOL    HW224615   3.251   1.261   9.572 -1.4427 -2.0687  1.5849
 4385SOL     OW24616   1.388   2.195  11.424  0.4538 -0.0904  0.3597
 4385SOL    HW124617   1.305   2.236  11.401 -0.6480 -2.9524 -0.8210
 4385SOL    HW224618   1.355   2.119  11.473 -0.7218  0.2740  0.1115
 4386SOL     OW24619   4.442   1.300   3.736 -0.1003 -0.2145 -0.6285
 4386SOL    HW124620   4.533   1.271   3.730  0.1110  0.0114  1.7279
 4386SOL    HW224621   4.442   1.318   3.830 -0.1817 -2.6396 -0.1646
 4387SOL     OW24622   0.038   0.447   0.674  0.1914  1.0706  0.5317
 4387SOL    HW124623   0.068   0.524   0.724  2.2366 -1.4419  3.1450
 4387SOL    HW224624   4.679   0.418   0.715  0.5930  0.0367  0.5735
 4388SOL     OW24625   4.651   1.211   4.592 -0.2214  0.0580 -0.6080
 4388SOL    HW124626   4.636   1.117   4.588 -0.3863  0.0341  0.5083
 4388SOL    HW224627   4.632   1.229   4.684  0.0364  1.5581 -0.8504
 4389SOL     OW24628   1.654   0.824   7.555  0.3356 -0.1445  0.3980
 4389SOL    HW124629   1.710   0.857   7.625  2.5665 -0.0290 -1.4325
 4389SOL    HW224630   1.631   0.738   7.590  2.4974 -1.0666 -0.4090
 4390SOL     OW24631   2.222   2.590   5.375 -0.2091  0.2092  0.8236
 4390SOL    HW124632   2.268   2.511   5.402 -0.8046 -0.9350 -1.5268
 4390SOL    HW224633   2.290   2.657   5.379 -1.5139  1.6608 -1.2012
 4391SOL     OW24634   0.779   0.436  10.620 -0.9107  0.0765 -0.4698
 4391SOL    HW124635   0.838   0.482  10.560 -2.3505  1.5099 -0.8071
 4391SOL    HW224636   0.825   0.449  10.704 -0.4195  0.0416 -0.7319
 4392SOL     OW24637   3.355   2.219   6.644 -0.0785 -0.8440 -0.8087
 4392SOL    HW124638   3.311   2.202   6.561 -0.8324 -0.3167 -0.5190
 4392SOL    HW224639   3.284   2.213   6.707  2.0675  0.0432  1.6939
 4393SOL     OW24640   3.098   1.612  12.625 -0.1980  0.5812  0.3432
 4393SOL    HW124641   3.050   1.653  12.553  1.6311 -2.2288 -2.4574
 4393SOL    HW224642   3.030   1.555  12.660  0.2738  0.8527  1.7106
 4394SOL     OW24643   4.251   2.198   4.437  0.4031  0.2290 -0.0478
 4394SOL    HW124644   4.339   2.161   4.441  0.8026  1.2043  0.1308
 4394SOL    HW224645   4.214   2.152   4.362  0.9905  0.1060 -0.2610
 4395SOL     OW24646   4.538   3.600  13.637  0.3814  0.3101 -0.0674
 4395SOL    HW124647   4.578   3.687  13.639  1.0121 -0.0219  1.5849
 4395SOL    HW224648   4.538   3.589  13.542  1.4707  2.5794 -0.3408
 4396SOL     OW24649   2.202   2.676  11.100  0.3639 -0.3537  0.1891
 4396SOL    HW124650   2.251   2.598  11.076  0.8108 -0.3716  1.1956
 4396SOL    HW224651   2.124   2.634  11.136  1.4483 -2.4176  0.1386
 4397SOL     OW24652   4.426   2.256   7.429 -0.2779 -0.6850 -0.5683
 4397SOL    HW124653   4.485   2.223   7.497 -0.8262 -4.6552 -2.0659
 4397SOL    HW224654   4.490   2.244   7.359 -1.5669 -1.1613 -1.6544
 4398SOL     OW24655   2.620   2.860   3.572  0.0764 -0.1579 -0.0689
 4398SOL    HW124656   2.642   2.944   3.613  0.0903  0.1672 -0.7389
 4398SOL    HW224657   2.706   2.819   3.584  0.1367  0.0470  0.1977
 4399SOL     OW24658   1.350   1.982   4.269 -0.3455 -0.2349  0.7010
 4399SOL    HW124659   1.389   2.066   4.247 -0.4553 -0.3206  0.1607
 4399SOL    HW224660   1.303   1.966   4.187  2.1021  1.1934 -0.9717
 4400SOL     OW24661   1.238   0.463   7.295  0.5550 -0.0384 -0.5651
 4400SOL    HW124662   1.314   0.519   7.311 -0.5383  1.3829 -0.3648
 4400SOL    HW224663   1.189   0.472   7.377 -0.0255 -2.2804 -0.6839
 4401SOL     OW24664   4.030   1.368   1.357  0.0846  0.2618  0.4391
 4401SOL    HW124665   4.096   1.434   1.376 -0.3036  0.0773  2.5280
 4401SOL    HW224666   4.080   1.291   1.386 -0.3995 -0.0795  0.3604
 4402SOL     OW24667   2.722   4.520   1.981  0.3027  0.2212 -0.2994
 4402SOL    HW124668   2.771   4.522   2.063  0.7497 -1.3927 -0.5208
 4402SOL    HW224669   2.785   4.545   1.913  0.5794 -0.6353 -0.3542
 4403SOL     OW24670   3.015   1.676   9.748  0.8996 -0.2290  0.1554
 4403SOL    HW124671   3.052   1.761   9.770  0.3370 -0.3653  1.6134
 4403SOL    HW224672   2.922   1.697   9.742  0.9863  0.7451  2.2174
 4404SOL     OW24673   0.870   1.704  15.561  0.4967  0.3618 -0.2311
 4404SOL    HW124674   0.957   1.734  15.537  0.3766  1.3195  0.5510
 4404SOL    HW224675   0.810   1.751  15.503  0.0004  0.6299  0.4953
 4405SOL     OW24676   0.312   2.336   4.905 -0.0725 -0.5580 -0.3517
 4405SOL    HW124677   0.375   2.285   4.955  1.4091  2.2793  0.6532
 4405SOL    HW224678   0.367   2.407   4.873 -0.4764  0.8241  2.0085
 4406SOL     OW24679   0.136   3.691   0.213 -0.5558 -0.2768  0.1830
 4406SOL    HW124680   0.132   3.644   0.297  0.1939 -0.1277  0.3037
 4406SOL    HW224681   0.096   3.772   0.244  2.5965  1.0956  0.6185
 4407SOL     OW24682   1.136   0.546   1.036 -0.1619  0.0159 -0.1326
 4407SOL    HW124683   1.188   0.612   1.082  2.0601 -0.5812 -1.7438
 4407SOL    HW224684   1.070   0.603   0.997 -0.5600 -0.7080 -0.5189
 4408SOL     OW24685   4.460   2.570   9.649 -0.5782 -0.2207  0.0825
 4408SOL    HW124686   4.418   2.636   9.703 -1.7853 -0.1171 -0.9898
 4408SOL    HW224687   4.489   2.622   9.574 -0.1099  1.5550  1.5081
 4409SOL     OW24688   2.182   4.136   6.967 -0.0424 -0.3478  0.0050
 4409SOL    HW124689   2.237   4.058   6.963  0.3226 -0.2298  2.9014
 4409SOL    HW224690   2.136   4.126   7.050 -1.3773  0.8708 -0.5895
 4410SOL     OW24691   3.622   2.476  15.265  0.0413 -0.2783 -0.1048
 4410SOL    HW124692   3.592   2.504  15.352 -0.8860 -1.5327 -0.0263
 4410SOL    HW224693   3.644   2.563  15.232  0.2149 -0.8095 -1.3609
 4411SOL     OW24694   3.343   1.623   5.824 -0.4478 -0.5217 -1.1016
 4411SOL    HW124695   3.387   1.541   5.800  2.5447 -0.0841  2.8710
 4411SOL    HW224696   3.259   1.620   5.778 -0.9285 -1.5114 -0.1464
 4412SOL     OW24697   4.036   0.927   6.187 -0.1316  0.0041  0.2743
 4412SOL    HW124698   4.051   1.017   6.160  2.0021 -0.6322 -0.6334
 4412SOL    HW224699   3.984   0.947   6.266  0.7682  0.3112  0.7899
 4413SOL     OW24700   2.787   1.792   8.789 -0.0853 -0.2336  0.2941
 4413SOL    HW124701   2.754   1.880   8.812 -1.8050 -0.5296 -1.0840
 4413SOL    HW224702   2.737   1.744   8.855 -2.2411  0.4884 -0.7876
 4414SOL     OW24703   1.112   4.705   7.661  0.7886  0.0389 -0.2061
 4414SOL    HW124704   1.109   0.065   7.613  4.2072 -0.0782 -0.6118
 4414SOL    HW224705   1.115   4.646   7.587  0.2284  0.4181 -0.5343
 4415SOL     OW24706   1.996   2.205   7.806  0.2419  0.0462  0.3099
 4415SOL    HW124707   1.987   2.292   7.845  0.3289  1.6200 -3.1751
 4415SOL    HW224708   1.906   2.180   7.785  0.4833 -1.4079  1.0024
 4416SOL     OW24709   4.462   1.881  12.193  0.0124 -0.1686 -0.6862
 4416SOL    HW124710   4.383   1.893  12.140 -0.1899 -0.0746 -0.3610
 4416SOL    HW224711   4.524   1.874  12.120  0.4552  0.3692 -0.3639
 4417SOL     OW24712   0.668   1.351   4.004  0.0720  0.2835  0.0680
 4417SOL    HW124713   0.621   1.331   3.924  1.9960  0.4563 -1.0899
 4417SOL    HW224714   0.713   1.432   3.978 -0.5840  0.9076  0.8555
 4418SOL     OW24715   4.380   2.414   8.324  0.1297  0.1216  0.3787
 4418SOL    HW124716   4.331   2.371   8.393  0.2889  0.8104  0.9294
 4418SOL    HW224717   4.341   2.377   8.245  0.4227 -0.3331  0.4467
 4419SOL     OW24718   0.940   1.055   6.908  0.4652  0.3430  0.0474
 4419SOL    HW124719   0.928   0.999   6.985  2.4273  0.6329  0.5471
 4419SOL    HW224720   0.926   1.002   6.829  1.2985 -0.3419  0.3714
 4420SOL     OW24721   3.756   3.574   8.738  0.0623  0.3806  0.6320
 4420SOL    HW124722   3.733   3.588   8.646  4.8482 -0.6583 -0.7260
 4420SOL    HW224723   3.848   3.546   8.729  0.2653  1.3632 -0.2773
 4421SOL     OW24724   2.271   0.744   4.938  0.1975  0.1110 -0.2368
 4421SOL    HW124725   2.209   0.672   4.937  1.5586 -1.0742  0.2908
 4421SOL    HW224726   2.351   0.706   4.902  0.0423 -2.0350  1.6708
 4422SOL     OW24727   2.912   1.376   7.752 -0.4053  0.2162 -0.3600
 4422SOL    HW124728   2.889   1.469   7.757  0.3553  0.5648 -3.1325
 4422SOL    HW224729   3.006   1.371   7.769 -0.6773 -2.5237  0.3835
 4423SOL     OW24730   3.056   0.054   8.288 -0.0311 -0.1285  0.3183
 4423SOL    HW124731   3.110   0.023   8.361  0.0366  0.6240  0.5833
 4423SOL    HW224732   3.057   0.147   8.310 -0.8202 -0.3514  1.2689
 4424SOL     OW24733   2.167   4.283   2.886  0.3959  0.3000 -0.3558
 4424SOL    HW124734   2.193   4.273   2.977  1.0593  0.0076 -0.5731
 4424SOL    HW224735   2.252   4.296   2.844  0.0432 -2.1387 -1.8936
 4425SOL     OW24736   4.300   1.441   7.931 -0.5618  0.3339  0.4597
 4425SOL    HW124737   4.255   1.486   8.002 -2.6887  0.0063 -0.6636
 4425SOL    HW224738   4.246   1.362   7.924  0.0152  0.1751 -2.3642
 4426SOL     OW24739   3.566   2.201  13.757 -0.4571 -0.1703 -0.6447
 4426SOL    HW124740   3.651   2.200  13.799 -0.3511 -0.4576 -0.8602
 4426SOL    HW224741   3.529   2.138  13.818  0.3606 -0.4679 -0.4621
 4427SOL     OW24742   1.990   1.733   7.715 -0.0493 -0.1579  0.1625
 4427SOL    HW124743   2.061   1.676   7.744 -0.7812 -1.0829  0.1360
 4427SOL    HW224744   1.955   1.754   7.802 -0.8296  2.5363 -0.8062
 4428SOL     OW24745   4.398   4.281   5.067 -0.0938  0.1112 -0.6826
 4428SOL    HW124746   4.309   4.264   5.037 -0.0600 -0.2757 -0.5588
 4428SOL    HW224747   4.414   4.365   5.024  1.6409  1.1195  1.8728
 4429SOL     OW24748   4.139   4.079   9.823  0.0249 -0.8522 -0.4951
 4429SOL    HW124749   4.205   4.078   9.892  0.6472 -2.5978 -1.1238
 4429SOL    HW224750   4.081   4.152   9.844  0.4462 -0.6451 -0.0632
 4430SOL     OW24751   2.892   1.351   2.782  0.1590  0.0295  0.4303
 4430SOL    HW124752   2.915   1.363   2.690 -0.4732 -0.3592  0.2168
 4430SOL    HW224753   2.820   1.414   2.774 -0.9418 -1.1723  0.8610
 4431SOL     OW24754   0.314   0.888   5.445 -0.3062  0.2786  0.2311
 4431SOL    HW124755   0.333   0.835   5.368  0.6109  0.9366  0.0111
 4431SOL    HW224756   0.397   0.936   5.449 -0.6600  1.0233 -1.4781
 4432SOL     OW24757   1.667   4.113  12.635  0.3627  0.8257  0.8200
 4432SOL    HW124758   1.649   4.200  12.599 -0.4515 -0.3249 -1.5534
 4432SOL    HW224759   1.760   4.103  12.618  0.3808 -1.9760  2.6313
 4433SOL     OW24760   3.465   0.944   5.645  0.4191  0.6785  0.0631
 4433SOL    HW124761   3.406   0.898   5.585  2.8654  0.0315 -1.8630
 4433SOL    HW224762   3.467   0.878   5.715 -0.4753  0.5426 -0.0374
 4434SOL     OW24763   4.674   3.473  17.462 -0.3898  0.4222  0.1472
 4434SOL    HW124764   0.002   3.521  17.527 -0.2962 -0.0041  0.3884
 4434SOL    HW224765   4.723   3.391  17.461 -0.8726  0.1415 -0.3048
 4435SOL     OW24766   0.097   4.133   6.594 -0.3345 -0.4439  0.4290
 4435SOL    HW124767   0.040   4.068   6.636  0.0624 -1.5834 -0.8319
 4435SOL    HW224768   0.174   4.083   6.567  0.1797  0.9909 -0.7495
 4436SOL     OW24769   3.527   0.452   7.656 -0.6480  0.0143  0.2461
 4436SOL    HW124770   3.539   0.543   7.681 -1.9979  0.0741  0.6359
 4436SOL    HW224771   3.562   0.457   7.567 -0.2028  2.5456  0.5632
 4437SOL     OW24772   2.261   4.401   7.381 -0.1948  0.1004  0.5455
 4437SOL    HW124773   2.306   4.317   7.381 -2.1093 -0.9460 -0.2108
 4437SOL    HW224774   2.236   4.405   7.288  0.0597 -0.6093  0.4489
 4438SOL     OW24775   1.597   2.425   1.075 -0.1084 -0.3938 -0.2883
 4438SOL    HW124776   1.541   2.428   1.153  0.6125 -0.5329  0.2326
 4438SOL    HW224777   1.667   2.484   1.103  1.1223 -0.0371 -4.1254
 4439SOL     OW24778   3.379   2.682  10.536  0.4252  0.3231  0.7608
 4439SOL    HW124779   3.353   2.607  10.590 -2.5687  1.5004  0.9348
 4439SOL    HW224780   3.474   2.671  10.547  0.3986 -0.2593  0.3871
 4440SOL     OW24781   1.883   0.307  12.155  0.7852  0.5563 -0.5513
 4440SOL    HW124782   1.832   0.246  12.102  0.2939  0.4595  0.0354
 4440SOL    HW224783   1.809   0.357  12.191  1.2829  0.6233  0.3867
 4441SOL     OW24784   4.424   0.181   2.406 -0.1242 -0.2827 -0.6499
 4441SOL    HW124785   4.516   0.205   2.404 -0.1370 -0.1282  0.9298
 4441SOL    HW224786   4.430   0.086   2.412  1.2565 -0.1477 -0.0422
 4442SOL     OW24787   3.664   1.614   7.671 -0.3112  0.6873 -0.5411
 4442SOL    HW124788   3.589   1.672   7.687  0.1876  1.0051  0.6485
 4442SOL    HW224789   3.726   1.666   7.721 -0.0728 -1.8721  1.8466
 4443SOL     OW24790   1.315   2.066   2.973 -0.1023  0.0196  0.2591
 4443SOL    HW124791   1.369   2.126   2.922 -0.5789  0.8210  0.6952
 4443SOL    HW224792   1.296   2.002   2.904  0.4801 -0.6032  0.6811
 4444SOL     OW24793   3.085   1.660   2.775  0.2608  0.2511  0.0980
 4444SOL    HW124794   3.064   1.694   2.688 -0.3922  2.9515  1.3290
 4444SOL    HW224795   3.107   1.568   2.761  1.3215  0.3195  1.3158
 4445SOL     OW24796   4.027   3.621  14.455 -0.5982  0.8171  0.6785
 4445SOL    HW124797   4.042   3.705  14.412 -1.3336 -0.6584 -2.4134
 4445SOL    HW224798   4.081   3.627  14.535 -0.7521 -2.8967  1.0366
 4446SOL     OW24799   0.047   4.054  11.469  0.1043  0.4773  0.1638
 4446SOL    HW124800   0.084   3.974  11.505  0.8735  1.3683  1.3417
 4446SOL    HW224801   0.059   4.033  11.376 -0.8047  1.5209 -0.1976
 4447SOL     OW24802   1.397   1.472   3.845 -0.5571  0.0087 -0.0929
 4447SOL    HW124803   1.396   1.398   3.785 -0.3918 -1.4405  1.7148
 4447SOL    HW224804   1.491   1.471   3.860 -0.5904 -0.1196  0.0984
 4448SOL     OW24805   3.719   3.765   2.663  0.4665 -0.3183 -0.1316
 4448SOL    HW124806   3.807   3.762   2.625  0.2348 -2.2875 -0.5540
 4448SOL    HW224807   3.718   3.860   2.673  1.5200 -0.1906 -1.1913
 4449SOL     OW24808   3.689   3.349   6.878  0.0816 -0.2248 -0.0794
 4449SOL    HW124809   3.610   3.387   6.917  0.5490 -1.7417  2.3166
 4449SOL    HW224810   3.737   3.431   6.862  1.7745 -0.5310  3.4387
 4450SOL     OW24811   4.375   3.290  13.718 -1.1923  0.5567 -0.3287
 4450SOL    HW124812   4.324   3.321  13.643 -1.6037  1.2846  0.2565
 4450SOL    HW224813   4.336   3.341  13.789 -0.6375 -0.7909  0.9394
 4451SOL     OW24814   0.852   3.923  14.913 -0.2476  0.4782 -0.1501
 4451SOL    HW124815   0.871   3.830  14.898  0.4401  0.7391 -0.8830
 4451SOL    HW224816   0.874   3.936  15.006  2.6858 -0.1722 -0.7452
 4452SOL     OW24817   3.171   4.692   4.639  0.4225  0.1280  0.8048
 4452SOL    HW124818   3.236   0.037   4.657  1.9143 -0.4098 -2.4872
 4452SOL    HW224819   3.151   4.688   4.545  1.2680 -1.4138  0.6833
 4453SOL     OW24820   0.877   4.087   9.357  0.4394  0.5438  0.6648
 4453SOL    HW124821   0.804   4.097   9.419  0.4999  0.6532  0.7187
 4453SOL    HW224822   0.888   4.180   9.336  0.8216 -0.1746 -2.3622
 4454SOL     OW24823   3.347   4.333   2.950  0.1514 -0.2873  0.3811
 4454SOL    HW124824   3.372   4.424   2.934 -3.0287  0.4243 -0.5643
 4454SOL    HW224825   3.434   4.301   2.973  0.5592 -0.9621 -2.1565
 4455SOL     OW24826   0.301   3.938  10.725  0.2844  0.0693  0.0144
 4455SOL    HW124827   0.280   3.894  10.807  1.2593  2.2559  1.4520
 4455SOL    HW224828   0.395   3.953  10.718  0.0479  0.7588 -1.8009
 4456SOL     OW24829   2.667   0.256   3.889  0.0810  0.2930  0.2575
 4456SOL    HW124830   2.591   0.236   3.942  0.8277 -2.5858  0.2334
 4456SOL    HW224831   2.640   0.226   3.802 -1.6680  0.3678  0.7911
 4457SOL     OW24832   3.884   4.276  11.931 -0.0057 -0.5140  0.2378
 4457SOL    HW124833   3.973   4.247  11.910 -0.5730 -1.6988 -0.5087
 4457SOL    HW224834   3.879   4.370  11.914 -1.8877 -0.7785 -0.7360
 4458SOL     OW24835   2.797   3.896   9.299  0.1589  0.2994 -0.0798
 4458SOL    HW124836   2.769   3.920   9.387  0.0273 -0.6773  0.1413
 4458SOL    HW224837   2.748   3.815   9.282 -0.6826  0.9316 -0.7177
 4459SOL     OW24838   1.805   2.310   4.196 -0.2079 -0.4936 -0.1224
 4459SOL    HW124839   1.791   2.273   4.109  2.6645 -3.4928  0.6903
 4459SOL    HW224840   1.878   2.253   4.219  0.5805  0.5059 -0.1084
 4460SOL     OW24841   3.348   2.581   7.678  0.3444 -0.2903 -0.4504
 4460SOL    HW124842   3.291   2.650   7.643 -0.8880 -0.0311  2.0826
 4460SOL    HW224843   3.387   2.622   7.755 -0.2292  3.4080 -2.1266
 4461SOL     OW24844   3.738   2.038   1.619 -0.1833 -0.5456  0.3950
 4461SOL    HW124845   3.799   2.070   1.686  1.1210  2.6825 -2.3327
 4461SOL    HW224846   3.658   2.012   1.665 -0.4656  1.1722  0.9035
 4462SOL     OW24847   0.670   4.158   8.529 -0.1504  0.5514  0.1972
 4462SOL    HW124848   0.623   4.215   8.469 -0.9061  0.1089  0.3711
 4462SOL    HW224849   0.653   4.079   8.477  0.7128 -0.4494  1.4087
 4463SOL     OW24850   3.398   3.639   4.928  0.0813  0.1925 -0.0901
 4463SOL    HW124851   3.316   3.635   4.978  0.3006  2.3208  0.4270
 4463SOL    HW224852   3.368   3.619   4.839 -1.4163  2.1765 -0.0301
 4464SOL     OW24853   0.945   1.402   1.480  0.8744 -0.0093  0.4025
 4464SOL    HW124854   0.921   1.421   1.389  0.7781 -2.8399 -0.1733
 4464SOL    HW224855   1.035   1.372   1.470 -0.3831 -3.2421 -1.1593
 4465SOL     OW24856   1.793   3.459   8.381  0.6508 -0.1548 -0.3234
 4465SOL    HW124857   1.777   3.486   8.471 -1.6284  1.4369 -1.2130
 4465SOL    HW224858   1.872   3.405   8.382  2.0883  1.9627 -0.8828
 4466SOL     OW24859   1.896   2.678  16.097  0.2923 -0.5282  0.0485
 4466SOL    HW124860   1.973   2.699  16.149 -2.0556  1.5932  2.6418
 4466SOL    HW224861   1.876   2.603  16.152  0.6118 -0.9952 -0.4672
 4467SOL     OW24862   1.224   1.896  10.541  0.2872  0.4653 -0.2057
 4467SOL    HW124863   1.203   1.985  10.568 -0.5273 -0.6012  2.5797
 4467SOL    HW224864   1.143   1.857  10.571  0.4325  0.8712  0.7086
 4468SOL     OW24865   0.390   0.128   8.804  0.1570 -0.0823  0.2460
 4468SOL    HW124866   0.483   0.127   8.779 -0.2390  0.7017 -1.2768
 4468SOL    HW224867   0.361   0.060   8.743  0.2620  0.6653 -0.6423
 4469SOL     OW24868   3.806   1.603   2.485  0.3625 -0.5812 -0.0758
 4469SOL    HW124869   3.825   1.563   2.400 -2.4350  0.0076 -1.0031
 4469SOL    HW224870   3.801   1.692   2.451  0.1217 -0.6621 -0.2536
 4470SOL     OW24871   1.824   3.287   8.106 -0.3553 -0.1950 -0.1469
 4470SOL    HW124872   1.895   3.240   8.062 -0.1487  1.8962 -2.0398
 4470SOL    HW224873   1.856   3.282   8.197 -1.6004 -2.4332  0.1536
 4471SOL     OW24874   1.901   0.988   7.631  0.7628  0.4069 -0.0907
 4471SOL    HW124875   1.878   0.983   7.724 -0.1835  1.6011 -0.2603
 4471SOL    HW224876   1.990   0.953   7.635  0.6430  0.1888  0.6945
 4472SOL     OW24877   4.469   2.101   2.985  0.2962  0.2706  0.1486
 4472SOL    HW124878   4.422   2.145   3.056 -0.7745 -2.3936  1.1049
 4472SOL    HW224879   4.540   2.165   2.981 -0.3300  0.9264 -0.4406
 4473SOL     OW24880   0.350   4.263   9.200 -0.0576  0.0080 -0.3769
 4473SOL    HW124881   0.376   4.175   9.227 -0.8874 -0.4494 -1.0758
 4473SOL    HW224882   0.281   4.247   9.136 -0.1463 -0.5589 -0.1442
 4474SOL     OW24883   0.716   2.406   4.473  0.2975 -0.3751  0.2125
 4474SOL    HW124884   0.759   2.437   4.393 -3.6253  1.4005 -1.2063
 4474SOL    HW224885   0.672   2.489   4.490  1.8975  0.3562  0.7720
 4475SOL     OW24886   0.857   1.411  15.959 -0.2203  0.0803  0.5952
 4475SOL    HW124887   0.871   1.375  15.871  0.0726  0.0011  0.6766
 4475SOL    HW224888   0.803   1.488  15.939 -0.5093 -0.0724  0.7786
 4476SOL     OW24889   1.587   0.636   7.725  0.0713  0.4284  0.8519
 4476SOL    HW124890   1.633   0.612   7.806 -0.2530  1.5757  1.3740
 4476SOL    HW224891   1.515   0.688   7.760 -1.0670 -2.2773  2.5326
 4477SOL     OW24892   2.094   2.733   8.431 -0.1187 -0.0126  0.1288
 4477SOL    HW124893   2.098   2.655   8.486 -2.4665 -0.5569 -0.4952
 4477SOL    HW224894   2.071   2.696   8.346  3.6564  1.5594 -1.6112
 4478SOL     OW24895   0.440   1.968   3.568  0.0518  0.3186  0.8235
 4478SOL    HW124896   0.422   2.059   3.547 -0.3181  0.2331  0.7722
 4478SOL    HW224897   0.361   1.947   3.619 -2.1734  1.0675 -2.3229
 4479SOL     OW24898   0.221   2.267   3.253 -0.2997 -0.7743 -0.4007
 4479SOL    HW124899   0.273   2.236   3.327 -1.9807  1.5065  1.7258
 4479SOL    HW224900   0.193   2.353   3.282 -0.5316 -1.2193  0.7002
 4480SOL     OW24901   2.235   3.325   6.901 -0.5133 -0.1834  0.5918
 4480SOL    HW124902   2.180   3.263   6.854 -0.7227  0.1250  0.4293
 4480SOL    HW224903   2.203   3.407   6.864  1.0955  0.2789  0.1898
 4481SOL     OW24904   1.591   0.486  11.686  0.3660  0.3296  0.3083
 4481SOL    HW124905   1.596   0.496  11.591 -2.4086 -1.3083 -0.0040
 4481SOL    HW224906   1.498   0.489  11.708  0.4159 -0.3902  0.5998
 4482SOL     OW24907   0.918   4.153   0.189  0.1389  0.1567 -0.0690
 4482SOL    HW124908   0.910   4.248   0.192  1.3377  0.3382 -2.5573
 4482SOL    HW224909   1.010   4.125   0.196  0.1636  0.1711 -0.3217
 4483SOL     OW24910   0.160   1.983  17.533 -0.3357  0.3731 -0.0665
 4483SOL    HW124911   0.115   1.967  17.616  2.0295 -1.9965  0.7643
 4483SOL    HW224912   0.093   1.952  17.471 -0.8517 -0.7792  1.0721
 4484SOL     OW24913   3.554   3.809   4.739  0.3169  0.3191  0.2321
 4484SOL    HW124914   3.536   3.750   4.813  0.8338  0.7274  0.6787
 4484SOL    HW224915   3.649   3.811   4.730  0.1571  1.1559 -1.2248
 4485SOL     OW24916   3.570   1.244   0.225 -0.3160  0.1130  0.0592
 4485SOL    HW124917   3.619   1.186   0.285 -2.1495 -2.1898 -0.6660
 4485SOL    HW224918   3.579   1.202   0.140 -0.0965  1.3872 -0.5372
 4486SOL     OW24919   4.006   0.472  11.119 -0.5371 -0.3988  0.0153
 4486SOL    HW124920   4.024   0.485  11.026  2.6208  0.5367  0.7813
 4486SOL    HW224921   3.940   0.402  11.123 -0.3150 -0.6581 -0.9987
 4487SOL     OW24922   0.961   3.099  13.436  0.2939 -0.4388 -0.2450
 4487SOL    HW124923   0.949   3.028  13.374  1.3670 -0.0187 -0.9560
 4487SOL    HW224924   1.054   3.123  13.426  0.6763 -2.1584 -0.8605
 4488SOL     OW24925   0.634   0.033   2.842 -0.2118 -0.2519  0.1567
 4488SOL    HW124926   0.695   4.691   2.875  0.0595 -0.8356 -1.5159
 4488SOL    HW224927   0.636   0.089   2.921  0.5539  0.1797 -0.1731
 4489SOL     OW24928   3.133   2.641  15.682  0.0922  0.3530 -0.3811
 4489SOL    HW124929   3.096   2.729  15.679  0.0692  0.3678  0.2273
 4489SOL    HW224930   3.066   2.580  15.714 -2.7940  2.0124 -3.2495
 4490SOL     OW24931   3.988   1.650   6.521  0.0514  0.2291  0.1579
 4490SOL    HW124932   4.075   1.642   6.561  0.4335 -0.8327 -0.8907
 4490SOL    HW224933   3.943   1.712   6.579  0.9582 -0.0624  1.1841
 4491SOL     OW24934   0.416   0.048  11.984 -0.2970  0.1412  0.3213
 4491SOL    HW124935   0.397   0.092  12.067  0.8670 -0.3585  0.8562
 4491SOL    HW224936   0.354   4.699  11.994  0.0798 -0.5175 -2.1376
 4492SOL     OW24937   3.841   1.482  10.540 -0.1289  0.1134  0.5229
 4492SOL    HW124938   3.857   1.567  10.499  0.7038  0.6710  2.0062
 4492SOL    HW224939   3.857   1.504  10.632 -0.8808  0.4518  0.5679
 4493SOL     OW24940   1.861   3.003   9.357 -0.1790  0.8054 -0.4145
 4493SOL    HW124941   1.766   3.011   9.347 -0.0507  0.3454 -1.9943
 4493SOL    HW224942   1.870   2.944   9.432 -0.5408 -0.6672 -1.5347
 4494SOL     OW24943   3.003   2.802   4.689  0.5429 -0.0400 -0.1118
 4494SOL    HW124944   3.045   2.782   4.605  0.1841  0.1656 -0.3376
 4494SOL    HW224945   2.918   2.826   4.651 -0.2904  0.6230  2.1769
 4495SOL     OW24946   2.991   2.290   4.290 -0.2501  0.1696  0.1593
 4495SOL    HW124947   3.064   2.247   4.245 -0.6087 -1.7931  1.4443
 4495SOL    HW224948   3.021   2.380   4.293  2.9741 -0.9419  1.5420
 4496SOL     OW24949   3.549   0.365   0.227 -0.0694  0.2256  0.0778
 4496SOL    HW124950   3.463   0.344   0.190 -0.4053  1.7746 -0.0174
 4496SOL    HW224951   3.585   0.293   0.175 -1.9690 -1.3138  0.8701
 4497SOL     OW24952   1.200   0.930  14.763  0.1225 -0.3475 -0.4436
 4497SOL    HW124953   1.280   0.889  14.797 -1.2508 -1.4648  1.4768
 4497SOL    HW224954   1.230   0.967  14.680 -2.0395  0.9016 -0.6616
 4498SOL     OW24955   1.053   4.690   2.130 -0.0928 -0.0923  0.1828
 4498SOL    HW124956   1.072   0.046   2.078 -0.9786  1.3926  2.1272
 4498SOL    HW224957   0.984   4.719   2.190 -0.2601  0.1911 -0.1472
 4499SOL     OW24958   2.675   0.909   1.564 -0.1185  0.2718 -0.4325
 4499SOL    HW124959   2.752   0.855   1.584 -1.2488 -1.2239 -0.1506
 4499SOL    HW224960   2.686   0.980   1.627  3.8900 -1.4642  0.8335
 4500SOL     OW24961   4.183   2.956  12.344 -0.7441  0.6502  0.0216
 4500SOL    HW124962   4.142   2.896  12.281 -0.0871  1.0596 -0.7861
 4500SOL    HW224963   4.107   3.010  12.363 -0.7193  0.2744  1.2027
 4501SOL     OW24964   3.704   0.115   5.985 -0.0903 -0.0865  0.3261
 4501SOL    HW124965   3.667   0.088   6.069  0.2872 -0.2565  0.4378
 4501SOL    HW224966   3.782   0.161   6.015  0.0781  0.0657 -0.3294
 4502SOL     OW24967   2.790   0.367  14.290  0.1767  0.4903 -0.0711
 4502SOL    HW124968   2.885   0.363  14.285  0.2543 -0.5091  2.0905
 4502SOL    HW224969   2.773   0.275  14.268  0.2863  0.8023 -1.4581
 4503SOL     OW24970   2.542   3.466  10.620  0.4101  0.0059 -0.0365
 4503SOL    HW124971   2.562   3.432  10.706  3.1116 -0.9014 -1.0408
 4503SOL    HW224972   2.573   3.393  10.567  2.8046  0.2074  1.0884
 4504SOL     OW24973   3.831   3.896   6.997 -0.0420 -0.2596 -0.0613
 4504SOL    HW124974   3.790   3.922   7.080 -0.3158  1.6306 -0.7713
 4504SOL    HW224975   3.924   3.903   7.017 -0.0489  0.3240 -0.2088
 4505SOL     OW24976   2.463   3.971   5.861  0.2635  0.3411 -0.2331
 4505SOL    HW124977   2.488   3.959   5.770  0.1740  2.5980 -0.5469
 4505SOL    HW224978   2.553   3.962   5.891  0.1153 -0.8921 -0.1686
 4506SOL     OW24979   0.538   1.968  12.866  0.0027  0.2423 -0.0473
 4506SOL    HW124980   0.470   1.926  12.815  0.5809 -0.5656 -0.1510
 4506SOL    HW224981   0.491   1.999  12.944 -1.1222  1.0466 -1.0422
 4507SOL     OW24982   1.575   2.579   8.453  0.3848 -0.0132  0.0861
 4507SOL    HW124983   1.555   2.647   8.389  2.4765  1.1628  0.6995
 4507SOL    HW224984   1.577   2.497   8.404 -0.2610 -1.0259  1.7443
 4508SOL     OW24985   2.421   3.292  11.144  0.3127 -0.2457  0.3425
 4508SOL    HW124986   2.360   3.364  11.127 -0.3976 -1.0257 -0.3851
 4508SOL    HW224987   2.476   3.329  11.213 -0.4082  0.0834  0.7539
 4509SOL     OW24988   0.301   2.892   6.892 -0.3952  0.8827  0.0261
 4509SOL    HW124989   0.288   2.968   6.836 -0.5309  1.8250  1.3484
 4509SOL    HW224990   0.251   2.926   6.966 -0.4809  0.2016  0.2829
 4510SOL     OW24991   0.120   4.205   9.788 -0.0029 -0.6190  1.1012
 4510SOL    HW124992   0.057   4.273   9.812 -0.1424 -0.2481 -0.3217
 4510SOL    HW224993   0.075   4.123   9.810 -0.8145 -1.4433 -3.7414
 4511SOL     OW24994   0.508   0.627   2.365  0.0499 -0.5228  0.3895
 4511SOL    HW124995   0.578   0.682   2.400  0.0125 -0.0090 -0.3430
 4511SOL    HW224996   0.480   0.673   2.285 -2.9145 -1.2263  1.0064
 4512SOL     OW24997   0.529   4.526  17.082  0.1948 -0.1360 -0.1458
 4512SOL    HW124998   0.499   4.607  17.041  0.6375 -1.0081 -2.1706
 4512SOL    HW224999   0.504   4.457  17.021  2.0114 -1.0395  0.1085
 4513SOL     OW25000   2.845   1.907   3.796  0.6426  0.0744 -0.7538
 4513SOL    HW125001   2.910   1.970   3.764 -0.0665  0.0149 -2.2720
 4513SOL    HW225002   2.782   1.907   3.725 -2.4452  0.9599  1.9944
 4514SOL     OW25003   3.080   3.785   7.976 -0.5617  0.3090  0.1363
 4514SOL    HW125004   3.172   3.783   7.951 -0.3142 -2.1405  1.2647
 4514SOL    HW225005   3.050   3.707   7.930 -0.8998  0.3639  0.2625
 4515SOL     OW25006   1.436   4.555   3.853 -0.0718 -0.4865  0.1158
 4515SOL    HW125007   1.519   4.552   3.900 -0.4426  1.1288  0.8521
 4515SOL    HW225008   1.425   4.465   3.820  0.5770 -1.3483  2.2502
 4516SOL     OW25009   1.280   0.649  12.748  0.0997  0.6679 -0.1687
 4516SOL    HW125010   1.199   0.642  12.697  0.4544 -0.9834 -0.5051
 4516SOL    HW225011   1.318   0.733  12.720  0.5715 -0.3889 -2.7332
 4517SOL     OW25012   2.613   1.680   4.229  0.3957 -0.3586  0.3993
 4517SOL    HW125013   2.534   1.626   4.232  0.6163 -0.6439  1.0873
 4517SOL    HW225014   2.610   1.686   4.134  0.0266  0.3798  0.4612
 4518SOL     OW25015   4.579   1.322   6.552  0.2034 -0.1287 -0.4432
 4518SOL    HW125016   4.634   1.335   6.475  0.1593 -0.5601 -0.5468
 4518SOL    HW225017   4.520   1.394   6.531  2.6444  2.0390  0.0830
 4519SOL     OW25018   3.537   2.432  16.849  0.6534 -0.5316  0.0469
 4519SOL    HW125019   3.478   2.387  16.789  0.8172  0.1860 -0.6514
 4519SOL    HW225020   3.621   2.391  16.827  2.1765  1.7418  1.5767
 4520SOL     OW25021   3.091   3.044  13.639 -0.1075 -0.2353  0.0311
 4520SOL    HW125022   2.995   3.044  13.638 -0.1209  0.0149  1.3991
 4520SOL    HW225023   3.114   2.955  13.668 -0.2761 -0.4834 -0.5773
 4521SOL     OW25024   2.074   0.041  15.439 -0.2888 -0.4833  0.1410
 4521SOL    HW125025   2.151   0.085  15.474  0.3144 -1.7434  0.4072
 4521SOL    HW225026   2.034   0.112  15.388  1.2967 -0.5574 -1.1828
 4522SOL     OW25027   4.274   0.857   4.019 -0.3040  0.3085  0.3778
 4522SOL    HW125028   4.215   0.858   4.094  0.2298 -0.1164  0.7991
 4522SOL    HW225029   4.327   0.932   4.047 -0.6467  1.0009 -0.8166
 4523SOL     OW25030   1.532   2.229   8.420 -0.5721  0.0992 -0.4836
 4523SOL    HW125031   1.446   2.195   8.445 -0.5749  0.9580  0.6897
 4523SOL    HW225032   1.516   2.299   8.357  3.2589  1.9140  0.5555
 4524SOL     OW25033   0.009   0.109   6.540 -0.1846 -0.2799 -0.2577
 4524SOL    HW125034   0.047   0.113   6.627 -1.2822  1.5798  0.1368
 4524SOL    HW225035   4.640   0.107   6.566  0.0064 -0.5662  0.3759
 4525SOL     OW25036   3.132   1.429  13.661  0.4285 -0.1637  0.3161
 4525SOL    HW125037   3.133   1.434  13.757  1.9350 -0.8229  0.3351
 4525SOL    HW225038   3.151   1.338  13.637  0.7701 -0.3554  1.3133
 4526SOL     OW25039   1.925   0.188   1.968  0.1476 -0.2320 -0.1752
 4526SOL    HW125040   1.895   0.119   1.909  2.6941 -0.6012 -0.9960
 4526SOL    HW225041   1.953   0.254   1.905  0.6936 -0.8817 -0.6061
 4527SOL     OW25042   1.184   1.817   3.683  0.1142 -0.0876  0.2752
 4527SOL    HW125043   1.228   1.895   3.717  0.2522 -1.3788  3.0264
 4527SOL    HW225044   1.190   1.758   3.758  3.2902 -2.3681 -1.7414
 4528SOL     OW25045   1.101   3.905   8.589 -0.5791 -0.3196  0.2140
 4528SOL    HW125046   1.138   3.817   8.597 -0.7896 -0.4216  0.0737
 4528SOL    HW225047   1.120   3.950   8.672  1.9525  2.5587 -1.9468
 4529SOL     OW25048   1.841   4.702   5.286  0.3681  0.2437 -0.0973
 4529SOL    HW125049   1.754   4.685   5.321  0.4651 -0.4051 -0.1730
 4529SOL    HW225050   1.875   0.032   5.358 -1.7710  0.3456  0.8327
 4530SOL     OW25051   3.758   1.013  10.511  0.4037  0.0369 -0.8166
 4530SOL    HW125052   3.719   0.975  10.432  0.2406 -1.6895  0.1112
 4530SOL    HW225053   3.716   1.098  10.526 -1.1352 -0.6216 -1.3974
 4531SOL     OW25054   0.627   2.405   1.482 -0.0441 -0.0075 -0.0368
 4531SOL    HW125055   0.710   2.378   1.523 -0.4905  0.6426  1.2808
 4531SOL    HW225056   0.574   2.438   1.554  1.9425 -0.2081  1.5453
 4532SOL     OW25057   0.329   3.328   2.809  0.0989 -0.0146  0.1218
 4532SOL    HW125058   0.378   3.397   2.764 -0.0408 -2.0986 -3.2381
 4532SOL    HW225059   0.240   3.329   2.775 -0.1076 -0.6225  0.6518
 4533SOL     OW25060   1.616   2.663   1.360  0.1499  0.6633 -0.5404
 4533SOL    HW125061   1.622   2.682   1.454  2.8456  1.4011 -0.8626
 4533SOL    HW225062   1.700   2.620   1.342 -0.2870 -0.2849 -0.2874
 4534SOL     OW25063   2.483   1.906   3.968 -0.0519  0.3015 -0.4626
 4534SOL    HW125064   2.473   1.819   4.007 -3.2230  0.0139 -1.9101
 4534SOL    HW225065   2.575   1.924   3.989  0.5176 -0.6911 -2.0802
 4535SOL     OW25066   4.204   0.889  12.720 -0.2369 -0.0200  0.1873
 4535SOL    HW125067   4.115   0.914  12.696 -0.3978 -0.4193  0.3684
 4535SOL    HW225068   4.250   0.910  12.639 -1.1818  0.6217 -0.1848
 4536SOL     OW25069   1.495   2.228   2.245 -0.8386 -0.2038 -0.6897
 4536SOL    HW125070   1.453   2.155   2.291 -2.3576  0.7293 -0.5989
 4536SOL    HW225071   1.585   2.197   2.232 -0.6876  0.1738 -0.5336
 4537SOL     OW25072   1.772   2.826   6.758  0.0912 -0.2137  0.0636
 4537SOL    HW125073   1.807   2.883   6.690  0.2309  2.0751  2.0471
 4537SOL    HW225074   1.779   2.741   6.716  1.1268  0.5282 -1.2500
 4538SOL     OW25075   4.019   4.387  12.248 -0.0456  0.6377 -0.0468
 4538SOL    HW125076   3.934   4.430  12.237  0.6917  2.7967  2.7820
 4538SOL    HW225077   4.052   4.392  12.158 -1.7120 -2.4871 -0.8484
 4539SOL     OW25078   1.554   0.302   5.287  0.4728  0.7089 -0.3255
 4539SOL    HW125079   1.622   0.368   5.298  0.2591  0.5869  1.7205
 4539SOL    HW225080   1.495   0.329   5.216 -1.0597 -1.1092  0.2514
 4540SOL     OW25081   1.378   0.080   0.966 -0.9660 -0.0547  0.4504
 4540SOL    HW125082   1.424   0.057   0.886  0.1549 -1.7008  1.5771
 4540SOL    HW225083   1.424   0.156   1.002 -3.0771  0.5874  1.8394
 4541SOL     OW25084   3.363   1.848   2.898 -0.2387  0.2383  0.2112
 4541SOL    HW125085   3.287   1.882   2.850 -1.4511 -1.3327  1.0248
 4541SOL    HW225086   3.364   1.762   2.855 -3.6084 -0.5021  1.5897
 4542SOL     OW25087   2.536   3.050   5.378  0.0589 -0.3375 -0.1865
 4542SOL    HW125088   2.534   2.961   5.342  0.1394 -1.1368  1.8035
 4542SOL    HW225089   2.569   3.110   5.311  1.0620 -0.2496  0.3944
 4543SOL     OW25090   1.926   2.298   5.748 -0.4868 -0.2617  0.5904
 4543SOL    HW125091   1.997   2.233   5.740  0.3702  0.5994  1.2013
 4543SOL    HW225092   1.975   2.380   5.741  1.7124 -1.5502  0.9239
 4544SOL     OW25093   1.896   3.206   4.822  0.4673  0.0012 -0.0062
 4544SOL    HW125094   1.907   3.215   4.727  0.1196 -0.8120 -0.1258
 4544SOL    HW225095   1.901   3.111   4.831 -0.0484  0.0550  0.8243
 4545SOL     OW25096   3.369   4.591   2.860 -0.0800 -0.1277  0.0424
 4545SOL    HW125097   3.301   4.635   2.912  1.0586  0.8395  0.7115
 4545SOL    HW225098   3.416   4.672   2.843  1.0014 -0.2690  2.2777
 4546SOL     OW25099   1.137   0.968   7.402 -0.0785 -0.0977  0.5201
 4546SOL    HW125100   1.134   0.903   7.471 -1.0530 -0.4587  0.1242
 4546SOL    HW225101   1.110   1.049   7.446  1.6610 -0.0636  1.5561
 4547SOL     OW25102   3.303   0.213   2.358  0.2779 -0.5120 -0.5058
 4547SOL    HW125103   3.225   0.190   2.409  1.2378 -2.7446 -0.0454
 4547SOL    HW225104   3.358   0.136   2.371  0.3454 -0.4077 -0.1781
 4548SOL     OW25105   0.892   4.074  11.682  0.5932  0.2640  0.2846
 4548SOL    HW125106   0.981   4.089  11.649  1.1504  1.4378  2.3354
 4548SOL    HW225107   0.921   4.057  11.772 -0.5232  0.9462  0.7660
 4549SOL     OW25108   2.082   2.278   8.327  0.6102  0.1772 -0.2686
 4549SOL    HW125109   1.988   2.282   8.311  0.3077  1.2863  1.8092
 4549SOL    HW225110   2.082   2.193   8.371  0.2545 -0.0552 -0.7106
 4550SOL     OW25111   3.761   2.001   6.017  0.3551 -0.4022  0.4169
 4550SOL    HW125112   3.736   2.066   5.951 -0.2768 -1.2739 -0.1985
 4550SOL    HW225113   3.808   2.046   6.087 -0.8264  1.6470 -0.0764
 4551SOL     OW25114   1.425   1.284   6.742 -0.2424 -0.1309  0.8869
 4551SOL    HW125115   1.345   1.248   6.780 -0.1414 -0.2519  0.9841
 4551SOL    HW225116   1.499   1.242   6.787 -2.0738 -3.0270  1.1785
 4552SOL     OW25117   2.755   1.017   4.943  0.3913 -0.5231 -0.1725
 4552SOL    HW125118   2.706   1.030   4.862  0.4820 -0.3102 -0.1929
 4552SOL    HW225119   2.846   1.037   4.919 -0.1996  1.0668 -1.0621
 4553SOL     OW25120   0.668   4.422   2.751 -0.1024  0.0516  0.6694
 4553SOL    HW125121   0.702   4.419   2.840 -2.5183  0.8286  1.6206
 4553SOL    HW225122   0.580   4.450   2.774  0.0078 -0.1792  1.3706
 4554SOL     OW25123   0.180   2.009  12.473  0.7261  0.3056  0.4514
 4554SOL    HW125124   0.184   2.006  12.378  2.1086 -1.7960  0.5728
 4554SOL    HW225125   0.259   1.959  12.495  1.4647  2.2596  2.2256
 4555SOL     OW25126   3.082   1.966   9.003 -0.1097  0.0207  0.1401
 4555SOL    HW125127   3.007   1.936   9.054 -0.8631  1.4326 -0.1329
 4555SOL    HW225128   3.140   2.003   9.070  0.5496 -0.2036 -0.3029
 4556SOL     OW25129   1.102   3.703   9.022  0.1154 -1.1192 -0.0838
 4556SOL    HW125130   1.188   3.709   8.981 -0.7912  2.4445 -1.5145
 4556SOL    HW225131   1.115   3.754   9.102 -4.7413 -0.9261  0.5720
 4557SOL     OW25132   3.682   4.246   5.196 -0.0513  0.3889 -0.1623
 4557SOL    HW125133   3.674   4.268   5.104  2.5109  0.6002 -0.3367
 4557SOL    HW225134   3.594   4.217   5.220  1.0118 -1.4806  1.4710
 4558SOL     OW25135   3.461   0.911  13.823 -0.2462 -0.0332 -0.3333
 4558SOL    HW125136   3.393   0.859  13.865 -2.1121  2.8095  0.1282
 4558SOL    HW225137   3.436   0.999  13.852  1.9354  0.6285 -0.4510
 4559SOL     OW25138   2.278   3.256   2.884 -0.6235 -0.4035 -0.1857
 4559SOL    HW125139   2.250   3.178   2.932 -1.3802  0.4148  0.7170
 4559SOL    HW225140   2.291   3.213   2.800 -1.1335 -1.4490  0.2763
 4560SOL     OW25141   0.558   3.091   5.979  0.2023  0.3421  0.2770
 4560SOL    HW125142   0.527   3.000   5.985 -0.7117  0.6748  0.6474
 4560SOL    HW225143   0.649   3.062   5.968  0.0489  0.2523 -0.7563
 4561SOL     OW25144   0.663   0.157   6.522  0.5035 -0.3092  0.2948
 4561SOL    HW125145   0.577   0.190   6.499 -0.2120 -1.9321  0.6362
 4561SOL    HW225146   0.696   0.134   6.435 -1.6017  2.0782 -1.1056
 4562SOL     OW25147   4.222   4.369   9.947 -0.2024  0.0244 -0.2718
 4562SOL    HW125148   4.315   4.356   9.962 -0.1594 -0.2288 -0.7719
 4562SOL    HW225149   4.180   4.325  10.022  2.1793 -0.8472  0.5295
 4563SOL     OW25150   2.742   4.247   1.810 -0.3458 -0.6745  0.6732
 4563SOL    HW125151   2.763   4.340   1.816  0.1550 -0.8282  1.2696
 4563SOL    HW225152   2.670   4.253   1.747  1.1676  0.0199 -0.9938
 4564SOL     OW25153   0.440   3.561   7.197 -0.4733 -0.1838  0.1390
 4564SOL    HW125154   0.471   3.641   7.238 -0.3861  1.1622 -2.5778
 4564SOL    HW225155   0.485   3.560   7.112 -1.9248 -1.2264 -0.6364
 4565SOL     OW25156   4.246   0.721  11.323  0.6687 -0.3527  0.6525
 4565SOL    HW125157   4.168   0.665  11.325 -0.1517  0.8091  1.4728
 4565SOL    HW225158   4.209   0.798  11.278  1.0385 -1.4222 -1.4953
 4566SOL     OW25159   1.132   2.733  13.015 -0.0776  0.4915 -0.0311
 4566SOL    HW125160   1.086   2.649  13.020  0.9593 -0.1400 -1.0024
 4566SOL    HW225161   1.070   2.792  12.972  0.8154  2.0420  0.8031
 4567SOL     OW25162   0.462   4.624   9.891 -0.5153  0.6192  0.0934
 4567SOL    HW125163   0.487   4.558   9.826  0.7346 -1.4196  2.6145
 4567SOL    HW225164   0.431   4.581   9.971 -3.2548  1.4419 -0.5331
 4568SOL     OW25165   2.840   3.210  10.971 -0.3560 -0.2179  0.4521
 4568SOL    HW125166   2.820   3.268  11.044  0.9331  0.3474  0.3598
 4568SOL    HW225167   2.876   3.272  10.908 -0.8210 -1.8809 -1.4445
 4569SOL     OW25168   2.175   1.299   2.286  0.9020  0.6982 -0.1920
 4569SOL    HW125169   2.115   1.374   2.283  0.0786  0.0689  0.6406
 4569SOL    HW225170   2.228   1.332   2.358 -1.2709  0.5145  1.4723
 4570SOL     OW25171   3.179   3.124   2.489  0.4664 -0.2575 -0.3266
 4570SOL    HW125172   3.239   3.107   2.416 -0.1682 -2.6835 -0.2806
 4570SOL    HW225173   3.106   3.063   2.492  0.0056  0.4231  2.6042
 4571SOL     OW25174   3.053   3.443  10.506 -0.1978  0.1178 -0.5662
 4571SOL    HW125175   3.132   3.474  10.550 -2.4490  0.2293  3.3628
 4571SOL    HW225176   3.049   3.504  10.432 -1.7518  1.0542  0.3014
 4572SOL     OW25177   2.800   0.129   3.106  0.8208  0.4864 -0.0215
 4572SOL    HW125178   2.737   0.096   3.171  1.2469  0.5815  0.4387
 4572SOL    HW225179   2.871   0.166   3.159  1.9420 -0.6196 -0.7832
 4573SOL     OW25180   1.016   2.237   6.824 -0.0934  0.2556  0.2749
 4573SOL    HW125181   1.003   2.274   6.911 -0.8663  2.4861 -0.8061
 4573SOL    HW225182   0.949   2.169   6.812  1.6277 -1.7216  1.6529
 4574SOL     OW25183   0.313   2.096   7.746  0.3551 -0.1797 -0.1171
 4574SOL    HW125184   0.222   2.074   7.768 -0.6565  3.7824 -0.2328
 4574SOL    HW225185   0.311   2.080   7.652 -1.6247 -1.2231  0.1045
 4575SOL     OW25186   4.679   3.241   5.416  0.1139 -0.3709 -0.7681
 4575SOL    HW125187   4.638   3.248   5.330 -0.2421 -1.1389 -0.6611
 4575SOL    HW225188   0.037   3.292   5.410 -0.0667  0.1668  1.3859
 4576SOL     OW25189   2.227   2.288   2.130 -0.0900 -0.1548  0.4141
 4576SOL    HW125190   2.209   2.288   2.224 -0.1250  0.9339  0.4108
 4576SOL    HW225191   2.321   2.281   2.115 -0.5625 -1.6997 -1.9189
 4577SOL     OW25192   1.361   3.293   5.635  0.1998 -0.0067 -0.0521
 4577SOL    HW125193   1.294   3.338   5.687  0.9375 -1.0941  1.8516
 4577SOL    HW225194   1.435   3.308   5.693  0.1794 -2.3140  0.5875
 4578SOL     OW25195   1.180   3.330   0.273  0.6011 -0.0632 -0.1406
 4578SOL    HW125196   1.251   3.387   0.245  2.0328 -1.1606  1.2531
 4578SOL    HW225197   1.163   3.278   0.194 -2.0344  0.7534 -0.1289
 4579SOL     OW25198   2.913   0.644  16.030 -0.3774  0.0920  0.0950
 4579SOL    HW125199   2.819   0.637  16.051  0.0102  0.4965  1.9299
 4579SOL    HW225200   2.928   0.730  15.991  1.7718 -0.3698 -0.0664
 4580SOL     OW25201   4.690   4.590   4.043  0.6931  0.5564 -0.4104
 4580SOL    HW125202   0.023   4.522   4.006 -0.4201  0.3880 -1.7751
 4580SOL    HW225203   4.644   4.618   3.964  0.8744  2.9050  0.3032
 4581SOL     OW25204   1.447   2.061   7.327 -0.2217  0.2491 -0.0256
 4581SOL    HW125205   1.384   2.120   7.369 -1.2181 -0.6629 -0.2554
 4581SOL    HW225206   1.435   1.985   7.383 -0.7921 -0.1002 -0.6216
 4582SOL     OW25207   1.703   0.911   6.709 -0.0969  0.9474 -0.0614
 4582SOL    HW125208   1.720   0.828   6.664 -0.8795  1.4030 -1.1969
 4582SOL    HW225209   1.608   0.912   6.702 -0.1993 -0.4053  1.2367
 4583SOL     OW25210   0.074   0.961   8.627 -0.6658 -0.2823  0.5302
 4583SOL    HW125211   0.117   0.966   8.712 -0.7959  0.8152  0.5339
 4583SOL    HW225212   0.007   0.896   8.648  0.4727 -0.8664  2.3080
 4584SOL     OW25213   3.941   3.270   3.692  0.1000 -0.0858 -0.4007
 4584SOL    HW125214   4.011   3.329   3.661  0.9042 -1.1409 -0.5942
 4584SOL    HW225215   3.902   3.241   3.610  0.7272  1.6143 -1.3211
 4585SOL     OW25216   1.817   3.402   5.353 -0.2596 -0.6229  0.0297
 4585SOL    HW125217   1.802   3.360   5.268  0.0801  2.3592 -1.5130
 4585SOL    HW225218   1.819   3.495   5.330  1.1846 -1.3392 -2.7500
 4586SOL     OW25219   1.459   1.657  11.933 -0.5496 -0.6063 -0.1358
 4586SOL    HW125220   1.542   1.677  11.891  0.7739 -2.0036  1.8008
 4586SOL    HW225221   1.398   1.646  11.859 -3.4831  1.9859  1.8790
 4587SOL     OW25222   1.835   2.035   5.375 -0.5834 -0.1911 -0.2344
 4587SOL    HW125223   1.807   2.126   5.368 -2.2498 -0.8307 -1.9617
 4587SOL    HW225224   1.875   2.020   5.290 -0.3476 -1.7672  0.1460
 4588SOL     OW25225   2.683   0.025   1.078 -0.1658 -0.8310  0.0440
 4588SOL    HW125226   2.618   4.705   1.023 -0.5224  0.9614 -0.9216
 4588SOL    HW225227   2.630   0.055   1.151  1.5932 -2.2608  1.9178
 4589SOL     OW25228   2.410   3.475   7.632  0.1317  0.1911 -0.3949
 4589SOL    HW125229   2.362   3.558   7.639 -0.4839 -0.1680 -0.3173
 4589SOL    HW225230   2.478   3.490   7.567  1.3096 -2.4720  0.2249
 4590SOL     OW25231   3.277   0.884  11.524  0.4324  0.4011 -0.8453
 4590SOL    HW125232   3.193   0.929  11.519  0.7036  1.2239  1.8731
 4590SOL    HW225233   3.254   0.800  11.565  1.5167 -0.3049 -1.7004
 4591SOL     OW25234   0.715   3.743   2.413  0.1098  0.0886  0.5694
 4591SOL    HW125235   0.661   3.815   2.445  0.2147 -0.3524  1.7758
 4591SOL    HW225236   0.799   3.789   2.408  1.4274 -2.4672 -0.4061
 4592SOL     OW25237   1.795   1.454   8.419 -0.6162  0.0980  0.8050
 4592SOL    HW125238   1.880   1.488   8.448 -0.5816  1.4251 -0.8722
 4592SOL    HW225239   1.772   1.396   8.492 -1.7937  0.1320  0.4738
 4593SOL     OW25240   1.634   0.811   1.984 -0.1467  0.1223 -0.4151
 4593SOL    HW125241   1.679   0.883   1.940  1.1258  0.1568  0.9290
 4593SOL    HW225242   1.558   0.799   1.927 -1.8863  0.2686  1.8517
 4594SOL     OW25243   4.090   4.252   4.900 -0.5382  0.2889 -0.2991
 4594SOL    HW125244   4.154   4.219   4.836 -0.7498 -0.6991 -0.0043
 4594SOL    HW225245   4.084   4.340   4.863  0.0706  1.1608  1.7045
 4595SOL     OW25246   0.506   4.455   9.582  0.0045  0.4329 -0.1719
 4595SOL    HW125247   0.428   4.398   9.584 -1.0379  1.8961  1.5203
 4595SOL    HW225248   0.504   4.459   9.487 -2.9079 -1.1813 -0.1767
 4596SOL     OW25249   3.780   3.297   3.071  0.1727 -0.4229 -0.1562
 4596SOL    HW125250   3.760   3.264   2.984  0.0705 -0.3022 -0.1788
 4596SOL    HW225251   3.719   3.369   3.084  0.3563 -0.4185  0.6888
 4597SOL     OW25252   0.677   4.216   3.312  0.0652 -0.5839  0.1805
 4597SOL    HW125253   0.771   4.218   3.331  0.6064 -0.1132 -2.5681
 4597SOL    HW225254   0.668   4.134   3.263 -1.3177 -2.0640  2.8764
 4598SOL     OW25255   2.166   3.108   3.417  0.1380 -0.3295  0.2759
 4598SOL    HW125256   2.220   3.030   3.406  0.4090  0.0959 -1.4583
 4598SOL    HW225257   2.083   3.064   3.399  0.6219 -1.1449  0.0514
 4599SOL     OW25258   3.031   4.261  12.435 -0.7766 -0.4884  0.1224
 4599SOL    HW125259   2.966   4.313  12.482 -0.2254  1.2705 -1.0603
 4599SOL    HW225260   3.013   4.169  12.455  1.1089 -1.1670 -1.3170
 4600SOL     OW25261   2.509   0.412   2.039  0.2265 -0.3777 -0.0925
 4600SOL    HW125262   2.416   0.419   2.062  0.3622  0.4286  0.1915
 4600SOL    HW225263   2.518   0.318   2.055  1.2955 -0.5354 -1.6920
 4601SOL     OW25264   3.072   3.608  12.692  0.2914 -0.3687  0.0249
 4601SOL    HW125265   3.063   3.646  12.779  1.8167  2.2628 -0.9640
 4601SOL    HW225266   3.167   3.592  12.695  0.1309 -1.5082 -0.7342
 4602SOL     OW25267   0.017   3.201   2.934 -0.7082 -0.5428 -0.2346
 4602SOL    HW125268   0.056   3.193   2.847  0.7736 -0.0367  0.3873
 4602SOL    HW225269   0.072   3.143   2.985  0.3454  0.3584 -0.3421
 4603SOL     OW25270   0.484   1.226  12.992  0.0902  0.0771  0.6904
 4603SOL    HW125271   0.420   1.227  12.921  0.1375 -1.5984  0.6212
 4603SOL    HW225272   0.537   1.154  12.958 -0.2782 -0.3267  0.9734
 4604SOL     OW25273   4.204   1.998   6.470 -0.0327  0.4328 -0.0108
 4604SOL    HW125274   4.157   1.984   6.552 -0.7391 -0.8292 -0.6313
 4604SOL    HW225275   4.282   2.051   6.489  0.5762 -0.4316 -0.0615
 4605SOL     OW25276   3.860   0.144  13.797 -0.2447 -0.1466  0.1475
 4605SOL    HW125277   3.932   0.161  13.858 -1.4088  1.5589  1.0424
 4605SOL    HW225278   3.913   0.143  13.717 -0.2703  0.0657  0.1257
 4606SOL     OW25279   3.293   0.738   7.508 -0.1747  0.0178 -0.5523
 4606SOL    HW125280   3.208   0.694   7.504  0.9545 -2.2597  0.0682
 4606SOL    HW225281   3.289   0.774   7.597 -2.0281  0.6736 -0.9067
 4607SOL     OW25282   0.981   2.199   5.751  0.4566 -0.3383 -0.4038
 4607SOL    HW125283   1.040   2.132   5.785  0.9196  0.2556 -0.0418
 4607SOL    HW225284   1.043   2.246   5.696  1.1714  0.2159  0.8656
 4608SOL     OW25285   0.415   4.251   6.252 -0.2396  0.1023  0.0173
 4608SOL    HW125286   0.393   4.344   6.255  0.6483  0.3922 -2.4872
 4608SOL    HW225287   0.335   4.202   6.270 -0.5633 -0.3538 -2.6795
 4609SOL     OW25288   3.164   2.326   8.914  0.1489  0.3715  0.3805
 4609SOL    HW125289   3.251   2.308   8.949 -1.3600  0.9727  4.4253
 4609SOL    HW225290   3.118   2.338   8.997  1.2366  0.8225  0.9201
 4610SOL     OW25291   0.679   0.144   5.599  0.1422  0.1572 -1.0802
 4610SOL    HW125292   0.663   0.104   5.514  0.9217  2.0700 -2.1296
 4610SOL    HW225293   0.633   0.227   5.584  0.1538  0.6696  1.7175
 4611SOL     OW25294   3.544   0.779   7.354 -0.1015  0.0134  0.0392
 4611SOL    HW125295   3.482   0.851   7.367  0.3778  0.0977  1.8457
 4611SOL    HW225296   3.619   0.838   7.346  0.1368 -0.4066 -0.8098
 4612SOL     OW25297   3.447   0.079  12.875 -0.1775 -0.2189 -0.3302
 4612SOL    HW125298   3.361   0.119  12.884 -0.5259 -1.0460  0.0402
 4612SOL    HW225299   3.485   0.117  12.797  0.3112 -0.3474 -0.1598
 4613SOL     OW25300   3.656   0.152   1.010 -0.3303  0.1444  0.1539
 4613SOL    HW125301   3.736   0.138   1.060  0.5546 -1.3033 -1.6834
 4613SOL    HW225302   3.691   0.183   0.926 -0.3413  1.6405  0.6980
 4614SOL     OW25303   0.340   4.285  11.948  0.0821  0.3062 -0.3451
 4614SOL    HW125304   0.301   4.219  11.891  0.3473 -0.7692  0.7355
 4614SOL    HW225305   0.309   4.362  11.901  0.8956  1.2259  0.6214
 4615SOL     OW25306   4.529   0.472   4.980  0.4433  0.1389  0.2213
 4615SOL    HW125307   4.559   0.438   5.064 -0.2503 -0.7712  0.1056
 4615SOL    HW225308   4.447   0.515   5.008 -0.6269 -0.1985 -2.4423
 4616SOL     OW25309   1.523   3.748   6.743 -0.3590 -0.7926 -0.6946
 4616SOL    HW125310   1.592   3.816   6.745 -1.8976  0.7289  0.9695
 4616SOL    HW225311   1.505   3.748   6.837 -0.1848  3.0984 -0.6415
 4617SOL     OW25312   3.742   3.956   0.673  0.4324 -0.1771 -0.4139
 4617SOL    HW125313   3.653   3.931   0.647 -0.3463  1.8634  0.2919
 4617SOL    HW225314   3.718   3.998   0.756  2.2519 -2.2949  1.1816
 4618SOL     OW25315   3.693   4.032   2.779  0.3060 -0.3047 -0.3828
 4618SOL    HW125316   3.777   4.003   2.814 -0.9090  1.9712  4.4443
 4618SOL    HW225317   3.681   4.113   2.828  0.4741  0.4441 -1.5820
 4619SOL     OW25318   4.448   1.102   2.781  0.8295 -0.4105 -0.3956
 4619SOL    HW125319   4.458   1.064   2.693  2.2018 -1.2165  0.1070
 4619SOL    HW225320   4.541   1.103   2.803  0.9690  1.0630 -1.0820
 4620SOL     OW25321   1.017   3.727   3.345  0.3941 -0.4965 -0.1504
 4620SOL    HW125322   0.980   3.693   3.263 -2.2741  2.0749 -0.0059
 4620SOL    HW225323   1.082   3.660   3.369  2.6010  1.0331 -1.9012
 4621SOL     OW25324   3.196   2.285   4.640  0.6791 -0.3911  0.3961
 4621SOL    HW125325   3.190   2.339   4.561  1.5123 -1.0185 -0.0953
 4621SOL    HW225326   3.269   2.314   4.694  2.4829  2.1002 -3.3533
 4622SOL     OW25327   1.536   1.995   1.773  0.2855  0.2383 -0.1579
 4622SOL    HW125328   1.525   1.901   1.787 -0.5014  0.5237  1.1896
 4622SOL    HW225329   1.542   2.008   1.679  0.2103  1.2810 -0.0277
 4623SOL     OW25330   1.588   1.511  13.534  0.7961  0.1868 -0.6320
 4623SOL    HW125331   1.634   1.493  13.616  1.3468 -2.7689 -1.5808
 4623SOL    HW225332   1.615   1.431  13.489 -0.1639 -1.1300  1.1425
 4624SOL     OW25333   0.448   0.020   4.619 -0.4021  0.1131  0.0563
 4624SOL    HW125334   0.519   0.010   4.556  1.1045 -0.6805  1.8640
 4624SOL    HW225335   0.484   0.089   4.675 -0.8645  0.6863 -0.3531
 4625SOL     OW25336   2.726   0.837  12.439 -0.0003  0.1127 -0.4990
 4625SOL    HW125337   2.666   0.889  12.387  1.4603  1.4829 -0.8090
 4625SOL    HW225338   2.780   0.897  12.492  0.2245  1.7894 -2.6389
 4626SOL     OW25339   1.932   4.237   8.594 -0.3007 -0.2142  0.3236
 4626SOL    HW125340   1.943   4.330   8.574 -1.9010  0.2830  1.7095
 4626SOL    HW225341   1.996   4.214   8.661  1.1009  0.0614 -0.9451
 4627SOL     OW25342   1.383   1.959   5.585 -0.0838  0.1991 -0.2752
 4627SOL    HW125343   1.398   1.995   5.673  1.4593  1.2752 -0.9723
 4627SOL    HW225344   1.442   1.885   5.581  0.7166  0.9410 -1.9095
 4628SOL     OW25345   1.583   2.460  16.070 -0.2505 -0.8494  0.3878
 4628SOL    HW125346   1.654   2.440  16.132  0.9920 -0.0740 -0.7760
 4628SOL    HW225347   1.536   2.533  16.111 -0.4344 -1.0493  0.5300
 4629SOL     OW25348   0.766   1.335  16.319  0.5201 -0.0662  0.8385
 4629SOL    HW125349   0.733   1.313  16.406  0.8053  0.4565  1.0742
 4629SOL    HW225350   0.697   1.301  16.262  0.3539  2.7352 -0.6056
 4630SOL     OW25351   0.340   1.168  12.127  0.0963  0.1787 -0.9346
 4630SOL    HW125352   0.348   1.264  12.121 -1.8649  0.5378  2.3867
 4630SOL    HW225353   0.406   1.147  12.194 -2.2613  1.0412  1.6486
 4631SOL     OW25354   0.079   2.998   8.801  0.2880  0.1425  0.0446
 4631SOL    HW125355   0.072   2.921   8.858 -0.5299  0.8226  0.8774
 4631SOL    HW225356   0.041   3.063   8.860  0.0775  0.3587 -0.3309
 4632SOL     OW25357   4.034   3.734   4.602  0.2053  0.2022 -0.6697
 4632SOL    HW125358   4.115   3.686   4.588  0.6581  0.2528  1.8340
 4632SOL    HW225359   3.983   3.691   4.533  1.2254  0.1357 -1.3728
 4633SOL     OW25360   0.274   2.534  13.081 -0.3014 -0.1858 -0.2235
 4633SOL    HW125361   0.303   2.456  13.034  3.4198  1.0238  0.0880
 4633SOL    HW225362   0.181   2.514  13.070 -1.3318  3.1711  2.4194
 4634SOL     OW25363   0.853   2.002   8.518 -0.2833  0.0430 -0.2612
 4634SOL    HW125364   0.872   1.908   8.511 -1.7904 -0.4523  2.1089
 4634SOL    HW225365   0.758   2.004   8.513 -0.2189  2.6338 -0.7243
 4635SOL     OW25366   2.175   0.675   3.736  0.2758 -0.1797  0.2274
 4635SOL    HW125367   2.264   0.641   3.741  0.6196  0.9602  2.0019
 4635SOL    HW225368   2.176   0.751   3.795  1.9505 -0.4158  0.5170
 4636SOL     OW25369   2.302   2.495  11.776  0.4730  0.0637 -0.1443
 4636SOL    HW125370   2.222   2.545  11.788  1.0308  0.2520  2.8717
 4636SOL    HW225371   2.278   2.407  11.806 -0.0883  0.2891  0.0765
 4637SOL     OW25372   3.556   0.468   4.214  0.2231 -0.0922 -0.2312
 4637SOL    HW125373   3.527   0.527   4.283  1.1475  2.1007 -1.7362
 4637SOL    HW225374   3.649   0.485   4.200  0.2065  0.2101  0.0317
 4638SOL     OW25375   1.168   3.650   8.564  0.2980 -0.0772 -0.4847
 4638SOL    HW125376   1.179   3.631   8.471 -2.6777 -1.2578 -0.6056
 4638SOL    HW225377   1.217   3.573   8.592 -1.8133  0.0045  3.5137
 4639SOL     OW25378   1.890   0.786   5.365 -0.2971 -0.2138 -0.2208
 4639SOL    HW125379   1.948   0.862   5.369 -0.5111 -0.1238  1.1351
 4639SOL    HW225380   1.929   0.727   5.429  0.7666  1.1701  0.3808
 4640SOL     OW25381   3.564   2.038  16.096  0.0590 -0.0114  0.9496
 4640SOL    HW125382   3.480   2.018  16.054 -0.5113  0.1064  2.0280
 4640SOL    HW225383   3.622   1.975  16.054  2.4653  1.4069  2.1141
 4641SOL     OW25384   4.601   1.694   5.110 -0.7774  0.0290  0.2247
 4641SOL    HW125385   4.673   1.733   5.161 -0.3243 -1.6267  0.8529
 4641SOL    HW225386   4.641   1.726   5.029 -0.7104 -0.9281 -0.1104
 4642SOL     OW25387   0.757   3.953   3.281 -0.0772 -0.3483 -0.7680
 4642SOL    HW125388   0.786   3.871   3.240  3.6513  0.8278 -0.4023
 4642SOL    HW225389   0.836   4.005   3.292  0.6465 -1.1084 -2.4411
 4643SOL     OW25390   1.251   4.301   4.143 -0.9458  0.4300 -0.2184
 4643SOL    HW125391   1.283   4.257   4.064 -0.0732  2.2019 -0.8484
 4643SOL    HW225392   1.337   4.337   4.165 -1.8282  2.1324  0.4063
 4644SOL     OW25393   3.538   1.319  13.235 -0.2559  0.7703  0.0680
 4644SOL    HW125394   3.605   1.250  13.233 -1.5448 -0.4558 -0.3767
 4644SOL    HW225395   3.469   1.279  13.184  1.2032 -1.0611 -0.4746
 4645SOL     OW25396   3.936   4.355   8.214 -0.6236  0.2385  0.0529
 4645SOL    HW125397   4.016   4.345   8.163 -0.3748 -0.5707  0.5906
 4645SOL    HW225398   3.910   4.447   8.216 -0.1272  0.3597  1.3467
 4646SOL     OW25399   2.414   2.454   7.218  0.1566 -0.4194 -0.0811
 4646SOL    HW125400   2.401   2.424   7.308  2.9915  1.6461  1.0326
 4646SOL    HW225401   2.392   2.382   7.159 -0.2819 -0.8889  0.6522
 4647SOL     OW25402   0.795   1.432   5.779 -0.1682  0.7447 -0.0636
 4647SOL    HW125403   0.823   1.504   5.835 -0.4602  1.7925 -1.2600
 4647SOL    HW225404   0.830   1.471   5.698  0.7932  1.7357  0.8302
 4648SOL     OW25405   4.376   4.297  12.785  0.3482 -0.3983 -0.1256
 4648SOL    HW125406   4.393   4.355  12.859 -0.6308 -0.1936 -0.0678
 4648SOL    HW225407   4.455   4.319  12.736  0.5666 -0.7845  0.0522
 4649SOL     OW25408   1.342   1.148   5.804 -0.5332 -0.1925 -0.2306
 4649SOL    HW125409   1.370   1.223   5.857  0.1152 -1.0446  0.6304
 4649SOL    HW225410   1.305   1.198   5.732 -0.1894  0.1923 -0.1380
 4650SOL     OW25411   0.174   1.927   6.965 -0.0352  0.1191 -0.4830
 4650SOL    HW125412   0.180   1.995   7.032 -0.3853  1.2910 -1.6357
 4650SOL    HW225413   0.261   1.890   6.975 -0.8312 -1.5185  0.3478
 4651SOL     OW25414   4.314   1.742   2.876 -0.3159 -0.2281  0.4257
 4651SOL    HW125415   4.261   1.721   2.799  3.9327 -1.4913 -2.1526
 4651SOL    HW225416   4.402   1.759   2.843 -0.9247  1.7565 -0.1645
 4652SOL     OW25417   3.760   1.184   8.282 -0.1756 -0.0615 -0.3228
 4652SOL    HW125418   3.790   1.127   8.353  0.4914  0.0272 -0.5334
 4652SOL    HW225419   3.680   1.224   8.316 -0.0914 -2.0661  2.1916
 4653SOL     OW25420   3.234   0.229  12.876  0.2173  0.6405  0.2164
 4653SOL    HW125421   3.241   0.294  12.946 -1.9715 -0.1479  1.1550
 4653SOL    HW225422   3.252   0.289  12.803 -0.9989 -1.1424 -1.5774
 4654SOL     OW25423   3.330   4.010  12.072  0.0016  0.1849 -0.1027
 4654SOL    HW125424   3.388   3.959  12.128  0.1605  0.9587  0.4469
 4654SOL    HW225425   3.255   4.030  12.127  2.0940  1.1447  2.3887
 4655SOL     OW25426   3.010   3.239   8.345  0.3574 -0.4062 -0.4006
 4655SOL    HW125427   2.930   3.229   8.294 -0.1642 -0.9850  0.5261
 4655SOL    HW225428   2.970   3.289   8.416  2.6733  2.3016 -0.9869
 4656SOL     OW25429   3.291   2.125   5.704 -0.3476 -0.2985 -0.0792
 4656SOL    HW125430   3.229   2.058   5.734  1.6817 -1.5746  1.2347
 4656SOL    HW225431   3.259   2.205   5.745 -1.1163 -0.9901  0.6589
 4657SOL     OW25432   3.832   4.474   5.369  0.1767 -0.0638 -0.3141
 4657SOL    HW125433   3.853   4.531   5.295 -0.4969 -1.0474 -1.2757
 4657SOL    HW225434   3.763   4.420   5.330 -2.1739  1.8369  1.1816
 4658SOL     OW25435   2.025   4.249   1.328  0.1559  0.2900 -0.2301
 4658SOL    HW125436   2.072   4.177   1.286 -2.7090 -1.6193 -0.2149
 4658SOL    HW225437   2.101   4.289   1.370  0.8064 -0.8252 -0.3491
 4659SOL     OW25438   1.102   2.957   1.000  0.1003 -0.5866 -0.1551
 4659SOL    HW125439   1.175   2.957   0.938 -0.6045  0.4586 -0.9927
 4659SOL    HW225440   1.058   2.883   0.959  0.7100  0.5244 -2.8019
 4660SOL     OW25441   3.992   0.002   5.757  0.1177 -0.5669 -0.0240
 4660SOL    HW125442   3.950   0.051   5.687 -0.5444  1.1153  1.5528
 4660SOL    HW225443   4.061   0.064   5.782 -2.1884  1.7081  0.5669
 4661SOL     OW25444   0.318   4.251  13.136  0.0817  0.0812 -0.4911
 4661SOL    HW125445   0.405   4.280  13.106  0.3765  2.7940  2.9322
 4661SOL    HW225446   0.343   4.171  13.181 -1.2495 -0.4394 -0.6932
 4662SOL     OW25447   2.279   1.908  15.647  0.1557  0.2234  0.6266
 4662SOL    HW125448   2.227   1.855  15.587  1.6543 -2.2040  1.4420
 4662SOL    HW225449   2.297   1.985  15.594 -0.8675  0.0744  0.0504
 4663SOL     OW25450   0.405   1.725   7.238  0.1210 -0.0621  0.0418
 4663SOL    HW125451   0.373   1.732   7.328 -0.3739 -3.3855  0.1168
 4663SOL    HW225452   0.477   1.788   7.239  0.9915 -1.0190 -1.4597
 4664SOL     OW25453   3.063   1.944  15.939 -0.0896  0.0233 -0.0555
 4664SOL    HW125454   3.001   1.886  15.983  0.9160 -1.4212 -0.5449
 4664SOL    HW225455   3.027   1.943  15.850  1.7635  1.8603 -0.8143
 4665SOL     OW25456   0.958   1.108   5.213  0.0486 -0.0514 -0.0387
 4665SOL    HW125457   0.912   1.037   5.168 -0.4764  1.2161 -1.4871
 4665SOL    HW225458   1.025   1.127   5.148  0.9885  1.6460  1.4292
 4666SOL     OW25459   0.318   3.666   3.560 -0.0659  0.1392  0.0188
 4666SOL    HW125460   0.404   3.674   3.601  0.2148 -1.0255 -0.3608
 4666SOL    HW225461   0.265   3.742   3.585 -0.8292 -0.3231 -0.1937
 4667SOL     OW25462   3.282   3.231   8.248 -0.4446 -0.4687  0.2983
 4667SOL    HW125463   3.204   3.239   8.303 -0.0831 -1.6717  0.9890
 4667SOL    HW225464   3.328   3.305   8.287 -1.3631  0.2964 -0.0663
 4668SOL     OW25465   0.009   4.322   4.255 -0.1387 -0.8462 -0.1202
 4668SOL    HW125466   0.032   4.358   4.341 -0.9993  1.6512 -0.9355
 4668SOL    HW225467   4.654   4.372   4.234  1.5582  2.3965  1.2185
 4669SOL     OW25468   3.133   0.001   4.050 -0.3304  0.6825  0.1671
 4669SOL    HW125469   3.045   0.040   4.055 -0.3979  0.6798 -1.0088
 4669SOL    HW225470   3.122   4.653   4.113  0.2063  0.8922  0.4961
 4670SOL     OW25471   2.694   3.169   0.393 -0.0843 -0.7449 -0.1652
 4670SOL    HW125472   2.712   3.200   0.305 -1.8371 -2.7195 -1.2009
 4670SOL    HW225473   2.691   3.077   0.370 -2.1586 -1.0182  1.1706
 4671SOL     OW25474   2.250   2.805  13.269  0.6787 -0.0301  0.3707
 4671SOL    HW125475   2.170   2.857  13.263 -0.1424 -1.2257  0.8120
 4671SOL    HW225476   2.216   2.716  13.274  2.3051 -0.6388  0.5868
 4672SOL     OW25477   3.968   4.580   9.823 -0.1281 -0.4738  0.1693
 4672SOL    HW125478   3.873   4.567   9.824 -0.3406  1.0277 -0.2691
 4672SOL    HW225479   3.987   4.600   9.732 -0.2858  0.3330  0.3122
 4673SOL     OW25480   0.201   1.746   2.839  0.0735 -0.1126  0.3894
 4673SOL    HW125481   0.129   1.730   2.900 -1.5243 -0.1724 -1.4997
 4673SOL    HW225482   0.156   1.759   2.755  0.1810 -0.1256  0.3301
 4674SOL     OW25483   4.124   1.131   8.523  0.3989 -0.4970  0.2091
 4674SOL    HW125484   4.083   1.057   8.567 -0.9148 -0.1571 -0.4305
 4674SOL    HW225485   4.196   1.153   8.582 -0.9547  2.0019  0.9220
 4675SOL     OW25486   2.728   2.482   9.116 -0.4831 -0.0815  0.2187
 4675SOL    HW125487   2.822   2.464   9.118 -0.3290  0.3374 -2.6493
 4675SOL    HW225488   2.710   2.478   9.210  2.6493 -0.3805  0.7990
 4676SOL     OW25489   1.377   1.606   2.517 -0.2164  0.1555  0.1968
 4676SOL    HW125490   1.317   1.611   2.442  1.9718  1.0235 -1.5073
 4676SOL    HW225491   1.315   1.580   2.585 -2.1567 -0.1138 -1.6696
 4677SOL     OW25492   2.331   3.759   5.932 -0.5228 -0.6719 -0.3121
 4677SOL    HW125493   2.381   3.838   5.911 -0.7004  0.2546  2.7880
 4677SOL    HW225494   2.248   3.801   5.956  0.7756  1.5131  0.4305
 4678SOL     OW25495   1.409   4.701   2.727 -0.3800 -0.0206  0.5084
 4678SOL    HW125496   1.453   0.025   2.656  1.7971 -2.1698  0.4472
 4678SOL    HW225497   1.400   4.618   2.682 -1.9334 -0.0661  0.9295
 4679SOL     OW25498   2.396   0.023   6.552 -0.2210  0.4759 -0.1591
 4679SOL    HW125499   2.439   4.661   6.564  0.0072  0.6186  0.0223
 4679SOL    HW225500   2.469   0.080   6.529  0.5632 -0.2824  0.4529
 4680SOL     OW25501   1.987   0.474   6.136  0.0149  0.0296 -0.7033
 4680SOL    HW125502   1.949   0.555   6.103  0.4674  0.1137 -1.0171
 4680SOL    HW225503   2.080   0.496   6.139 -0.5756  2.3253  0.6053
 4681SOL     OW25504   3.020   1.067  17.351 -0.5359 -0.5025  0.0007
 4681SOL    HW125505   2.985   1.116  17.425 -1.6873  1.0036 -1.5586
 4681SOL    HW225506   3.023   0.986  17.402 -0.2315 -1.1817 -1.0914
 4682SOL     OW25507   1.572   4.327   2.630  0.6410 -0.2587 -0.0542
 4682SOL    HW125508   1.495   4.374   2.599  1.2704  1.5569  1.1332
 4682SOL    HW225509   1.615   4.299   2.550  0.7950  0.3516 -0.1819
 4683SOL     OW25510   2.434   1.348   1.440 -0.4776 -0.1737 -0.1504
 4683SOL    HW125511   2.371   1.333   1.369 -0.1071  0.5337 -0.6385
 4683SOL    HW225512   2.406   1.436   1.468  1.8383  0.3717  0.4515
 4684SOL     OW25513   2.779   3.054  15.449  0.0290  0.0787 -0.2069
 4684SOL    HW125514   2.707   3.055  15.386  1.5972 -0.1696 -1.9778
 4684SOL    HW225515   2.740   3.030  15.533 -4.0282  2.7126 -1.3215
 4685SOL     OW25516   2.130   3.614  14.075 -0.3557 -0.1586 -0.2471
 4685SOL    HW125517   2.092   3.645  13.993 -1.1803 -0.5492 -0.0103
 4685SOL    HW225518   2.053   3.590  14.126  0.3340  1.1962  1.4445
 4686SOL     OW25519   2.593   2.996  13.502 -0.4606 -0.3739  0.1367
 4686SOL    HW125520   2.607   3.019  13.593 -2.0513 -0.2832  0.3550
 4686SOL    HW225521   2.513   2.944  13.506 -0.7639 -0.0163 -1.1736
 4687SOL     OW25522   1.824   0.121   6.036  0.2882  0.2685  0.5356
 4687SOL    HW125523   1.801   0.206   5.997 -0.9684 -1.4709 -2.4813
 4687SOL    HW225524   1.900   0.143   6.091  0.8639 -0.5848  0.0787
 4688SOL     OW25525   0.255   1.937   8.417 -0.0877 -0.1127  0.3379
 4688SOL    HW125526   0.285   2.021   8.451  1.1190 -0.2897 -0.2824
 4688SOL    HW225527   0.228   1.954   8.327 -2.1302  2.2238  1.4006
 4689SOL     OW25528   1.744   3.378   5.985 -0.1017 -0.3193 -0.0305
 4689SOL    HW125529   1.806   3.312   6.013 -0.3213  0.2627  1.8168
 4689SOL    HW225530   1.707   3.400   6.070 -0.0781 -0.3921 -0.0021
 4690SOL     OW25531   3.533   1.180   1.289 -0.2841  0.3209  0.5739
 4690SOL    HW125532   3.575   1.226   1.216 -0.5854 -0.8216 -0.3087
 4690SOL    HW225533   3.606   1.123   1.311 -1.0565 -1.5971 -1.9244
 4691SOL     OW25534   0.234   2.860   1.883 -0.2267 -0.2222 -0.4500
 4691SOL    HW125535   0.261   2.866   1.974  2.1421 -0.1183 -1.1565
 4691SOL    HW225536   0.310   2.818   1.842 -0.6737  0.7491 -2.2861
 4692SOL     OW25537   1.372   1.400   5.918  0.0442  0.3814 -0.7096
 4692SOL    HW125538   1.297   1.455   5.940  0.0355 -0.2401  0.8520
 4692SOL    HW225539   1.439   1.447   5.968  1.2284 -1.8466 -0.1699
 4693SOL     OW25540   1.956   3.647  13.523 -0.1756 -0.0293 -0.1762
 4693SOL    HW125541   1.880   3.649  13.581 -0.1900  3.3948 -0.2983
 4693SOL    HW225542   1.906   3.637  13.442 -0.6098  1.0930 -0.0451
 4694SOL     OW25543   1.784   4.069   1.305 -0.1749 -0.0724 -0.5127
 4694SOL    HW125544   1.852   4.136   1.304  0.6537 -0.8560  3.1529
 4694SOL    HW225545   1.782   4.048   1.398 -0.7676  0.5649 -0.3829
 4695SOL     OW25546   2.372   2.048   6.862 -0.3600  0.4432  0.3837
 4695SOL    HW125547   2.348   1.961   6.894 -0.5905  0.5161  0.4104
 4695SOL    HW225548   2.453   2.030   6.814 -1.4480 -0.6268 -1.0572
 4696SOL     OW25549   3.377   0.867   4.299 -0.2244 -0.3578  0.1690
 4696SOL    HW125550   3.412   0.952   4.329 -0.7445 -0.2955  0.5894
 4696SOL    HW225551   3.451   0.809   4.317  0.0797 -0.1384 -0.3746
 4697SOL     OW25552   1.967   2.012   2.466  0.2968  0.0799 -0.3013
 4697SOL    HW125553   2.050   2.057   2.448  0.5234 -0.6455 -1.1046
 4697SOL    HW225554   1.899   2.077   2.480 -0.3889 -0.5538 -0.6921
 4698SOL     OW25555   4.639   2.147  17.090  0.3993 -0.6227  0.1554
 4698SOL    HW125556   0.007   2.127  17.069 -0.0445  0.0743 -2.5073
 4698SOL    HW225557   4.607   2.058  17.104 -0.5796 -0.2241  0.4591
 4699SOL     OW25558   1.291   2.876   5.418 -0.8095  0.3447  0.0788
 4699SOL    HW125559   1.358   2.840   5.360 -1.7897 -0.8893 -0.3019
 4699SOL    HW225560   1.212   2.858   5.367  0.2338 -2.4332 -0.5865
 4700SOL     OW25561   3.499   0.317  10.608 -0.5502 -0.1868 -0.2335
 4700SOL    HW125562   3.407   0.293  10.593 -0.1955 -0.8942 -1.2618
 4700SOL    HW225563   3.487   0.403  10.650  2.0679  0.1205 -0.1606
 4701SOL     OW25564   2.573   3.063  15.927 -0.0417  0.3170 -0.2261
 4701SOL    HW125565   2.567   3.109  16.010 -1.2912  0.7955 -0.5889
 4701SOL    HW225566   2.493   3.013  15.943  1.1185 -1.7337 -0.8032
 4702SOL     OW25567   3.699   1.419   2.648 -0.1251 -0.0056 -1.1621
 4702SOL    HW125568   3.606   1.444   2.641 -0.2789 -0.3012 -0.1985
 4702SOL    HW225569   3.741   1.488   2.597 -0.6056 -0.1689 -1.7789
 4703SOL     OW25570   1.850   0.411   3.536 -0.1593  0.2694 -0.4851
 4703SOL    HW125571   1.933   0.392   3.579 -0.6218 -1.8470 -0.5600
 4703SOL    HW225572   1.803   0.331   3.559  1.6265 -0.4923  0.4942
 4704SOL     OW25573   3.615   0.062   5.258 -0.2143  0.4156 -0.0957
 4704SOL    HW125574   3.626   0.147   5.302 -0.5829  0.2280  0.3601
 4704SOL    HW225575   3.567   0.019   5.328 -2.2619  3.0315  0.1114
 4705SOL     OW25576   2.760   4.444   6.572  0.2773  0.3145  0.2639
 4705SOL    HW125577   2.810   4.411   6.497 -1.6162  2.2466 -1.8783
 4705SOL    HW225578   2.668   4.431   6.547  0.6352 -1.0489 -0.3575
 4706SOL     OW25579   2.496   0.765   8.582  0.3747  0.0326  0.0155
 4706SOL    HW125580   2.540   0.813   8.512 -1.9471  2.5780  0.2550
 4706SOL    HW225581   2.550   0.792   8.656  0.2391 -1.7382  0.7497
 4707SOL     OW25582   1.362   4.174   3.918 -0.1411  0.6174  0.0841
 4707SOL    HW125583   1.418   4.215   3.851 -0.6322 -1.8755 -1.8508
 4707SOL    HW225584   1.347   4.090   3.875 -0.5352  0.6990  0.0638
 4708SOL     OW25585   1.463   2.659   2.419 -0.2597 -0.2639 -0.4913
 4708SOL    HW125586   1.541   2.652   2.364  0.4251  0.5005  0.3855
 4708SOL    HW225587   1.406   2.592   2.382  0.2648  0.2910 -2.2943
 4709SOL     OW25588   1.884   2.059  13.502  0.4556  0.0462 -0.3512
 4709SOL    HW125589   1.919   2.085  13.417 -0.4499 -1.1737 -1.0949
 4709SOL    HW225590   1.959   2.088  13.555  0.6710 -0.6293 -0.2726
 4710SOL     OW25591   2.410   3.840   7.907  0.0552 -0.5135 -0.3126
 4710SOL    HW125592   2.472   3.773   7.936 -1.6369 -1.1258  1.9478
 4710SOL    HW225593   2.455   3.859   7.825 -0.4305 -1.7657 -0.8844
 4711SOL     OW25594   0.764   4.696  11.106  0.3290  0.0870  0.1905
 4711SOL    HW125595   0.670   4.699  11.123  0.2097  2.0169 -0.6904
 4711SOL    HW225596   0.789   4.674  11.195  1.2761 -0.6720 -0.2724
 4712SOL     OW25597   0.903   0.613  13.656 -0.3563  0.1927  0.4565
 4712SOL    HW125598   0.993   0.615  13.623 -0.2833 -0.7993  0.5934
 4712SOL    HW225599   0.875   0.526  13.628  1.0223  0.3881 -1.5203
 4713SOL     OW25600   2.968   1.244   7.489 -0.6576 -0.0584  0.3372
 4713SOL    HW125601   2.984   1.174   7.552 -2.3925 -1.3589 -0.6508
 4713SOL    HW225602   2.907   1.294   7.543  0.8416  2.8318 -0.6805
 4714SOL     OW25603   0.594   4.427   8.388 -0.0378 -0.0573  0.5544
 4714SOL    HW125604   0.565   4.447   8.298 -2.0747  0.9354  1.4223
 4714SOL    HW225605   0.659   4.494   8.408  1.2182 -1.1085  0.0201
 4715SOL     OW25606   0.215   2.301   9.062  0.2901 -0.2798 -0.5705
 4715SOL    HW125607   0.120   2.291   9.051  0.3765 -3.1392  1.1176
 4715SOL    HW225608   0.227   2.363   8.990  0.9811  1.6099  1.1651
 4716SOL     OW25609   0.766   3.260   1.725  0.7482 -1.0519  0.2609
 4716SOL    HW125610   0.686   3.238   1.677  1.4804 -1.6795 -0.6684
 4716SOL    HW225611   0.830   3.272   1.654  1.3837  1.2415  1.1975
 4717SOL     OW25612   2.805   0.655   6.849 -0.3204 -0.0072  0.2133
 4717SOL    HW125613   2.795   0.610   6.766  1.5748 -0.3042  0.1501
 4717SOL    HW225614   2.756   0.594   6.904  0.5430 -0.8339  0.0449
 4718SOL     OW25615   0.547   2.844  15.509 -0.1230  0.3321 -0.2445
 4718SOL    HW125616   0.627   2.823  15.557 -0.7218  0.7345  0.9200
 4718SOL    HW225617   0.514   2.755  15.496 -0.0061 -0.1016  2.4363
 4719SOL     OW25618   1.722   4.511   2.837  0.4626 -0.2154  0.0701
 4719SOL    HW125619   1.748   4.603   2.843  0.4303 -0.2081  0.0983
 4719SOL    HW225620   1.722   4.503   2.742 -1.6887 -0.6737  0.1213
 4720SOL     OW25621   1.694   1.777  10.471 -0.1750  0.3431 -0.2248
 4720SOL    HW125622   1.628   1.711  10.491 -0.9341  0.4553 -2.3308
 4720SOL    HW225623   1.755   1.731  10.412 -0.3526 -0.1140 -0.0488
 4721SOL     OW25624   4.007   1.624   4.660  0.5408 -0.0026 -0.1211
 4721SOL    HW125625   3.929   1.610   4.714  0.4790 -2.5797 -0.8809
 4721SOL    HW225626   4.070   1.660   4.722 -1.5075  0.3663  1.7565
 4722SOL     OW25627   1.033   4.674  11.633  0.4303 -0.1040  0.4282
 4722SOL    HW125628   0.949   4.715  11.615 -0.5066 -1.8502  0.8112
 4722SOL    HW225629   1.086   0.031  11.635  0.3502 -0.0245 -0.8337
 4723SOL     OW25630   4.215   3.092  11.793  0.0626 -0.1451  0.0638
 4723SOL    HW125631   4.293   3.109  11.741  1.6208 -0.4184  2.3192
 4723SOL    HW225632   4.147   3.112  11.728 -0.3159  2.9210  1.4355
 4724SOL     OW25633   1.402   1.395  10.717  0.3687  0.0847  0.2286
 4724SOL    HW125634   1.395   1.302  10.698  0.3776 -0.0959  1.1329
 4724SOL    HW225635   1.434   1.387  10.807  1.4572 -0.6571 -0.2244
 4725SOL     OW25636   0.167   1.809   2.121  0.4088 -0.2390 -0.2961
 4725SOL    HW125637   0.134   1.852   2.042  1.1114  0.7754 -0.0394
 4725SOL    HW225638   0.259   1.801   2.095  0.1877 -2.5185 -0.3649
 4726SOL     OW25639   4.484   3.675   4.371 -0.4370  0.3495  0.1272
 4726SOL    HW125640   4.483   3.765   4.404 -2.8181  0.3527  0.0380
 4726SOL    HW225641   4.555   3.639   4.425 -0.7925  1.3015  1.2293
 4727SOL     OW25642   1.038   2.529   4.395 -0.7336 -0.6612  0.1634
 4727SOL    HW125643   1.015   2.614   4.434 -0.3433  0.1638 -1.3619
 4727SOL    HW225644   0.975   2.521   4.323  0.3727 -0.2801 -0.8477
 4728SOL     OW25645   2.128   0.566   7.851  0.6294 -0.2366 -0.5660
 4728SOL    HW125646   2.155   0.658   7.854 -0.3959  0.0244  0.8548
 4728SOL    HW225647   2.051   0.547   7.905  1.2762  0.0201  0.4397
 4729SOL     OW25648   4.021   4.100   0.863  0.1012  0.3443  0.2361
 4729SOL    HW125649   3.976   4.173   0.822  1.4223  0.5199 -0.9028
 4729SOL    HW225650   4.032   4.038   0.791  1.8422  2.5805 -1.4241
 4730SOL     OW25651   3.666   0.593   2.432 -0.4646  0.2863  0.0651
 4730SOL    HW125652   3.732   0.661   2.440  0.9067 -1.0797  0.2888
 4730SOL    HW225653   3.584   0.640   2.450 -0.1944  1.0776 -0.7811
 4731SOL     OW25654   3.189   1.732   7.168  0.1220 -0.0143  0.3433
 4731SOL    HW125655   3.282   1.735   7.192  0.4539 -1.1644 -0.8734
 4731SOL    HW225656   3.162   1.810   7.218  1.3648  0.1523  0.7469
 4732SOL     OW25657   1.929   1.306  15.726  0.3195 -0.2742 -0.3764
 4732SOL    HW125658   2.018   1.301  15.762  0.7754 -0.5092 -1.5463
 4732SOL    HW225659   1.891   1.358  15.798 -2.5493 -2.0047 -0.6344
 4733SOL     OW25660   3.405   3.421  16.114 -0.0432  0.4122  0.0086
 4733SOL    HW125661   3.452   3.422  16.030 -0.5317  1.0998 -0.2564
 4733SOL    HW225662   3.401   3.327  16.133 -1.7651  0.5156  0.1254
 4734SOL     OW25663   1.269   2.691   6.463 -0.5391  0.0482 -0.1837
 4734SOL    HW125664   1.216   2.611   6.468 -1.7882  0.9858  1.5575
 4734SOL    HW225665   1.355   2.654   6.447 -0.0746  1.2451 -0.4515
 4735SOL     OW25666   1.651   3.690   5.263  0.3187  0.3594  0.0642
 4735SOL    HW125667   1.575   3.636   5.244  0.4375  0.3170 -0.2901
 4735SOL    HW225668   1.640   3.695   5.358 -0.8120 -1.4296  0.0170
 4736SOL     OW25669   2.705   3.663   1.657 -0.1617 -0.5962 -0.4155
 4736SOL    HW125670   2.787   3.634   1.696 -1.5773  1.2826  3.9197
 4736SOL    HW225671   2.644   3.661   1.731  1.3250 -2.3817  0.7479
 4737SOL     OW25672   4.701   2.434   4.103  0.5302  0.1086  0.0648
 4737SOL    HW125673   4.628   2.470   4.054  0.9517  1.5069  0.4727
 4737SOL    HW225674   0.019   2.508   4.148 -1.9182  1.2650  0.3580
 4738SOL     OW25675   0.909   3.098   4.070  0.2440  0.4912  0.0596
 4738SOL    HW125676   0.828   3.047   4.059  0.1588  0.3119  1.5576
 4738SOL    HW225677   0.969   3.030   4.100 -2.0426 -1.7491 -0.3549
 4739SOL     OW25678   0.359   2.773  13.170 -0.3188  0.1586 -0.3549
 4739SOL    HW125679   0.449   2.776  13.137  0.0381  0.6482  0.6433
 4739SOL    HW225680   0.327   2.686  13.145 -1.5867  0.5670 -0.1376
 4740SOL     OW25681   1.050   2.144  16.011 -0.4688  0.3544  0.2711
 4740SOL    HW125682   1.126   2.087  16.025 -1.2184 -0.1924  2.0726
 4740SOL    HW225683   0.980   2.093  16.052  0.9082 -0.0502  2.1239
 4741SOL     OW25684   1.822   1.329   4.629  0.1011  0.2559 -0.6621
 4741SOL    HW125685   1.848   1.316   4.720  1.4035 -1.3645 -1.2630
 4741SOL    HW225686   1.907   1.362   4.598  1.4690 -0.9557  1.7770
 4742SOL     OW25687   2.459   1.976   5.030 -0.2065  0.0143  0.1865
 4742SOL    HW125688   2.472   1.883   5.010 -0.1618  0.2930 -1.0344
 4742SOL    HW225689   2.455   1.975   5.126 -0.6475  0.8371  0.1699
 4743SOL     OW25690   1.186   0.392  10.754  0.1316  0.3832  0.2689
 4743SOL    HW125691   1.119   0.451  10.786 -0.5102 -0.2641  0.1124
 4743SOL    HW225692   1.141   0.315  10.718 -1.1232  0.2760  2.1150
 4744SOL     OW25693   3.200   3.523   8.388  0.2077  0.3496 -0.4632
 4744SOL    HW125694   3.284   3.552   8.354 -0.4942  3.7801  0.7161
 4744SOL    HW225695   3.152   3.603   8.411  2.1231  0.5760  2.7384
 4745SOL     OW25696   0.561   1.085   0.725  0.3661 -0.0995  0.4619
 4745SOL    HW125697   0.619   1.154   0.757  0.0310  1.1485 -1.6499
 4745SOL    HW225698   0.623   1.019   0.693 -0.3702  0.4302 -2.0336
 4746SOL     OW25699   2.617   3.388  17.069 -0.7934  0.0581  0.0132
 4746SOL    HW125700   2.581   3.306  17.036  2.4519 -0.4742 -2.2285
 4746SOL    HW225701   2.562   3.453  17.026  2.2269  3.4246  1.1737
 4747SOL     OW25702   0.774   3.426  10.363 -0.3947  0.7849  0.1696
 4747SOL    HW125703   0.712   3.359  10.394 -0.4242 -0.4462 -2.5369
 4747SOL    HW225704   0.839   3.434  10.433 -0.9995 -2.4020  1.1415
 4748SOL     OW25705   2.251   2.993   9.041 -0.5415 -0.3615  0.2810
 4748SOL    HW125706   2.158   3.014   9.038 -0.3997  0.3857  1.1804
 4748SOL    HW225707   2.269   3.002   9.135  0.4350  0.2461  0.0269
 4749SOL     OW25708   3.836   2.401  10.692  0.0806 -0.1681  0.0410
 4749SOL    HW125709   3.807   2.365  10.775 -0.9416  0.7331  0.0721
 4749SOL    HW225710   3.805   2.344  10.621  0.1358 -0.5565  0.3307
 4750SOL     OW25711   0.112   1.840  12.242  0.0261 -0.0671 -0.0141
 4750SOL    HW125712   0.170   1.764  12.238 -0.3553 -0.4302  1.2543
 4750SOL    HW225713   0.144   1.884  12.163 -0.4408  0.1422 -0.0865
 4751SOL     OW25714   1.683   4.261   5.991 -0.0304 -0.1891 -0.3995
 4751SOL    HW125715   1.778   4.250   5.988 -0.0575 -0.6921  0.3989
 4751SOL    HW225716   1.660   4.281   6.082  0.9254 -0.2868 -0.1382
 4752SOL     OW25717   3.562   3.289   4.634  0.0996 -0.1501 -0.0860
 4752SOL    HW125718   3.629   3.357   4.635 -0.3927  0.3274  0.7473
 4752SOL    HW225719   3.596   3.228   4.699  0.7756  0.1554 -0.1559
 4753SOL     OW25720   2.001   1.702   7.125 -0.2769 -0.4006 -0.1142
 4753SOL    HW125721   2.089   1.737   7.111 -0.6222  1.2075  1.6831
 4753SOL    HW225722   1.955   1.781   7.156  0.8758  0.2284  0.0216
 4754SOL     OW25723   1.237   3.788   6.172  0.3418 -0.3485  0.0269
 4754SOL    HW125724   1.281   3.859   6.126  0.4008 -1.5016 -1.6973
 4754SOL    HW225725   1.223   3.819   6.262  1.2030 -1.5523  0.5706
 4755SOL     OW25726   4.201   1.848   5.898  0.0010  0.3113 -0.1246
 4755SOL    HW125727   4.110   1.845   5.927 -0.3587  0.0126 -1.2804
 4755SOL    HW225728   4.237   1.784   5.960  0.3369  0.4150 -0.2121
 4756SOL     OW25729   1.506   3.336   3.171 -0.0265  0.1169 -0.5360
 4756SOL    HW125730   1.548   3.290   3.245 -0.7833  1.0001  0.4289
 4756SOL    HW225731   1.536   3.426   3.180 -0.4678  0.3147 -1.0716
 4757SOL     OW25732   2.127   0.425   9.131  0.2626  0.4444 -0.3290
 4757SOL    HW125733   2.116   0.442   9.224  0.6182 -2.5420  0.2521
 4757SOL    HW225734   2.209   0.376   9.122 -0.3873 -0.4064 -1.6255
 4758SOL     OW25735   2.282   0.014  15.952  0.0638  0.2148 -0.3730
 4758SOL    HW125736   2.210   0.031  15.891 -0.9334  0.1021  0.7759
 4758SOL    HW225737   2.258   4.647  15.971  1.6502 -0.8204 -3.3535
 4759SOL     OW25738   4.385   0.311   7.799 -0.0563 -0.3134 -0.8823
 4759SOL    HW125739   4.395   0.227   7.755  1.0823 -0.3030 -0.6459
 4759SOL    HW225740   4.386   0.364   7.719 -0.0596 -0.9684 -1.3177
 4760SOL     OW25741   2.068   0.615   2.335  0.2631  0.1347 -0.0098
 4760SOL    HW125742   2.151   0.662   2.328  0.5403 -0.3220  0.1812
 4760SOL    HW225743   2.058   0.579   2.246 -0.7363 -2.1768  1.0310
 4761SOL     OW25744   3.118   3.433   1.126 -0.5803  0.5322  0.3933
 4761SOL    HW125745   3.130   3.401   1.215  0.9556  1.1750  0.4147
 4761SOL    HW225746   3.201   3.477   1.106  1.2229 -1.2237  4.0435
 4762SOL     OW25747   4.665   2.954   3.524 -0.4748 -0.4613  0.4167
 4762SOL    HW125748   4.653   2.996   3.438 -2.1927  0.4954  1.1249
 4762SOL    HW225749   0.027   2.997   3.535 -1.2216  1.2774 -0.5672
 4763SOL     OW25750   1.702   2.328   7.551 -0.2088 -0.2136 -0.0414
 4763SOL    HW125751   1.621   2.352   7.505 -0.8222 -2.6422 -0.2146
 4763SOL    HW225752   1.743   2.278   7.480  1.3744  1.4879 -0.3163
 4764SOL     OW25753   4.186   0.871   1.910 -0.6396 -0.4852 -0.1676
 4764SOL    HW125754   4.242   0.865   1.833 -1.0461  1.6017 -0.6386
 4764SOL    HW225755   4.246   0.845   1.979 -0.6242  0.1260  0.0557
 4765SOL     OW25756   1.994   0.343  11.286 -0.0150  0.4829  0.4886
 4765SOL    HW125757   2.024   0.252  11.287  0.4307  0.6309  0.5770
 4765SOL    HW225758   2.072   0.381  11.246  0.3901 -0.2704  0.5697
 4766SOL     OW25759   0.622   0.844   2.473 -0.2128 -0.0347  0.4810
 4766SOL    HW125760   0.563   0.889   2.533 -0.3793 -0.1835  0.4279
 4766SOL    HW225761   0.659   0.916   2.420 -2.5132  1.1637  0.5069
 4767SOL     OW25762   1.353   4.491   2.548 -0.1628  0.3855  0.8656
 4767SOL    HW125763   1.324   4.555   2.483 -0.2853 -0.0421  0.4935
 4767SOL    HW225764   1.302   4.412   2.530 -0.7345  0.7686  0.7850
 4768SOL     OW25765   2.118   3.272   2.202  0.4823  0.5156 -0.3067
 4768SOL    HW125766   2.035   3.243   2.164  0.1248  1.0168  0.0961
 4768SOL    HW225767   2.118   3.354   2.153 -0.2941  1.2655  0.9704
 4769SOL     OW25768   3.206   0.594   4.241 -0.4093  0.2090 -0.6492
 4769SOL    HW125769   3.188   0.582   4.334  0.7120 -0.6350 -0.5369
 4769SOL    HW225770   3.247   0.680   4.246  0.3132 -0.1556 -0.3280
 4770SOL     OW25771   4.455   0.687   3.233 -0.7412 -0.0900  0.6121
 4770SOL    HW125772   4.497   0.603   3.212 -2.0372 -0.2760 -1.2345
 4770SOL    HW225773   4.478   0.733   3.152 -1.5068 -1.8609 -0.6066
 4771SOL     OW25774   4.260   4.048   7.460  0.0395  0.2668  0.1549
 4771SOL    HW125775   4.289   4.106   7.530 -1.3102  1.8771 -0.6160
 4771SOL    HW225776   4.200   3.992   7.509  1.1511 -2.3523 -1.4598
 4772SOL     OW25777   3.470   2.264  15.178 -0.2839  0.2665  0.1732
 4772SOL    HW125778   3.515   2.222  15.105 -1.4271 -1.2421  0.3488
 4772SOL    HW225779   3.532   2.333  15.202 -0.5676  0.7621 -0.4962
 4773SOL     OW25780   1.531   4.285   6.879 -0.3112  0.0527  0.3265
 4773SOL    HW125781   1.606   4.231   6.903  0.5658  0.2469 -1.9571
 4773SOL    HW225782   1.529   4.347   6.952  2.4335  0.9031 -0.3221
 4774SOL     OW25783   0.526   2.662  17.292 -0.0502 -0.2922  0.4767
 4774SOL    HW125784   0.536   2.706  17.376 -2.0502 -0.0956  0.6061
 4774SOL    HW225785   0.452   2.604  17.308  0.0064 -0.3658  0.4760
 4775SOL     OW25786   1.631   1.116   3.999 -1.2303 -0.1235 -0.3090
 4775SOL    HW125787   1.726   1.111   4.002 -1.4349 -2.4961  2.0301
 4775SOL    HW225788   1.603   1.061   4.073  2.4342 -0.1349  1.0373
 4776SOL     OW25789   0.340   1.539   9.069 -0.0316  0.1714 -0.6893
 4776SOL    HW125790   0.366   1.471   9.131 -0.9043  0.0713 -0.4377
 4776SOL    HW225791   0.372   1.500   8.988 -0.2171 -0.8125 -0.2921
 4777SOL     OW25792   4.435   3.432  17.325 -0.1092 -0.7504 -0.3035
 4777SOL    HW125793   4.518   3.469  17.357 -0.3961 -1.5057  1.3285
 4777SOL    HW225794   4.451   3.337  17.330  1.1200 -0.4905  0.8058
 4778SOL     OW25795   1.885   3.332   3.279  0.2623  0.3699 -0.2374
 4778SOL    HW125796   1.848   3.378   3.355 -0.0331 -0.5089  0.1559
 4778SOL    HW225797   1.938   3.395   3.231  1.3763 -3.0113 -3.3465
 4779SOL     OW25798   0.470   0.103   6.940  0.5207  0.4346 -0.2103
 4779SOL    HW125799   0.476   0.177   6.879 -1.3696  0.6411 -0.1541
 4779SOL    HW225800   0.512   0.035   6.887 -2.0579 -0.6074 -0.9448
 4780SOL     OW25801   0.556   1.228   8.495 -0.1270 -0.0588  0.3383
 4780SOL    HW125802   0.628   1.196   8.440  0.7315 -0.6286  1.7949
 4780SOL    HW225803   0.495   1.154   8.494  0.0867 -0.2371  1.1565
 4781SOL     OW25804   2.503   0.992  12.603  0.1001 -0.0821  0.0560
 4781SOL    HW125805   2.410   0.968  12.595  0.1185 -0.5614  1.2999
 4781SOL    HW225806   2.519   0.957  12.516 -0.6634  0.3047 -0.2453
 4782SOL     OW25807   2.299   2.004   5.793  0.5053 -0.2077  0.0293
 4782SOL    HW125808   2.393   2.014   5.779  0.3353  2.3804  0.6912
 4782SOL    HW225809   2.295   2.008   5.888  3.5726  1.9940  0.0741
 4783SOL     OW25810   1.561   0.751   8.161  0.3695  0.0998 -0.0574
 4783SOL    HW125811   1.582   0.805   8.237 -1.3447 -0.9114  1.1276
 4783SOL    HW225812   1.489   0.809   8.133 -0.5217 -1.5327 -1.1263
 4784SOL     OW25813   1.957   0.871  11.764 -0.2592  0.0154 -0.3964
 4784SOL    HW125814   2.044   0.903  11.741 -0.5188  1.6530  0.9468
 4784SOL    HW225815   1.914   0.951  11.735 -0.0046 -0.8310 -3.1606
 4785SOL     OW25816   1.802   3.708   0.194 -0.4330  0.5431  0.3361
 4785SOL    HW125817   1.883   3.697   0.145  0.5088  2.4961  1.4124
 4785SOL    HW225818   1.827   3.678   0.282 -0.8418  1.8347  0.8993
 4786SOL     OW25819   4.656   0.323  12.352 -0.1161  0.1253  0.3702
 4786SOL    HW125820   0.001   0.352  12.413 -0.6417  1.0648  0.5249
 4786SOL    HW225821   4.582   0.336  12.411 -2.2118 -0.6262 -2.1176
 4787SOL     OW25822   2.146   1.205   4.983 -0.0455  0.7017  0.1341
 4787SOL    HW125823   2.168   1.140   4.916 -1.2956  0.7279 -0.2983
 4787SOL    HW225824   2.192   1.283   4.953  0.5593  0.4057  0.2849
 4788SOL     OW25825   1.926   0.353   1.642 -0.1119  0.2347  0.0991
 4788SOL    HW125826   1.987   0.282   1.660 -0.2588 -0.5115 -2.3142
 4788SOL    HW225827   1.905   0.330   1.552 -0.9603  1.8042 -0.1105
 4789SOL     OW25828   3.804   4.382   8.505 -0.3037 -0.0606 -0.5615
 4789SOL    HW125829   3.756   4.426   8.435 -0.4638  1.3429  0.4350
 4789SOL    HW225830   3.735   4.386   8.571  0.9347 -0.4149  0.7620
 4790SOL     OW25831   2.421   0.155   4.542  0.3332  0.1242  0.0573
 4790SOL    HW125832   2.469   0.203   4.474 -0.4981  1.7458  0.6285
 4790SOL    HW225833   2.364   0.216   4.587 -0.5134 -0.9511  0.4460
 4791SOL     OW25834   1.453   0.187   3.411 -0.3377  0.4066  0.7850
 4791SOL    HW125835   1.454   0.180   3.315  0.0848 -0.7466  0.8816
 4791SOL    HW225836   1.484   0.278   3.417 -3.1156  1.2179  2.8458
 4792SOL     OW25837   0.353   1.062   8.538  0.2952  0.0761  0.0331
 4792SOL    HW125838   0.326   1.084   8.628 -3.7140  0.5808 -1.2691
 4792SOL    HW225839   0.285   1.119   8.501 -0.5832 -1.8660 -1.3332
 4793SOL     OW25840   3.035   2.227   1.804 -0.2476  0.2830  0.1547
 4793SOL    HW125841   3.023   2.138   1.769  1.1756 -1.0551  3.1204
 4793SOL    HW225842   3.114   2.215   1.856  0.4466  0.5943 -0.8215
 4794SOL     OW25843   3.090   1.622  10.860 -0.6028  0.5450  0.7069
 4794SOL    HW125844   3.137   1.574  10.928  1.7782  1.9483  0.0593
 4794SOL    HW225845   3.027   1.676  10.909 -1.5154  0.0826  0.0443
 4795SOL     OW25846   2.075   4.706  11.053 -0.2756 -0.1551 -0.2312
 4795SOL    HW125847   2.071   0.054  10.989 -1.8645 -0.5410 -0.5617
 4795SOL    HW225848   2.028   4.635  11.010 -0.4194 -0.8038  0.9998
 4796SOL     OW25849   3.890   4.326   0.786  0.2560  0.4794  0.3340
 4796SOL    HW125850   3.962   4.387   0.774  0.5939 -0.5457 -2.9585
 4796SOL    HW225851   3.844   4.358   0.863  0.1151 -0.8121  0.7897
 4797SOL     OW25852   1.860   1.368  17.235  0.1139  0.1157  0.4230
 4797SOL    HW125853   1.890   1.448  17.277  2.2658 -0.0033 -0.8737
 4797SOL    HW225854   1.940   1.345  17.188 -1.1498  0.1190 -1.7311
 4798SOL     OW25855   2.691   3.219  12.277 -0.2592  0.6785  0.1180
 4798SOL    HW125856   2.693   3.207  12.182  2.3031  0.0139  0.2515
 4798SOL    HW225857   2.597   3.209  12.296 -0.6036 -1.8223 -2.8852
 4799SOL     OW25858   0.033   0.943  11.096  0.6015 -0.2237  0.1632
 4799SOL    HW125859   0.077   1.027  11.106 -0.5206  0.0985  2.3152
 4799SOL    HW225860   0.037   0.911  11.186  1.6057  0.0838  0.2291
 4800SOL     OW25861   2.330   4.139   5.398 -0.4402 -0.2986 -0.3024
 4800SOL    HW125862   2.238   4.155   5.419  0.2306  0.0321  2.4548
 4800SOL    HW225863   2.330   4.172   5.308 -0.3677  0.5382  0.0070
 4801SOL     OW25864   3.728   3.197  11.653  0.2530 -0.5645 -0.0812
 4801SOL    HW125865   3.683   3.241  11.581  0.6609  1.3013  0.8071
 4801SOL    HW225866   3.750   3.121  11.599 -1.3358 -0.0994 -1.3984
 4802SOL     OW25867   0.260   0.763   2.505  0.2896 -0.5095  0.5261
 4802SOL    HW125868   0.347   0.763   2.465 -0.4390 -0.5095 -1.0535
 4802SOL    HW225869   0.282   0.699   2.573 -3.5435  0.4060  2.6469
 4803SOL     OW25870   0.723   3.540  10.729  0.4807  0.1947  0.6979
 4803SOL    HW125871   0.810   3.519  10.694 -0.3005 -0.1225 -1.0631
 4803SOL    HW225872   0.663   3.525  10.656 -0.3987 -0.8053  1.6380
 4804SOL     OW25873   4.102   2.551   4.355  0.4242 -0.0464  0.2990
 4804SOL    HW125874   4.122   2.645   4.351  1.5804 -0.3377 -0.7064
 4804SOL    HW225875   4.164   2.517   4.291 -0.1758 -0.0870 -0.2562
 4805SOL     OW25876   0.716   2.230   6.478 -0.0411  0.0817 -0.2922
 4805SOL    HW125877   0.773   2.171   6.527 -1.0014  0.3412  1.1600
 4805SOL    HW225878   0.634   2.209   6.523  0.7145 -1.5638  0.3278
 4806SOL     OW25879   0.685   4.257   0.409 -0.7273 -0.7364  0.3082
 4806SOL    HW125880   0.701   4.172   0.367 -1.3963 -1.6330  1.8511
 4806SOL    HW225881   0.637   4.301   0.339  2.0254  0.1467 -1.0160
 4807SOL     OW25882   2.211   4.211   8.184 -0.1983 -0.1232  0.2697
 4807SOL    HW125883   2.126   4.184   8.217  1.0955 -2.3756  1.7671
 4807SOL    HW225884   2.188   4.302   8.164 -1.7775 -0.0097  2.6952
 4808SOL     OW25885   1.273   4.357   6.826  0.0390 -0.4476 -0.3262
 4808SOL    HW125886   1.364   4.331   6.839  0.4177  1.7767  1.5252
 4808SOL    HW225887   1.257   4.441   6.870 -1.4801  0.5692 -2.7527
 4809SOL     OW25888   0.889   0.762  15.369  0.5474  0.1669 -0.8500
 4809SOL    HW125889   0.901   0.734  15.279 -1.4585 -0.4236 -0.9352
 4809SOL    HW225890   0.981   0.770  15.395  0.4484 -0.0032 -0.4348
 4810SOL     OW25891   1.613   4.324   7.518 -0.5867 -0.0724 -0.2743
 4810SOL    HW125892   1.630   4.411   7.554  1.7860  0.1690 -2.0705
 4810SOL    HW225893   1.666   4.319   7.439 -0.0598  0.2854  0.0577
 4811SOL     OW25894   0.956   1.591  13.198  0.3250  0.4479 -0.1340
 4811SOL    HW125895   1.039   1.569  13.241  0.8221 -0.2464 -1.4347
 4811SOL    HW225896   0.904   1.612  13.276  0.2645  1.2215 -0.3808
 4812SOL     OW25897   4.219   3.914   3.873 -0.1446 -0.4645  0.3876
 4812SOL    HW125898   4.244   3.967   3.798 -1.0589  1.0786  1.1630
 4812SOL    HW225899   4.187   3.974   3.941 -1.3250 -0.5774 -0.0608
 4813SOL     OW25900   4.038   0.840  13.114  0.3395 -0.1283  0.5536
 4813SOL    HW125901   4.034   0.932  13.088 -0.6290 -0.5560 -0.7904
 4813SOL    HW225902   3.999   0.841  13.201 -0.8214 -0.6475  0.0340
 4814SOL     OW25903   4.030   1.393   8.502  0.5404  0.0538  0.4732
 4814SOL    HW125904   4.016   1.386   8.596  1.1743 -1.0940  0.4888
 4814SOL    HW225905   4.067   1.306   8.485 -0.6532 -0.0009 -1.9667
 4815SOL     OW25906   1.015   0.284   5.513 -0.4214  0.4058 -0.1745
 4815SOL    HW125907   1.090   0.307   5.567  0.4618 -1.9916 -0.3338
 4815SOL    HW225908   0.947   0.321   5.568 -0.6727  0.5108 -0.5572
 4816SOL     OW25909   1.476   0.624   0.989 -0.1465 -0.0860  0.6028
 4816SOL    HW125910   1.411   0.561   0.958 -0.8857 -0.2426  2.4689
 4816SOL    HW225911   1.484   0.688   0.917 -0.8844 -1.4007 -0.6445
 4817SOL     OW25912   3.527   0.174   9.370  0.0985 -0.0030  0.1689
 4817SOL    HW125913   3.556   0.083   9.366 -1.5344 -0.4961 -0.6532
 4817SOL    HW225914   3.480   0.184   9.287 -1.3314 -0.8751  0.8857
 4818SOL     OW25915   2.068   1.124   2.508 -0.4019 -0.1026  0.3240
 4818SOL    HW125916   2.095   1.176   2.433 -0.6545 -0.9967 -0.3885
 4818SOL    HW225917   2.044   1.052   2.450  1.0068 -0.2729 -0.0404
 4819SOL     OW25918   3.214   1.616  10.158  0.2094  0.4986  0.1846
 4819SOL    HW125919   3.234   1.556  10.086  0.6502  0.5104  0.2951
 4819SOL    HW225920   3.167   1.685  10.111  0.2685 -0.2362 -0.9611
 4820SOL     OW25921   0.060   4.379   3.803  0.6811  0.0894 -0.4649
 4820SOL    HW125922   0.119   4.351   3.734  0.0120 -1.2071 -0.4987
 4820SOL    HW225923   4.720   4.307   3.800  1.3448 -0.6836  3.1787
 4821SOL     OW25924   3.511   2.078   8.761 -0.5804 -0.2091  0.4965
 4821SOL    HW125925   3.590   2.117   8.799  0.6706  1.2385 -3.5753
 4821SOL    HW225926   3.432   2.117   8.799 -2.3084 -3.5874  0.3891
 4822SOL     OW25927   1.761   3.208  11.892  0.0025 -0.7039 -0.1458
 4822SOL    HW125928   1.783   3.138  11.830 -0.1845 -0.6439 -0.2772
 4822SOL    HW225929   1.675   3.189  11.930 -0.7827  2.3658 -0.4285
 4823SOL     OW25930   4.513   4.315   2.345  0.3340  0.0167 -0.4343
 4823SOL    HW125931   4.467   4.301   2.262  1.3213 -0.9569 -0.8326
 4823SOL    HW225932   4.593   4.268   2.321  0.6645  0.9924 -1.2373
 4824SOL     OW25933   3.607   1.409   5.949 -0.3715 -0.1595 -0.6536
 4824SOL    HW125934   3.525   1.364   5.931 -1.3894  1.4660 -0.1610
 4824SOL    HW225935   3.666   1.382   5.879 -0.0578  0.8483 -0.7843
 4825SOL     OW25936   1.309   2.108   1.966  0.7445  0.2839 -0.0411
 4825SOL    HW125937   1.359   2.103   2.048  2.1775 -0.4753 -0.9477
 4825SOL    HW225938   1.382   2.103   1.904 -0.9765 -0.6559 -1.9774
 4826SOL     OW25939   0.723   0.955   7.846  0.0483 -0.3844 -0.1148
 4826SOL    HW125940   0.628   0.952   7.839  0.0653 -0.2011 -0.4345
 4826SOL    HW225941   0.727   1.046   7.875 -2.1257 -1.2137  2.7185
 4827SOL     OW25942   1.630   2.719   9.440  0.3400  0.6579 -0.3459
 4827SOL    HW125943   1.673   2.784   9.496  1.7820 -0.4821 -0.1207
 4827SOL    HW225944   1.545   2.759   9.427  0.1525  0.1411 -0.6941
 4828SOL     OW25945   1.324   2.832   5.692 -0.2524 -0.0082  0.2630
 4828SOL    HW125946   1.385   2.771   5.734 -0.4705 -1.0804 -0.9969
 4828SOL    HW225947   1.367   2.851   5.609 -0.0992 -2.6084 -0.2519
 4829SOL     OW25948   0.817   0.187   5.117  0.1175 -0.1252 -0.1173
 4829SOL    HW125949   0.820   0.093   5.137  1.5146 -0.1475 -0.4254
 4829SOL    HW225950   0.895   0.223   5.160  1.1875 -2.1060 -0.3712
 4830SOL     OW25951   3.244   1.607   2.163 -0.7087 -0.4724  0.0442
 4830SOL    HW125952   3.213   1.666   2.095 -3.1840 -1.4000  0.3662
 4830SOL    HW225953   3.204   1.527   2.132  2.4288 -1.8299 -0.5222
 4831SOL     OW25954   0.711   0.298   4.881  0.2506 -0.1900  0.4838
 4831SOL    HW125955   0.741   0.259   4.963 -0.8975  3.2030  2.5171
 4831SOL    HW225956   0.774   0.370   4.876 -0.7706  0.6026 -1.0085
 4832SOL     OW25957   1.927   0.908   4.719  0.1455 -0.0811  0.6416
 4832SOL    HW125958   1.921   0.820   4.755  0.8136  0.4230  1.9791
 4832SOL    HW225959   1.856   0.951   4.766 -0.0908  0.1186  0.1005
 4833SOL     OW25960   4.036   2.906  10.091 -0.0005 -0.0060  0.3933
 4833SOL    HW125961   4.012   2.922  10.182  3.0730  1.1967  1.0083
 4833SOL    HW225962   4.047   2.997  10.063 -1.7826  1.0877  3.2330
 4834SOL     OW25963   2.083   3.351   7.166 -0.2704 -0.0308 -0.0189
 4834SOL    HW125964   2.068   3.415   7.235 -0.0411 -2.0959  1.9448
 4834SOL    HW225965   2.105   3.408   7.093  2.1269 -1.1217 -0.1640
 4835SOL     OW25966   1.254   3.331   2.006 -0.2533  0.3170  0.3674
 4835SOL    HW125967   1.298   3.264   2.057 -1.2935 -0.5747  0.1106
 4835SOL    HW225968   1.213   3.275   1.940 -0.2252  0.0562  0.5773
 4836SOL     OW25969   3.043   3.493   2.310  0.4986 -0.1889  0.1165
 4836SOL    HW125970   3.134   3.517   2.329 -0.5074  2.0994  2.1168
 4836SOL    HW225971   3.009   3.474   2.397  0.0160 -0.4661 -0.1295
 4837SOL     OW25972   1.067   1.583   8.496  0.0780 -0.2096 -0.2496
 4837SOL    HW125973   1.095   1.670   8.467  1.1975 -0.0322  1.3332
 4837SOL    HW225974   1.003   1.570   8.426  0.9863 -0.5857 -1.0147
 4838SOL     OW25975   2.699   1.113   1.743  0.8891 -0.2254 -0.1946
 4838SOL    HW125976   2.758   1.187   1.758  0.8824 -0.4172  0.7782
 4838SOL    HW225977   2.656   1.101   1.828  0.7888 -0.0173 -0.2167
 4839SOL     OW25978   1.670   1.420   3.921  0.3650 -0.5580 -0.4317
 4839SOL    HW125979   1.654   1.328   3.941 -1.7315 -0.1329 -0.1410
 4839SOL    HW225980   1.719   1.434   4.002 -2.2771 -1.3853  1.2920
 4840SOL     OW25981   1.467   0.206   3.147  0.4099 -0.2355  0.1095
 4840SOL    HW125982   1.504   0.164   3.070 -0.4341  0.1187 -0.4864
 4840SOL    HW225983   1.431   0.288   3.114  1.7833  0.9689  1.5663
 4841SOL     OW25984   0.780   1.919   0.384 -0.6954  0.4892  0.0152
 4841SOL    HW125985   0.802   1.936   0.292  3.5302  1.3725  1.1875
 4841SOL    HW225986   0.855   1.964   0.424  0.7998 -1.0569 -1.0780
 4842SOL     OW25987   2.858   3.063   3.537 -0.5220 -0.4829 -0.6214
 4842SOL    HW125988   2.791   3.088   3.601  0.0107  0.5337 -0.4558
 4842SOL    HW225989   2.872   3.150   3.499  1.4422  0.4091  2.1457
 4843SOL     OW25990   2.147   0.343   5.094  0.3496 -0.7064 -0.1662
 4843SOL    HW125991   2.069   0.291   5.073 -0.7093  1.1156 -0.7175
 4843SOL    HW225992   2.215   0.278   5.075  0.7737 -0.9036  2.0150
 4844SOL     OW25993   1.931   3.897   4.169 -0.0893 -0.5993 -0.0718
 4844SOL    HW125994   1.877   3.952   4.113  2.7010  1.8340 -0.3695
 4844SOL    HW225995   1.887   3.898   4.254  0.0545  0.0600 -0.0040
 4845SOL     OW25996   1.149   0.953  15.121 -0.3626  0.9782  0.0845
 4845SOL    HW125997   1.085   0.987  15.059 -0.1821 -0.7776 -1.0966
 4845SOL    HW225998   1.173   0.871  15.077 -0.9970 -0.4037  2.2952
 4846SOL     OW25999   2.046   4.335   0.168  0.5258 -0.2374  0.2248
 4846SOL    HW126000   1.992   4.356   0.243  1.3652 -3.4527  1.7055
 4846SOL    HW226001   2.050   4.240   0.169  0.0381 -0.2461  1.2994
 4847SOL     OW26002   0.362   4.519   6.290  0.5202 -0.1898  0.0370
 4847SOL    HW126003   0.344   4.588   6.353 -1.4368 -1.1852  0.5657
 4847SOL    HW226004   0.325   4.548   6.206  2.2665 -0.3931 -0.8149
 4848SOL     OW26005   0.520   3.807   2.800 -0.0184 -0.1227 -0.2910
 4848SOL    HW126006   0.496   3.765   2.882  1.8561 -1.4440 -0.4158
 4848SOL    HW226007   0.435   3.838   2.769 -0.3876  1.9448  2.8034
 4849SOL     OW26008   1.133   3.524   8.007 -0.1508 -0.0330 -0.0475
 4849SOL    HW126009   1.129   3.528   8.103  0.2975 -3.6243  0.1187
 4849SOL    HW226010   1.164   3.435   7.989  0.5315 -0.0983  1.4014
 4850SOL     OW26011   0.789   2.926   9.295 -0.3233  0.2976 -0.2823
 4850SOL    HW126012   0.704   2.953   9.260  0.5987  1.6027 -1.5124
 4850SOL    HW226013   0.778   2.970   9.379  2.0315 -1.6817  1.0716
 4851SOL     OW26014   3.233   4.017  15.232 -0.0526 -0.0399  0.1900
 4851SOL    HW126015   3.315   4.009  15.280  0.4411 -0.0250 -0.6369
 4851SOL    HW226016   3.231   4.110  15.211 -0.9013 -0.4979 -1.7641
 4852SOL     OW26017   3.909   0.520  16.151  0.0837 -0.1836 -0.0894
 4852SOL    HW126018   3.981   0.528  16.089  1.9709  1.6973  2.3347
 4852SOL    HW226019   3.957   0.537  16.233  0.7697  1.3553 -0.8155
 4853SOL     OW26020   1.460   0.364  10.949 -0.3425  0.1968 -0.1169
 4853SOL    HW126021   1.420   0.307  11.014 -2.3269  1.6856 -0.0164
 4853SOL    HW226022   1.434   0.453  10.974 -1.0278  0.2361 -0.9437
 4854SOL     OW26023   2.847   3.170   2.211 -0.1290 -0.1537  0.2107
 4854SOL    HW126024   2.905   3.210   2.275  0.4892  0.7416 -0.9124
 4854SOL    HW226025   2.795   3.110   2.265 -1.0714  0.6309  0.1682
 4855SOL     OW26026   4.530   0.950  15.248  0.2068  0.0371 -0.2760
 4855SOL    HW126027   4.517   1.041  15.222  1.8646  0.1900 -0.5720
 4855SOL    HW226028   4.624   0.932  15.252  0.2986  0.0886 -2.2554
 4856SOL     OW26029   2.788   3.743   6.448  0.1577  0.1237 -0.3279
 4856SOL    HW126030   2.706   3.707   6.415 -0.2705  0.2813  0.5813
 4856SOL    HW226031   2.798   3.697   6.531 -2.1730 -0.2751 -0.2746
 4857SOL     OW26032   0.510   4.204  13.767  0.0779 -0.1266 -0.0497
 4857SOL    HW126033   0.514   4.191  13.862  0.6999  2.3315  0.2753
 4857SOL    HW226034   0.447   4.276  13.766  2.2537  1.7296 -2.1407
 4858SOL     OW26035   4.333   0.982   8.706 -0.2284 -0.3889  0.6124
 4858SOL    HW126036   4.420   0.946   8.724 -1.2259 -2.2316  1.6574
 4858SOL    HW226037   4.347   1.077   8.705 -0.8084 -0.3193 -1.1080
 4859SOL     OW26038   3.390   0.002  12.247 -0.2598  0.1789  0.0859
 4859SOL    HW126039   3.336   0.075  12.216 -0.3005  1.0395  2.1793
 4859SOL    HW226040   3.397   0.016  12.342  2.3685 -2.3821  0.2840
 4860SOL     OW26041   3.191   0.437   3.496  0.9694  0.4460 -0.1491
 4860SOL    HW126042   3.262   0.498   3.517 -0.6729  2.3627 -0.1925
 4860SOL    HW226043   3.175   0.464   3.406  0.4496 -1.7077 -0.7030
 4861SOL     OW26044   3.102   2.204  15.942  0.3911 -0.3695  0.5816
 4861SOL    HW126045   3.154   2.234  16.017  0.1175 -0.4663  0.8114
 4861SOL    HW226046   3.075   2.113  15.954 -1.5746  0.2221  0.6722
 4862SOL     OW26047   4.230   2.328   2.880 -0.3506 -0.2522  0.6116
 4862SOL    HW126048   4.202   2.322   2.789  1.6452  0.5009 -0.0467
 4862SOL    HW226049   4.306   2.269   2.878 -2.4502 -3.0198  1.9792
 4863SOL     OW26050   0.850   0.107   7.186 -0.4721 -1.1967  0.2375
 4863SOL    HW126051   0.779   0.124   7.249  1.5674  1.6733  1.7425
 4863SOL    HW226052   0.881   0.025   7.224 -0.2168 -1.6852 -1.0165
 4864SOL     OW26053   2.788   4.608   2.363  0.0404 -0.4791  0.3521
 4864SOL    HW126054   2.870   4.618   2.314 -0.5895 -1.0618 -0.8236
 4864SOL    HW226055   2.809   4.656   2.442 -1.5046  1.8612 -0.6598
 4865SOL     OW26056   3.515   0.221   8.160 -0.3538  0.5215 -0.4820
 4865SOL    HW126057   3.457   0.144   8.161 -0.5489  0.6768  0.0765
 4865SOL    HW226058   3.573   0.201   8.233 -0.3562  1.1861 -0.3024
 4866SOL     OW26059   2.101   4.021   1.207  0.7465  0.0273  0.3194
 4866SOL    HW126060   2.059   3.952   1.155  2.0824 -0.4287 -0.1621
 4866SOL    HW226061   2.193   3.994   1.199  1.0531  0.8914  1.0128
 4867SOL     OW26062   3.878   2.426   1.484 -0.2374  0.5306 -0.1389
 4867SOL    HW126063   3.937   2.358   1.518  1.0468  1.0393 -1.3616
 4867SOL    HW226064   3.909   2.435   1.394 -1.4522 -0.1790 -0.6218
 4868SOL     OW26065   4.573   0.605  11.055 -0.4293  0.4164 -0.7052
 4868SOL    HW126066   4.635   0.553  11.107  1.5184  0.3807 -3.0742
 4868SOL    HW226067   4.607   0.598  10.966  1.4392 -0.4576  0.0589
 4869SOL     OW26068   1.164   1.785  15.598 -0.2873  0.4932  0.8443
 4869SOL    HW126069   1.139   1.856  15.539  2.7811  1.3275  0.5739
 4869SOL    HW226070   1.221   1.729  15.546 -1.5879  0.9286 -1.0296
 4870SOL     OW26071   4.238   2.299   9.709  0.0202 -0.4284  0.0242
 4870SOL    HW126072   4.145   2.304   9.732  0.3217  0.4525  1.0547
 4870SOL    HW226073   4.278   2.328   9.791  1.2314  3.1491 -1.8328
 4871SOL     OW26074   4.679   0.426   7.652 -0.6853  0.4662  0.2293
 4871SOL    HW126075   4.698   0.509   7.609 -2.3806  0.3864 -0.6448
 4871SOL    HW226076   0.015   0.367   7.606 -1.5515  0.1659 -0.4834
 4872SOL     OW26077   1.444   1.365   0.926 -0.0203  0.0459 -0.9373
 4872SOL    HW126078   1.536   1.389   0.917  0.1388  0.2224  0.9643
 4872SOL    HW226079   1.412   1.417   1.001 -0.2694 -1.1821 -0.1840
 4873SOL     OW26080   3.059   2.964   8.339  0.6471  0.3432 -0.0964
 4873SOL    HW126081   3.050   3.057   8.318 -1.1329  0.0443 -0.6266
 4873SOL    HW226082   2.978   2.945   8.386  0.2778  0.5143 -0.6677
 4874SOL     OW26083   1.738   3.733  14.731 -0.9625  0.2492 -0.1503
 4874SOL    HW126084   1.802   3.686  14.678 -0.2622  1.7752 -0.6590
 4874SOL    HW226085   1.707   3.659  14.783  1.9746 -1.7589 -1.3144
 4875SOL     OW26086   2.533   1.596   7.884 -0.4773  0.1756  0.7642
 4875SOL    HW126087   2.495   1.660   7.824 -2.2902 -1.7635 -0.1865
 4875SOL    HW226088   2.624   1.620   7.874 -0.6263  0.4931  0.2107
 4876SOL     OW26089   2.284   3.480  16.421  0.4036 -0.2297  0.3423
 4876SOL    HW126090   2.264   3.557  16.368  1.4646  0.0475  0.3496
 4876SOL    HW226091   2.202   3.468  16.469 -0.1888 -3.2318 -1.4249
 4877SOL     OW26092   2.819   1.945  12.583 -0.2046  0.1961 -0.6739
 4877SOL    HW126093   2.834   1.885  12.656 -0.8289  1.6646  0.6567
 4877SOL    HW226094   2.905   1.959  12.543  1.2204  0.3756  2.4709
 4878SOL     OW26095   3.722   3.128   0.211 -0.0873 -0.1228  0.7912
 4878SOL    HW126096   3.638   3.128   0.257 -1.1671  2.1434 -1.2184
 4878SOL    HW226097   3.708   3.180   0.132 -0.8635 -1.5367 -0.0032
 4879SOL     OW26098   4.448   3.069  14.584 -0.3971 -0.3814  0.0148
 4879SOL    HW126099   4.360   3.054  14.619 -0.3433  0.5792  0.5664
 4879SOL    HW226100   4.435   3.060  14.490  1.7432  0.2045 -0.3367
 4880SOL     OW26101   0.981   3.178   8.172  0.3176  0.1517  0.2008
 4880SOL    HW126102   0.887   3.161   8.176  0.1344  1.1097 -0.0521
 4880SOL    HW226103   1.015   3.098   8.212  0.6348 -0.1357 -0.6398
 4881SOL     OW26104   3.819   4.463   6.411 -0.5315 -0.2666  0.3598
 4881SOL    HW126105   3.794   4.461   6.319  1.3973 -3.9083 -0.0925
 4881SOL    HW226106   3.771   4.395   6.459  0.4692 -1.4355 -0.2970
 4882SOL     OW26107   0.641   0.177  16.509  0.1603 -0.3854  0.6827
 4882SOL    HW126108   0.550   0.150  16.508  0.0001  0.2574 -1.5035
 4882SOL    HW226109   0.695   0.098  16.511  2.1818  0.9479  0.0038
 4883SOL     OW26110   4.382   3.578   2.316  0.2802  0.4058 -0.2804
 4883SOL    HW126111   4.418   3.511   2.258 -0.5032 -0.9912  0.8524
 4883SOL    HW226112   4.424   3.654   2.274  0.0506  0.0338 -1.1802
 4884SOL     OW26113   0.440   0.564   6.791 -0.2242  0.5518  0.8491
 4884SOL    HW126114   0.373   0.566   6.860  0.9058  1.4410  1.9214
 4884SOL    HW226115   0.416   0.635   6.732 -0.4409 -0.3450 -0.1417
 4885SOL     OW26116   3.749   1.108  13.329  0.0605 -0.3375 -0.3153
 4885SOL    HW126117   3.763   1.014  13.312  1.2893 -0.0712 -0.8410
 4885SOL    HW226118   3.751   1.128  13.422  0.8737 -0.4897 -0.2937
 4886SOL     OW26119   4.267   4.109  16.053 -0.3556  0.0350 -0.2246
 4886SOL    HW126120   4.177   4.135  16.072 -0.4809 -1.7083  1.6865
 4886SOL    HW226121   4.275   4.105  15.958  0.1797 -0.6682 -0.1521
 4887SOL     OW26122   1.128   3.154  13.781 -0.3686  0.2317  0.2619
 4887SOL    HW126123   1.046   3.118  13.745  0.7022 -0.9487 -0.9745
 4887SOL    HW226124   1.144   3.226  13.721  1.0875  0.5764  1.0801
 4888SOL     OW26125   4.063   2.499   0.251 -0.7266 -0.3051 -0.1789
 4888SOL    HW126126   4.119   2.572   0.278 -2.1775  0.2061  1.4358
 4888SOL    HW226127   4.022   2.531   0.171  1.0761  2.2785 -0.0838
 4889SOL     OW26128   4.251   3.284   1.802  0.2569 -0.0322 -0.4903
 4889SOL    HW126129   4.334   3.243   1.779  0.5939  0.0090  0.6652
 4889SOL    HW226130   4.264   3.309   1.894 -1.9998  0.2579 -0.2454
 4890SOL     OW26131   4.070   1.742   3.166  0.5262 -0.7285  0.2862
 4890SOL    HW126132   4.093   1.831   3.137  0.7201 -0.5125  1.1097
 4890SOL    HW226133   4.121   1.689   3.104 -0.0678 -0.9705  0.0037
 4891SOL     OW26134   2.134   0.351   8.264 -0.7624  0.2204  0.4249
 4891SOL    HW126135   2.181   0.415   8.210  0.6816 -0.6849  0.5743
 4891SOL    HW226136   2.050   0.364   8.221  0.1524 -2.0626 -2.1219
 4892SOL     OW26137   1.123   3.812   5.553  0.3525  0.4310  0.0037
 4892SOL    HW126138   1.094   3.844   5.468 -0.3469 -1.8246 -0.5977
 4892SOL    HW226139   1.181   3.743   5.522  1.1328  0.9653  0.2920
 4893SOL     OW26140   3.222   2.567   0.282  0.2309  0.1204  0.5718
 4893SOL    HW126141   3.265   2.639   0.236  0.7329 -2.0969 -2.4292
 4893SOL    HW226142   3.135   2.606   0.285 -0.7969 -2.0576 -0.7841
 4894SOL     OW26143   1.459   2.534   5.681  0.2751  0.1941  0.4028
 4894SOL    HW126144   1.451   2.529   5.585  3.1886 -0.0933  0.1665
 4894SOL    HW226145   1.371   2.515   5.714 -0.1309 -0.3623 -1.0037
 4895SOL     OW26146   2.549   1.437  12.461 -0.4827 -0.6420  0.1091
 4895SOL    HW126147   2.484   1.503  12.484  0.3156 -0.3969  1.6727
 4895SOL    HW226148   2.556   1.386  12.542  0.3970  0.8456  0.9653
 4896SOL     OW26149   0.638   1.388  14.122  0.4110  0.8035 -0.1178
 4896SOL    HW126150   0.707   1.362  14.182  1.0799  1.8679 -0.4214
 4896SOL    HW226151   0.647   1.321  14.054 -0.8100  1.0493 -0.5322
 4897SOL     OW26152   1.727   0.659  11.059  0.1589 -0.6354  0.1626
 4897SOL    HW126153   1.641   0.641  11.098 -0.2692 -0.7838 -0.8293
 4897SOL    HW226154   1.777   0.585  11.093  0.6432  0.2522  1.3594
 4898SOL     OW26155   0.377   0.100  12.269  0.1911 -0.2533  0.0763
 4898SOL    HW126156   0.330   0.021  12.240  1.3034 -1.5026  1.6224
 4898SOL    HW226157   0.421   0.064  12.346 -1.4530  0.1390  1.2046
 4899SOL     OW26158   2.902   0.428  10.882 -0.7797  0.3112 -0.0864
 4899SOL    HW126159   2.892   0.520  10.907  0.0225 -0.3294  2.5920
 4899SOL    HW226160   2.996   0.419  10.866 -0.9135 -0.4329 -0.4478
 4900SOL     OW26161   4.239   3.103   2.444 -0.2714  0.3684 -0.1383
 4900SOL    HW126162   4.163   3.090   2.388 -0.9281  0.8277  0.6457
 4900SOL    HW226163   4.227   3.188   2.486  2.0182  1.9708 -2.6921
 4901SOL     OW26164   4.584   1.379   6.917 -0.5255 -0.1557  0.0883
 4901SOL    HW126165   4.497   1.365   6.879 -0.2619  2.4031 -1.4801
 4901SOL    HW226166   4.607   1.452   6.860  1.0108  0.0062  0.9137
 4902SOL     OW26167   3.138   1.023   7.933 -1.2282 -0.5792  0.2101
 4902SOL    HW126168   3.230   1.028   7.909 -0.7488 -1.5681  1.8338
 4902SOL    HW226169   3.139   1.088   8.004  0.1101  1.0828 -1.3304
 4903SOL     OW26170   0.150   0.085   4.235 -0.4643  0.0604 -0.3236
 4903SOL    HW126171   0.107   0.169   4.222 -0.6286  0.0858  0.4057
 4903SOL    HW226172   0.138   0.047   4.147  2.0880  0.5694 -0.9076
 4904SOL     OW26173   3.756   1.875  11.773 -0.1665  0.1274 -0.1734
 4904SOL    HW126174   3.794   1.892  11.860 -1.5933  0.3608  0.4045
 4904SOL    HW226175   3.826   1.857  11.710 -0.5357  1.0942 -0.8506
 4905SOL     OW26176   1.822   1.731  15.252  0.0080  0.2094 -1.0146
 4905SOL    HW126177   1.904   1.780  15.245  0.2195  0.0676  0.3782
 4905SOL    HW226178   1.779   1.752  15.170 -1.2224 -0.2702 -0.4984
 4906SOL     OW26179   3.813   3.866   4.662  0.2361  0.2109  0.0282
 4906SOL    HW126180   3.886   3.830   4.612 -0.2309  1.3223 -1.4357
 4906SOL    HW226181   3.824   3.961   4.656  0.1021  0.2999  1.1968
 4907SOL     OW26182   0.171   1.301   8.559 -0.1634 -0.9632  0.0346
 4907SOL    HW126183   0.150   1.371   8.497  1.2709  0.7468  1.4787
 4907SOL    HW226184   0.112   1.231   8.531  0.7045 -1.3777 -0.7686
 4908SOL     OW26185   0.692   3.820   0.825  0.2795  0.2784 -0.0750
 4908SOL    HW126186   0.749   3.887   0.788 -0.5527  1.0536  0.0275
 4908SOL    HW226187   0.617   3.818   0.765  0.7154 -0.8728 -0.5842
 4909SOL     OW26188   0.081   3.398   0.997  0.1845 -0.0757  0.2801
 4909SOL    HW126189   0.049   3.467   0.940  1.4903  1.6244  1.5969
 4909SOL    HW226190   0.018   3.326   0.987  0.7767 -0.4878 -0.4564
 4910SOL     OW26191   3.325   3.114   3.559 -0.0012  0.4734 -0.5362
 4910SOL    HW126192   3.262   3.041   3.557 -0.7175  1.0909 -0.3452
 4910SOL    HW226193   3.265   3.179   3.595 -0.6299 -1.2698  1.6138
 4911SOL     OW26194   3.448   2.258   5.508 -0.0940  0.2755 -0.6692
 4911SOL    HW126195   3.537   2.227   5.527 -0.1738  0.0245 -0.6960
 4911SOL    HW226196   3.402   2.202   5.571  0.4189 -0.4560 -0.9356
 4912SOL     OW26197   2.827   0.811  10.205  0.2073  0.5549 -0.2488
 4912SOL    HW126198   2.904   0.772  10.163  0.6696 -0.6913  1.7705
 4912SOL    HW226199   2.785   0.733  10.241 -2.2932  1.1671 -1.7834
 4913SOL     OW26200   2.728   0.896   3.208  0.8375  0.2652  0.2316
 4913SOL    HW126201   2.672   0.861   3.278 -0.1148 -0.1078 -0.7220
 4913SOL    HW226202   2.799   0.927   3.264  0.3044  1.4048  0.2709
 4914SOL     OW26203   1.194   4.456   8.234 -0.3566  0.1102  0.2271
 4914SOL    HW126204   1.166   4.412   8.153 -0.0808  2.0251 -0.8984
 4914SOL    HW226205   1.154   4.401   8.302 -2.4068  0.7709 -0.4303
 4915SOL     OW26206   0.591   2.725  16.262 -0.2221 -0.1152 -0.1820
 4915SOL    HW126207   0.560   2.653  16.206 -0.9210  0.3675 -0.4203
 4915SOL    HW226208   0.675   2.698  16.299 -1.2557 -0.4182  1.9548
 4916SOL     OW26209   3.794   1.724   0.788 -0.5397  0.6171  0.0895
 4916SOL    HW126210   3.839   1.768   0.715 -1.4329 -1.0338 -1.4669
 4916SOL    HW226211   3.735   1.670   0.735 -0.3131  0.5505 -0.0973
 4917SOL     OW26212   2.372   0.537   4.638 -0.0777  0.1325  0.4958
 4917SOL    HW126213   2.418   0.586   4.706  0.3856  0.4659 -0.0566
 4917SOL    HW226214   2.396   0.449   4.668  0.0237  0.0816  0.2672
 4918SOL     OW26215   2.974   0.332   8.433  0.1672 -0.3161  0.4547
 4918SOL    HW126216   3.013   0.381   8.506  0.6682  0.2947 -0.2182
 4918SOL    HW226217   3.002   0.384   8.357 -1.5971 -0.2766 -0.1576
 4919SOL     OW26218   0.826   2.751  16.514 -0.2182  0.2153  0.6917
 4919SOL    HW126219   0.840   2.686  16.583 -1.1441 -0.8953 -0.1624
 4919SOL    HW226220   0.832   2.693  16.438  0.2611  0.4202  0.5739
 4920SOL     OW26221   2.055   3.355   4.234 -0.0889 -0.4798  0.3614
 4920SOL    HW126222   2.058   3.442   4.274  2.0270 -0.4927  0.2672
 4920SOL    HW226223   2.080   3.295   4.305 -0.3522  1.2914  1.9310
 4921SOL     OW26224   1.519   3.518   1.404 -0.1175 -0.9436 -0.2447
 4921SOL    HW126225   1.507   3.483   1.315  4.1017 -1.3500 -0.6326
 4921SOL    HW226226   1.490   3.608   1.389 -1.6355 -1.5425 -0.9780
 4922SOL     OW26227   1.021   4.626  13.600  0.4070 -0.0605 -0.1081
 4922SOL    HW126228   1.034   4.694  13.665  1.3975  0.5461 -0.9406
 4922SOL    HW226229   1.048   4.549  13.650  0.9098 -0.9910 -1.7891
 4923SOL     OW26230   4.350   0.177   4.822 -0.4576 -0.3152  0.2829
 4923SOL    HW126231   4.365   0.271   4.814  0.4246 -0.4991 -0.1544
 4923SOL    HW226232   4.438   0.139   4.816 -0.7306 -1.0331  0.7366
 4924SOL     OW26233   0.080   0.579   6.587  0.3808 -0.1487  0.1424
 4924SOL    HW126234   0.056   0.565   6.678  2.8477  0.5090  0.8966
 4924SOL    HW226235   0.000   0.623   6.558  0.6589  1.2155  1.4294
 4925SOL     OW26236   2.707   1.178   0.987 -0.5472 -0.3067 -0.8504
 4925SOL    HW126237   2.634   1.135   1.032 -0.4867 -1.4619 -1.8709
 4925SOL    HW226238   2.745   1.119   0.923  2.6631  0.3362  0.4788
 4926SOL     OW26239   2.167   1.364  11.300 -0.0261  0.1936  0.8627
 4926SOL    HW126240   2.225   1.434  11.271  0.3253 -0.2848  0.4045
 4926SOL    HW226241   2.098   1.372  11.235 -1.6777 -2.1319  2.3201
 4927SOL     OW26242   0.124   3.028   6.742  0.2153  0.2962 -0.3690
 4927SOL    HW126243   0.135   2.958   6.678 -1.4063 -2.1479  2.0199
 4927SOL    HW226244   0.079   3.099   6.695 -0.1656 -1.6556 -2.9124
 4928SOL     OW26245   3.092   3.431  16.545  0.1963 -0.0495 -0.7523
 4928SOL    HW126246   3.098   3.416  16.451  0.0595 -0.4009 -0.7046
 4928SOL    HW226247   3.122   3.522  16.544  2.3670 -0.7469  0.4428
 4929SOL     OW26248   0.886   1.510   5.550  0.8564 -0.3139  0.4160
 4929SOL    HW126249   0.958   1.528   5.490  0.4134  0.0069 -0.0102
 4929SOL    HW226250   0.846   1.431   5.512  0.0210  1.4571 -2.3978
 4930SOL     OW26251   4.115   3.837  16.133 -0.6765  0.1857 -0.1019
 4930SOL    HW126252   4.187   3.785  16.097 -1.0886  0.0602 -0.7379
 4930SOL    HW226253   4.099   3.914  16.078 -1.7710  0.9690  1.3204
 4931SOL     OW26254   4.612   2.024   7.236  0.6852  0.0465  0.2493
 4931SOL    HW126255   4.666   2.013   7.314 -2.7744 -0.8090  2.5091
 4931SOL    HW226256   4.639   2.115   7.227 -0.2737  0.2718 -0.3563
 4932SOL     OW26257   2.155   0.967   2.053 -0.2106 -0.1027 -0.0147
 4932SOL    HW126258   2.063   0.953   2.076 -0.2588 -2.3294 -1.5470
 4932SOL    HW226259   2.188   0.877   2.054  0.9280  0.3217  0.1699
 4933SOL     OW26260   1.503   4.385  12.772 -0.3064  0.0369  0.0444
 4933SOL    HW126261   1.560   4.448  12.728 -0.0142  0.1652  0.6170
 4933SOL    HW226262   1.450   4.448  12.821  0.6759  1.1798 -0.3718
 4934SOL     OW26263   4.721   1.090   2.812  0.2889 -0.6941  0.2733
 4934SOL    HW126264   0.085   1.055   2.794  0.5019  0.4626 -0.9737
 4934SOL    HW226265   0.014   1.184   2.801 -0.7137 -0.6783 -1.1105
 4935SOL     OW26266   1.502   0.111   2.500  0.1685 -0.4507 -0.7189
 4935SOL    HW126267   1.501   0.124   2.405 -1.6949  1.9003 -0.3877
 4935SOL    HW226268   1.513   0.204   2.520 -1.9365 -0.0977 -1.1863
 4936SOL     OW26269   1.248   1.741   0.863 -0.4958  0.5026 -1.3796
 4936SOL    HW126270   1.206   1.655   0.855 -0.2030  0.2960 -0.6487
 4936SOL    HW226271   1.169   1.792   0.848 -1.4754 -0.7040 -0.2114
 4937SOL     OW26272   3.756   2.240   8.490  0.4126 -0.2943 -0.1224
 4937SOL    HW126273   3.666   2.272   8.495  0.9667  1.4692 -1.3803
 4937SOL    HW226274   3.733   2.150   8.468 -2.0095 -0.0776  1.6222
 4938SOL     OW26275   2.159   0.300   6.470 -0.7260 -0.4901 -0.3737
 4938SOL    HW126276   2.237   0.329   6.518 -1.0898 -1.5739  0.9127
 4938SOL    HW226277   2.132   0.378   6.422 -0.8532 -1.7795 -2.4031
 4939SOL     OW26278   0.402   0.156   9.844  0.7365  0.2743  0.6809
 4939SOL    HW126279   0.381   0.192   9.930  0.3525  0.9960  0.2955
 4939SOL    HW226280   0.413   0.062   9.853  1.3622  0.4393  1.6028
 4940SOL     OW26281   0.320   0.285   4.088  0.7302 -0.1191 -0.2024
 4940SOL    HW126282   0.285   0.291   3.999  1.2045  0.9572 -0.3190
 4940SOL    HW226283   0.350   0.194   4.085  0.4057 -0.2871  2.1202
 4941SOL     OW26284   1.390   2.700   3.321 -0.3011 -0.2369 -0.3120
 4941SOL    HW126285   1.331   2.681   3.248  1.2292 -0.0863 -1.5791
 4941SOL    HW226286   1.363   2.783   3.359 -1.1821 -1.2489  1.2794
 4942SOL     OW26287   0.596   3.446  16.974  0.5600 -0.3151 -0.4072
 4942SOL    HW126288   0.682   3.430  16.935  1.5753 -1.7651  2.3920
 4942SOL    HW226289   0.607   3.541  16.981 -0.4050 -0.3400  1.3614
 4943SOL     OW26290   3.041   1.101   6.871  0.2933  0.4630 -0.0545
 4943SOL    HW126291   3.045   1.172   6.806 -0.6006  1.8432  1.4093
 4943SOL    HW226292   3.005   1.032   6.814 -1.3728 -1.3227  3.1680
 4944SOL     OW26293   4.370   0.098   2.804  0.1381  0.4244  0.0879
 4944SOL    HW126294   4.357   0.050   2.722  0.5992 -0.0212  0.2761
 4944SOL    HW226295   4.449   0.051   2.830  1.0284  1.6367 -0.4913
 4945SOL     OW26296   0.080   3.971   9.045  0.5933  0.3338 -0.4395
 4945SOL    HW126297   0.126   4.001   8.967 -2.1684  0.4749 -2.0048
 4945SOL    HW226298   0.030   4.052   9.054  1.2430  0.7366 -0.4700
 4946SOL     OW26299   2.079   0.092  15.771  0.7306  0.5380  0.6831
 4946SOL    HW126300   2.044   0.171  15.811  3.3850  2.5499 -1.0148
 4946SOL    HW226301   2.127   0.115  15.691  0.3838  1.0771  0.6319
 4947SOL     OW26302   4.593   1.258   2.208 -0.7170 -0.6518  0.3870
 4947SOL    HW126303   4.597   1.296   2.296 -0.1024  2.0072 -0.8003
 4947SOL    HW226304   4.685   1.236   2.194 -0.1877  0.8557  1.4659
 4948SOL     OW26305   0.622   2.879   1.027  0.7231  0.5100  0.9689
 4948SOL    HW126306   0.582   2.830   0.956  0.4395  2.3754 -0.1577
 4948SOL    HW226307   0.564   2.955   1.035 -0.7230 -0.6147  0.9642
 4949SOL     OW26308   3.570   0.766  11.310  0.2338  0.5271 -0.0955
 4949SOL    HW126309   3.480   0.733  11.304  1.1387 -1.8511 -0.3003
 4949SOL    HW226310   3.559   0.861  11.318  3.3484  0.8576  0.0281
 4950SOL     OW26311   1.749   1.286   8.673  0.5766  0.4371  0.0666
 4950SOL    HW126312   1.694   1.245   8.740  0.7617  1.5230  0.8716
 4950SOL    HW226313   1.793   1.354   8.724 -0.3158 -0.4815  2.0358
 4951SOL     OW26314   3.380   1.378  14.979 -0.3979  0.1980 -0.2477
 4951SOL    HW126315   3.450   1.344  14.923 -0.2395  1.8291 -1.0363
 4951SOL    HW226316   3.392   1.326  15.059  0.0615 -0.8749 -1.0129
 4952SOL     OW26317   3.732   3.142   4.820  0.7040  0.1276 -0.6100
 4952SOL    HW126318   3.695   3.121   4.906  2.7118 -0.5164  0.1058
 4952SOL    HW226319   3.823   3.117   4.837  0.3258 -1.2878 -0.6803
 4953SOL     OW26320   1.880   0.188   1.382 -0.1209 -0.6571 -0.3525
 4953SOL    HW126321   1.967   0.165   1.348  0.2798  0.9497 -0.3941
 4953SOL    HW226322   1.825   0.128   1.331  0.1683 -1.2708  0.0492
 4954SOL     OW26323   3.050   1.447   9.935  0.4020  0.0662 -0.0612
 4954SOL    HW126324   3.062   1.488   9.849  3.1356  1.9306  1.2251
 4954SOL    HW226325   2.977   1.496   9.971 -0.2893 -1.7457  1.0218
 4955SOL     OW26326   4.372   4.423  17.683  0.4690  0.2127  0.3761
 4955SOL    HW126327   4.425   4.502  17.693  2.9433 -1.4959  0.9141
 4955SOL    HW226328   4.433   4.354   0.016  0.4447  0.4799  1.0951
 4956SOL     OW26329   2.385   2.553   4.250  0.1037 -0.0168 -0.0757
 4956SOL    HW126330   2.305   2.602   4.268  0.9257  0.5969  1.8572
 4956SOL    HW226331   2.385   2.561   4.155  0.7524  1.3509  0.0445
 4957SOL     OW26332   0.697   0.576   5.040  0.4618 -0.2248  0.2480
 4957SOL    HW126333   0.674   0.498   5.091 -0.2703  0.4759  0.9795
 4957SOL    HW226334   0.717   0.628   5.117  0.5374 -0.7211  0.5644
 4958SOL     OW26335   3.311   4.255   7.470 -0.2981 -0.2535 -0.1263
 4958SOL    HW126336   3.281   4.323   7.530  0.2630 -0.9964  1.0005
 4958SOL    HW226337   3.312   4.310   7.392 -1.5834  0.3655  0.3067
 4959SOL     OW26338   1.199   4.389  10.051 -0.5504 -0.2083  0.0025
 4959SOL    HW126339   1.159   4.474  10.064 -2.2035 -0.6956 -1.8916
 4959SOL    HW226340   1.129   4.346  10.002  0.5764 -0.2211 -1.6123
 4960SOL     OW26341   1.264   2.388   0.042  0.3648  0.7822  0.0240
 4960SOL    HW126342   1.234   2.435   0.120 -0.2510 -2.9560  2.0482
 4960SOL    HW226343   1.251   2.303   0.084  1.0811  0.0968 -1.1539
 4961SOL     OW26344   4.636   0.536  10.333 -0.3244 -0.2303  0.6569
 4961SOL    HW126345   4.659   0.589  10.256  2.8733 -2.1347  0.2991
 4961SOL    HW226346   4.618   0.453  10.290 -0.1450  0.4979 -0.8465
 4962SOL     OW26347   1.505   2.594   8.747 -0.1506  0.4695 -0.5209
 4962SOL    HW126348   1.540   2.574   8.660  1.5922  1.2340  0.0203
 4962SOL    HW226349   1.538   2.514   8.789  0.9747  1.4309  0.4269
 4963SOL     OW26350   2.954   0.600   4.854  0.1298  0.0815  0.1560
 4963SOL    HW126351   2.894   0.635   4.920 -0.9281  0.0773 -0.8078
 4963SOL    HW226352   2.962   0.672   4.791 -1.3073 -0.1908 -0.3461
 4964SOL     OW26353   3.895   3.901   3.524  0.2092 -0.2899  0.2200
 4964SOL    HW126354   3.841   3.842   3.578  0.3282  0.1863  0.8489
 4964SOL    HW226355   3.847   3.981   3.543 -1.7579 -0.9157 -2.0845
 4965SOL     OW26356   1.348   1.739   6.960  0.0477  0.0923  0.7607
 4965SOL    HW126357   1.265   1.712   6.999 -0.4970  1.2847  0.4436
 4965SOL    HW226358   1.358   1.687   6.880  0.1662 -0.1104  0.9066
 4966SOL     OW26359   1.992   0.157   3.822 -0.4548 -0.2158  0.4285
 4966SOL    HW126360   1.988   0.252   3.828 -0.5979 -0.2401  0.7565
 4966SOL    HW226361   2.083   0.138   3.845 -0.1016  1.0023 -0.0181
 4967SOL     OW26362   4.414   1.677   4.093 -0.1477 -0.2933  0.3122
 4967SOL    HW126363   4.447   1.679   4.183 -3.1721  0.1655  1.4193
 4967SOL    HW226364   4.492   1.679   4.039 -1.6137  1.5771 -1.7455
 4968SOL     OW26365   2.364   4.690  11.710 -1.0047  0.6681  0.0879
 4968SOL    HW126366   2.276   4.655  11.695 -1.3260  0.5178  2.3474
 4968SOL    HW226367   2.383   0.004  11.624  1.7000 -1.3757 -0.2043
 4969SOL     OW26368   4.347   3.829  10.338 -0.0219  0.2337 -0.1766
 4969SOL    HW126369   4.356   3.840  10.243 -0.7871 -1.7029 -0.4897
 4969SOL    HW226370   4.433   3.847  10.375 -0.2920 -0.7815  0.9398
 4970SOL     OW26371   2.669   2.050   8.817 -0.0900 -0.4770 -0.2964
 4970SOL    HW126372   2.699   2.063   8.907 -1.9586 -0.2093  0.2951
 4970SOL    HW226373   2.581   2.088   8.812  0.9769  2.2565  1.8042
 4971SOL     OW26374   0.145   2.624   4.624 -0.7510 -0.7103  0.1563
 4971SOL    HW126375   0.123   2.704   4.672 -0.5360 -0.2552 -0.5182
 4971SOL    HW226376   0.237   2.635   4.602 -0.2216  0.1627  2.7076
 4972SOL     OW26377   1.848   2.934   7.763 -0.4234 -0.2705 -0.5145
 4972SOL    HW126378   1.789   2.955   7.691 -1.6843 -0.0743  0.5846
 4972SOL    HW226379   1.875   3.023   7.786  1.7132 -1.4285  1.4697
 4973SOL     OW26380   3.887   3.875   5.571  0.0499  0.2180  0.2856
 4973SOL    HW126381   3.883   3.911   5.659  1.3743  2.2522 -0.4963
 4973SOL    HW226382   3.812   3.815   5.582 -0.0780  0.0493 -1.4328
 4974SOL     OW26383   0.884   3.471   5.716 -0.1584  0.5472  0.2628
 4974SOL    HW126384   0.844   3.516   5.642 -0.7220 -0.5339 -0.0938
 4974SOL    HW226385   0.839   3.387   5.720 -0.5393  0.7786  0.8974
 4975SOL     OW26386   0.600   0.554   2.819 -0.4979  0.2428  0.0729
 4975SOL    HW126387   0.691   0.564   2.791 -1.3470  1.7166 -2.0756
 4975SOL    HW226388   0.619   0.494   2.892  0.5555  0.0156 -0.3887
 4976SOL     OW26389   2.813   3.667   2.910  0.2156  0.1888 -0.1274
 4976SOL    HW126390   2.797   3.697   2.820 -0.5564 -0.8200 -0.3321
 4976SOL    HW226391   2.789   3.574   2.913  0.6385  0.0590 -0.6997
 4977SOL     OW26392   4.118   4.699   4.446 -0.0635 -0.0577 -0.3934
 4977SOL    HW126393   4.091   4.701   4.355 -2.1663  0.8806  0.2514
 4977SOL    HW226394   4.125   0.068   4.472  1.5588 -1.0892  2.8660
 4978SOL     OW26395   4.293   0.567  17.203  0.3127  0.1975  0.7910
 4978SOL    HW126396   4.299   0.628  17.130  2.3527 -1.2166 -0.2400
 4978SOL    HW226397   4.332   0.621  17.271  1.7134  0.5758 -0.3224
 4979SOL     OW26398   0.352   3.957   1.450  0.3421  0.3554  0.4143
 4979SOL    HW126399   0.336   4.007   1.530  0.6440 -0.8631  1.2278
 4979SOL    HW226400   0.315   3.871   1.469  1.9507 -0.7221 -1.2600
 4980SOL     OW26401   4.532   1.256   5.398  0.0503 -0.6577  0.3229
 4980SOL    HW126402   4.575   1.274   5.482 -1.7060  1.4642  0.7715
 4980SOL    HW226403   4.520   1.161   5.403  0.4015 -0.7316 -0.2423
 4981SOL     OW26404   0.395   3.578  10.767 -0.0343  0.0254 -0.9468
 4981SOL    HW126405   0.306   3.605  10.742 -0.2972  0.9548  1.0358
 4981SOL    HW226406   0.374   3.516  10.836 -1.0685  0.4828 -0.8485
 4982SOL     OW26407   3.206   2.449  12.198  0.3962  0.1861 -0.4431
 4982SOL    HW126408   3.301   2.459  12.201  0.3907 -0.1710  0.6742
 4982SOL    HW226409   3.176   2.540  12.204 -0.2144 -0.1430  1.2932
 4983SOL     OW26410   4.197   0.706   7.998  0.6187  0.6987  0.0440
 4983SOL    HW126411   4.202   0.664   7.912 -2.0401  0.6670 -0.1120
 4983SOL    HW226412   4.242   0.638   8.048  1.5803  0.7918 -0.6987
 4984SOL     OW26413   3.993   3.055   4.859 -0.5269 -0.1548 -0.6410
 4984SOL    HW126414   4.031   3.122   4.803  0.7402  0.8887  1.4727
 4984SOL    HW226415   4.030   3.080   4.943  2.3867 -1.5214 -1.5037
 4985SOL     OW26416   1.302   0.406  15.469 -0.1762  0.4832  0.4457
 4985SOL    HW126417   1.251   0.462  15.410  2.2067  0.1365 -1.9819
 4985SOL    HW226418   1.289   0.323  15.423  0.4183  0.4545  0.3238
 4986SOL     OW26419   3.051   3.642   6.375  0.3418 -0.0618  0.1101
 4986SOL    HW126420   2.969   3.679   6.342  1.3584  1.5369 -0.6411
 4986SOL    HW226421   3.092   3.609   6.295 -2.1877 -1.3072 -0.6725
 4987SOL     OW26422   1.880   2.418   0.723  0.3276 -0.0465  0.2188
 4987SOL    HW126423   1.905   2.474   0.796 -1.5572  1.0481  0.0089
 4987SOL    HW226424   1.789   2.399   0.746 -0.3094  1.8833 -0.7371
 4988SOL     OW26425   0.176   2.809   7.861  0.4200 -0.2307  0.0078
 4988SOL    HW126426   0.114   2.769   7.800 -2.0656  1.4097  1.4302
 4988SOL    HW226427   0.259   2.806   7.813 -0.0260 -0.3630 -0.7430
 4989SOL     OW26428   1.346   0.285   5.905 -0.4411  0.0915 -0.0456
 4989SOL    HW126429   1.376   0.241   5.985  1.3196  1.5065  0.0733
 4989SOL    HW226430   1.431   0.310   5.869 -0.1527 -1.8392 -0.7280
 4990SOL     OW26431   2.255   1.032   7.134 -0.1977 -0.3858 -0.2353
 4990SOL    HW126432   2.317   0.990   7.193 -0.7656  0.3974  0.9067
 4990SOL    HW226433   2.228   1.104   7.191  0.0268  2.1323 -3.2639
 4991SOL     OW26434   3.430   1.933   2.130 -0.8175  0.3564 -0.4678
 4991SOL    HW126435   3.443   1.858   2.071  0.4647 -1.3718  2.0027
 4991SOL    HW226436   3.524   1.938   2.145 -0.9442 -0.6023  0.6680
 4992SOL     OW26437   0.737   3.893   9.591  0.2801 -0.0549 -0.2664
 4992SOL    HW126438   0.693   3.977   9.585  1.6774  0.8229  1.8679
 4992SOL    HW226439   0.703   3.869   9.677 -1.1854  0.0819 -0.8056
 4993SOL     OW26440   3.953   1.008  16.197 -0.3406 -0.3839  0.1566
 4993SOL    HW126441   4.033   0.962  16.222 -1.3695 -2.5736 -0.6469
 4993SOL    HW226442   3.956   1.073  16.268 -0.3631  0.2515 -0.4248
 4994SOL     OW26443   3.615   3.452   7.456 -0.2891 -0.3021  0.1850
 4994SOL    HW126444   3.683   3.515   7.479 -1.3638  0.7855  0.3792
 4994SOL    HW226445   3.643   3.435   7.366 -1.3279  2.0825 -0.5759
 4995SOL     OW26446   0.022   1.282   7.550 -0.9150  0.2338 -0.1372
 4995SOL    HW126447   4.706   1.305   7.635 -0.2077  0.7905  0.0365
 4995SOL    HW226448   0.027   1.374   7.524 -2.9519  0.4888  0.3857
 4996SOL     OW26449   3.893   1.461   4.462  0.5608 -0.1404 -0.1874
 4996SOL    HW126450   3.958   1.503   4.518  2.4206  0.3517 -2.6910
 4996SOL    HW226451   3.820   1.522   4.473 -0.2170 -0.7254 -2.0344
 4997SOL     OW26452   3.709   1.408   5.473  0.2530 -0.2352  0.4814
 4997SOL    HW126453   3.642   1.424   5.539 -2.4848  1.2263 -2.6744
 4997SOL    HW226454   3.758   1.331   5.502 -2.8546 -2.2345  0.3519
 4998SOL     OW26455   3.316   2.320   5.097  0.2200 -0.6474 -0.2532
 4998SOL    HW126456   3.249   2.388   5.088  0.3515 -0.5010 -0.1172
 4998SOL    HW226457   3.268   2.251   5.143  1.8584 -2.5328 -1.3936
 4999SOL     OW26458   0.834   4.061  14.452 -0.2047 -0.3805 -0.5692
 4999SOL    HW126459   0.806   4.014  14.531  2.2967  0.1078  0.5900
 4999SOL    HW226460   0.769   4.131  14.444  0.8784  0.6339 -0.4211
 5000SOL     OW26461   2.121   4.534   6.118 -0.0362 -0.7927  0.7320
 5000SOL    HW126462   2.183   4.589   6.070  0.1999 -0.5950  1.2625
 5000SOL    HW226463   2.146   4.446   6.090 -3.3829 -1.2528 -0.9047
 5001SOL     OW26464   3.335   0.002  11.923 -0.2708  0.0329  0.6212
 5001SOL    HW126465   3.289   0.045  11.995  1.2155  2.4992  0.1128
 5001SOL    HW226466   3.364   0.085  11.884  5.2186 -0.4768  3.5355
 5002SOL     OW26467   3.728   0.977  10.236 -0.3078 -0.0768  0.6025
 5002SOL    HW126468   3.734   0.899  10.181 -2.2013  0.4613 -0.3899
 5002SOL    HW226469   3.795   1.035  10.201 -0.8734 -0.5933 -1.3537
 5003SOL     OW26470   2.495   0.966   0.507 -0.2084  0.3248  0.3579
 5003SOL    HW126471   2.535   0.944   0.591 -1.1608  1.1566  1.0219
 5003SOL    HW226472   2.471   1.058   0.503 -1.0467  0.0847 -0.3062
 5004SOL     OW26473   0.810   0.666   8.211 -0.3032  0.2236 -0.1442
 5004SOL    HW126474   0.820   0.683   8.304 -1.3952  0.4623 -0.0659
 5004SOL    HW226475   0.778   0.576   8.219 -0.4947  0.4329  1.3978
 5005SOL     OW26476   1.748   4.604   1.523 -0.1714 -0.2134  0.2467
 5005SOL    HW126477   1.685   4.536   1.502  0.0281 -0.8030  1.5325
 5005SOL    HW226478   1.759   4.638   1.434 -1.7044 -1.5566 -0.4533
 5006SOL     OW26479   3.116   4.456   4.984  0.6837  0.3857  0.2654
 5006SOL    HW126480   3.173   4.528   4.955  1.0798  0.0713  0.2655
 5006SOL    HW226481   3.095   4.432   4.894  1.0771  2.7785 -0.4687
 5007SOL     OW26482   3.958   0.756  17.049  0.0490 -0.1968  0.0851
 5007SOL    HW126483   3.946   0.849  17.070  0.0241 -0.7208  2.3356
 5007SOL    HW226484   3.889   0.710  17.096 -1.4400 -0.2021 -2.0951
 5008SOL     OW26485   1.975   1.782  16.917 -0.2350  0.5876  0.6805
 5008SOL    HW126486   1.905   1.846  16.905 -1.3632 -1.2597 -2.5494
 5008SOL    HW226487   1.993   1.801  17.009  1.1146  0.0271  0.5321
 5009SOL     OW26488   2.900   1.804   7.350 -0.1216 -0.2672 -0.6095
 5009SOL    HW126489   2.833   1.853   7.301  0.9591 -0.2856 -2.1144
 5009SOL    HW226490   2.966   1.865   7.383 -0.0435 -0.3888 -0.5403
 5010SOL     OW26491   2.297   4.471   9.412  0.0947  0.2087 -0.2447
 5010SOL    HW126492   2.266   4.549   9.366 -1.2712  0.0395  0.3738
 5010SOL    HW226493   2.390   4.475   9.391 -0.0749  0.8776 -0.8753
 5011SOL     OW26494   0.218   2.865   2.145 -0.0699  0.3240 -0.1023
 5011SOL    HW126495   0.184   2.955   2.149 -0.6009  0.1119  0.0945
 5011SOL    HW226496   0.303   2.877   2.186 -0.4707 -1.9725  1.3649
 5012SOL     OW26497   2.155   4.102   8.752 -0.1220  0.5581  0.1744
 5012SOL    HW126498   2.211   4.156   8.696  2.2432 -0.9389  1.0763
 5012SOL    HW226499   2.220   4.034   8.770  0.0804  0.1894 -1.8596
 5013SOL     OW26500   0.322   0.770   9.162  0.1004 -0.0344 -0.4160
 5013SOL    HW126501   0.328   0.724   9.246 -0.1777  0.9162  0.1345
 5013SOL    HW226502   0.323   0.700   9.097  1.7600 -0.2174 -0.1919
 5014SOL     OW26503   2.540   3.708   7.207  0.3094 -0.1428  0.3711
 5014SOL    HW126504   2.588   3.753   7.137  2.4435 -3.3062 -0.1948
 5014SOL    HW226505   2.481   3.654   7.154  0.1528 -0.2468  0.6511
 5015SOL     OW26506   2.630   2.043   8.548 -0.1536  0.2056 -0.1241
 5015SOL    HW126507   2.650   2.036   8.641 -0.0949  0.5710 -0.1105
 5015SOL    HW226508   2.643   1.956   8.510 -2.0865 -1.0411  2.0186
 5016SOL     OW26509   3.225   0.429   1.444  0.4097 -0.0522 -0.0655
 5016SOL    HW126510   3.303   0.453   1.395  1.1348 -0.2577  0.9857
 5016SOL    HW226511   3.173   0.412   1.365  0.1860 -0.3986  0.1505
 5017SOL     OW26512   3.206   0.757   6.207 -0.1405  0.0429 -0.4044
 5017SOL    HW126513   3.238   0.843   6.233  0.1962 -0.1316 -0.2373
 5017SOL    HW226514   3.149   0.736   6.281  0.1490  1.2227  0.1459
 5018SOL     OW26515   0.258   0.945   7.308  0.2264 -0.1551 -0.4093
 5018SOL    HW126516   0.180   1.001   7.302  1.6660  2.0018  1.3957
 5018SOL    HW226517   0.275   0.952   7.402 -3.7258 -0.6868  0.3560
 5019SOL     OW26518   3.972   4.506  17.577 -0.1180  0.1468  0.5828
 5019SOL    HW126519   3.930   4.474  17.497 -0.2730  1.9275 -0.0602
 5019SOL    HW226520   4.030   4.433  17.597  0.6768  0.5750 -0.1261
 5020SOL     OW26521   3.219   4.135   7.918 -1.0182  0.4521 -0.4440
 5020SOL    HW126522   3.259   4.053   7.890  0.3586  1.4005 -1.2356
 5020SOL    HW226523   3.256   4.153   8.004  0.7577  2.3715 -1.6277
 5021SOL     OW26524   4.422   1.801  17.551 -0.2357 -0.1790 -0.0477
 5021SOL    HW126525   4.459   1.714  17.564  0.2470  0.1711  0.9009
 5021SOL    HW226526   4.363   1.794  17.476  0.6401  1.3759 -0.8782
 5022SOL     OW26527   0.191   4.217   4.092  0.2936 -0.4583 -0.7121
 5022SOL    HW126528   0.111   4.240   4.139  0.7286 -1.6333  0.6106
 5022SOL    HW226529   0.249   4.293   4.101 -1.7264  0.8710  1.2871
 5023SOL     OW26530   2.416   4.134   4.397 -0.2308  0.1123 -0.7058
 5023SOL    HW126531   2.474   4.187   4.451  1.0171 -1.6406 -0.3207
 5023SOL    HW226532   2.472   4.058   4.383 -1.2221 -0.5330 -1.2120
 5024SOL     OW26533   2.617   0.926   9.374 -0.3126 -0.2669 -0.5295
 5024SOL    HW126534   2.536   0.876   9.367 -1.2715  0.9244  1.7506
 5024SOL    HW226535   2.645   0.927   9.283  1.8150 -0.0413  0.1357
 5025SOL     OW26536   4.653   0.777   5.087  0.0308 -0.6451 -0.6009
 5025SOL    HW126537   0.014   0.820   5.078  0.5647 -1.5403  0.0867
 5025SOL    HW226538   4.598   0.813   5.017  0.1892  1.5827  0.4448
 5026SOL     OW26539   0.334   4.129   1.659  0.0636  0.2299 -0.2453
 5026SOL    HW126540   0.314   4.222   1.654 -0.6119  0.1367  0.7168
 5026SOL    HW226541   0.370   4.123   1.748 -0.6081  2.0726  0.1541
 5027SOL     OW26542   0.530   4.456   4.708  0.3826  0.3726 -0.0421
 5027SOL    HW126543   0.564   4.533   4.663  0.8729  1.1153  1.6013
 5027SOL    HW226544   0.470   4.487   4.776  1.3096 -0.8952  1.3586
 5028SOL     OW26545   3.847   3.206  11.017 -0.4346  0.2116 -0.5990
 5028SOL    HW126546   3.849   3.223  11.112 -0.6625 -0.5957 -0.4555
 5028SOL    HW226547   3.774   3.263  10.991 -2.6238 -2.3051  0.1038
 5029SOL     OW26548   1.730   2.245   3.112 -0.3616 -0.9891 -0.1787
 5029SOL    HW126549   1.664   2.178   3.125  1.1306 -2.4215  0.0529
 5029SOL    HW226550   1.686   2.323   3.078 -2.9665 -2.8425 -0.9840
 5030SOL     OW26551   1.260   0.579   2.400 -0.3114 -0.1858 -0.3174
 5030SOL    HW126552   1.186   0.612   2.350  0.8568 -1.1981 -2.6978
 5030SOL    HW226553   1.294   0.654   2.449 -2.0022  0.5889 -0.3273
 5031SOL     OW26554   4.192   1.796   7.284 -0.3925 -0.1695  0.3536
 5031SOL    HW126555   4.168   1.869   7.341  0.9711  0.0980  0.5954
 5031SOL    HW226556   4.146   1.814   7.203  0.0384  1.9246  0.5705
 5032SOL     OW26557   0.846   2.617   9.619  0.2911  0.5103  0.2252
 5032SOL    HW126558   0.857   2.546   9.556 -1.4788  0.3876  0.0692
 5032SOL    HW226559   0.884   2.687   9.565 -0.9085 -0.0877 -1.4055
 5033SOL     OW26560   2.624   4.360  13.462 -0.0974 -0.2555  0.9655
 5033SOL    HW126561   2.680   4.387  13.535  2.2358  0.9397 -1.2548
 5033SOL    HW226562   2.644   4.268  13.443 -1.5042 -0.6572  1.4776
 5034SOL     OW26563   2.492   3.617   9.865 -0.6182  0.0603 -0.3128
 5034SOL    HW126564   2.475   3.693   9.921 -0.1675  0.5879 -0.8939
 5034SOL    HW226565   2.454   3.639   9.780 -3.3560  0.1254  0.9303
 5035SOL     OW26566   1.596   3.016   3.759  0.0003 -0.9224 -0.0570
 5035SOL    HW126567   1.571   3.005   3.850 -0.6745  0.6406 -0.0512
 5035SOL    HW226568   1.509   3.040   3.726 -0.1299 -0.6469  0.4800
 5036SOL     OW26569   3.656   1.150   3.596  0.2035  0.4542 -0.2186
 5036SOL    HW126570   3.645   1.196   3.680  0.7163  0.2967 -0.0639
 5036SOL    HW226571   3.720   1.201   3.546  0.9254  0.8831  1.1296
 5037SOL     OW26572   2.767   3.721   2.297 -0.0701 -0.1742 -0.2163
 5037SOL    HW126573   2.817   3.768   2.230 -0.1085 -2.5648 -1.9189
 5037SOL    HW226574   2.779   3.791   2.362  0.4904  1.4971 -2.1223
 5038SOL     OW26575   4.408   1.394  14.941 -0.3293  0.1731 -0.0844
 5038SOL    HW126576   4.493   1.392  14.897  0.3180 -2.5406  1.2557
 5038SOL    HW226577   4.357   1.356  14.869  0.4304  0.4586 -0.7796
 5039SOL     OW26578   1.069   3.415   1.788 -0.0281  0.0937  0.2959
 5039SOL    HW126579   1.054   3.321   1.791  1.0488 -0.0754  0.6241
 5039SOL    HW226580   1.120   3.428   1.868 -0.0026 -2.6467  0.7115
 5040SOL     OW26581   2.795   0.420   2.728  0.1252  0.1533 -0.1237
 5040SOL    HW126582   2.750   0.360   2.668  1.2148  0.6149 -1.4137
 5040SOL    HW226583   2.721   0.470   2.763 -0.3840  0.0176 -0.9948
 5041SOL     OW26584   1.731   3.355   9.222 -0.0691  0.3063 -0.0098
 5041SOL    HW126585   1.722   3.274   9.173 -0.4692 -0.0591  0.6823
 5041SOL    HW226586   1.814   3.342   9.268 -0.9151  0.5170  1.5800
 5042SOL     OW26587   3.267   1.274   4.130 -0.1775 -0.2425 -0.1683
 5042SOL    HW126588   3.212   1.346   4.100  2.2568  1.4655 -0.5326
 5042SOL    HW226589   3.269   1.285   4.225  0.1761 -1.9723  0.0308
 5043SOL     OW26590   1.884   0.066   4.057  0.0419 -0.0968 -0.0317
 5043SOL    HW126591   1.944   0.120   4.108  0.5678  1.3503 -2.1644
 5043SOL    HW226592   1.921   0.075   3.969 -2.8143  0.7882 -1.1436
 5044SOL     OW26593   3.220   1.073   4.641  0.7297 -0.4441  0.0398
 5044SOL    HW126594   3.299   1.086   4.589  0.0284 -0.2620 -0.9747
 5044SOL    HW226595   3.159   1.065   4.568  0.3767  0.1893  0.2613
 5045SOL     OW26596   1.013   0.679  13.287  0.2686 -0.1485  0.0212
 5045SOL    HW126597   0.946   0.623  13.326 -1.2475  0.9379 -0.9961
 5045SOL    HW226598   1.059   0.619  13.229  0.8689 -1.3102  1.7129
 5046SOL     OW26599   1.281   4.476   1.253 -0.0998 -0.7559  0.1130
 5046SOL    HW126600   1.363   4.513   1.218  0.0242  0.5664  1.8075
 5046SOL    HW226601   1.311   4.403   1.307  0.3746 -0.5988  0.0615
 5047SOL     OW26602   2.066   1.973   9.921  0.4441  0.1690  0.2715
 5047SOL    HW126603   1.989   1.917   9.913  0.4956  0.5177 -2.6376
 5047SOL    HW226604   2.067   2.011  10.009 -1.1955 -1.8016  1.1382
 5048SOL     OW26605   2.604   0.087   3.335  0.4075 -0.5029 -0.0744
 5048SOL    HW126606   2.623   0.111   3.425  0.4409 -2.6024  0.4604
 5048SOL    HW226607   2.580   0.171   3.296  2.5281 -0.1862 -0.7044
 5049SOL     OW26608   4.453   0.699   4.651 -0.3795  0.2934  0.1539
 5049SOL    HW126609   4.411   0.618   4.620  0.7300 -0.6206  1.0499
 5049SOL    HW226610   4.528   0.651   4.685 -1.3322 -0.4589  1.1762
 5050SOL     OW26611   0.234   3.983   2.165 -0.1286  0.1152  0.1972
 5050SOL    HW126612   0.289   4.045   2.115 -0.1963 -0.6064 -0.7821
 5050SOL    HW226613   0.295   3.910   2.173 -0.0910  0.1923  0.6097
 5051SOL     OW26614   1.423   0.907  15.916 -0.1557 -0.2563 -0.1415
 5051SOL    HW126615   1.361   0.966  15.874  0.9504  0.1114 -1.2568
 5051SOL    HW226616   1.445   0.860  15.836  1.0914  2.1786 -1.2405
 5052SOL     OW26617   1.010   4.478   0.864 -0.3883  0.1012  0.5782
 5052SOL    HW126618   1.029   4.425   0.941 -0.3997  1.9319  1.8425
 5052SOL    HW226619   1.024   4.566   0.898  0.0883  0.1884  0.1651
 5053SOL     OW26620   1.568   1.313  12.528  0.4126  0.0465  0.1037
 5053SOL    HW126621   1.511   1.340  12.457  0.7154  2.4318  0.7771
 5053SOL    HW226622   1.653   1.357  12.521  2.1282 -3.6072 -1.8626
 5054SOL     OW26623   0.884   2.677   8.504 -0.3011 -0.1925 -0.2732
 5054SOL    HW126624   0.922   2.729   8.574 -0.5991  0.1361 -0.3570
 5054SOL    HW226625   0.956   2.630   8.463  1.6169  2.8797 -0.4034
 5055SOL     OW26626   2.607   2.033   2.972 -0.2312  0.0571  0.0416
 5055SOL    HW126627   2.531   1.984   3.003 -0.5089  1.3749  1.4254
 5055SOL    HW226628   2.634   1.970   2.905  1.9063 -0.1533  1.1127
 5056SOL     OW26629   1.022   3.656  12.931  0.0836 -0.0019  0.6499
 5056SOL    HW126630   1.073   3.613  13.000  1.1843  0.9621  0.4367
 5056SOL    HW226631   0.936   3.632  12.965 -0.0887  1.7950  1.4450
 5057SOL     OW26632   2.466   4.685   4.905 -0.9434 -0.1769 -0.6741
 5057SOL    HW126633   2.544   4.700   4.852 -0.6731 -0.5239 -0.3782
 5057SOL    HW226634   2.399   4.659   4.842 -0.9319 -0.2777 -0.6443
 5058SOL     OW26635   0.860   2.132   4.520 -0.0049 -0.1411 -0.1320
 5058SOL    HW126636   0.797   2.193   4.560 -0.4795 -0.0487 -1.0057
 5058SOL    HW226637   0.841   2.141   4.426  1.3408  0.5596 -0.3316
 5059SOL     OW26638   0.404   3.633   1.019 -0.3316 -0.1278 -0.3754
 5059SOL    HW126639   0.329   3.690   1.036 -1.0741 -1.3657  0.4419
 5059SOL    HW226640   0.471   3.695   1.047 -0.0830  0.4903 -2.3147
 5060SOL     OW26641   3.357   3.051   2.280 -0.2223  0.0357 -0.1814
 5060SOL    HW126642   3.428   2.995   2.248  0.1212  0.5563 -0.3290
 5060SOL    HW226643   3.370   3.123   2.218 -1.3168 -0.5131 -1.0615
 5061SOL     OW26644   3.539   4.478  13.615 -0.3058 -0.7162 -0.0430
 5061SOL    HW126645   3.568   4.565  13.590  0.1995 -0.9140 -0.1524
 5061SOL    HW226646   3.564   4.432  13.534  1.0800  1.1330 -0.6552
 5062SOL     OW26647   0.707   1.353   8.880  0.1332  0.5547 -0.0520
 5062SOL    HW126648   0.735   1.444   8.889 -0.3232  0.6107  0.7933
 5062SOL    HW226649   0.790   1.311   8.860  0.3400  1.0865 -0.3160
 5063SOL     OW26650   4.265   3.273   2.075  0.2293  0.3602  0.4000
 5063SOL    HW126651   4.254   3.178   2.068 -1.5983  0.7778 -2.2215
 5063SOL    HW226652   4.206   3.286   2.150 -0.2036 -1.0462  0.3155
 5064SOL     OW26653   0.602   3.146   9.001 -0.5766 -0.1327 -0.2366
 5064SOL    HW126654   0.536   3.109   9.060 -2.0722  2.2025 -0.4698
 5064SOL    HW226655   0.621   3.229   9.044  1.2560 -0.4382 -0.4870
 5065SOL     OW26656   4.278   2.789  10.776 -0.1157  0.4178  0.1590
 5065SOL    HW126657   4.315   2.701  10.765  1.0081  0.6427  2.1059
 5065SOL    HW226658   4.185   2.772  10.788  0.6247 -3.4506  0.6092
 5066SOL     OW26659   2.144   0.629   8.162  0.1814 -0.3535  0.3850
 5066SOL    HW126660   2.232   0.628   8.124  0.0286  0.5615  0.0110
 5066SOL    HW226661   2.150   0.683   8.241 -1.0227 -1.4293  1.2066
 5067SOL     OW26662   3.961   3.380  13.146  0.0873 -0.5278  0.3455
 5067SOL    HW126663   3.952   3.377  13.242 -1.8982 -1.6743  0.1272
 5067SOL    HW226664   4.001   3.296  13.123 -0.7327 -1.1794  1.2726
 5068SOL     OW26665   3.363   1.026  12.283 -0.2793 -0.0592 -0.5986
 5068SOL    HW126666   3.411   0.948  12.255  1.4265  1.1263 -0.9496
 5068SOL    HW226667   3.274   1.019  12.247 -0.4864 -0.8213  0.0660
 5069SOL     OW26668   1.711   4.158   8.160  0.1277 -0.1076  0.1152
 5069SOL    HW126669   1.627   4.114   8.147 -0.7318  1.1193  1.4953
 5069SOL    HW226670   1.688   4.240   8.203  1.5796 -0.1733  1.0176
 5070SOL     OW26671   2.588   3.855   3.488  0.2326  0.0870  0.2566
 5070SOL    HW126672   2.534   3.801   3.430  1.1775 -0.5221 -0.0764
 5070SOL    HW226673   2.592   3.930   3.429  1.5936 -0.7466 -0.7399
 5071SOL     OW26674   0.429   1.008   6.544 -0.6319  0.1297  0.1213
 5071SOL    HW126675   0.445   0.974   6.456 -1.0455 -0.2739  0.2038
 5071SOL    HW226676   0.342   1.047   6.553 -1.1440 -1.0966  0.4172
 5072SOL     OW26677   1.215   0.320  10.301  0.5564 -0.0295 -0.5865
 5072SOL    HW126678   1.296   0.334  10.251  1.3527 -1.4365  0.2969
 5072SOL    HW226679   1.147   0.346  10.239 -0.5561  0.7631  0.9615
 5073SOL     OW26680   3.830   3.327   6.105 -0.0710  0.0175  0.0380
 5073SOL    HW126681   3.780   3.332   6.186 -2.7583  1.0633 -1.6869
 5073SOL    HW226682   3.788   3.394   6.051  1.0524  0.9854  0.3597
 5074SOL     OW26683   0.925   0.020   8.067 -0.1290 -0.3969 -0.2801
 5074SOL    HW126684   0.993   0.026   8.001  1.1449 -2.8301  0.8252
 5074SOL    HW226685   0.983   4.710   8.136  0.3579  1.2362  0.0887
 5075SOL     OW26686   3.003   0.626   5.774  0.0251  0.4449  0.3615
 5075SOL    HW126687   3.038   0.592   5.857 -0.4298 -0.3548  0.2311
 5075SOL    HW226688   3.073   0.686   5.749  0.2239 -0.9813 -2.5079
 5076SOL     OW26689   0.777   0.315  16.055  0.0926 -0.3449 -0.4476
 5076SOL    HW126690   0.773   0.391  16.112  1.7733  0.4136 -1.3244
 5076SOL    HW226691   0.842   0.351  15.995  0.9071 -2.3370 -0.7581
 5077SOL     OW26692   4.013   3.008   3.434 -0.1353  0.2149  0.3885
 5077SOL    HW126693   3.986   3.014   3.342  1.3775 -1.2941 -0.1590
 5077SOL    HW226694   3.932   3.039   3.474 -0.3352  0.9553 -0.5899
 5078SOL     OW26695   0.145   4.651   2.203 -0.0726  0.6551 -0.8002
 5078SOL    HW126696   0.117   4.642   2.112 -0.3183 -1.0410 -0.5416
 5078SOL    HW226697   0.189   0.013   2.202 -1.9093  1.5845 -1.9691
 5079SOL     OW26698   4.188   0.400   6.148 -0.1127  0.2996  0.5085
 5079SOL    HW126699   4.137   0.478   6.126  0.0203 -0.1662 -1.4825
 5079SOL    HW226700   4.259   0.419   6.087  0.2978 -2.0002  0.2620
 5080SOL     OW26701   1.460   4.418   9.997 -1.0311  0.8307 -0.3031
 5080SOL    HW126702   1.379   4.446  10.041 -1.8730  0.5914 -1.7244
 5080SOL    HW226703   1.425   4.379   9.917 -0.3071 -0.5178  0.0297
 5081SOL     OW26704   4.682   0.235   4.535 -0.0057  0.6658 -0.3993
 5081SOL    HW126705   0.020   0.305   4.512  1.4581 -0.7215 -0.7362
 5081SOL    HW226706   4.613   0.240   4.469 -0.3745 -0.9059 -0.1309
 5082SOL     OW26707   0.810   2.555   7.274  0.0112 -0.1645 -0.1428
 5082SOL    HW126708   0.805   2.575   7.180  1.1963  2.4005  0.3518
 5082SOL    HW226709   0.841   2.464   7.281 -2.2869 -1.0085 -1.0636
 5083SOL     OW26710   4.324   4.242  11.208  0.1264  0.6934 -0.5277
 5083SOL    HW126711   4.240   4.204  11.184  1.2155 -1.6599 -0.5845
 5083SOL    HW226712   4.378   4.173  11.247 -0.4463  1.3770  1.4664
 5084SOL     OW26713   2.240   2.528   8.079  0.0038 -0.0478  0.1326
 5084SOL    HW126714   2.273   2.460   8.139 -1.4236 -0.1367  0.8128
 5084SOL    HW226715   2.163   2.561   8.126  0.7152  1.3754  0.3104
 5085SOL     OW26716   3.298   3.022   8.991 -0.0363 -0.7513  0.5470
 5085SOL    HW126717   3.247   3.098   9.019  0.1399 -0.6440  0.5746
 5085SOL    HW226718   3.230   2.977   8.941  0.5028 -1.9976  0.9373
 5086SOL     OW26719   1.328   1.509   7.843  0.3927  0.5570  0.2919
 5086SOL    HW126720   1.304   1.449   7.914  0.0966  0.2268 -0.0907
 5086SOL    HW226721   1.421   1.488   7.835 -0.1241 -0.9430 -1.8233
 5087SOL     OW26722   1.320   2.589   8.263 -0.7520  0.1325  0.5077
 5087SOL    HW126723   1.239   2.539   8.273 -0.6647  0.1829  1.4647
 5087SOL    HW226724   1.299   2.661   8.204  1.1242  0.3199  0.0565
 5088SOL     OW26725   3.594   2.904   7.240  0.6966 -0.4269  0.2177
 5088SOL    HW126726   3.530   2.847   7.282 -0.0627 -0.8396 -1.5044
 5088SOL    HW226727   3.656   2.924   7.310  0.1772  1.9224 -0.0167
 5089SOL     OW26728   3.834   1.120   2.065 -0.2531  0.6978  0.0324
 5089SOL    HW126729   3.767   1.090   2.126  1.7747 -2.5996  0.6160
 5089SOL    HW226730   3.885   1.180   2.119 -1.1794 -0.1755  1.8697
 5090SOL     OW26731   0.116   4.400   3.020  0.0339 -0.1236  0.2011
 5090SOL    HW126732   0.193   4.402   3.077  0.9466 -0.7186 -1.0017
 5090SOL    HW226733   0.051   4.436   3.080  0.4342 -0.2266  0.6968
 5091SOL     OW26734   3.046   0.363   2.750  0.9223  0.4426 -0.5552
 5091SOL    HW126735   3.056   0.390   2.658 -1.0515  2.8422 -0.0555
 5091SOL    HW226736   2.953   0.385   2.754  0.7287 -0.0804 -2.0544
 5092SOL     OW26737   3.849   3.207   0.423 -0.5199 -0.4058  0.1857
 5092SOL    HW126738   3.894   3.126   0.447 -0.5287 -0.9958 -1.8266
 5092SOL    HW226739   3.804   3.182   0.342 -1.1151  0.4735  0.2372
 5093SOL     OW26740   2.642   0.227   9.170 -0.2987  0.8720 -1.0609
 5093SOL    HW126741   2.729   0.231   9.131  0.4001 -1.2296  0.2638
 5093SOL    HW226742   2.636   0.132   9.186  1.5699  0.8673 -0.4614
 5094SOL     OW26743   2.215   0.412   2.039 -0.0582 -0.3170  0.0376
 5094SOL    HW126744   2.235   0.478   1.974 -0.4444 -0.4834 -0.2492
 5094SOL    HW226745   2.127   0.442   2.062  0.0505 -0.5558  0.7909
 5095SOL     OW26746   1.372   4.599   7.864  0.0369  0.2092 -0.1589
 5095SOL    HW126747   1.446   4.576   7.807 -0.1994 -1.4483  0.1881
 5095SOL    HW226748   1.417   4.588   7.948  0.3817  3.5992  0.0868
 5096SOL     OW26749   1.859   1.037   8.820 -0.1150  0.6158 -0.0409
 5096SOL    HW126750   1.900   1.095   8.756 -0.9255 -2.1855 -3.0731
 5096SOL    HW226751   1.806   1.100   8.869 -0.5742 -0.6930  1.1563
 5097SOL     OW26752   1.636   0.049  13.558  1.0292 -0.4154 -0.2941
 5097SOL    HW126753   1.670   4.703  13.501 -1.3055 -0.5734 -1.4960
 5097SOL    HW226754   1.575   4.722  13.612 -0.5808  2.0084  0.1320
 5098SOL     OW26755   4.677   3.975   9.792 -0.2548  0.8531  0.3692
 5098SOL    HW126756   4.645   3.888   9.770  1.1925  0.7366 -1.2851
 5098SOL    HW226757   4.666   4.015   9.706  0.1806  2.4101  1.0327
 5099SOL     OW26758   3.530   2.753  16.782 -0.1994 -0.0458  0.1938
 5099SOL    HW126759   3.568   2.744  16.694  0.9785  1.3280  0.5555
 5099SOL    HW226760   3.533   2.848  16.795 -1.9526  0.1858 -1.0975
 5100SOL     OW26761   0.666   4.157   1.690 -0.3698 -0.0950  0.2012
 5100SOL    HW126762   0.712   4.096   1.632  2.1349  1.9890 -0.0129
 5100SOL    HW226763   0.586   4.163   1.638 -1.2939  0.5846  1.7060
 5101SOL     OW26764   2.737   2.323  17.239 -0.0076  0.1847 -0.1814
 5101SOL    HW126765   2.830   2.328  17.259 -0.2939 -1.2625  1.5227
 5101SOL    HW226766   2.699   2.398  17.286  1.6382 -1.2715  3.4358
 5102SOL     OW26767   0.170   0.934  13.825  0.1111  0.1027 -0.4372
 5102SOL    HW126768   0.114   0.908  13.897 -0.4564  0.1469 -0.8593
 5102SOL    HW226769   0.117   0.998  13.777 -0.1167  0.0879 -0.1984
 5103SOL     OW26770   0.082   2.397   7.044  0.2636  0.3777  0.4334
 5103SOL    HW126771   0.016   2.460   7.013 -0.8804  0.3355  2.7586
 5103SOL    HW226772   0.162   2.448   7.032  0.5820  0.3146  2.3962
 5104SOL     OW26773   3.056   0.746   0.984  0.8135  0.1957  0.5654
 5104SOL    HW126774   2.964   0.760   0.959  0.9730 -0.5110 -0.4121
 5104SOL    HW226775   3.068   0.832   1.023 -0.1371  0.1535  0.9622
 5105SOL     OW26776   1.346   2.218  11.714  0.3024  0.1829  0.0141
 5105SOL    HW126777   1.307   2.230  11.801  3.1970  4.2540  0.7937
 5105SOL    HW226778   1.392   2.302  11.703  2.2419 -0.8640  0.1477
 5106SOL     OW26779   3.750   3.855   8.826  0.1292 -0.2673  0.4188
 5106SOL    HW126780   3.767   3.763   8.809  3.0368  0.5285 -1.0333
 5106SOL    HW226781   3.656   3.855   8.841  0.3142 -2.6501  1.6055
 5107SOL     OW26782   3.499   1.533  11.359 -0.0397  0.4515 -0.3302
 5107SOL    HW126783   3.471   1.520  11.450  3.4289 -0.1860  0.6507
 5107SOL    HW226784   3.439   1.475  11.313 -1.1189  1.0693  0.2909
 5108SOL     OW26785   4.469   2.996   4.012 -0.2996 -0.2561  0.0768
 5108SOL    HW126786   4.438   3.040   3.932  1.2033 -0.5738 -0.6863
 5108SOL    HW226787   4.512   3.075   4.046  0.4016 -0.1537 -1.0312
 5109SOL     OW26788   2.034   0.191   4.261  0.0037  0.2887  0.4160
 5109SOL    HW126789   2.090   0.247   4.315 -0.8657  0.1849  1.4289
 5109SOL    HW226790   1.964   0.179   4.325 -0.0586 -0.1664  0.2601
 5110SOL     OW26791   0.591   2.075   0.509  0.2913 -0.2411 -0.0732
 5110SOL    HW126792   0.598   2.150   0.451 -0.9890  0.3597  0.5505
 5110SOL    HW226793   0.648   2.003   0.482  3.0112  2.1914 -0.7374
 5111SOL     OW26794   3.579   2.810   6.169  0.1729  0.6894 -0.3027
 5111SOL    HW126795   3.498   2.762   6.152  0.2594  0.9083 -1.3468
 5111SOL    HW226796   3.583   2.829   6.263 -0.3804  1.4499 -0.4388
 5112SOL     OW26797   1.520   1.035   3.607  0.5070  0.3749 -0.5458
 5112SOL    HW126798   1.547   0.952   3.567 -1.4332 -0.8163  0.6067
 5112SOL    HW226799   1.427   1.027   3.587 -0.0351  0.3035  2.0127
 5113SOL     OW26800   3.095   2.624  14.869 -0.1343 -0.8794  0.0035
 5113SOL    HW126801   3.134   2.546  14.908  0.4266  0.2600  1.7398
 5113SOL    HW226802   3.001   2.617  14.883 -0.4048 -0.9428 -1.8431
 5114SOL     OW26803   0.511   0.721   8.672 -0.0170  0.7399 -0.1026
 5114SOL    HW126804   0.470   0.765   8.597 -0.4935 -2.5505 -1.7820
 5114SOL    HW226805   0.536   0.642   8.624  1.1435  0.0224  1.6895
 5115SOL     OW26806   0.692   2.693   3.329  0.2331  0.3101  0.2854
 5115SOL    HW126807   0.606   2.726   3.302  0.3898 -0.7477 -1.4527
 5115SOL    HW226808   0.659   2.604   3.333  1.6603 -0.2002  0.5339
 5116SOL     OW26809   4.007   2.096  15.753  0.4429  0.0408  0.3745
 5116SOL    HW126810   4.037   2.147  15.678  0.8018  1.1043  1.2230
 5116SOL    HW226811   3.938   2.051  15.704 -0.5891  1.0063  0.9342
 5117SOL     OW26812   1.951   2.748   2.297  0.2135  0.4482  0.0129
 5117SOL    HW126813   1.999   2.667   2.312 -1.0242  0.3564  3.6948
 5117SOL    HW226814   2.010   2.798   2.240  1.2415 -1.4791 -0.5922
 5118SOL     OW26815   1.694   1.256   3.309  0.5253  0.1014 -0.3626
 5118SOL    HW126816   1.683   1.306   3.390  0.2586 -1.3909  0.5190
 5118SOL    HW226817   1.774   1.204   3.320  0.0649 -0.9619 -1.9770
 5119SOL     OW26818   3.183   0.882   3.188  0.0459  0.3333 -0.2636
 5119SOL    HW126819   3.185   0.801   3.138  1.0359 -0.6919  1.4342
 5119SOL    HW226820   3.240   0.932   3.130  0.6482 -0.5191 -0.4147
 5120SOL     OW26821   0.478   4.211   2.662 -0.6280 -0.3985 -0.6970
 5120SOL    HW126822   0.564   4.214   2.706 -1.5613  0.1976  1.0852
 5120SOL    HW226823   0.427   4.148   2.712 -1.6778  0.6683 -0.4212
 5121SOL     OW26824   1.262   2.966  13.131 -0.1058 -0.2947 -0.1182
 5121SOL    HW126825   1.187   2.932  13.179 -0.9710 -0.4244 -1.5951
 5121SOL    HW226826   1.256   2.910  13.054  0.3060 -1.6093  0.8108
 5122SOL     OW26827   4.696   0.766   5.962 -0.3987  0.3980 -0.1710
 5122SOL    HW126828   4.668   0.790   6.050 -0.6372 -0.4878 -0.0129
 5122SOL    HW226829   0.067   0.786   5.964 -0.1673 -0.8064  0.5511
 5123SOL     OW26830   3.563   1.384   7.817  0.0031 -0.1644 -0.2390
 5123SOL    HW126831   3.621   1.439   7.764 -1.1987 -0.3525 -1.7271
 5123SOL    HW226832   3.489   1.434   7.850  0.2182  1.1797 -1.8351
 5124SOL     OW26833   2.297   2.826   6.110  0.0621 -0.1546  0.6006
 5124SOL    HW126834   2.293   2.913   6.070 -2.2062 -1.3697 -1.7852
 5124SOL    HW226835   2.254   2.774   6.042 -0.5604 -0.1001  0.9602
 5125SOL     OW26836   4.141   4.412   7.649  0.6422 -0.3269 -0.0905
 5125SOL    HW126837   4.185   4.334   7.680  0.6928 -0.6354 -0.9289
 5125SOL    HW226838   4.200   4.481   7.680 -2.1302  1.1392  1.8997
 5126SOL     OW26839   4.297   2.194   2.076  0.0051  0.3795 -0.4947
 5126SOL    HW126840   4.232   2.217   2.143 -0.6907  0.5705 -1.2413
 5126SOL    HW226841   4.300   2.099   2.087  1.0333  0.5588  0.8790
 5127SOL     OW26842   2.214   0.820   6.781 -0.3030 -0.6053 -0.7909
 5127SOL    HW126843   2.210   0.745   6.841 -1.4626  0.7757  0.8342
 5127SOL    HW226844   2.164   0.781   6.708 -0.4738 -0.3351 -0.8186
 5128SOL     OW26845   0.738   0.583   5.990 -0.3312 -0.5770  0.2587
 5128SOL    HW126846   0.704   0.493   5.986 -0.2923 -0.6831  2.2108
 5128SOL    HW226847   0.819   0.552   6.031 -1.0248 -3.2020 -0.3433
 5129SOL     OW26848   3.447   1.026   7.462 -0.3982 -0.3634 -0.1453
 5129SOL    HW126849   3.509   1.086   7.503 -0.1554 -1.2144  0.7341
 5129SOL    HW226850   3.373   1.039   7.522 -0.9362  0.0123 -0.8775
 5130SOL     OW26851   2.436   2.197   6.269 -0.2012  0.5177 -0.2309
 5130SOL    HW126852   2.445   2.115   6.316 -1.4061  1.4737  1.6514
 5130SOL    HW226853   2.525   2.233   6.263 -0.5892  1.8375  2.0431
 5131SOL     OW26854   1.649   3.824   4.641  0.2521 -0.0565 -0.5690
 5131SOL    HW126855   1.708   3.861   4.706 -1.0359 -0.5735  0.8879
 5131SOL    HW226856   1.601   3.759   4.693 -2.3999  1.7991 -0.7061
 5132SOL     OW26857   0.129   1.806   3.513  0.2453 -0.5546  0.3827
 5132SOL    HW126858   0.142   1.810   3.608  0.5547 -0.5869  0.3411
 5132SOL    HW226859   0.152   1.715   3.490  0.0684 -0.1523 -1.3958
 5133SOL     OW26860   0.159   1.334   8.077  0.6559  0.3107  0.6676
 5133SOL    HW126861   0.117   1.414   8.045  2.1673  0.0571 -1.9095
 5133SOL    HW226862   0.078   1.282   8.082  0.0280  1.4737  2.8851
 5134SOL     OW26863   2.087   2.475   8.603 -0.6802  0.6884  0.6172
 5134SOL    HW126864   2.045   2.389   8.614  1.7190 -0.5155  0.4711
 5134SOL    HW226865   2.155   2.455   8.538  1.2646 -2.9897  3.7996
 5135SOL     OW26866   4.425   4.530  11.203  0.4322 -0.3319 -0.5481
 5135SOL    HW126867   4.502   4.528  11.259  0.6281 -2.0543 -0.8699
 5135SOL    HW226868   4.410   4.435  11.199 -0.3562 -0.2557  0.6340
 5136SOL     OW26869   0.799   4.714   8.318  0.1694  0.0976 -0.2260
 5136SOL    HW126870   0.886   0.014   8.352  0.0175  2.0627 -1.1774
 5136SOL    HW226871   0.814   0.013   8.227  2.3647  2.0565  0.6107
 5137SOL     OW26872   1.100   4.150   5.047  0.1277  0.2910 -0.1512
 5137SOL    HW126873   1.129   4.177   4.960 -0.8654  0.6831 -0.3678
 5137SOL    HW226874   1.139   4.217   5.104 -2.1402  0.2009  1.5429
 5138SOL     OW26875   1.136   1.112  12.785 -0.8778 -0.5555 -0.0472
 5138SOL    HW126876   1.109   1.021  12.799 -0.9340 -0.4666  0.4257
 5138SOL    HW226877   1.148   1.108  12.691 -0.7036 -1.6070  0.0185
 5139SOL     OW26878   0.142   3.052  13.634 -0.6266  0.4056 -0.4238
 5139SOL    HW126879   0.046   3.057  13.635 -0.7248 -1.8298  2.5040
 5139SOL    HW226880   0.157   3.119  13.701  2.0722 -0.5869 -0.0309
 5140SOL     OW26881   0.395   1.701   6.954  0.9123  0.4525  0.1960
 5140SOL    HW126882   0.413   1.687   7.047  0.5593  2.4740  0.5542
 5140SOL    HW226883   0.314   1.650   6.954  0.1146  1.7244 -0.1736
 5141SOL     OW26884   0.573   2.242   9.183 -0.1965 -0.1981  0.0323
 5141SOL    HW126885   0.640   2.281   9.126  2.1009 -3.9019  0.1874
 5141SOL    HW226886   0.581   2.303   9.256  1.2198  0.5398 -0.7415
 5142SOL     OW26887   3.109   1.195   3.515  0.7006 -0.3638 -0.3078
 5142SOL    HW126888   3.182   1.252   3.492 -0.3177  1.2629  0.4175
 5142SOL    HW226889   3.127   1.190   3.609 -0.4480 -0.8252 -0.1035
 5143SOL     OW26890   2.786   0.573   2.357 -0.9040 -0.7165  0.6970
 5143SOL    HW126891   2.859   0.588   2.417 -0.3052  0.0833 -0.2395
 5143SOL    HW226892   2.786   0.480   2.331 -1.0244 -0.6311  0.3888
 5144SOL     OW26893   0.077   2.985   6.387 -0.0150 -0.0822 -0.0223
 5144SOL    HW126894   0.065   2.895   6.419 -1.0331 -0.2933 -1.0357
 5144SOL    HW226895   0.153   3.018   6.435  1.3583 -1.1659 -1.4368
 5145SOL     OW26896   0.125   2.230   6.054 -0.1584 -0.0865 -0.2048
 5145SOL    HW126897   0.189   2.273   6.111  2.5910 -0.6973 -2.8786
 5145SOL    HW226898   0.110   2.294   5.985  0.8124  0.1363 -0.2052
 5146SOL     OW26899   1.601   3.804   8.237  0.0476 -0.3334  0.2943
 5146SOL    HW126900   1.573   3.818   8.328  1.9079  1.5139  0.5700
 5146SOL    HW226901   1.516   3.766   8.216 -0.6322  1.0056  0.6082
 5147SOL     OW26902   4.000   3.542   7.067  0.4901  0.3678  0.0593
 5147SOL    HW126903   3.958   3.589   6.995  3.1976  1.6562 -0.6707
 5147SOL    HW226904   4.079   3.502   7.029 -0.9729 -1.4822 -1.0248
 5148SOL     OW26905   2.987   4.654   1.636 -0.6140 -0.0876 -0.2729
 5148SOL    HW126906   3.036   4.694   1.708 -0.0632 -0.8535 -0.2268
 5148SOL    HW226907   3.036   4.689   1.561 -1.3363 -0.1119 -0.7477
 5149SOL     OW26908   3.784   3.450   5.736 -0.4679 -0.1441 -0.2685
 5149SOL    HW126909   3.770   3.488   5.649  1.1858  3.6411  1.1028
 5149SOL    HW226910   3.697   3.461   5.775  0.7193 -0.4999  2.4718
 5150SOL     OW26911   1.528   0.509  15.564  0.1935 -0.0266 -0.0973
 5150SOL    HW126912   1.605   0.460  15.536  0.4762  1.3496 -1.7498
 5150SOL    HW226913   1.454   0.451  15.544 -0.3481  1.4060 -2.2272
 5151SOL     OW26914   3.076   0.914  10.354  0.1097  0.0083 -0.2037
 5151SOL    HW126915   3.149   0.923  10.414  0.3146 -0.5170 -0.3699
 5151SOL    HW226916   3.022   0.864  10.415 -1.4678  0.8289 -0.9275
 5152SOL     OW26917   3.348   2.151   8.195  0.3325 -0.4251 -0.4038
 5152SOL    HW126918   3.313   2.091   8.129  2.0199 -0.9163 -0.8400
 5152SOL    HW226919   3.366   2.098   8.273  0.9496  0.9414  0.3764
 5153SOL     OW26920   0.998   2.631   5.766  0.3520 -0.3017 -0.0779
 5153SOL    HW126921   1.028   2.684   5.693 -1.6055  1.4334  0.3778
 5153SOL    HW226922   0.945   2.688   5.823  1.8394  0.8852  0.0942
 5154SOL     OW26923   4.247   0.869   0.672  0.1971 -0.0228 -0.4111
 5154SOL    HW126924   4.179   0.802   0.671  0.2689 -0.0975 -0.3640
 5154SOL    HW226925   4.317   0.814   0.637  0.2259 -0.6078  0.5464
 5155SOL     OW26926   4.681   3.992  16.098  0.2915  0.0678  0.6834
 5155SOL    HW126927   4.627   4.047  16.041  2.2738 -0.8501 -2.0738
 5155SOL    HW226928   0.045   4.030  16.105 -0.0379  1.0491 -0.3916
 5156SOL     OW26929   0.661   2.364   3.657 -0.1648  0.2405  0.2666
 5156SOL    HW126930   0.587   2.308   3.679  1.3711 -1.6713  0.5363
 5156SOL    HW226931   0.629   2.441   3.703 -0.6940 -0.4679  1.0825
 5157SOL     OW26932   3.446   1.322   6.699 -0.0716 -0.6978 -0.0631
 5157SOL    HW126933   3.446   1.406   6.653  0.4065  0.5555  2.2342
 5157SOL    HW226934   3.431   1.347   6.790 -1.7875  1.8808 -1.0634
 5158SOL     OW26935   3.121   2.613  12.616  0.0797  0.5078  0.0923
 5158SOL    HW126936   3.080   2.683  12.668  2.5602  2.1576 -0.1853
 5158SOL    HW226937   3.072   2.631  12.535 -0.4547  0.5504  0.4224
 5159SOL     OW26938   2.832   3.793   3.930 -0.1219  0.5206 -0.2218
 5159SOL    HW126939   2.901   3.770   3.868  0.9665  0.2569  1.0793
 5159SOL    HW226940   2.755   3.795   3.873  0.3784  0.0619 -0.9195
 5160SOL     OW26941   1.383   1.528   5.232  0.2046 -0.1422  0.5697
 5160SOL    HW126942   1.430   1.609   5.255  0.8887 -0.1333 -0.8558
 5160SOL    HW226943   1.374   1.546   5.138 -1.1602 -0.2903  0.6843
 5161SOL     OW26944   1.420   0.192  16.561 -0.2567 -0.3728 -0.0273
 5161SOL    HW126945   1.421   0.232  16.474  1.1553  0.4363  0.3577
 5161SOL    HW226946   1.328   0.211  16.581 -0.2354 -0.0205 -0.2497
 5162SOL     OW26947   4.098   3.095  10.947 -0.1599 -0.0897 -0.0734
 5162SOL    HW126948   4.008   3.125  10.939  0.1075  0.8149  0.2238
 5162SOL    HW226949   4.136   3.175  10.911 -0.9233  0.0336 -0.5896
 5163SOL     OW26950   1.564   3.490  16.363 -0.1884  0.0167  0.5322
 5163SOL    HW126951   1.586   3.403  16.398  2.2180  0.0089 -0.9850
 5163SOL    HW226952   1.469   3.489  16.372 -0.2292 -0.8887 -0.1328
 5164SOL     OW26953   1.167   3.736   4.172 -0.4965  0.4290 -0.0923
 5164SOL    HW126954   1.150   3.650   4.133  2.2022 -0.7831  1.3527
 5164SOL    HW226955   1.187   3.783   4.092 -1.7544  1.8630  0.4470
 5165SOL     OW26956   2.936   2.274   2.454 -0.2364  0.3934 -0.0341
 5165SOL    HW126957   2.872   2.203   2.463  1.5657 -0.9544  2.1349
 5165SOL    HW226958   3.008   2.220   2.423 -0.3027  1.0760 -1.3628
 5166SOL     OW26959   0.442   4.064   3.875  0.1251 -0.0724  0.8519
 5166SOL    HW126960   0.503   3.997   3.843  0.1280  0.8620 -1.1052
 5166SOL    HW226961   0.488   4.081   3.957 -1.7540 -0.3594  1.9746
 5167SOL     OW26962   1.624   2.714   7.294  0.0607 -0.2736 -0.1970
 5167SOL    HW126963   1.567   2.639   7.277  0.5993 -0.4706 -1.1140
 5167SOL    HW226964   1.643   2.742   7.205  2.3002 -0.8292  0.1075
 5168SOL     OW26965   4.093   3.836   4.256  0.2162 -0.2456 -0.5356
 5168SOL    HW126966   4.043   3.910   4.290  2.6618  0.6488  1.1169
 5168SOL    HW226967   4.138   3.889   4.190  2.4239 -1.4267  0.0018
 5169SOL     OW26968   1.918   2.565   9.548  0.4183  0.3541  0.1140
 5169SOL    HW126969   1.897   2.472   9.550  0.1041  0.4773  2.4235
 5169SOL    HW226970   1.906   2.586   9.455  1.3191 -1.7579 -0.4698
 5170SOL     OW26971   0.879   0.530   4.188  0.5750  0.7846 -0.4479
 5170SOL    HW126972   0.819   0.601   4.213 -0.4826 -0.3593  0.2763
 5170SOL    HW226973   0.819   0.463   4.154  0.3465  0.8222 -0.1180
 5171SOL     OW26974   4.366   0.009  16.763 -0.0796  0.3399  0.2134
 5171SOL    HW126975   4.284   4.709  16.807  0.0878  0.1357  0.4179
 5171SOL    HW226976   4.418   0.043  16.836  0.3620 -2.0439  0.9974
 5172SOL     OW26977   1.677   0.519   1.137  0.6583  0.1649  0.4670
 5172SOL    HW126978   1.729   0.573   1.196 -0.3062  2.1578 -0.5215
 5172SOL    HW226979   1.625   0.582   1.088  0.6030  0.4719  0.9282
 5173SOL     OW26980   3.248   1.243   1.784 -0.1277  0.2816  0.0675
 5173SOL    HW126981   3.257   1.153   1.751 -1.4571  0.3503 -0.4531
 5173SOL    HW226982   3.331   1.283   1.758 -0.8133  1.1273 -0.7878
 5174SOL     OW26983   0.180   3.826   5.595  0.6734  0.5209  0.6338
 5174SOL    HW126984   0.119   3.892   5.629  1.1047  0.2080  2.0393
 5174SOL    HW226985   0.145   3.814   5.507 -1.1096 -0.0418  1.4250
 5175SOL     OW26986   3.374   3.331   5.242 -0.2358  0.0568  0.4381
 5175SOL    HW126987   3.292   3.355   5.285 -0.9969  0.2943 -1.1233
 5175SOL    HW226988   3.387   3.244   5.278  0.0436 -0.9012 -1.9653
 5176SOL     OW26989   0.254   3.166   8.498  0.2750  0.1174 -0.7911
 5176SOL    HW126990   0.254   3.209   8.413 -1.5946  4.3526  1.3852
 5176SOL    HW226991   0.188   3.223   8.537 -0.3419 -1.1565  0.0234
 5177SOL     OW26992   4.026   3.993   3.132 -0.2784  0.0345 -0.0444
 5177SOL    HW126993   3.952   4.044   3.166 -0.8450 -1.5242  1.0830
 5177SOL    HW226994   3.979   3.910   3.141  0.9562 -0.8199 -1.5010
 5178SOL     OW26995   2.296   2.432   8.356 -0.0926 -0.6329  0.3138
 5178SOL    HW126996   2.337   2.349   8.380 -0.8625 -0.8786  0.7930
 5178SOL    HW226997   2.208   2.397   8.342 -0.5099  0.1584  0.9743
 5179SOL     OW26998   4.268   1.054   4.574 -0.1165  0.7019 -0.4634
 5179SOL    HW126999   4.222   1.134   4.600  0.8852  1.0442  0.2952
 5179SOL    HW227000   4.193   0.996   4.567  0.5834 -0.2658  0.0886
 5180SOL     OW27001   2.419   3.181   3.672 -0.2096  0.0224 -0.0117
 5180SOL    HW127002   2.506   3.159   3.705 -0.6707  0.1574  1.2651
 5180SOL    HW227003   2.437   3.216   3.584 -1.7203  4.4735  1.4714
 5181SOL     OW27004   4.087   3.614   2.980 -0.1266 -0.0750  0.4317
 5181SOL    HW127005   4.087   3.523   3.012 -0.7423  0.4281  1.8700
 5181SOL    HW227006   4.054   3.658   3.058  0.7076  1.8245 -0.3029
 5182SOL     OW27007   3.243   0.620  11.595 -0.4848 -0.1433 -0.5002
 5182SOL    HW127008   3.187   0.551  11.630 -0.1006 -1.1060 -1.8278
 5182SOL    HW227009   3.324   0.611  11.645 -0.6436 -3.0192 -0.7884
 5183SOL     OW27010   1.979   0.696   5.642 -0.3608 -0.2548 -0.0024
 5183SOL    HW127011   1.918   0.751   5.690 -1.3792 -2.5759  1.3484
 5183SOL    HW227012   2.059   0.749   5.640  1.2844 -2.6730  1.2938
 5184SOL     OW27013   0.009   0.034   9.800 -0.0860 -0.1006 -0.5069
 5184SOL    HW127014   0.022   0.118   9.843 -0.1074 -0.2660 -0.1757
 5184SOL    HW227015   0.046   4.704   9.871 -0.2303 -0.2671 -0.5558
 5185SOL     OW27016   0.199   0.086   1.003 -0.3769 -0.5817 -0.1508
 5185SOL    HW127017   0.152   0.158   0.960 -0.9821 -0.0107  1.4708
 5185SOL    HW227018   0.226   0.040   0.924 -0.1601  1.0144 -1.0016
 5186SOL     OW27019   3.875   2.030   2.858  0.1080 -0.5502 -0.3719
 5186SOL    HW127020   3.906   2.048   2.947 -1.9656  0.7662  0.0741
 5186SOL    HW227021   3.884   1.935   2.866  1.2034 -0.3499  0.7799
 5187SOL     OW27022   3.880   3.174   2.549 -0.4063  0.0149  0.2491
 5187SOL    HW127023   3.844   3.262   2.556 -2.3445 -0.7778  0.3479
 5187SOL    HW227024   3.925   3.172   2.465  1.2455 -1.0613  1.1432
 5188SOL     OW27025   4.087   4.340   7.970 -0.0282  0.7308  0.8937
 5188SOL    HW127026   4.162   4.399   7.964  1.6962 -1.5532  0.1813
 5188SOL    HW227027   4.019   4.395   7.931  1.1190  1.3027 -0.3145
 5189SOL     OW27028   1.991   0.003  12.591  0.4179  0.7117  0.4644
 5189SOL    HW127029   2.079   4.689  12.601  0.3071  0.4777  0.5654
 5189SOL    HW227030   1.993   0.051  12.508 -1.5187  0.0683  0.0619
 5190SOL     OW27031   2.562   2.477   2.939 -0.0682  0.0740 -0.4155
 5190SOL    HW127032   2.565   2.566   2.975  2.1361  0.6839 -2.0976
 5190SOL    HW227033   2.638   2.481   2.881  0.1737  0.4271 -0.0746
 5191SOL     OW27034   0.158   3.135  10.168 -0.4288  0.3276  0.9694
 5191SOL    HW127035   0.225   3.068  10.155 -0.2410  0.4380  1.3641
 5191SOL    HW227036   0.113   3.095  10.242  0.6676  0.8089  1.9069
 5192SOL     OW27037   1.361   2.221   6.441 -0.4319  0.4660  0.1491
 5192SOL    HW127038   1.434   2.273   6.408  1.1979 -1.9031  0.0539
 5192SOL    HW227039   1.408   2.142   6.468  0.4960  1.3718  1.2226
 5193SOL     OW27040   3.577   1.227   3.840  0.0693 -0.2515 -0.3545
 5193SOL    HW127041   3.482   1.227   3.825  0.2863 -1.5694 -1.6916
 5193SOL    HW227042   3.607   1.137   3.853 -1.3831 -0.7318 -0.2901
 5194SOL     OW27043   2.693   0.233   2.541  0.4998 -0.3428  0.3242
 5194SOL    HW127044   2.738   0.240   2.457 -0.2252  0.2307 -0.0169
 5194SOL    HW227045   2.618   0.177   2.520 -0.3545  0.5795  0.9416
 5195SOL     OW27046   4.208   3.927  14.599 -0.3289  0.4685  0.4698
 5195SOL    HW127047   4.217   3.949  14.507 -1.1555  0.1339  0.3154
 5195SOL    HW227048   4.131   3.979  14.619 -0.4097  0.3682  0.4169
 5196SOL     OW27049   0.046   2.458   3.072 -0.2283  0.4829  0.2895
 5196SOL    HW127050   0.073   2.448   3.163  0.0740  0.1875  0.1674
 5196SOL    HW227051   0.052   2.369   3.039 -1.4223  1.0030 -1.2996
 5197SOL     OW27052   2.445   3.107   0.502 -0.0325 -0.2714 -0.0266
 5197SOL    HW127053   2.487   3.037   0.553 -0.3739 -1.5894 -1.5440
 5197SOL    HW227054   2.524   3.156   0.479  1.8232 -3.1728  0.0123
 5198SOL     OW27055   2.444   2.165   4.105  0.1548 -0.3884 -0.5517
 5198SOL    HW127056   2.454   2.090   4.047  0.2788  0.3740 -1.5181
 5198SOL    HW227057   2.521   2.217   4.082 -0.5553  0.3259 -1.3201
 5199SOL     OW27058   3.731   0.744   2.744  0.6227  0.2156  0.1734
 5199SOL    HW127059   3.789   0.675   2.711 -3.0361 -2.5674 -0.3991
 5199SOL    HW227060   3.725   0.709   2.833  2.3377 -0.8297 -0.1261
 5200SOL     OW27061   4.381   0.511   5.977  0.8148 -0.0702 -0.4069
 5200SOL    HW127062   4.362   0.603   5.959 -0.2331  0.2507  2.3735
 5200SOL    HW227063   4.452   0.508   6.041 -0.0628  1.2617  0.6126
 5201SOL     OW27064   3.143   4.669   7.309  0.0205 -0.0147  0.1967
 5201SOL    HW127065   3.182   4.583   7.293 -0.1521  0.0888 -0.8324
 5201SOL    HW227066   3.144   4.672   7.404 -1.0926 -0.4626  0.2229
 5202SOL     OW27067   2.580   0.857  13.870  0.0855 -0.3707  0.3610
 5202SOL    HW127068   2.627   0.816  13.943  1.7358  0.1401 -0.4055
 5202SOL    HW227069   2.612   0.789  13.811  1.2571  0.5729 -0.0923
 5203SOL     OW27070   4.265   1.604   7.611 -0.0036  0.2997  0.4756
 5203SOL    HW127071   4.326   1.540   7.649 -0.6057 -0.9351 -0.6046
 5203SOL    HW227072   4.186   1.576   7.658 -0.8695  1.0230 -0.5557
 5204SOL     OW27073   3.029   1.866  10.308 -0.0369 -0.3798  0.0545
 5204SOL    HW127074   2.940   1.895  10.290  0.2213  0.6568  0.4386
 5204SOL    HW227075   3.052   1.835  10.221 -1.6718 -1.3936 -0.0077
 5205SOL     OW27076   4.610   3.729  13.313 -0.0502 -0.4520 -0.5150
 5205SOL    HW127077   4.577   3.736  13.223  2.0173 -0.2388 -1.2815
 5205SOL    HW227078   4.706   3.721  13.306 -0.1278  1.9379 -4.3942
 5206SOL     OW27079   0.016   4.297   7.325  0.2749 -0.1499 -0.2392
 5206SOL    HW127080   0.045   4.385   7.349  0.3756 -1.0618  3.1033
 5206SOL    HW227081   4.655   4.305   7.370  0.5480  0.8353  0.1098
 5207SOL     OW27082   1.159   4.062   4.727 -0.5277 -0.4833 -0.0415
 5207SOL    HW127083   1.252   4.067   4.750 -0.4126 -0.6995 -0.4502
 5207SOL    HW227084   1.171   4.114   4.648  0.7002 -2.8818 -1.4611
 5208SOL     OW27085   4.628   0.028   8.004  0.0730 -0.2794 -0.1951
 5208SOL    HW127086   4.683   0.100   8.036 -0.6173  0.3355 -0.3969
 5208SOL    HW227087   4.535   0.050   8.014  0.4098  1.0227 -0.0091
 5209SOL     OW27088   1.155   2.536   2.646 -0.1687 -0.3216  0.0157
 5209SOL    HW127089   1.071   2.582   2.655  0.2779  0.5867 -0.4425
 5209SOL    HW227090   1.151   2.523   2.551  1.4766 -1.1781  0.0606
 5210SOL     OW27091   3.753   4.358   3.954 -0.2358  0.2871 -0.0895
 5210SOL    HW127092   3.842   4.391   3.965 -0.5750  1.4838 -0.8816
 5210SOL    HW227093   3.722   4.345   4.043 -0.6432 -0.8703 -0.3934
 5211SOL     OW27094   2.864   2.937   5.732  0.3643  0.0323  0.5129
 5211SOL    HW127095   2.885   2.964   5.643 -0.9467 -0.1878  0.1297
 5211SOL    HW227096   2.816   3.018   5.749  1.7183  1.0561 -0.6178
 5212SOL     OW27097   0.168   0.978   0.729 -0.4178  0.4775  0.1647
 5212SOL    HW127098   0.141   1.024   0.649 -2.4668 -1.1903 -0.1029
 5212SOL    HW227099   0.089   0.994   0.781 -0.7442 -1.2269  0.2021
 5213SOL     OW27100   2.663   2.083   8.129 -0.3058  0.0180 -0.5069
 5213SOL    HW127101   2.576   2.095   8.091 -0.2813  1.9455  0.0535
 5213SOL    HW227102   2.666   2.163   8.181  2.0635  0.3193 -1.0975
 5214SOL     OW27103   1.219   3.009   3.890 -0.1667  0.7041 -0.4179
 5214SOL    HW127104   1.229   3.083   3.950  0.4800  1.2989 -1.2666
 5214SOL    HW227105   1.137   2.962   3.909  0.2487 -0.1540 -0.7426
 5215SOL     OW27106   2.183   1.779   8.530 -0.7405 -0.2858  0.3745
 5215SOL    HW127107   2.140   1.857   8.495 -1.0849 -1.3455 -1.5972
 5215SOL    HW227108   2.251   1.816   8.586  1.3724  1.0414 -3.0653
 5216SOL     OW27109   1.252   2.691  16.017  0.1469  0.4867 -0.9026
 5216SOL    HW127110   1.314   2.743  16.069  0.3169 -0.5212 -0.0966
 5216SOL    HW227111   1.260   2.730  15.931  1.8129 -0.7678 -1.3103
 5217SOL     OW27112   1.434   0.959   3.886  0.1211 -0.2856  0.0477
 5217SOL    HW127113   1.481   0.876   3.885 -0.9688 -0.8749 -1.3444
 5217SOL    HW227114   1.503   1.026   3.884 -0.0584 -0.0850  0.6418
 5218SOL     OW27115   0.324   3.955   3.365 -0.0238 -0.2319  0.3793
 5218SOL    HW127116   0.277   3.909   3.436 -0.1857 -0.9124 -0.1677
 5218SOL    HW227117   0.369   4.030   3.404 -0.7798  0.2002  0.4160
 5219SOL     OW27118   0.574   3.327   7.254 -0.5171 -0.0434 -0.1167
 5219SOL    HW127119   0.569   3.328   7.350  0.1969 -0.5726 -0.0692
 5219SOL    HW227120   0.541   3.413   7.229 -0.0366  0.6595  1.6739
 5220SOL     OW27121   3.673   2.638   1.214  0.9804  0.0127 -0.4368
 5220SOL    HW127122   3.619   2.595   1.148  2.3022 -1.1118 -0.7956
 5220SOL    HW227123   3.745   2.576   1.230  1.0872  0.3880  0.5327
 5221SOL     OW27124   0.223   3.038   5.720  0.0199 -0.8691 -0.3364
 5221SOL    HW127125   0.186   3.051   5.633 -0.9695 -1.2755  0.0174
 5221SOL    HW227126   0.246   2.945   5.716 -2.2271 -1.4441 -0.0282
 5222SOL     OW27127   2.008   3.045  17.653  0.4198 -0.2233 -0.5667
 5222SOL    HW127128   2.009   3.139  17.640 -2.5104 -0.1410 -0.3950
 5222SOL    HW227129   2.100   3.029  17.671  0.0894 -1.0792  0.4092
 5223SOL     OW27130   0.556   1.650   6.474  0.3840  0.2953 -0.2930
 5223SOL    HW127131   0.492   1.722   6.465  1.7217  1.3393 -1.3914
 5223SOL    HW227132   0.499   1.581   6.508  1.6626 -0.3217  0.5718
 5224SOL     OW27133   4.674   4.400  13.179 -0.2489 -0.0869  0.2006
 5224SOL    HW127134   4.679   4.332  13.245 -0.9459 -0.6576 -0.3382
 5224SOL    HW227135   0.010   4.468  13.212  1.6662 -0.8738 -1.5666
 5225SOL     OW27136   2.332   0.949   6.358  0.1890 -0.3984  0.8447
 5225SOL    HW127137   2.240   0.957   6.380  0.8156  3.3760  2.0650
 5225SOL    HW227138   2.323   0.944   6.263  0.7936  0.9331  0.7221
 5226SOL     OW27139   4.495   2.507   3.086 -0.7116  0.7174 -0.4986
 5226SOL    HW127140   4.586   2.490   3.063 -0.8436  1.7829 -1.7421
 5226SOL    HW227141   4.454   2.515   3.000 -1.4413 -0.7064 -0.2841
 5227SOL     OW27142   1.788   2.984   5.604 -0.4521 -0.0624  0.0186
 5227SOL    HW127143   1.742   3.054   5.557  0.2478  1.0455  0.9692
 5227SOL    HW227144   1.731   2.912   5.579 -0.9529  0.5116 -0.4947
 5228SOL     OW27145   4.004   2.738   1.630 -0.0535  0.0539  0.2390
 5228SOL    HW127146   4.069   2.755   1.561 -0.6027 -2.7145 -0.9821
 5228SOL    HW227147   3.925   2.769   1.586 -1.2442 -0.6371  1.8886
 5229SOL     OW27148   4.507   0.484   2.282 -0.1627 -0.0282 -0.2969
 5229SOL    HW127149   4.532   0.421   2.215  0.4567 -0.4117  0.2991
 5229SOL    HW227150   4.583   0.541   2.280  1.1426 -1.8526 -3.2229
 5230SOL     OW27151   2.908   3.156   5.528  1.0859  0.1049 -0.0005
 5230SOL    HW127152   2.871   3.226   5.582  1.7366  0.2196  0.2919
 5230SOL    HW227153   2.999   3.182   5.542  1.7878 -2.7618  0.7489
 5231SOL     OW27154   2.269   0.432   0.166  0.4979 -0.2675 -0.8523
 5231SOL    HW127155   2.216   0.498   0.121 -2.3789 -1.9399  0.1088
 5231SOL    HW227156   2.351   0.429   0.116  1.9587  0.3215  1.5238
 5232SOL     OW27157   2.285   0.081   3.252  0.3716  0.5233  0.0628
 5232SOL    HW127158   2.334   0.001   3.237 -0.9601 -0.1359 -0.7061
 5232SOL    HW227159   2.209   0.063   3.198 -0.0713 -1.9272  1.5088
 5233SOL     OW27160   4.709   0.810   4.197 -0.0445  0.6890 -0.0418
 5233SOL    HW127161   0.040   0.808   4.118  1.2785 -4.6569  0.9767
 5233SOL    HW227162   4.622   0.804   4.157 -0.9115  1.4206  1.7407
 5234SOL     OW27163   0.196   1.834   1.349 -0.5883  0.4713  0.2177
 5234SOL    HW127164   0.285   1.813   1.320 -1.4647 -1.2152 -1.2541
 5234SOL    HW227165   0.181   1.919   1.308 -0.9957  0.0937 -0.4220
 5235SOL     OW27166   2.089   0.146   1.743  0.3190 -0.1786  0.1695
 5235SOL    HW127167   2.143   0.103   1.676  0.8312  0.4926  0.1505
 5235SOL    HW227168   2.013   0.087   1.749 -2.0323  2.6771 -1.2838
 5236SOL     OW27169   2.094   1.505   3.943  0.3429 -0.1344 -0.7083
 5236SOL    HW127170   2.115   1.425   3.895  0.8746  0.0752 -0.8194
 5236SOL    HW227171   2.002   1.514   3.918  0.4576  0.5048 -0.9068
 5237SOL     OW27172   1.957   0.763   0.462 -0.2607 -0.0028 -0.7569
 5237SOL    HW127173   2.047   0.780   0.488 -0.7296  0.8457  0.3131
 5237SOL    HW227174   1.947   0.677   0.502 -0.6938 -0.5917 -2.0954
 5238SOL     OW27175   0.755   2.123   2.343  0.1127  0.0327 -0.4759
 5238SOL    HW127176   0.762   2.217   2.360 -0.6397 -0.0942  0.5542
 5238SOL    HW227177   0.850   2.111   2.348 -0.1158 -2.1288 -0.9915
 5239SOL     OW27178   0.893   4.426   6.821  0.0048  0.2732 -0.1310
 5239SOL    HW127179   0.956   4.437   6.891  1.1228 -0.4756 -1.0250
 5239SOL    HW227180   0.813   4.441   6.872 -0.4108 -1.3395 -0.3074
 5240SOL     OW27181   0.295   3.278   9.030 -0.1110 -0.0057 -0.4436
 5240SOL    HW127182   0.381   3.316   9.012 -0.2381  0.1077 -0.8260
 5240SOL    HW227183   0.281   3.301   9.121 -2.4095 -1.4655 -0.4326
 5241SOL     OW27184   2.828   0.984  10.010 -0.0502  0.1898  0.4697
 5241SOL    HW127185   2.831   0.932  10.090 -0.7750  0.4104  0.6431
 5241SOL    HW227186   2.854   1.067  10.052 -2.3905  1.2379 -0.1540
 5242SOL     OW27187   1.030   0.206   1.968  0.5741 -0.3518 -0.4144
 5242SOL    HW127188   1.091   0.276   1.946  0.4423  0.5956  2.1518
 5242SOL    HW227189   0.999   0.195   1.879  0.0904 -0.5336 -0.2220
 5243SOL     OW27190   4.040   0.963  10.503  0.7788 -0.0249 -0.7429
 5243SOL    HW127191   3.947   0.963  10.480  0.1919 -0.9112  1.7005
 5243SOL    HW227192   4.053   1.052  10.537 -1.0573 -0.8921  2.1497
 5244SOL     OW27193   3.393   1.479   4.915  0.3464 -0.1027  0.2468
 5244SOL    HW127194   3.360   1.530   4.989 -2.1449  1.7134 -2.1122
 5244SOL    HW227195   3.482   1.508   4.932 -0.1168  0.3189  2.0139
 5245SOL     OW27196   2.318   2.463  15.266  0.6226 -0.1931  0.1953
 5245SOL    HW127197   2.363   2.380  15.281  2.6011  0.6786 -1.0327
 5245SOL    HW227198   2.235   2.438  15.308  0.6659  0.2230  0.5326
 5246SOL     OW27199   4.355   2.574  14.486  0.0973 -0.5819  0.3683
 5246SOL    HW127200   4.412   2.498  14.478  0.8184  0.0823 -0.8168
 5246SOL    HW227201   4.273   2.530  14.461  1.2804 -1.4791 -1.9726
 5247SOL     OW27202   2.012   2.672   6.160 -0.4966  0.1178 -0.0253
 5247SOL    HW127203   1.962   2.590   6.167  0.8586 -0.7840 -0.8022
 5247SOL    HW227204   2.014   2.704   6.250 -1.2321  0.1488 -0.0228
 5248SOL     OW27205   1.852   3.705  15.527  0.1974  0.1310  0.6740
 5248SOL    HW127206   1.781   3.649  15.495  2.3858 -2.0456 -0.2983
 5248SOL    HW227207   1.922   3.691  15.463  1.0216  0.4180  1.5127
 5249SOL     OW27208   0.145   4.431   2.405  0.4088 -0.4322 -0.7213
 5249SOL    HW127209   0.153   4.523   2.380  0.8497  0.6598  3.3860
 5249SOL    HW227210   0.160   4.390   2.320  2.6083  1.4357 -1.2432
 5250SOL     OW27211   1.908   2.602  16.586 -0.0604  0.1512 -0.0272
 5250SOL    HW127212   1.959   2.560  16.516 -0.2870  0.4651 -0.3834
 5250SOL    HW227213   1.821   2.563  16.582 -0.3611  0.3993  4.1310
 5251SOL     OW27214   2.172   2.017  17.641  0.0056 -0.0957  0.2914
 5251SOL    HW127215   2.134   1.961   0.014  2.2389 -0.6095  1.1004
 5251SOL    HW227216   2.156   2.096  17.694 -0.0320  0.4370 -0.5118
 5252SOL     OW27217   3.501   1.591   1.225  0.3516 -0.1785  0.0164
 5252SOL    HW127218   3.564   1.566   1.158  0.0611 -1.8417  0.3822
 5252SOL    HW227219   3.513   1.684   1.246 -1.9226 -0.5317  3.0242
 5253SOL     OW27220   2.791   1.597   7.496  0.1629 -0.6845  0.0253
 5253SOL    HW127221   2.864   1.624   7.441 -0.3155  2.7834  1.0744
 5253SOL    HW227222   2.832   1.604   7.582  1.6937 -0.7257 -0.6945
 5254SOL     OW27223   3.846   3.685  15.770  0.5507  0.4216  0.1480
 5254SOL    HW127224   3.780   3.754  15.763 -0.8186 -0.9342 -0.1105
 5254SOL    HW227225   3.876   3.693  15.861 -0.5196 -1.6982  0.6894
 5255SOL     OW27226   0.339   1.374   4.086  0.1592  0.3193  0.3734
 5255SOL    HW127227   0.333   1.438   4.157  0.6836 -1.3048  1.8775
 5255SOL    HW227228   0.431   1.379   4.063  0.1730 -0.4020  0.2724
 5256SOL     OW27229   3.309   4.103   4.728  0.0853 -0.6973  0.4986
 5256SOL    HW127230   3.379   4.044   4.755  0.4610 -0.1239  0.7681
 5256SOL    HW227231   3.286   4.151   4.807  1.3979  1.4292 -0.4165
 5257SOL     OW27232   0.595   3.662   6.366 -0.5417 -0.2915 -0.3922
 5257SOL    HW127233   0.673   3.717   6.359  0.2746 -1.1858  1.9123
 5257SOL    HW227234   0.546   3.686   6.287 -0.7506 -1.6047 -0.6545
 5258SOL     OW27235   3.005   3.342   4.885 -0.6636  0.2350  0.2405
 5258SOL    HW127236   3.040   3.347   4.796  0.3266 -0.2336  0.6107
 5258SOL    HW227237   3.053   3.412   4.928 -0.5201 -1.7485  3.2671
 5259SOL     OW27238   1.778   2.377   4.774 -0.1111  0.6886  0.3509
 5259SOL    HW127239   1.838   2.410   4.841  0.7563 -0.3029  0.0523
 5259SOL    HW227240   1.837   2.325   4.721 -2.3597  0.6252 -2.0872
 5260SOL     OW27241   2.425   2.683   3.731 -0.0188 -0.3216 -0.4076
 5260SOL    HW127242   2.481   2.713   3.660 -0.0488  3.3272  1.1256
 5260SOL    HW227243   2.367   2.756   3.750  0.3649 -0.4204  1.1873
 5261SOL     OW27244   1.787   0.263  10.829  0.0179 -0.7178 -0.0225
 5261SOL    HW127245   1.757   0.351  10.806 -1.6287 -0.8682  1.5704
 5261SOL    HW227246   1.711   0.208  10.814 -1.0850  0.2037  2.1926
 5262SOL     OW27247   3.311   2.634  13.073 -0.4026  0.0790  0.3341
 5262SOL    HW127248   3.225   2.673  13.089  0.2751  1.4024  0.7925
 5262SOL    HW227249   3.303   2.592  12.988 -0.1380 -3.1288  1.8579
 5263SOL     OW27250   0.162   0.969   9.100 -0.1555 -0.4488 -0.4475
 5263SOL    HW127251   0.203   0.897   9.148 -0.7868  0.2981  1.1823
 5263SOL    HW227252   0.074   0.955   9.133 -0.0936  0.5260  0.1045
 5264SOL     OW27253   4.146   4.168   7.139  0.6853 -0.2704  0.0040
 5264SOL    HW127254   4.083   4.206   7.079 -1.5235 -0.9016  1.9252
 5264SOL    HW227255   4.086   4.119   7.195  0.7858  0.3361  0.6565
 5265SOL     OW27256   1.602   3.282  10.713  0.4355 -0.3657 -0.1629
 5265SOL    HW127257   1.533   3.219  10.692 -0.3996  0.5932 -0.3312
 5265SOL    HW227258   1.636   3.255  10.798  2.7019 -1.1801 -1.3365
 5266SOL     OW27259   4.257   1.247  10.143 -0.9696  0.0660 -0.4796
 5266SOL    HW127260   4.285   1.236  10.234  1.5494 -0.6866 -1.3394
 5266SOL    HW227261   4.213   1.331  10.156 -2.4895 -0.4323 -2.4807
 5267SOL     OW27262   1.657   4.418   2.076 -0.5268  0.3253  0.5771
 5267SOL    HW127263   1.568   4.389   2.056 -0.7655  2.1973 -1.0386
 5267SOL    HW227264   1.707   4.339   2.054  0.6720  1.2464  0.0153
 5268SOL     OW27265   3.911   0.974  12.784 -0.4067  0.2917 -0.3594
 5268SOL    HW127266   3.942   1.031  12.854 -0.2863 -2.2155  1.6012
 5268SOL    HW227267   3.819   1.002  12.783 -1.2528 -2.4140 -0.0533
 5269SOL     OW27268   2.516   0.396   0.428  0.0464 -0.4617 -0.3402
 5269SOL    HW127269   2.600   0.360   0.401  0.2203 -0.1823 -0.1695
 5269SOL    HW227270   2.474   0.319   0.466  0.6199 -0.8763 -0.5412
 5270SOL     OW27271   1.579   2.437   0.549 -0.4016  0.0358  0.1785
 5270SOL    HW127272   1.585   2.404   0.638  1.6917  2.8924  1.0989
 5270SOL    HW227273   1.646   2.506   0.553 -1.1463  0.7745 -0.0430
 5271SOL     OW27274   0.442   4.682  17.309  0.0508  0.0027 -0.5572
 5271SOL    HW127275   0.352   4.651  17.303  0.0827 -0.1390 -0.3256
 5271SOL    HW227276   0.484   4.606  17.270 -0.7495 -1.1560  0.8318
 5272SOL     OW27277   2.726   1.932   4.054 -0.4806 -0.1215 -0.4247
 5272SOL    HW127278   2.740   1.923   4.148  2.0240 -3.8912 -1.1514
 5272SOL    HW227279   2.814   1.906   4.026 -0.7387 -0.5308 -0.8576
 5273SOL     OW27280   2.291   2.224  11.857  0.2422 -0.1421  0.4979
 5273SOL    HW127281   2.353   2.214  11.929  1.0890 -2.6055 -0.5689
 5273SOL    HW227282   2.266   2.132  11.864 -0.1255 -0.2370 -1.8790
 5274SOL     OW27283   2.785   0.716  11.793 -0.6504 -0.1915  0.0448
 5274SOL    HW127284   2.875   0.712  11.826 -0.9394 -0.7286  0.7733
 5274SOL    HW227285   2.749   0.653  11.856  1.0381 -0.1149  1.0877
 5275SOL     OW27286   4.480   0.317  12.584 -0.0976 -0.1855  0.1047
 5275SOL    HW127287   4.509   0.376  12.654  0.0268  2.1436 -1.9303
 5275SOL    HW227288   4.384   0.319  12.584 -0.1034 -0.4062  0.5662
 5276SOL     OW27289   0.110   4.132   4.856  0.1020 -0.1926 -0.5206
 5276SOL    HW127290   0.112   4.227   4.860  1.2950 -0.2115 -0.6040
 5276SOL    HW227291   0.078   4.108   4.769 -1.9009  1.1220 -0.1312
 5277SOL     OW27292   0.938   3.242   3.803 -0.1305 -0.0459  0.0951
 5277SOL    HW127293   0.941   3.189   3.883 -2.5830 -0.4926 -0.1306
 5277SOL    HW227294   0.931   3.330   3.840  0.2371  1.1335 -2.6782
 5278SOL     OW27295   1.361   2.027   2.371  0.8873 -0.1230  0.2197
 5278SOL    HW127296   1.427   1.959   2.358  1.2108 -0.5008  3.9115
 5278SOL    HW227297   1.282   1.982   2.342 -0.8814  2.5910  0.7777
 5279SOL     OW27298   4.463   0.812   2.983  0.1247 -0.0745 -0.2421
 5279SOL    HW127299   4.508   0.869   2.921 -0.9457  0.5810 -0.4239
 5279SOL    HW227300   4.442   0.750   2.913 -0.7277 -0.0645  0.0067
 5280SOL     OW27301   1.948   1.577  17.421  0.3724 -0.2842  0.9408
 5280SOL    HW127302   1.917   1.586  17.511 -2.2223  0.4598 -0.0359
 5280SOL    HW227303   2.035   1.614  17.433  0.3865 -0.1652  0.4880
 5281SOL     OW27304   4.494   0.688  15.314  0.0745  0.1416 -0.3502
 5281SOL    HW127305   4.545   0.748  15.369  0.0423 -0.3557  0.2196
 5281SOL    HW227306   4.445   0.748  15.258  0.6994  2.0515  1.1529
 5282SOL     OW27307   4.174   1.260   3.169 -0.1752 -0.3113  0.0499
 5282SOL    HW127308   4.205   1.197   3.234 -1.7618 -1.0570  0.0832
 5282SOL    HW227309   4.239   1.247   3.100 -3.5719  0.7912 -3.3622
 5283SOL     OW27310   0.361   0.056   8.139 -0.5689 -0.5289  0.3795
 5283SOL    HW127311   0.433   0.042   8.078 -1.4400  1.8457 -1.2206
 5283SOL    HW227312   0.416   0.090   8.209 -1.0035  0.6768  0.1377
 5284SOL     OW27313   4.366   0.703   2.734  1.0688  0.3977 -0.4406
 5284SOL    HW127314   4.344   0.616   2.701 -1.4557  0.5193  0.8809
 5284SOL    HW227315   4.461   0.693   2.726  1.1763  0.5064  0.6339
 5285SOL     OW27316   0.523   3.607  14.349  0.5184  0.7274 -0.2265
 5285SOL    HW127317   0.434   3.615  14.384 -0.4281 -0.4076 -2.4222
 5285SOL    HW227318   0.521   3.677  14.284 -1.2874  0.9047  0.0233
 5286SOL     OW27319   2.832   0.981  14.921  0.2193  0.2881  0.4254
 5286SOL    HW127320   2.867   1.003  15.007 -1.3938 -0.2651  1.2167
 5286SOL    HW227321   2.889   0.909  14.895  0.3099  0.3942  0.3284
 5287SOL     OW27322   2.141   3.530   6.758 -0.3872 -0.6877 -0.1007
 5287SOL    HW127323   2.189   3.584   6.695 -0.5798 -1.6624 -1.0882
 5287SOL    HW227324   2.071   3.503   6.699 -1.8411  0.4512  1.1030
 5288SOL     OW27325   4.341   0.276   6.388 -0.3987  0.3148 -0.1250
 5288SOL    HW127326   4.279   0.323   6.331 -0.0898  2.0157  0.9465
 5288SOL    HW227327   4.345   0.187   6.353  1.5282  0.4487 -0.2289
 5289SOL     OW27328   1.808   1.918  10.688 -0.0501  0.3499  0.2300
 5289SOL    HW127329   1.754   1.872  10.753  0.1904 -0.8123 -0.4026
 5289SOL    HW227330   1.782   1.872  10.608  1.2330 -2.3906  1.3677
 5290SOL     OW27331   3.022   2.710   1.531 -0.7107  0.0159  0.6946
 5290SOL    HW127332   3.043   2.617   1.539 -1.8510 -0.2869  0.1411
 5290SOL    HW227333   3.011   2.732   1.624 -1.8927  0.7332  0.3806
 5291SOL     OW27334   4.412   4.449   6.953  0.4449  0.3696 -0.1136
 5291SOL    HW127335   4.452   4.521   6.903 -0.2684 -0.2459 -1.5586
 5291SOL    HW227336   4.376   4.501   7.024  1.0388 -1.1733  1.3086
 5292SOL     OW27337   1.808   3.821   4.400  0.5814  0.2061 -0.3559
 5292SOL    HW127338   1.880   3.863   4.447  0.5514  0.3001 -0.3944
 5292SOL    HW227339   1.740   3.831   4.466  2.3914  0.4338  1.4583
 5293SOL     OW27340   2.677   0.544  11.288 -0.2475 -0.4433  0.0472
 5293SOL    HW127341   2.700   0.553  11.380 -0.7250 -0.5509  0.1761
 5293SOL    HW227342   2.757   0.576  11.246  0.9644 -0.2338  2.5428
 5294SOL     OW27343   2.526   3.827  11.641  0.0660  0.5531 -0.2793
 5294SOL    HW127344   2.502   3.821  11.548 -0.7230  0.6739 -0.0831
 5294SOL    HW227345   2.460   3.896  11.649 -0.9557 -0.4832  0.1447
 5295SOL     OW27346   3.130   0.361   7.582 -0.2715  0.0959  0.2838
 5295SOL    HW127347   3.199   0.316   7.629  0.7693  1.2754 -0.1090
 5295SOL    HW227348   3.146   0.313   7.501 -2.3081 -2.2848  1.3011
 5296SOL     OW27349   1.846   0.308   1.055 -0.0612  0.1491  0.2705
 5296SOL    HW127350   1.913   0.343   0.997  0.5138 -0.5360  0.5266
 5296SOL    HW227351   1.806   0.387   1.091 -0.2267 -0.3777  1.2605
 5297SOL     OW27352   1.050   3.116   1.603  0.2228 -0.2876 -0.4067
 5297SOL    HW127353   0.971   3.101   1.551  1.4101 -1.8775 -1.7486
 5297SOL    HW227354   1.107   3.155   1.537  1.1679 -0.6983  0.1625
 5298SOL     OW27355   0.454   0.282   0.948 -0.2915  0.2410  0.0480
 5298SOL    HW127356   0.419   0.204   0.991  0.9342 -0.2111  0.2105
 5298SOL    HW227357   0.378   0.341   0.953  0.3913  1.3612 -2.6325
 5299SOL     OW27358   2.932   2.595   8.202  0.3009  0.4433 -0.1909
 5299SOL    HW127359   2.903   2.515   8.244 -0.8143  1.2298  0.5404
 5299SOL    HW227360   2.847   2.629   8.175 -2.1847 -2.4163  3.9500
 5300SOL     OW27361   4.566   4.649   6.075  0.1287 -0.0343  0.5159
 5300SOL    HW127362   4.611   4.627   6.156  4.1575  1.9974 -1.1774
 5300SOL    HW227363   4.628   4.618   6.008 -1.5032 -3.1597  0.4538
 5301SOL     OW27364   3.864   3.388  14.387 -0.4929 -0.0244  0.0362
 5301SOL    HW127365   3.807   3.399  14.464  2.1762  0.3797  1.9500
 5301SOL    HW227366   3.908   3.472  14.378 -0.8414  0.0752 -0.7221
 5302SOL     OW27367   1.521   3.723   7.629 -0.1199 -0.4211 -0.0588
 5302SOL    HW127368   1.493   3.803   7.673  1.7801  0.4669 -0.5019
 5302SOL    HW227369   1.493   3.655   7.691 -0.8799 -2.1069 -2.2650
 5303SOL     OW27370   1.229   1.135   6.843 -0.0468 -0.3448 -0.2073
 5303SOL    HW127371   1.206   1.105   6.931 -0.6346 -0.4653 -0.3962
 5303SOL    HW227372   1.151   1.103   6.798 -1.3056  1.7059  0.5120
 5304SOL     OW27373   3.343   1.793  14.498 -0.2321  0.2452  0.3101
 5304SOL    HW127374   3.388   1.857  14.553  0.9454  0.6831 -1.1551
 5304SOL    HW227375   3.409   1.755  14.440  0.3051 -0.2587  1.2526
 5305SOL     OW27376   4.142   0.203   3.299  0.4513 -0.6056 -0.3483
 5305SOL    HW127377   4.232   0.238   3.302  0.6269 -0.9136 -2.2187
 5305SOL    HW227378   4.106   0.262   3.233 -1.5958 -0.6798  0.7015
 5306SOL     OW27379   3.235   1.017   4.096 -0.1825 -0.4703  0.2117
 5306SOL    HW127380   3.288   0.971   4.161  1.2708  3.1506  1.6283
 5306SOL    HW227381   3.239   1.109   4.124 -2.3039 -0.8692  1.7910
 5307SOL     OW27382   3.894   2.044   6.898 -0.2566  0.2159  0.1306
 5307SOL    HW127383   3.824   2.102   6.929  0.7402  2.0817 -1.1287
 5307SOL    HW227384   3.910   2.090   6.816 -1.8063 -0.4095 -0.5231
 5308SOL     OW27385   1.046   4.441  16.742  0.0125 -0.2806 -0.3700
 5308SOL    HW127386   0.978   4.508  16.748 -1.1121 -1.5715  1.4057
 5308SOL    HW227387   1.004   4.384  16.677 -0.5871  1.3629 -1.4183
 5309SOL     OW27388   3.092   1.575   6.154  0.2756  0.0394 -0.1762
 5309SOL    HW127389   3.053   1.509   6.097  2.5494  0.0474 -1.7663
 5309SOL    HW227390   3.135   1.515   6.216 -1.6052  1.5806  2.6081
 5310SOL     OW27391   3.116   3.873   2.887 -0.1533 -0.1109  0.4621
 5310SOL    HW127392   3.090   3.963   2.903  2.5012  1.0550 -1.6994
 5310SOL    HW227393   3.030   3.838   2.865 -1.4524  3.7553 -0.5389
 5311SOL     OW27394   3.350   3.667   4.286  0.4332 -0.6497  0.3704
 5311SOL    HW127395   3.292   3.591   4.290 -0.1241 -0.3086 -0.9901
 5311SOL    HW227396   3.406   3.647   4.210 -0.9960  0.8117 -1.0757
 5312SOL     OW27397   2.965   3.989   3.537  0.2111 -0.1439 -0.2258
 5312SOL    HW127398   2.946   3.902   3.501 -0.2212  0.0863 -0.5460
 5312SOL    HW227399   2.891   3.995   3.596  2.0481 -0.2474  2.0909
 5313SOL     OW27400   2.616   2.522  11.433  0.1664 -0.2118  0.6776
 5313SOL    HW127401   2.544   2.580  11.457 -0.7763  0.3121 -3.3578
 5313SOL    HW227402   2.567   2.440  11.424  0.9222 -0.6516  0.5500
 5314SOL     OW27403   3.953   1.219   6.666 -0.3291  0.0858 -0.1007
 5314SOL    HW127404   3.924   1.128   6.668  1.1617 -0.4000 -0.9327
 5314SOL    HW227405   3.906   1.245   6.745  1.4410 -0.9603  1.2894
 5315SOL     OW27406   2.498   4.663   5.260  0.4576  0.1160  0.1070
 5315SOL    HW127407   2.495   4.592   5.324 -2.2545  0.8484  0.7957
 5315SOL    HW227408   2.576   4.640   5.210  1.7188  1.8338  1.2399
 5316SOL     OW27409   3.404   1.739   0.810 -0.5466  0.0464 -0.3567
 5316SOL    HW127410   3.452   1.770   0.733 -0.7275 -0.3099 -0.6116
 5316SOL    HW227411   3.470   1.696   0.863 -0.4769 -2.3416 -2.3657
 5317SOL     OW27412   3.842   4.547  11.846 -0.5404  0.0099  0.3445
 5317SOL    HW127413   3.794   4.541  11.929 -2.3966  0.1173 -0.7130
 5317SOL    HW227414   3.839   4.643  11.843 -0.4835  0.0750  2.4391
 5318SOL     OW27415   3.138   4.133   6.800  0.1265 -0.1639  0.0907
 5318SOL    HW127416   3.092   4.066   6.748 -1.4876  0.2744  0.9461
 5318SOL    HW227417   3.105   4.131   6.890  2.2107 -2.9215  0.7896
 5319SOL     OW27418   3.077   0.326   6.628 -0.2665 -0.0700 -0.2397
 5319SOL    HW127419   3.069   0.234   6.599  0.3122 -0.5063  1.0118
 5319SOL    HW227420   3.138   0.357   6.562 -0.6406  0.0946 -0.5098
 5320SOL     OW27421   4.139   2.465   8.661  0.2451 -0.7716  0.1251
 5320SOL    HW127422   4.171   2.399   8.723  0.1532 -1.7653 -0.8826
 5320SOL    HW227423   4.094   2.412   8.594 -0.9533  0.1830  0.1771
 5321SOL     OW27424   0.307   3.883   1.820  0.3533  0.3097  0.0560
 5321SOL    HW127425   0.255   3.940   1.764  1.7279  0.5144 -1.0258
 5321SOL    HW227426   0.320   3.809   1.760  0.0932  0.6973 -0.4730
 5322SOL     OW27427   4.288   2.627   6.881  0.0884  0.1878 -0.1957
 5322SOL    HW127428   4.198   2.624   6.848 -0.4272  1.6291  1.0664
 5322SOL    HW227429   4.310   2.719   6.866  0.6672  0.0753 -0.0494
 5323SOL     OW27430   3.095   1.461  15.091 -0.0330  0.2018 -0.0489
 5323SOL    HW127431   3.040   1.539  15.081 -0.0337  0.0693 -1.0541
 5323SOL    HW227432   3.110   1.461  15.186 -1.9862 -0.7069  0.2697
 5324SOL     OW27433   4.426   2.967  11.354 -0.1178 -0.2242  0.3083
 5324SOL    HW127434   4.368   3.006  11.290 -0.7387 -1.1307  0.3102
 5324SOL    HW227435   4.386   2.988  11.438 -2.0979 -1.8519 -0.2341
 5325SOL     OW27436   2.405   2.742   8.096  0.5334 -0.9915 -0.1498
 5325SOL    HW127437   2.350   2.665   8.086 -2.5782  1.3597 -1.0999
 5325SOL    HW227438   2.428   2.722   8.187 -1.5760 -0.5047  0.4789
 5326SOL     OW27439   3.132   4.098   5.351 -0.9724  0.0351  0.0311
 5326SOL    HW127440   3.124   4.192   5.367  0.3391  0.0645  0.4708
 5326SOL    HW227441   3.059   4.082   5.290 -2.2344  0.7439  1.3586
 5327SOL     OW27442   1.692   1.905  13.638  0.3333  0.6226 -0.0813
 5327SOL    HW127443   1.766   1.956  13.606  1.6958 -3.2277 -3.0649
 5327SOL    HW227444   1.620   1.952  13.594 -0.0436  0.0091 -0.1160
 5328SOL     OW27445   3.389   4.203   8.591  0.4266 -0.6507 -0.0284
 5328SOL    HW127446   3.299   4.222   8.616  0.8865  1.1652  0.2299
 5328SOL    HW227447   3.382   4.110   8.569  0.5785 -0.5516 -0.5066
 5329SOL     OW27448   4.669   2.004   2.178 -0.3792  0.2011 -0.5019
 5329SOL    HW127449   4.663   2.091   2.216  0.8194  0.3300 -0.5957
 5329SOL    HW227450   4.590   2.000   2.125 -0.5160 -0.6922 -0.2322
 5330SOL     OW27451   0.202   3.661   8.426 -0.3221 -0.2385 -0.0890
 5330SOL    HW127452   0.133   3.686   8.488  0.9282  0.3719  1.0773
 5330SOL    HW227453   0.256   3.606   8.484  0.1250  1.4665  1.0915
 5331SOL     OW27454   1.108   3.398   4.608  0.4415  0.4843  0.0483
 5331SOL    HW127455   1.133   3.486   4.635 -0.2238  0.2514  1.4505
 5331SOL    HW227456   1.014   3.413   4.603 -0.3538 -3.4070  3.1822
 5332SOL     OW27457   0.597   2.592   9.714 -0.6657 -0.2268  0.2038
 5332SOL    HW127458   0.616   2.511   9.761 -1.6782 -0.2366  0.6076
 5332SOL    HW227459   0.682   2.609   9.674 -0.8595  0.3710  0.0502
 5333SOL     OW27460   2.101   3.498   2.058  0.1281 -0.3768 -0.1426
 5333SOL    HW127461   2.069   3.583   2.087 -0.8245 -0.6037 -0.5066
 5333SOL    HW227462   2.022   3.463   2.016  0.0155 -2.0842  1.4874
 5334SOL     OW27463   1.628   2.304   3.691 -0.1371 -0.0697  0.1445
 5334SOL    HW127464   1.563   2.357   3.737 -0.2853  0.6661 -0.9059
 5334SOL    HW227465   1.578   2.275   3.614  0.6948 -3.8014  0.9833
 5335SOL     OW27466   4.719   0.856   7.406 -0.1758  0.3115  0.0958
 5335SOL    HW127467   0.071   0.816   7.364 -1.0333 -0.3210 -0.8344
 5335SOL    HW227468   4.705   0.930   7.347 -1.1834 -1.5179 -1.9317
 5336SOL     OW27469   2.070   2.626   8.833  0.0350  0.4183 -0.3035
 5336SOL    HW127470   1.996   2.681   8.805 -0.5037 -1.3371 -2.3670
 5336SOL    HW227471   2.095   2.591   8.747  0.0459  2.5723 -1.1848
 5337SOL     OW27472   1.487   0.273  13.209  0.2599  0.5050  0.1222
 5337SOL    HW127473   1.552   0.324  13.160 -1.0181  1.6246 -0.4272
 5337SOL    HW227474   1.518   0.304  13.295 -0.1667  0.9611  0.1113
 5338SOL     OW27475   3.533   3.063   8.689 -0.5308 -0.4652 -0.7295
 5338SOL    HW127476   3.440   3.079   8.701 -0.1707  0.9566  0.2549
 5338SOL    HW227477   3.533   3.009   8.610 -1.8829 -2.2210  0.4974
 5339SOL     OW27478   2.250   2.542   3.592 -0.2357 -0.2245 -0.0816
 5339SOL    HW127479   2.310   2.475   3.562 -0.4122  0.1743 -1.3013
 5339SOL    HW227480   2.301   2.593   3.655 -0.5008  0.6073 -0.5443
 5340SOL     OW27481   2.133   0.032   6.483 -0.2605 -0.3341 -0.5568
 5340SOL    HW127482   2.118   0.119   6.446 -1.0647  0.9257  2.7112
 5340SOL    HW227483   2.229   0.036   6.486 -0.2647 -0.3724 -0.3751
 5341SOL     OW27484   4.210   1.175   8.968 -0.0466 -0.0993 -0.5851
 5341SOL    HW127485   4.300   1.208   8.967 -0.2077  0.3860  0.2037
 5341SOL    HW227486   4.189   1.218   8.885  0.6328 -1.8791 -1.6536
 5342SOL     OW27487   1.775   3.975   0.114  0.0411  0.1680 -0.1738
 5342SOL    HW127488   1.866   3.995   0.089  0.2756 -3.3657 -2.1252
 5342SOL    HW227489   1.777   3.881   0.129 -0.5628  0.1762 -0.0305
 5343SOL     OW27490   0.510   1.140   1.256 -0.0272 -0.0968  0.0881
 5343SOL    HW127491   0.439   1.081   1.285  0.5861 -0.8305  0.0987
 5343SOL    HW227492   0.575   1.092   1.308 -1.1180 -0.6544  0.9501
 5344SOL     OW27493   0.578   0.017   3.264  0.2475  0.1004 -0.4359
 5344SOL    HW127494   0.621   0.017   3.350 -2.3910  0.4228  0.8912
 5344SOL    HW227495   0.530   4.657   3.265 -0.0252  0.2419 -1.5274
 5345SOL     OW27496   1.325   0.124   5.621  0.1713 -0.5293  0.5615
 5345SOL    HW127497   1.392   0.074   5.668  0.4722 -0.4783  0.1815
 5345SOL    HW227498   1.304   0.191   5.687 -1.0723  2.0704 -2.4702
 5346SOL     OW27499   2.411   1.725   8.276  0.2424  0.5816 -0.0992
 5346SOL    HW127500   2.448   1.648   8.320  0.6992 -0.9433 -3.1620
 5346SOL    HW227501   2.487   1.771   8.241  1.3543  0.9513  2.8593
 5347SOL     OW27502   0.561   0.228   2.026 -0.1760  0.0988 -0.8690
 5347SOL    HW127503   0.523   0.311   1.998  0.3504  1.1263  1.4934
 5347SOL    HW227504   0.641   0.262   2.066 -0.1544 -0.7167 -0.2079
 5348SOL     OW27505   3.382   0.218   5.083 -0.2841 -0.9313  0.3778
 5348SOL    HW127506   3.359   0.266   5.162  0.7338 -1.4244  0.9771
 5348SOL    HW227507   3.304   0.231   5.029 -0.6652 -0.8873  0.9399
 5349SOL     OW27508   3.292   0.249   5.770  0.0392  0.1383 -0.0231
 5349SOL    HW127509   3.373   0.240   5.719  0.1620 -1.6194  0.4744
 5349SOL    HW227510   3.236   0.201   5.709  0.8960 -1.7456  0.6694
 5350SOL     OW27511   3.017   0.272  16.319  0.3374 -0.4361  0.0657
 5350SOL    HW127512   2.997   0.294  16.410  0.1821  1.0588 -0.3253
 5350SOL    HW227513   2.931   0.275  16.276 -0.6937 -3.8223  1.9258
 5351SOL     OW27514   1.252   0.380   3.101 -0.1657  0.2913 -0.2069
 5351SOL    HW127515   1.252   0.397   3.195 -1.8995 -0.8999  0.0095
 5351SOL    HW227516   1.197   0.301   3.098 -2.2093  1.6647  1.5648
 5352SOL     OW27517   1.841   3.465   7.312 -0.1506  0.3363 -0.4562
 5352SOL    HW127518   1.834   3.370   7.320 -1.4222  0.4815  0.1877
 5352SOL    HW227519   1.901   3.491   7.382  0.1679  0.5487 -0.8054
 5353SOL     OW27520   0.041   1.562   8.017  0.1964  0.0818  0.5546
 5353SOL    HW127521   4.678   1.583   8.054  0.1477 -1.3377  1.2364
 5353SOL    HW227522   0.078   1.651   8.016  0.3444  0.0003 -0.9534
 5354SOL     OW27523   3.046   4.644   8.584 -0.7213  0.2459  0.1189
 5354SOL    HW127524   2.986   4.718   8.577  0.0347  1.0491  2.0148
 5354SOL    HW227525   3.030   4.628   8.677 -0.0430 -2.2919 -0.1970
 5355SOL     OW27526   3.035   2.386  15.734  0.0571  0.2471 -0.6745
 5355SOL    HW127527   3.074   2.330  15.802 -1.3976  1.2977  1.0177
 5355SOL    HW227528   2.981   2.327  15.682 -0.5315 -1.4424  1.8728
 5356SOL     OW27529   4.586   4.230   6.092 -0.1749 -0.4920  0.3101
 5356SOL    HW127530   4.536   4.238   6.011  0.4966 -1.2789 -0.1878
 5356SOL    HW227531   4.510   4.231   6.150  0.5930 -0.2407  1.3221
 5357SOL     OW27532   3.637   2.150  14.712  0.1773  0.1272 -0.0838
 5357SOL    HW127533   3.682   2.234  14.702 -0.1319  0.2971 -0.0303
 5357SOL    HW227534   3.618   2.157  14.805 -2.6944 -1.1294 -0.5663
 5358SOL     OW27535   3.335   1.998   5.369  0.2562  0.2646  0.2212
 5358SOL    HW127536   3.293   2.084   5.372 -0.8201 -0.2135 -0.9815
 5358SOL    HW227537   3.306   1.947   5.444  0.6754  0.4191  0.4884
 5359SOL     OW27538   2.818   4.464   3.965 -0.4296  0.0478  0.2299
 5359SOL    HW127539   2.899   4.475   3.916 -0.6177 -2.3393 -0.6527
 5359SOL    HW227540   2.808   4.369   3.951  1.2074 -0.5930  3.2952
 5360SOL     OW27541   4.669   0.126   5.033 -0.7479  0.1610 -0.2958
 5360SOL    HW127542   4.591   0.173   5.063  0.7399  0.3357  3.2553
 5360SOL    HW227543   0.020   0.184   5.047  0.9493 -1.8842 -0.7614
 5361SOL     OW27544   1.293   3.146   9.824 -1.0344  0.2621  0.0434
 5361SOL    HW127545   1.238   3.203   9.770 -0.4345  1.6458  0.9194
 5361SOL    HW227546   1.378   3.157   9.782 -1.5402  1.0348 -0.7946
 5362SOL     OW27547   2.817   3.089   4.243 -0.1907 -0.3497  0.2964
 5362SOL    HW127548   2.727   3.108   4.216  0.0656 -0.8066 -0.9005
 5362SOL    HW227549   2.861   3.084   4.157  2.0142  0.1344  1.4008
 5363SOL     OW27550   0.543   0.107   7.246 -0.3892 -0.2182  0.0319
 5363SOL    HW127551   0.537   0.054   7.166  1.6297  1.9197 -1.5184
 5363SOL    HW227552   0.476   0.174   7.234  0.2419  0.5381  0.7983
 5364SOL     OW27553   4.717   1.838   4.191  0.2381 -0.1782 -0.2883
 5364SOL    HW127554   4.643   1.899   4.183 -0.2873 -0.5482  1.6997
 5364SOL    HW227555   0.009   1.811   4.101 -0.5760  0.5988 -0.6669
 5365SOL     OW27556   2.191   1.615   3.219  0.0062 -0.0346  0.2519
 5365SOL    HW127557   2.239   1.547   3.265  1.7871  0.0337 -1.4692
 5365SOL    HW227558   2.223   1.697   3.258 -0.1303 -0.4485  1.2174
 5366SOL     OW27559   3.404   2.840   2.898 -0.1985  0.3712  0.5065
 5366SOL    HW127560   3.473   2.793   2.943  1.6986  0.7885 -1.9789
 5366SOL    HW227561   3.435   2.928   2.918 -0.1890  0.6873 -0.8713
 5367SOL     OW27562   0.608   4.454   5.949 -0.0675  0.5389 -0.3582
 5367SOL    HW127563   0.622   4.548   5.933 -4.2862  1.2750  0.4689
 5367SOL    HW227564   0.601   4.427   5.858  0.7126  0.3344 -0.3616
 5368SOL     OW27565   1.412   1.825   4.774  0.1421 -0.4297  0.0655
 5368SOL    HW127566   1.323   1.835   4.741 -0.1303 -2.2744  0.2118
 5368SOL    HW227567   1.447   1.758   4.714  0.8910  1.2011 -1.3187
 5369SOL     OW27568   0.762   0.678   4.468  0.4072  0.4621  0.2238
 5369SOL    HW127569   0.852   0.705   4.486  0.5518 -0.4306  0.8762
 5369SOL    HW227570   0.732   0.742   4.404  0.2740 -0.9856 -1.1738
 5370SOL     OW27571   3.822   3.065  16.819 -0.3343  0.1479 -0.6370
 5370SOL    HW127572   3.775   3.049  16.901  0.5014 -0.3587 -0.2561
 5370SOL    HW227573   3.746   3.047  16.763 -0.8239 -0.8100  0.3442
 5371SOL     OW27574   0.484   3.789  13.373 -0.7434 -0.2185  0.2287
 5371SOL    HW127575   0.509   3.841  13.450  0.0258  0.2808 -0.3623
 5371SOL    HW227576   0.567   3.744  13.358 -0.0659  1.1917 -0.3218
 5372SOL     OW27577   0.435   2.874   3.918 -0.5597 -0.1794  0.4934
 5372SOL    HW127578   0.491   2.884   3.841 -0.4051 -3.2162  0.2110
 5372SOL    HW227579   0.406   2.964   3.932  0.6238 -0.1896  2.9587
 5373SOL     OW27580   1.989   2.888  16.362  0.8154  0.0333 -0.1465
 5373SOL    HW127581   2.002   2.808  16.311  0.6774 -0.2485  0.2589
 5373SOL    HW227582   2.011   2.958  16.301  0.6688 -2.1013 -2.6593
 5374SOL     OW27583   4.031   3.007  15.186 -0.1418  0.7043 -0.0415
 5374SOL    HW127584   4.048   3.020  15.093  4.3406 -1.8822  0.4063
 5374SOL    HW227585   3.939   3.030  15.197 -0.0044  0.9985  0.5355
 5375SOL     OW27586   4.555   1.566   0.322 -0.2668 -0.1523  0.6839
 5375SOL    HW127587   4.548   1.629   0.395 -0.0687  0.0565  0.5215
 5375SOL    HW227588   4.466   1.572   0.287  1.0488  1.1738 -2.4054
 5376SOL     OW27589   1.627   3.346   7.538 -0.4946  0.1516 -0.1011
 5376SOL    HW127590   1.543   3.382   7.566  0.2903  0.4878  1.8234
 5376SOL    HW227591   1.667   3.424   7.500 -2.6649  1.0179 -0.6337
 5377SOL     OW27592   2.407   3.542   7.054 -0.2228 -0.1413 -0.5006
 5377SOL    HW127593   2.315   3.564   7.037 -0.8846 -1.6057  1.1161
 5377SOL    HW227594   2.433   3.516   6.965 -0.0108 -3.7992  0.6344
 5378SOL     OW27595   2.100   1.929   9.348 -0.5485 -0.1725 -0.1536
 5378SOL    HW127596   2.087   1.838   9.319 -1.2714  0.3176 -1.3646
 5378SOL    HW227597   2.074   1.924   9.440 -1.0948  0.9541 -0.2456
 5379SOL     OW27598   4.249   3.662  14.636 -0.4703 -0.2259  0.1383
 5379SOL    HW127599   4.345   3.655  14.630 -0.6290 -1.3930 -1.1230
 5379SOL    HW227600   4.234   3.754  14.615 -1.0553 -0.2360  0.5398
 5380SOL     OW27601   0.018   1.220  16.564 -0.1400  0.1895  0.1184
 5380SOL    HW127602   0.074   1.259  16.631 -1.0006 -0.3707  1.1647
 5380SOL    HW227603   4.675   1.283  16.537 -2.4872 -1.9637  0.7724
 5381SOL     OW27604   0.970   3.174   5.103 -1.0653  0.6907 -0.6713
 5381SOL    HW127605   1.033   3.176   5.175 -0.0882  3.7636 -1.6363
 5381SOL    HW227606   0.894   3.148   5.157  0.3580 -1.7686  0.1447
 5382SOL     OW27607   0.366   3.516   4.898 -0.8079  0.0808  0.3105
 5382SOL    HW127608   0.427   3.586   4.918  1.0073 -0.9345 -1.6898
 5382SOL    HW227609   0.342   3.524   4.806  1.0948 -0.1880 -0.2128
 5383SOL     OW27610   0.845   1.332  15.497  0.2787  0.1264 -0.1948
 5383SOL    HW127611   0.780   1.386  15.453  1.4142  0.5048 -1.3760
 5383SOL    HW227612   0.922   1.388  15.490 -1.2333  2.5300  2.1690
 5384SOL     OW27613   3.621   1.422   7.181  0.0975  0.3348  0.5570
 5384SOL    HW127614   3.639   1.499   7.127  0.2948  0.1733  0.3900
 5384SOL    HW227615   3.673   1.441   7.259 -0.9212  1.5725  0.9227
 5385SOL     OW27616   4.437   2.225   1.581  0.3776  0.0785  0.1085
 5385SOL    HW127617   4.451   2.254   1.671  3.0901  0.1931 -0.3432
 5385SOL    HW227618   4.352   2.183   1.571 -0.4623  2.5633 -3.4575
 5386SOL     OW27619   0.258   1.842   3.747 -0.9438 -0.1184  0.4047
 5386SOL    HW127620   0.315   1.788   3.801  1.3284  1.7324 -0.1463
 5386SOL    HW227621   0.221   1.899   3.815  1.5667  1.1137  0.7208
 5387SOL     OW27622   0.570   1.072  17.000  0.0057 -0.4358  0.6003
 5387SOL    HW127623   0.480   1.053  17.029 -1.0742 -1.5094 -3.3853
 5387SOL    HW227624   0.577   1.163  17.028  0.0187  0.2982 -1.7735
 5388SOL     OW27625   2.106   4.545   1.184  0.0884  0.4236 -0.4645
 5388SOL    HW127626   2.064   4.608   1.125  0.6217  1.1132 -0.1027
 5388SOL    HW227627   2.054   4.466   1.166 -0.5539  1.4420 -3.1328
 5389SOL     OW27628   1.391   1.567  13.735  0.1740 -0.1986  0.0339
 5389SOL    HW127629   1.421   1.499  13.795  0.1581  0.5480  0.8794
 5389SOL    HW227630   1.461   1.544  13.674  0.1522 -3.9183  1.4005
 5390SOL     OW27631   3.150   3.150   1.971 -0.3396 -0.1717 -0.3220
 5390SOL    HW127632   3.119   3.080   2.028  1.5948 -2.7595 -2.4430
 5390SOL    HW227633   3.072   3.165   1.917 -1.0324  1.1603  1.0618
 5391SOL     OW27634   1.442   1.540  12.640  0.5894  0.2998 -0.8473
 5391SOL    HW127635   1.474   1.450  12.644 -1.4303 -0.2990  1.8620
 5391SOL    HW227636   1.346   1.532  12.642  0.5441  0.3878 -2.1807
 5392SOL     OW27637   4.709   4.185  13.396  0.3805 -0.5174  0.2052
 5392SOL    HW127638   0.062   4.134  13.367 -0.2407 -1.5305  0.3378
 5392SOL    HW227639   0.034   4.247  13.451 -0.3586 -0.2330  0.5398
 5393SOL     OW27640   0.857   1.739   8.427 -0.5614  1.0943  0.5281
 5393SOL    HW127641   0.815   1.714   8.345 -1.0902 -0.6410  1.3277
 5393SOL    HW227642   0.809   1.677   8.481 -1.4146  2.6809  1.5925
 5394SOL     OW27643   3.736   2.976  15.464  0.2505 -0.6573  0.5529
 5394SOL    HW127644   3.782   3.043  15.414 -2.0458  0.7188  0.3034
 5394SOL    HW227645   3.731   3.024  15.547 -2.9093  0.4592 -0.2871
 5395SOL     OW27646   0.590   0.666   4.185 -0.1536  0.4846  0.4983
 5395SOL    HW127647   0.546   0.732   4.238 -1.8891  0.3368 -0.7470
 5395SOL    HW227648   0.520   0.607   4.157  0.4960 -0.3231  0.5906
 5396SOL     OW27649   3.382   3.294   3.218  0.5594 -0.9392 -0.4602
 5396SOL    HW127650   3.298   3.258   3.247  1.0855  0.5763  3.0104
 5396SOL    HW227651   3.362   3.362   3.153  0.9901 -0.7385 -0.3819
 5397SOL     OW27652   4.274   3.292   8.310  0.2400  0.0643 -0.0929
 5397SOL    HW127653   4.307   3.204   8.330 -0.4800 -0.5635 -1.6526
 5397SOL    HW227654   4.351   3.349   8.305  1.2822 -1.2517  1.1970
 5398SOL     OW27655   3.633   1.653   4.188 -0.3162  0.3726  0.3854
 5398SOL    HW127656   3.640   1.665   4.094 -0.6336 -2.4039  0.0025
 5398SOL    HW227657   3.641   1.743   4.220  0.7101  1.2644 -2.4684
 5399SOL     OW27658   0.734   4.236   1.292  0.2045  0.6136  0.3091
 5399SOL    HW127659   0.697   4.324   1.287 -1.3771  0.0060  1.3665
 5399SOL    HW227660   0.823   4.248   1.324  0.4408 -1.7670  0.5540
 5400SOL     OW27661   2.259   3.081   5.968 -0.3997 -0.6156  0.4060
 5400SOL    HW127662   2.333   3.032   5.933 -1.3867 -1.2172 -0.8345
 5400SOL    HW227663   2.247   3.147   5.900  0.8377 -1.2145 -0.3756
 5401SOL     OW27664   3.131   0.917  16.114 -0.0580 -0.0589  0.3734
 5401SOL    HW127665   3.052   0.921  16.061 -0.2453 -1.5581  0.5285
 5401SOL    HW227666   3.182   0.846  16.076  0.3584 -0.4951  1.7424
 5402SOL     OW27667   2.348   0.987   4.273 -0.1527  0.4473  0.3833
 5402SOL    HW127668   2.288   0.914   4.264  1.0324 -0.3569 -0.9426
 5402SOL    HW227669   2.346   0.985   4.369  0.2377  1.4662  0.4223
 5403SOL     OW27670   0.013   2.010   7.470  0.5768  0.4370  0.4201
 5403SOL    HW127671   0.101   2.030   7.438  0.8382 -0.1835  0.7459
 5403SOL    HW227672   4.721   2.087   7.524  0.1903 -0.8563  2.1554
 5404SOL     OW27673   3.805   1.921   4.531 -0.2897 -0.1754 -0.3791
 5404SOL    HW127674   3.834   1.923   4.622 -3.3092  1.4779  0.5850
 5404SOL    HW227675   3.890   1.903   4.492  0.2848 -0.3209  0.9691
 5405SOL     OW27676   3.653   3.538   6.053 -0.0255 -0.2597 -0.0897
 5405SOL    HW127677   3.559   3.552   6.042  0.5297  2.4039 -1.5278
 5405SOL    HW227678   3.680   3.595   6.125  2.1624 -0.3865 -0.8052
 5406SOL     OW27679   0.958   2.862   3.606 -0.4136  0.1351 -0.0774
 5406SOL    HW127680   0.988   2.844   3.695  1.6918  0.0288 -0.7994
 5406SOL    HW227681   0.937   2.955   3.618 -2.6466 -0.3992  0.1628
 5407SOL     OW27682   1.184   4.710   1.353 -0.0059  0.7116 -0.1976
 5407SOL    HW127683   1.114   4.723   1.289  1.6021 -3.3144 -2.8070
 5407SOL    HW227684   1.240   4.653   1.299 -1.3584 -1.0276  0.2278
 5408SOL     OW27685   3.423   4.423   1.102  0.1741 -0.1275  0.3117
 5408SOL    HW127686   3.350   4.361   1.101 -1.0451  1.3710 -1.3501
 5408SOL    HW227687   3.451   4.398   1.014  1.1295 -2.3597  1.2279
 5409SOL     OW27688   4.217   1.957   3.015 -0.0237 -0.4209 -0.6917
 5409SOL    HW127689   4.302   2.001   3.014 -0.4309  0.4317  2.6350
 5409SOL    HW227690   4.239   1.882   2.959  1.2952 -1.3820  1.1398
 5410SOL     OW27691   4.044   2.936  14.916  0.6807 -0.1442  0.3101
 5410SOL    HW127692   4.008   2.847  14.920 -2.0124  0.7707 -3.8512
 5410SOL    HW227693   4.078   2.929  14.827 -2.0232 -2.3853 -0.5714
 5411SOL     OW27694   2.075   1.427  17.065 -0.0755  0.6517 -1.3180
 5411SOL    HW127695   2.022   1.447  16.988 -3.6984 -3.3657  0.1204
 5411SOL    HW227696   2.147   1.490  17.065  1.5079 -1.1762 -0.9049
 5412SOL     OW27697   4.223   3.566   6.637 -0.3538 -0.5899  0.3600
 5412SOL    HW127698   4.145   3.543   6.585 -0.6387 -0.5611  0.7702
 5412SOL    HW227699   4.287   3.498   6.618  0.2041  0.0508 -0.0329
 5413SOL     OW27700   0.024   0.601   3.810  0.1808  0.5704 -0.3865
 5413SOL    HW127701   0.021   0.509   3.835 -1.1016  0.6220 -0.3408
 5413SOL    HW227702   0.013   0.593   3.715 -0.1735  0.4948 -0.3405
 5414SOL     OW27703   0.832   1.115   3.907 -0.4493 -0.0611  0.4777
 5414SOL    HW127704   0.831   1.194   3.960 -0.1260 -0.5745  1.2425
 5414SOL    HW227705   0.740   1.091   3.905 -0.6943  1.0491 -2.6817
 5415SOL     OW27706   2.154   1.449  16.723  0.0842  0.1646 -0.4290
 5415SOL    HW127707   2.217   1.439  16.794 -0.1064 -1.5308 -0.5002
 5415SOL    HW227708   2.085   1.489  16.775  0.1055 -0.5816  0.1721
 5416SOL     OW27709   3.294   2.423   2.146 -0.9802 -0.0556  0.4811
 5416SOL    HW127710   3.322   2.339   2.110  2.4401  1.9206 -1.4705
 5416SOL    HW227711   3.360   2.483   2.111 -0.2561 -1.1686 -0.0603
 5417SOL     OW27712   4.649   1.074   9.811 -0.0771  0.3454  0.5112
 5417SOL    HW127713   4.665   1.044   9.722  0.0320 -0.5059  0.8127
 5417SOL    HW227714   4.594   1.148   9.784 -1.7541 -1.1178 -0.1175
 5418SOL     OW27715   0.813   0.309   2.099  0.5046 -0.2882  0.4016
 5418SOL    HW127716   0.822   0.372   2.170 -3.5653  1.3203 -0.5413
 5418SOL    HW227717   0.903   0.296   2.070  0.1123  2.0426 -1.8318
 5419SOL     OW27718   0.717   4.446  12.431  0.3213 -0.6414 -0.0934
 5419SOL    HW127719   0.764   4.384  12.486  0.1779  0.1371  0.8965
 5419SOL    HW227720   0.747   4.413  12.346  0.4743 -0.6559 -0.0340
 5420SOL     OW27721   3.009   3.328   7.557 -0.9116  0.6556 -0.0631
 5420SOL    HW127722   2.985   3.244   7.517 -1.1504 -0.5465  2.6073
 5420SOL    HW227723   3.019   3.312   7.651 -1.3763  2.7719  0.3468
 5421SOL     OW27724   3.336   3.804   5.931  0.4399  0.0982  0.5516
 5421SOL    HW127725   3.422   3.844   5.941 -0.5516  1.9604  1.5038
 5421SOL    HW227726   3.279   3.875   5.902 -1.6966 -1.9758 -0.3819
 5422SOL     OW27727   4.352   1.717   5.037  0.1582  0.0214  0.5873
 5422SOL    HW127728   4.388   1.787   5.091 -0.6438  1.1719 -0.3786
 5422SOL    HW227729   4.424   1.654   5.038 -1.1263 -1.4447  1.3744
 5423SOL     OW27730   0.896   3.124   7.212  0.0663 -0.1238  0.3385
 5423SOL    HW127731   0.858   3.210   7.192 -1.1457 -0.9274 -0.7719
 5423SOL    HW227732   0.883   3.117   7.307  1.7699  1.6252  0.6923
 5424SOL     OW27733   1.079   2.894   2.196  0.2534 -0.6674 -0.4914
 5424SOL    HW127734   0.996   2.862   2.233 -0.2158  0.1607 -0.8407
 5424SOL    HW227735   1.138   2.894   2.272 -1.3590  0.2865  0.7569
 5425SOL     OW27736   3.488   3.931   0.620 -0.2434  0.2257 -0.1689
 5425SOL    HW127737   3.418   3.997   0.612  1.3824  1.9969  0.2711
 5425SOL    HW227738   3.469   3.879   0.543  1.9151  0.2285 -0.6865
 5426SOL     OW27739   1.650   2.385   8.832  0.4176  0.3848 -0.1036
 5426SOL    HW127740   1.675   2.359   8.743 -0.9250  1.7531 -0.8707
 5426SOL    HW227741   1.695   2.314   8.878 -1.9369 -1.5574 -0.7993
 5427SOL     OW27742   3.400   4.414   5.090  0.3974  0.3806  0.3379
 5427SOL    HW127743   3.350   4.335   5.069  3.1237 -0.7436 -1.9089
 5427SOL    HW227744   3.344   4.486   5.061 -0.1256  0.5816  1.8054
 5428SOL     OW27745   2.344   1.840   3.337 -0.2977 -0.1480  0.3502
 5428SOL    HW127746   2.387   1.920   3.307  0.5064 -0.7965 -0.2196
 5428SOL    HW227747   2.416   1.779   3.351  1.0578  1.0357 -1.3651
 5429SOL     OW27748   0.268   1.252  12.480 -0.0094 -0.1251 -0.2486
 5429SOL    HW127749   0.255   1.245  12.385  1.4096  2.8943 -0.7016
 5429SOL    HW227750   0.215   1.331  12.487 -0.3217 -0.2794 -0.8286
 5430SOL     OW27751   2.282   1.860   4.840 -0.2033 -0.6501  0.1385
 5430SOL    HW127752   2.332   1.923   4.891  0.8969  0.1099 -1.8924
 5430SOL    HW227753   2.352   1.814   4.794  0.2298 -1.2149  1.3637
 5431SOL     OW27754   1.808   4.611  13.393  0.3462 -1.0556  0.0405
 5431SOL    HW127755   1.722   4.610  13.350 -0.8377 -1.8165  2.4433
 5431SOL    HW227756   1.858   4.650  13.322 -3.6005  0.0738 -2.1622
 5432SOL     OW27757   3.458   4.554   5.372 -0.0690 -0.0369  0.0977
 5432SOL    HW127758   3.363   4.567   5.376 -0.1379 -0.2048 -1.0240
 5432SOL    HW227759   3.467   4.530   5.280 -0.7732  0.0975 -0.0063
 5433SOL     OW27760   0.973   3.549   8.818  0.2956  0.1245 -0.2765
 5433SOL    HW127761   0.995   3.551   8.912 -0.1252  1.5560 -0.2010
 5433SOL    HW227762   1.018   3.628   8.789  0.4555  0.7934  1.7597
 5434SOL     OW27763   0.096   4.270  12.961  0.0330 -0.1562 -0.0468
 5434SOL    HW127764   0.173   4.252  13.015 -0.3227  1.7901  1.1220
 5434SOL    HW227765   0.072   4.354  13.001  1.1719  0.0341  0.2302
 5435SOL     OW27766   3.880   1.457   7.861 -0.5783  0.0348  0.2391
 5435SOL    HW127767   3.938   1.530   7.880 -0.3927 -0.2573  0.7996
 5435SOL    HW227768   3.832   1.458   7.944 -0.7833  0.0379  0.1218
 5436SOL     OW27769   1.682   2.519   4.359 -0.6558  0.1528 -0.5381
 5436SOL    HW127770   1.744   2.464   4.310 -0.1371 -0.2638  0.5752
 5436SOL    HW227771   1.641   2.450   4.411  2.6530  0.5394  2.5912
 5437SOL     OW27772   2.158   2.184   5.652 -0.1697  0.2620 -0.4607
 5437SOL    HW127773   2.210   2.110   5.685  1.5262  0.8208 -1.8511
 5437SOL    HW227774   2.231   2.228   5.607  1.8538 -0.7358  1.8155
 5438SOL     OW27775   1.191   0.964   9.030 -0.1129 -0.3284 -1.4350
 5438SOL    HW127776   1.123   0.990   9.092  2.2940 -0.6190  1.3591
 5438SOL    HW227777   1.223   1.049   9.001 -0.7971 -0.1951 -1.7909
 5439SOL     OW27778   2.438   1.864   9.247  0.5605  0.3351  0.0252
 5439SOL    HW127779   2.422   1.837   9.337  0.8701 -2.2270 -0.6928
 5439SOL    HW227780   2.367   1.815   9.206 -0.1799  1.1932  0.2922
 5440SOL     OW27781   3.603   2.871   3.308 -0.3450  0.3726  0.3946
 5440SOL    HW127782   3.579   2.962   3.324 -1.8718  0.2969 -1.4976
 5440SOL    HW227783   3.521   2.822   3.319  0.6700 -1.2736  0.6193
 5441SOL     OW27784   1.474   2.525   7.213  0.4937 -0.3021  0.0288
 5441SOL    HW127785   1.407   2.567   7.159  2.4197  0.4039 -1.7946
 5441SOL    HW227786   1.472   2.435   7.179  1.0176 -0.0525 -0.6703
 5442SOL     OW27787   2.844   0.394   5.947  0.6021 -0.0637  0.2433
 5442SOL    HW127788   2.783   0.461   5.917  0.3075 -0.5617 -0.2732
 5442SOL    HW227789   2.857   0.417   6.039  1.5868 -0.1461  0.1295
 5443SOL     OW27790   2.885   4.687   5.623 -0.3401 -0.1253  0.4019
 5443SOL    HW127791   2.889   0.040   5.681 -0.0448  0.9319 -1.0042
 5443SOL    HW227792   2.942   4.630   5.675  1.9151  0.3649 -1.5013
 5444SOL     OW27793   0.727   0.633   7.801 -0.1315  0.6359  0.1837
 5444SOL    HW127794   0.755   0.724   7.815  1.0058  0.2870  0.1640
 5444SOL    HW227795   0.788   0.583   7.856  0.0216  0.5919 -0.0280
 5445SOL     OW27796   0.565   2.858   7.746 -0.4401  0.0724  0.2298
 5445SOL    HW127797   0.538   2.934   7.695  2.0857 -0.2998 -1.6171
 5445SOL    HW227798   0.619   2.893   7.816 -1.8021  0.9714  0.8349
 5446SOL     OW27799   2.908   3.320  13.725 -0.5116  0.3311  0.0163
 5446SOL    HW127800   2.879   3.399  13.680  3.3207 -0.3382 -3.6323
 5446SOL    HW227801   2.886   3.257  13.657  2.4635 -0.1007 -0.5318
 5447SOL     OW27802   4.597   2.379  14.759 -0.0120  0.0358 -0.6603
 5447SOL    HW127803   4.594   2.468  14.725  2.5255  0.2857 -0.2254
 5447SOL    HW227804   4.619   2.335  14.677 -1.1152  0.3010 -1.0901
 5448SOL     OW27805   0.187   0.087  14.988  0.0547  0.1034 -0.4676
 5448SOL    HW127806   0.135   0.068  14.910  1.3615  0.1036 -1.3444
 5448SOL    HW227807   0.180   0.181  15.003  1.4272  0.4220 -1.7949
 5449SOL     OW27808   4.691   1.362  14.811  0.3784 -0.5170  0.5182
 5449SOL    HW127809   0.009   1.442  14.780  0.8206 -1.2629 -0.8469
 5449SOL    HW227810   4.702   1.371  14.906  0.1734  0.0285  0.4911
 5450SOL     OW27811   4.012   0.119  10.125 -0.3929 -0.6879 -0.1182
 5450SOL    HW127812   4.067   0.150  10.197  1.0463  1.7166 -2.2431
 5450SOL    HW227813   4.029   0.026  10.112 -0.4265 -0.8844  1.2816
 5451SOL     OW27814   2.233   1.704   7.411  0.3391  0.2809 -0.1158
 5451SOL    HW127815   2.243   1.620   7.455 -1.5179 -1.1348 -2.4292
 5451SOL    HW227816   2.138   1.712   7.419  0.4396 -0.6174  1.9582
 5452SOL     OW27817   0.167   3.844  14.611 -0.0715  0.4219 -0.1350
 5452SOL    HW127818   0.207   3.821  14.695  1.3654 -0.4094 -1.0533
 5452SOL    HW227819   0.079   3.874  14.633  1.1011  0.1129  5.1513
 5453SOL     OW27820   2.914   0.366   2.056 -0.1211  0.2522 -0.3432
 5453SOL    HW127821   3.010   0.368   2.066 -0.4224 -0.8261  2.5788
 5453SOL    HW227822   2.909   0.371   1.961  0.5827  0.8402 -0.3548
 5454SOL     OW27823   1.882   4.374   1.132  0.1106  0.2698 -0.0692
 5454SOL    HW127824   1.919   4.306   1.188  2.6147  0.9245 -0.9255
 5454SOL    HW227825   1.788   4.357   1.137  0.2411 -0.5892 -0.5369
 5455SOL     OW27826   3.249   4.346   6.224 -0.1520 -0.1368 -0.3533
 5455SOL    HW127827   3.183   4.337   6.156 -0.1099 -1.5939 -0.1998
 5455SOL    HW227828   3.296   4.263   6.219  0.8780  0.4675 -0.7937
 5456SOL     OW27829   0.293   1.600   4.612 -0.6332 -0.1104 -0.1109
 5456SOL    HW127830   0.247   1.601   4.528 -0.1488 -1.4138 -0.3930
 5456SOL    HW227831   0.234   1.533   4.648 -0.1670 -1.6457 -2.2025
 5457SOL     OW27832   0.969   2.155   2.613 -0.0871  0.0638 -0.0529
 5457SOL    HW127833   0.983   2.224   2.677  0.8068 -1.0192  0.9030
 5457SOL    HW227834   0.921   2.200   2.543 -0.0796  3.2137  1.9625
 5458SOL     OW27835   0.771   2.956  12.924  0.4471 -0.0102 -0.1508
 5458SOL    HW127836   0.751   3.027  12.985  3.9955  0.4977  0.4187
 5458SOL    HW227837   0.760   2.999  12.839  1.5359 -1.1742 -0.8707
 5459SOL     OW27838   1.512   1.373   6.251  0.4492  0.0063 -0.3381
 5459SOL    HW127839   1.464   1.322   6.316 -0.7067  0.2414 -1.0136
 5459SOL    HW227840   1.581   1.413   6.304  0.1173 -0.2822  0.3089
 5460SOL     OW27841   3.214   3.483   7.019  0.7495  0.2124 -0.1454
 5460SOL    HW127842   3.191   3.398   7.059  0.6471  0.3782  0.1519
 5460SOL    HW227843   3.183   3.463   6.931 -0.4607  0.0015  0.3232
 5461SOL     OW27844   1.430   3.163   7.790 -0.4167 -0.5456 -0.3199
 5461SOL    HW127845   1.503   3.104   7.773 -0.6107 -0.1913 -2.3671
 5461SOL    HW227846   1.459   3.217   7.863 -1.7059 -0.3212  0.0378
 5462SOL     OW27847   2.422   0.166   0.533 -0.5695 -0.6941  0.0386
 5462SOL    HW127848   2.338   0.145   0.492  0.3036 -2.7354 -0.7214
 5462SOL    HW227849   2.405   0.160   0.627  1.0791  0.1691  0.3811
 5463SOL     OW27850   2.217   1.157  10.288 -0.3457  0.4770 -0.1289
 5463SOL    HW127851   2.227   1.121  10.376 -3.4923 -0.7253 -0.2534
 5463SOL    HW227852   2.267   1.238  10.299  0.8389  0.2106 -3.6735
 5464SOL     OW27853   3.988   3.074   8.093 -0.8078 -0.0659  0.0486
 5464SOL    HW127854   3.957   3.058   8.182  0.4208  0.0518  0.4993
 5464SOL    HW227855   4.018   3.164   8.107 -2.2540  0.3193  0.6833
 5465SOL     OW27856   3.149   4.054   2.266 -0.0187  0.0055  0.0749
 5465SOL    HW127857   3.213   4.061   2.336  1.1712  3.2268 -1.2888
 5465SOL    HW227858   3.190   3.994   2.203  2.2866 -0.3150  1.8763
 5466SOL     OW27859   3.852   0.650   3.893 -0.4017 -0.1506 -0.3280
 5466SOL    HW127860   3.825   0.709   3.964  0.5965  2.0602 -1.7985
 5466SOL    HW227861   3.821   0.690   3.812 -0.2626  0.2805 -0.1681
 5467SOL     OW27862   4.560   1.367   7.856  0.4384  0.1787  0.5555
 5467SOL    HW127863   4.474   1.398   7.884  1.4443  2.6252  0.9470
 5467SOL    HW227864   4.612   1.421   7.916  0.7177 -1.0322  1.3865
 5468SOL     OW27865   4.564   3.761   3.124 -0.1496 -0.0561 -0.8157
 5468SOL    HW127866   4.476   3.785   3.152 -0.5001 -1.6224 -0.5652
 5468SOL    HW227867   4.600   3.707   3.195 -0.2367  1.7113  0.5643
 5469SOL     OW27868   0.465   4.195  15.217 -0.0125  0.3341 -0.0798
 5469SOL    HW127869   0.556   4.185  15.186  0.5744  1.7856  1.1897
 5469SOL    HW227870   0.456   4.290  15.225  1.2373  0.3674  1.0786
 5470SOL     OW27871   4.083   0.243   3.951 -0.6614  0.8065 -0.4971
 5470SOL    HW127872   4.098   0.319   4.007 -1.9667 -0.6871  1.8801
 5470SOL    HW227873   4.117   0.273   3.866 -2.6075  1.0115 -1.2108
 5471SOL     OW27874   2.775   3.193   8.175  0.4799  0.0756  0.0628
 5471SOL    HW127875   2.711   3.124   8.194 -0.0950  0.3553 -0.8983
 5471SOL    HW227876   2.761   3.200   8.081  0.2464 -0.0740  0.0848
 5472SOL     OW27877   2.505   0.199   9.579 -0.2361  0.1056 -0.1498
 5472SOL    HW127878   2.507   0.104   9.580 -0.3570  0.1076  0.6019
 5472SOL    HW227879   2.466   0.214   9.665  1.3018  1.7504  0.2706
 5473SOL     OW27880   3.063   2.491   3.037 -0.3561  0.3412 -0.0355
 5473SOL    HW127881   2.989   2.548   3.015  1.6705  2.9368 -0.1335
 5473SOL    HW227882   3.133   2.544   2.997 -1.2442  0.4775 -1.4233
 5474SOL     OW27883   0.216   0.926   0.201 -0.1889 -0.1614  0.2303
 5474SOL    HW127884   0.256   0.962   0.280 -2.8388  1.8987  0.6243
 5474SOL    HW227885   0.266   0.975   0.135  0.7975 -2.2822 -0.6133
 5475SOL     OW27886   2.741   0.590   5.762 -0.1975  0.3727 -0.4782
 5475SOL    HW127887   2.717   0.677   5.729  2.1498  1.6810  1.2289
 5475SOL    HW227888   2.835   0.602   5.774 -0.1050  0.7512 -1.5065
 5476SOL     OW27889   1.233   2.018   0.762 -0.3793 -0.4517  0.0112
 5476SOL    HW127890   1.191   2.103   0.776  1.6893  0.5476  0.0498
 5476SOL    HW227891   1.158   1.959   0.770  0.2395 -1.0883  1.1250
 5477SOL     OW27892   3.472   2.643   5.653 -0.5822 -0.4644  0.3525
 5477SOL    HW127893   3.537   2.613   5.717  0.7425  0.2934 -0.6402
 5477SOL    HW227894   3.504   2.618   5.566 -0.6930  0.9805 -0.1090
 5478SOL     OW27895   0.268   0.995   7.573  0.3383  0.2356 -0.6834
 5478SOL    HW127896   0.226   0.961   7.652 -1.7587 -1.1352 -2.4051
 5478SOL    HW227897   0.233   1.084   7.573  3.4703  1.4779  0.3765
 5479SOL     OW27898   1.698   4.530   6.767  0.0381 -0.1100  0.2460
 5479SOL    HW127899   1.697   4.448   6.816 -0.0187  0.3620  1.0338
 5479SOL    HW227900   1.766   4.580   6.813 -1.5922  0.3271  2.2067
 5480SOL     OW27901   0.678   2.424   3.998  0.1323  0.3720  0.1002
 5480SOL    HW127902   0.614   2.363   4.036  0.3937 -0.3157 -0.5861
 5480SOL    HW227903   0.617   2.475   3.944  0.7799  0.9188 -0.1211
 5481SOL     OW27904   2.204   1.117   6.006 -0.6131  0.5754  0.0871
 5481SOL    HW127905   2.267   1.045   6.016  0.3223  1.3011 -0.6526
 5481SOL    HW227906   2.232   1.158   5.925 -0.2995  1.4243  0.6303
 5482SOL     OW27907   3.864   4.215   0.535 -0.0352  0.3962  0.3172
 5482SOL    HW127908   3.875   4.270   0.613  0.1205  0.2649  0.3862
 5482SOL    HW227909   3.785   4.246   0.491 -0.5752 -1.8548 -0.2932
 5483SOL     OW27910   3.470   2.514   8.482 -0.2102  0.1929  0.0223
 5483SOL    HW127911   3.417   2.511   8.562 -2.1360  0.3089 -1.2451
 5483SOL    HW227912   3.459   2.424   8.450 -1.1111  0.5304 -0.6133
 5484SOL     OW27913   1.263   1.918  15.830 -0.2052  0.1788  0.2497
 5484SOL    HW127914   1.189   1.900  15.772  0.9162 -1.2203 -0.7412
 5484SOL    HW227915   1.337   1.893  15.775  0.8451  0.0370  1.7331
 5485SOL     OW27916   3.464   3.874   8.765 -0.2180  0.5508  0.1130
 5485SOL    HW127917   3.410   3.871   8.845 -1.0137 -0.3737 -0.4618
 5485SOL    HW227918   3.402   3.831   8.705 -0.3078  0.6533  0.1327
 5486SOL     OW27919   3.346   0.582   7.274 -0.0511  0.0328  0.5552
 5486SOL    HW127920   3.255   0.593   7.249 -0.0541  0.7323  0.8619
 5486SOL    HW227921   3.349   0.643   7.348  1.2742 -0.6548  1.0867
 5487SOL     OW27922   3.330   1.005   1.255  0.1417 -0.4865 -0.0920
 5487SOL    HW127923   3.393   0.934   1.268 -0.2484 -0.7555  0.3175
 5487SOL    HW227924   3.396   1.073   1.268  0.4958 -0.9448  0.4951
 5488SOL     OW27925   0.174   1.052  16.409  0.0675  0.3215  0.3178
 5488SOL    HW127926   0.132   0.966  16.419  1.5031 -0.2717  1.2171
 5488SOL    HW227927   0.105   1.107  16.445  1.2320  1.4495  0.8346
 5489SOL     OW27928   0.797   3.645  11.204 -0.1840  0.2393  0.0449
 5489SOL    HW127929   0.792   3.733  11.243 -0.6644  0.7961 -1.2690
 5489SOL    HW227930   0.742   3.591  11.261  0.9199 -1.0489 -0.1114
 5490SOL     OW27931   4.650   2.995   5.127  0.1864  0.2351 -0.1718
 5490SOL    HW127932   4.645   2.976   5.221 -1.2383 -1.5819 -0.6220
 5490SOL    HW227933   4.646   2.908   5.088 -0.2001 -0.1794  0.7839
 5491SOL     OW27934   1.198   3.492   6.906 -0.0645 -0.4676  0.1068
 5491SOL    HW127935   1.257   3.529   6.971 -0.0310 -2.1853  1.0507
 5491SOL    HW227936   1.123   3.477   6.964  1.3356 -1.6707  1.5908
 5492SOL     OW27937   3.129   3.821  13.162  0.1293 -0.4040 -0.2952
 5492SOL    HW127938   3.071   3.897  13.154  2.5886  1.4357 -0.6261
 5492SOL    HW227939   3.172   3.840  13.245 -1.4463 -1.0100  0.6543
 5493SOL     OW27940   3.101   2.926   2.143 -0.3314 -0.3070 -0.4916
 5493SOL    HW127941   3.052   2.907   2.223 -1.2537  0.3999 -0.8876
 5493SOL    HW227942   3.186   2.941   2.184 -0.9785  0.0296  0.7365
 5494SOL     OW27943   1.598   0.355   7.297 -0.4841 -0.1772 -0.1496
 5494SOL    HW127944   1.646   0.369   7.379 -1.5413  2.7824 -0.0261
 5494SOL    HW227945   1.652   0.284   7.260  0.4280  1.1574 -1.4014
 5495SOL     OW27946   1.489   4.308  13.920  0.3466 -0.5995  0.3107
 5495SOL    HW127947   1.511   4.219  13.946 -0.6966 -0.1782  2.6693
 5495SOL    HW227948   1.532   4.354  13.992  0.2305 -0.4346  0.2759
 5496SOL     OW27949   3.675   0.412   4.565  0.3387  0.1258 -0.2420
 5496SOL    HW127950   3.602   0.465   4.532 -0.3823 -0.0149  1.1287
 5496SOL    HW227951   3.736   0.485   4.574  0.6357 -0.1139 -0.3413
 5497SOL     OW27952   0.478   2.343   8.766 -0.3150 -0.0640  0.0440
 5497SOL    HW127953   0.493   2.436   8.782 -0.4752  0.3320 -2.1671
 5497SOL    HW227954   0.386   2.338   8.741  0.5842  2.2906 -3.6257
 5498SOL     OW27955   2.419   3.877   6.281  1.1071  0.0356 -0.2864
 5498SOL    HW127956   2.421   3.783   6.262 -2.8686  0.0628 -0.8106
 5498SOL    HW227957   2.450   3.887   6.371 -2.7034  1.8763  0.8242
 5499SOL     OW27958   0.192   1.115  11.587 -0.4164 -0.2455  0.3651
 5499SOL    HW127959   0.117   1.156  11.544 -2.5517 -4.2185  0.3388
 5499SOL    HW227960   0.226   1.054  11.522 -2.9155 -2.4158  1.1285
 5500SOL     OW27961   3.430   1.087   7.892 -0.1593  0.0432  0.1856
 5500SOL    HW127962   3.456   1.059   7.979  0.7171  0.6019  0.1047
 5500SOL    HW227963   3.498   1.149   7.865 -1.0037  0.7418 -0.3654
 5501SOL     OW27964   4.455   4.615   2.352  0.1703 -0.4460 -0.0756
 5501SOL    HW127965   4.508   4.563   2.292  2.5830  1.3300  0.5064
 5501SOL    HW227966   4.389   4.637   2.286 -0.5798  1.1391  1.2195
 5502SOL     OW27967   0.045   4.466   6.905 -0.1809  0.1313 -0.1380
 5502SOL    HW127968   0.095   4.436   6.829 -0.6400  1.5297 -1.0024
 5502SOL    HW227969   0.074   4.411   6.978  0.7924 -0.2795 -0.8367
 5503SOL     OW27970   1.903   0.361   0.319 -0.1066  0.1635  0.1560
 5503SOL    HW127971   1.981   0.358   0.262 -0.7739 -0.0825 -0.7527
 5503SOL    HW227972   1.850   0.429   0.278 -2.5275 -0.5818  2.1049
 5504SOL     OW27973   3.872   0.151   8.585 -0.5399 -0.0774 -0.4260
 5504SOL    HW127974   3.872   0.056   8.578  0.0260  0.0287 -1.7911
 5504SOL    HW227975   3.950   0.162   8.639 -0.2137 -0.7081 -0.7666
 5505SOL     OW27976   2.967   4.614   3.140 -0.2197 -0.5332 -0.1072
 5505SOL    HW127977   2.920   4.696   3.126 -0.9641 -0.6846  1.4791
 5505SOL    HW227978   3.039   4.636   3.200  0.8539 -3.4670 -0.3373
 5506SOL     OW27979   3.545   1.986  13.938 -0.0077 -0.5695  0.2949
 5506SOL    HW127980   3.538   2.003  14.032  2.1842 -2.1890  0.7594
 5506SOL    HW227981   3.580   1.898  13.929  2.0788  0.3967 -1.0631
 5507SOL     OW27982   1.280   0.983   3.506  0.9661 -0.2296  0.1773
 5507SOL    HW127983   1.250   0.911   3.561  0.3412  1.2026  1.6995
 5507SOL    HW227984   1.204   0.983   3.447 -0.6155 -0.2772  2.2241
 5508SOL     OW27985   4.534   3.456  12.663  0.7194 -0.0200 -0.2288
 5508SOL    HW127986   4.582   3.524  12.615  2.1684 -0.5312  0.5279
 5508SOL    HW227987   4.586   3.378  12.644  0.3246  0.0211 -1.5243
 5509SOL     OW27988   0.833   1.956   1.762  0.4242 -0.6293  0.6315
 5509SOL    HW127989   0.899   1.999   1.817  0.2547  0.4909 -0.0400
 5509SOL    HW227990   0.818   1.873   1.808 -0.7456 -0.7293  0.0774
 5510SOL     OW27991   3.613   4.419   3.726  0.2286  0.6606 -0.0440
 5510SOL    HW127992   3.672   4.491   3.701 -0.6255  0.7949 -1.6938
 5510SOL    HW227993   3.650   4.393   3.810 -1.5869 -0.6064  0.3566
 5511SOL     OW27994   0.649   0.320  10.299  0.5970 -0.1873  0.7920
 5511SOL    HW127995   0.660   0.343  10.207 -1.6686 -0.2803  0.4858
 5511SOL    HW227996   0.658   0.226  10.285 -0.5940 -0.1334 -0.3169
 5512SOL     OW27997   2.266   1.641   2.942  0.3931  0.4036  0.4313
 5512SOL    HW127998   2.181   1.665   2.904  1.0009  1.5096 -0.2309
 5512SOL    HW227999   2.238   1.629   3.032  0.6175  0.3119  0.4882
 5513SOL     OW28000   2.003   4.147  15.389 -0.1418  0.3145  0.7652
 5513SOL    HW128001   2.048   4.213  15.443  1.0925 -0.5011  0.7381
 5513SOL    HW228002   1.964   4.208  15.327  1.6449  0.7206  0.0461
 5514SOL     OW28003   1.076   4.378   7.050 -0.1537  0.4543 -0.1407
 5514SOL    HW128004   1.035   4.399   7.134  1.2936  2.0672  0.1544
 5514SOL    HW228005   1.125   4.458   7.034 -2.2948  1.6975 -0.4088
 5515SOL     OW28006   1.805   3.667   7.554 -0.9068 -0.5151  0.3482
 5515SOL    HW128007   1.736   3.720   7.592 -0.6191  0.2519 -0.1915
 5515SOL    HW228008   1.771   3.641   7.468 -1.5130  0.4892  0.2895
 5516SOL     OW28009   1.466   3.942   9.163  0.1461 -0.0575  0.2721
 5516SOL    HW128010   1.534   3.986   9.214 -0.3458  0.3398  0.5807
 5516SOL    HW228011   1.508   3.940   9.076 -2.2746 -0.6123 -0.8738
 5517SOL     OW28012   0.840   3.699   5.284 -0.2956 -0.3394  0.6365
 5517SOL    HW128013   0.751   3.673   5.259 -0.0519 -0.8581  0.3149
 5517SOL    HW228014   0.851   3.778   5.232  0.3890 -1.8750 -1.5606
 5518SOL     OW28015   1.727   2.038   4.356 -0.6027  0.3057  0.1001
 5518SOL    HW128016   1.792   2.104   4.379 -1.4790  0.6505  1.5403
 5518SOL    HW228017   1.648   2.089   4.336 -0.8961  0.7130  2.3875
 5519SOL     OW28018   2.138   1.668   0.179 -0.3103  0.2735 -0.2156
 5519SOL    HW128019   2.225   1.628   0.183  0.8850  2.6881 -1.8240
 5519SOL    HW228020   2.078   1.594   0.187 -0.1208  0.2496  0.9265
 5520SOL     OW28021   2.161   0.095  10.149  0.5840  0.3204  0.1499
 5520SOL    HW128022   2.120   0.009  10.142 -0.9081  1.1156 -0.8391
 5520SOL    HW228023   2.248   0.065  10.121  0.2903  0.4925 -0.9275
 5521SOL     OW28024   3.765   3.435   2.284  0.3563  0.2540 -0.3298
 5521SOL    HW128025   3.842   3.454   2.231  0.6461  0.6915  0.2411
 5521SOL    HW228026   3.696   3.468   2.227 -0.9319 -1.7582  0.0807
 5522SOL     OW28027   1.654   0.229   5.845  0.3382 -0.3322 -0.5527
 5522SOL    HW128028   1.650   0.257   5.753  0.7655  2.0015  0.1542
 5522SOL    HW228029   1.702   0.303   5.882 -0.4420 -0.8344  1.4243
 5523SOL     OW28030   3.868   1.919   7.323 -0.0935 -0.5919  0.0412
 5523SOL    HW128031   3.897   1.915   7.232  0.8849 -0.4790  0.3465
 5523SOL    HW228032   3.878   1.828   7.349  1.0857  0.1701  2.2631
 5524SOL     OW28033   1.344   1.133   7.847  0.2588  0.3714  0.6294
 5524SOL    HW128034   1.337   1.115   7.754  0.2742  0.5501  0.5926
 5524SOL    HW228035   1.421   1.091   7.884  0.5993  0.4165 -0.0515
 5525SOL     OW28036   3.746   3.736   5.794  0.1582  0.6632  0.2410
 5525SOL    HW128037   3.685   3.808   5.813 -0.3794  0.2425  0.1224
 5525SOL    HW228038   3.759   3.694   5.879 -0.5085 -0.2010 -0.0745
 5526SOL     OW28039   4.129   3.522   5.440  0.1249  0.5807 -0.1776
 5526SOL    HW128040   4.133   3.427   5.425 -1.3387  0.3146  1.1062
 5526SOL    HW228041   4.115   3.511   5.534 -2.4243  0.7402 -0.5299
 5527SOL     OW28042   1.485   3.481   4.526 -0.2570  0.2453 -0.4456
 5527SOL    HW128043   1.513   3.503   4.615  2.0869 -2.9029 -0.4007
 5527SOL    HW228044   1.405   3.531   4.511  0.1446  0.7023 -1.0366
 5528SOL     OW28045   3.321   2.556  12.818  0.0409 -0.6326  0.3020
 5528SOL    HW128046   3.394   2.545  12.756  0.3187  1.6188  0.2213
 5528SOL    HW228047   3.261   2.595  12.755  0.3015  1.4652  1.3430
 5529SOL     OW28048   1.209   1.911   4.037 -0.0074 -0.0522  0.4536
 5529SOL    HW128049   1.185   1.976   3.970  3.3316  0.5015 -0.1640
 5529SOL    HW228050   1.233   1.837   3.981  1.7513 -0.2135  1.4353
 5530SOL     OW28051   0.279   1.666   4.209  0.7173 -0.7793  0.1012
 5530SOL    HW128052   0.224   1.731   4.253  0.3745 -0.0911 -1.3351
 5530SOL    HW228053   0.250   1.585   4.251  0.2456 -1.3085 -1.2543
 5531SOL     OW28054   4.291   3.616   9.932  0.3847 -0.2492  0.0774
 5531SOL    HW128055   4.242   3.635   9.853  2.4337  1.7035 -0.7204
 5531SOL    HW228056   4.348   3.542   9.913  1.6164  0.9971 -1.1563
 5532SOL     OW28057   3.048   0.405   6.357  0.1116  0.1506  0.2834
 5532SOL    HW128058   3.129   0.367   6.391 -0.0519  0.8267  1.4175
 5532SOL    HW228059   3.076   0.495   6.345  1.9510 -0.5520 -0.6617
 5533SOL     OW28060   4.596   2.238   6.229 -0.6436  0.5187  0.3361
 5533SOL    HW128061   4.680   2.231   6.183 -1.1421  1.4882 -0.7252
 5533SOL    HW228062   4.628   2.233   6.319  0.0872 -0.1521  0.0445
 5534SOL     OW28063   2.242   3.346   3.282 -0.2923  0.0060 -0.0704
 5534SOL    HW128064   2.220   3.273   3.340  0.0891 -0.8789 -1.0642
 5534SOL    HW228065   2.192   3.329   3.203 -1.9420 -1.2232  1.2470
 5535SOL     OW28066   2.468   4.195   3.863  0.0369 -0.1382 -0.0719
 5535SOL    HW128067   2.467   4.150   3.947 -2.7367  0.0104 -0.0257
 5535SOL    HW228068   2.428   4.128   3.807  0.4846 -0.3866 -0.0929
 5536SOL     OW28069   0.742   2.421  14.627 -0.0523  0.8498 -0.4658
 5536SOL    HW128070   0.762   2.386  14.540 -0.6318 -2.0525  0.5524
 5536SOL    HW228071   0.806   2.375  14.682  0.1532  2.0033  0.2609
 5537SOL     OW28072   0.024   1.366   0.267 -0.0922  0.3546  0.3866
 5537SOL    HW128073   0.097   1.419   0.235 -0.4989  1.4204  1.2488
 5537SOL    HW228074   4.680   1.431   0.286 -0.1452  0.0610  1.2263
 5538SOL     OW28075   3.711   3.492  17.036  0.2426  0.3026  0.2579
 5538SOL    HW128076   3.758   3.476  16.955  0.4921 -0.0054  0.4656
 5538SOL    HW228077   3.730   3.422  17.098 -0.1748 -1.5250 -1.7128
 5539SOL     OW28078   0.808   3.889   1.808  0.3036  0.6680  0.7289
 5539SOL    HW128079   0.821   3.982   1.794  3.6447 -0.0752 -1.0448
 5539SOL    HW228080   0.843   3.845   1.730 -2.1536 -1.5000  0.8543
 5540SOL     OW28081   1.794   3.609   8.141  0.2398  0.1481  0.1100
 5540SOL    HW128082   1.795   3.552   8.217 -3.6394  0.1076  0.1287
 5540SOL    HW228083   1.712   3.656   8.156  1.1213  1.1463  1.8234
 5541SOL     OW28084   0.849   4.436   7.234 -0.0435 -0.3544  0.1228
 5541SOL    HW128085   0.807   4.360   7.275  1.0346 -0.0638  1.7543
 5541SOL    HW228086   0.866   4.497   7.306 -2.1345  1.8948 -1.2803
 5542SOL     OW28087   4.212   0.600  11.941  0.4073 -0.4368 -0.0755
 5542SOL    HW128088   4.198   0.589  11.847 -2.4723 -0.2411  0.3269
 5542SOL    HW228089   4.280   0.667  11.937 -0.1119  0.0363 -0.8978
 5543SOL     OW28090   4.259   0.307  11.775 -0.0909  0.3454  0.3531
 5543SOL    HW128091   4.269   0.323  11.869  0.1641 -1.9577  0.7262
 5543SOL    HW228092   4.169   0.276  11.773 -0.4562  1.4327 -0.1055
 5544SOL     OW28093   0.935   4.428   5.076  0.7556 -0.2148 -0.0271
 5544SOL    HW128094   0.891   4.399   4.996 -0.4190  0.7187  0.2667
 5544SOL    HW228095   1.024   4.424   5.041  0.5568  0.5179 -0.6189
 5545SOL     OW28096   4.664   1.202   5.634 -0.3754 -0.5300  0.6321
 5545SOL    HW128097   0.025   1.157   5.643 -0.8889 -1.5427  0.2568
 5545SOL    HW228098   4.688   1.288   5.670 -3.4055 -1.2794  4.4520
 5546SOL     OW28099   1.847   1.233   5.984 -0.1693  0.3414 -0.2356
 5546SOL    HW128100   1.876   1.180   6.058  1.8845 -0.5275 -1.6654
 5546SOL    HW228101   1.866   1.318   6.022 -0.1862  0.7148 -1.0547
 5547SOL     OW28102   3.022   0.845  11.665 -0.5835 -0.4415 -0.1190
 5547SOL    HW128103   3.015   0.910  11.735 -2.6413  0.2209 -0.9199
 5547SOL    HW228104   3.043   0.776  11.727 -0.7561 -0.1242  0.2944
 5548SOL     OW28105   1.135   1.958   9.350 -0.9566  0.0972  0.3678
 5548SOL    HW128106   1.052   1.969   9.303  0.5856 -1.0873 -2.5870
 5548SOL    HW228107   1.105   1.897   9.417  2.1871 -0.1412  1.5587
 5549SOL     OW28108   4.600   0.753   0.594  0.2063 -0.4089  0.8206
 5549SOL    HW128109   4.555   0.669   0.597  1.5169 -1.0740  1.8041
 5549SOL    HW228110   4.676   0.727   0.541  1.3657  2.1900  1.1651
 5550SOL     OW28111   0.703   3.625  11.492 -0.1663 -0.0499 -0.2557
 5550SOL    HW128112   0.790   3.652  11.524  0.1848  0.5305 -1.7413
 5550SOL    HW228113   0.674   3.578  11.571 -0.6051  0.1146 -0.3217
 5551SOL     OW28114   2.294   0.789   5.358 -0.1425 -0.0301 -0.2506
 5551SOL    HW128115   2.256   0.709   5.323  1.7651 -1.4024  0.8637
 5551SOL    HW228116   2.268   0.851   5.290  2.2387 -1.0455 -2.0619
 5552SOL     OW28117   3.257   0.097   6.982 -0.0391 -0.2445  0.5100
 5552SOL    HW128118   3.168   0.074   7.009 -0.0631 -3.4907 -2.3516
 5552SOL    HW228119   3.236   0.186   6.953 -1.3913 -0.5258  0.6520
 5553SOL     OW28120   3.161   3.997   5.787  0.2462 -0.2559  0.4679
 5553SOL    HW128121   3.196   4.016   5.700 -2.9338 -2.4023 -1.2798
 5553SOL    HW228122   3.080   3.954   5.762  0.2533 -0.2308  0.4028
 5554SOL     OW28123   2.891   0.706   1.539  0.3603  0.2838  0.1511
 5554SOL    HW128124   2.924   0.696   1.628  0.4662 -1.6983 -0.0895
 5554SOL    HW228125   2.825   0.637   1.529  1.6009 -0.9988  0.8280
 5555SOL     OW28126   4.058   1.006  10.043  0.0024 -0.2284 -0.8817
 5555SOL    HW128127   4.086   0.956   9.966 -1.7231 -0.2042 -1.5388
 5555SOL    HW228128   4.115   0.963  10.107  0.9959 -0.1642 -1.7152
 5556SOL     OW28129   0.240   3.967  14.029 -0.3605 -0.2250  0.3930
 5556SOL    HW128130   0.212   3.910  13.958 -0.9242  0.7463 -0.1555
 5556SOL    HW228131   0.285   3.901  14.083  0.9307  0.3771  0.0369
 5557SOL     OW28132   0.989   1.505  10.145  0.6182  0.3480 -0.3402
 5557SOL    HW128133   0.978   1.552  10.227  1.2047  2.5123 -1.5010
 5557SOL    HW228134   1.066   1.452  10.167  0.9137  1.7008  1.8788
 5558SOL     OW28135   1.535   2.191   5.429  0.5854 -0.4743  0.5975
 5558SOL    HW128136   1.565   2.144   5.507  2.1237  0.8193  0.8080
 5558SOL    HW228137   1.599   2.262   5.430  0.4734 -0.3602 -1.1158
 5559SOL     OW28138   3.777   0.276   2.774 -0.0055  0.5102  0.1610
 5559SOL    HW128139   3.796   0.286   2.681  0.1159 -2.4511 -0.1069
 5559SOL    HW228140   3.688   0.308   2.788 -0.7611 -1.6818  0.3771
 5560SOL     OW28141   3.467   3.947   1.919 -0.3808  0.3568  0.0954
 5560SOL    HW128142   3.476   4.009   1.846  0.6003 -1.3973 -1.2906
 5560SOL    HW228143   3.510   3.986   1.995  0.6405  1.4912 -1.0661
 5561SOL     OW28144   3.447   2.611   2.747  0.0957 -0.4141  0.4003
 5561SOL    HW128145   3.497   2.628   2.667  0.3539  0.9763  0.8475
 5561SOL    HW228146   3.416   2.696   2.780  0.1093  0.3790 -1.6252
 5562SOL     OW28147   1.158   3.443   5.727  0.1111 -0.6842  0.1952
 5562SOL    HW128148   1.205   3.509   5.778  0.8495  1.6174 -3.4606
 5562SOL    HW228149   1.065   3.463   5.736 -0.0101 -2.1421  2.1711
 5563SOL     OW28150   4.190   3.467  13.550  0.4365 -0.1421  0.2153
 5563SOL    HW128151   4.232   3.535  13.497  0.7745 -0.2606  0.3290
 5563SOL    HW228152   4.115   3.440  13.497  1.2389 -0.6336 -0.6789
 5564SOL     OW28153   2.877   0.818   7.537  0.5101  0.3962 -0.0267
 5564SOL    HW128154   2.930   0.744   7.507 -1.0567 -1.1678  1.0955
 5564SOL    HW228155   2.907   0.875   7.465 -2.0329  0.6818 -0.8734
 5565SOL     OW28156   2.105   1.296  11.716 -0.2516  0.2501  0.3312
 5565SOL    HW128157   2.179   1.241  11.741 -1.0594 -0.5533  0.9349
 5565SOL    HW228158   2.101   1.273  11.623  0.6484 -3.0676  1.1136
 5566SOL     OW28159   2.737   4.469   2.815  0.6803 -0.2531 -0.4695
 5566SOL    HW128160   2.700   4.557   2.826 -0.3640 -0.1714 -4.4534
 5566SOL    HW228161   2.681   4.443   2.742  0.9157  1.0205 -1.0906
 5567SOL     OW28162   1.033   2.940  12.841 -0.0834 -0.6269  0.2256
 5567SOL    HW128163   1.061   3.027  12.814 -2.1994 -0.0640 -0.1064
 5567SOL    HW228164   0.939   2.953  12.855 -0.0023 -0.6328  0.7842
 5568SOL     OW28165   3.351   4.715   3.130 -0.7172 -0.0896 -0.0628
 5568SOL    HW128166   3.285   4.667   3.181  0.4320 -1.6026  0.0155
 5568SOL    HW228167   3.438   4.679   3.150 -1.3633 -0.7095  1.6440
 5569SOL     OW28168   2.813   1.858   8.201  0.2361 -0.5915  0.0749
 5569SOL    HW128169   2.891   1.877   8.254  0.6169 -0.6194 -0.4741
 5569SOL    HW228170   2.775   1.946   8.199 -0.9302 -1.1789 -2.5385
 5570SOL     OW28171   2.380   0.140   7.761 -0.4438 -0.3736 -0.0181
 5570SOL    HW128172   2.332   0.059   7.746  0.8542 -1.0318 -0.5874
 5570SOL    HW228173   2.406   0.170   7.673  1.8878 -0.8828  0.4914
 5571SOL     OW28174   2.256   4.184   5.832 -0.2277  0.1384  0.1785
 5571SOL    HW128175   2.305   4.121   5.884 -1.3155  1.2253  2.5487
 5571SOL    HW228176   2.331   4.224   5.788 -0.1281 -0.0406  0.1886
 5572SOL     OW28177   1.851   2.997   2.102  0.0311  0.1197  0.3578
 5572SOL    HW128178   1.795   2.920   2.105 -0.3800  0.4233  0.4042
 5572SOL    HW228179   1.938   2.956   2.107 -1.2653 -2.3422  2.5324
 5573SOL     OW28180   2.705   2.030   9.486 -0.4670  0.0554  0.3355
 5573SOL    HW128181   2.792   1.992   9.494 -0.1553  0.5134 -0.9937
 5573SOL    HW228182   2.682   2.050   9.577 -4.0406 -0.3792 -0.4765
 5574SOL     OW28183   2.471   2.635   9.303 -0.7050 -0.2561  0.3023
 5574SOL    HW128184   2.445   2.561   9.358 -0.1346  0.3029  1.3200
 5574SOL    HW228185   2.429   2.701   9.358  0.7334  0.3780  0.6362
 5575SOL     OW28186   0.969   1.405   6.795 -0.2323  0.1785  0.5646
 5575SOL    HW128187   0.937   1.329   6.845  0.1502  0.3999  1.1470
 5575SOL    HW228188   0.954   1.387   6.702  0.0482  0.4184  0.4726
 5576SOL     OW28189   1.603   0.711   3.929 -0.1746 -0.4159 -0.3587
 5576SOL    HW128190   1.545   0.637   3.910 -2.2471  0.8225  1.1635
 5576SOL    HW228191   1.669   0.724   3.861 -1.1871 -1.4580 -1.5459
 5577SOL     OW28192   1.434   4.665  13.727  0.1353 -0.1052 -0.3915
 5577SOL    HW128193   1.458   4.667  13.819  0.1375  3.3330 -0.4856
 5577SOL    HW228194   1.388   4.581  13.720  0.5331 -0.3790  0.3143
 5578SOL     OW28195   4.518   2.767  14.023 -0.8639  0.3472 -0.1861
 5578SOL    HW128196   4.497   2.815  13.943 -1.6537  0.0839 -0.1367
 5578SOL    HW228197   4.506   2.824  14.099 -0.4084  0.1534  0.0333
 5579SOL     OW28198   2.114   0.660  10.079 -0.1186 -0.0298 -1.0622
 5579SOL    HW128199   2.097   0.596  10.148  0.2145  1.7730  0.6880
 5579SOL    HW228200   2.187   0.711  10.114  0.2594 -0.7817 -0.7528
 5580SOL     OW28201   2.875   4.319   4.709  0.0824 -0.7055  0.2760
 5580SOL    HW128202   2.818   4.385   4.670  0.4841  1.2018  2.9170
 5580SOL    HW228203   2.959   4.361   4.690 -0.4422 -0.3590 -1.2682
 5581SOL     OW28204   3.015   2.527   2.406 -0.5097  0.0044 -0.3011
 5581SOL    HW128205   3.059   2.520   2.491 -1.1184 -0.0595  0.0127
 5581SOL    HW228206   2.975   2.441   2.394  0.4049 -0.6611  1.3331
 5582SOL     OW28207   0.927   0.831   6.703  0.0056  0.8597  0.1281
 5582SOL    HW128208   0.925   0.735   6.708 -0.3169  0.9721  2.2071
 5582SOL    HW228209   0.915   0.845   6.609 -1.5429 -1.0145  0.0329
 5583SOL     OW28210   1.857   1.740   5.232  0.4434 -0.6805 -0.3531
 5583SOL    HW128211   1.920   1.762   5.301 -2.0430  0.4892  1.5545
 5583SOL    HW228212   1.887   1.787   5.155 -1.7052 -0.0578 -0.7983
 5584SOL     OW28213   4.716   0.773   2.855  0.8317  0.4974  0.5404
 5584SOL    HW128214   0.030   0.702   2.908 -0.1949 -1.2737 -1.1239
 5584SOL    HW228215   4.701   0.732   2.770  1.5071  0.6352  0.3526
 5585SOL     OW28216   4.109   2.929   3.064  0.1218  0.2831 -0.5891
 5585SOL    HW128217   4.034   2.971   3.106  1.6298  2.8369 -0.4563
 5585SOL    HW228218   4.068   2.852   3.026 -1.1711  1.0371 -0.7071
 5586SOL     OW28219   2.136   3.939   5.221  0.3691 -0.0035  0.0882
 5586SOL    HW128220   2.215   3.920   5.170  0.2584 -0.8217  0.2169
 5586SOL    HW228221   2.132   4.035   5.216  0.5873 -0.0565 -1.2448
 5587SOL     OW28222   0.310   1.707   2.491  0.1079 -0.3632  0.3148
 5587SOL    HW128223   0.239   1.771   2.490 -1.0477 -1.6636  0.3820
 5587SOL    HW228224   0.380   1.753   2.539 -1.0154  0.2040  1.4038
 5588SOL     OW28225   3.085   0.979   1.123 -0.2318 -0.1879  0.9614
 5588SOL    HW128226   3.165   0.985   1.175  0.0210  1.1701  0.4072
 5588SOL    HW228227   3.021   0.967   1.193  1.3772 -0.1928  2.4234
 5589SOL     OW28228   0.107   4.595   9.980  0.1618 -0.3879  0.1870
 5589SOL    HW128229   0.087   4.569  10.070  2.5734  0.7111  1.0369
 5589SOL    HW228230   0.202   4.590   9.985  0.3358  1.3746 -1.1280
 5590SOL     OW28231   0.317   3.826  16.882  0.0248  1.2195 -0.0988
 5590SOL    HW128232   0.303   3.903  16.938  0.2142  2.4045 -1.6785
 5590SOL    HW228233   0.269   3.764  16.936  0.2622  1.1757  0.0632
 5591SOL     OW28234   3.072   0.111   1.431 -0.0551  0.5122  0.2468
 5591SOL    HW128235   3.155   0.139   1.392  0.1700  2.4831  2.1350
 5591SOL    HW228236   3.018   0.081   1.357  0.5905  2.2218 -0.9193
 5592SOL     OW28237   3.135   2.880   4.456  0.0559 -0.3055 -0.2250
 5592SOL    HW128238   3.180   2.961   4.480  1.7298 -0.8590 -1.5344
 5592SOL    HW228239   3.210   2.824   4.478  0.3801  0.2203  0.0270
 5593SOL     OW28240   4.383   0.243   8.573  0.1501  0.4013 -0.5532
 5593SOL    HW128241   4.359   0.311   8.510 -2.4779  0.1329  0.1801
 5593SOL    HW228242   4.410   0.170   8.516 -2.4559 -0.7919 -0.2308
 5594SOL     OW28243   1.807   0.579   7.899 -0.1300 -0.2457 -1.1876
 5594SOL    HW128244   1.826   0.494   7.939 -1.4411 -0.2278 -0.5445
 5594SOL    HW228245   1.824   0.634   7.975  0.2038  1.0759 -2.2003
 5595SOL     OW28246   4.447   1.047   5.713  0.0423 -0.1311  0.3685
 5595SOL    HW128247   4.492   0.966   5.689 -0.5823  0.0378 -1.3602
 5595SOL    HW228248   4.523   1.104   5.701  1.1362 -1.7449 -0.4004
 5596SOL     OW28249   4.079   2.464  10.852  1.0515  0.1174 -0.0855
 5596SOL    HW128250   4.036   2.420  10.778 -0.2290  1.4898 -0.1468
 5596SOL    HW228251   3.999   2.499  10.892  0.6972  1.2601 -1.8120
 5597SOL     OW28252   2.348   2.204   4.920 -0.0625  0.5338 -0.4250
 5597SOL    HW128253   2.362   2.259   4.997  0.8772 -0.0562 -0.1772
 5597SOL    HW228254   2.415   2.138   4.939 -1.4795 -0.5425  0.8502
 5598SOL     OW28255   4.597   0.862   9.967 -0.3011 -0.4427 -0.0398
 5598SOL    HW128256   4.599   0.921  10.042 -3.0131 -0.1953 -0.1552
 5598SOL    HW228257   4.604   0.921   9.892 -0.9713  0.3517  0.5342
 5599SOL     OW28258   3.097   0.033  13.572 -0.1372  0.3068 -0.2353
 5599SOL    HW128259   3.168   0.094  13.593  0.4292  0.3912 -2.3530
 5599SOL    HW228260   3.108   4.699  13.648 -1.2615 -0.4693 -0.6637
 5600SOL     OW28261   0.523   1.021   5.543  0.7060  0.0440 -0.3395
 5600SOL    HW128262   0.614   1.033   5.516  0.5507 -0.1266 -0.9341
 5600SOL    HW228263   0.478   1.096   5.506 -0.6487 -0.0610  1.0982
 5601SOL     OW28264   2.317   3.628   4.980  0.0590  0.6966  0.1999
 5601SOL    HW128265   2.378   3.585   4.921 -1.9505 -0.9347 -0.6927
 5601SOL    HW228266   2.294   3.551   5.032  2.0088 -0.4644 -0.6736
 5602SOL     OW28267   1.554   1.490   7.008  0.2216  0.2673 -0.1808
 5602SOL    HW128268   1.483   1.545   6.973  0.9049  0.5755 -1.0853
 5602SOL    HW228269   1.511   1.423   7.062 -0.2319  0.4487 -0.3098
 5603SOL     OW28270   1.646   3.652   5.551 -0.3254  0.1237 -0.1572
 5603SOL    HW128271   1.659   3.710   5.626  2.0444  1.0167 -1.2558
 5603SOL    HW228272   1.719   3.593   5.569  0.4132  0.7633 -1.0935
 5604SOL     OW28273   0.601   4.227   7.810  0.1705 -0.1478  0.4938
 5604SOL    HW128274   0.545   4.256   7.882  0.5174  0.5962  0.4650
 5604SOL    HW228275   0.686   4.204   7.849  2.3491  2.9716 -2.4224
 5605SOL     OW28276   4.461   1.052  11.286 -0.6329  0.6397  0.0260
 5605SOL    HW128277   4.474   0.961  11.311  0.3793  0.4535 -1.1831
 5605SOL    HW228278   4.531   1.095  11.335  0.9732 -0.4605 -1.3238
 5606SOL     OW28279   3.551   0.264  12.209 -0.1362  0.2011  0.1279
 5606SOL    HW128280   3.627   0.265  12.150  0.5287 -2.1164  0.9538
 5606SOL    HW228281   3.535   0.170  12.212  1.7155 -0.1990 -2.5915
 5607SOL     OW28282   2.824   2.585   5.641 -0.3190  0.0740  0.4045
 5607SOL    HW128283   2.862   2.652   5.583 -0.5579  2.0442  2.5469
 5607SOL    HW228284   2.892   2.521   5.660  1.8528  2.3089  0.1944
 5608SOL     OW28285   0.232   3.684   5.146  0.1776 -0.3030 -0.0341
 5608SOL    HW128286   0.204   3.754   5.087 -2.6678 -1.9901 -0.7053
 5608SOL    HW228287   0.277   3.618   5.093  1.7391  1.0199 -0.3608
 5609SOL     OW28288   4.653   1.154   8.082  0.1075  0.4243  0.1162
 5609SOL    HW128289   4.683   1.064   8.096 -0.5244  0.0800 -0.7407
 5609SOL    HW228290   4.605   1.138   8.000  1.4126  1.9601 -0.9515
 5610SOL     OW28291   1.811   1.982   2.828 -0.1839 -0.5129 -0.0827
 5610SOL    HW128292   1.852   1.910   2.780  2.6945  0.5301  0.8318
 5610SOL    HW228293   1.850   1.983   2.915  0.3643  0.7880 -0.3468
 5611SOL     OW28294   0.438   2.671   3.136  0.2080 -0.1633  0.2705
 5611SOL    HW128295   0.390   2.656   3.055 -0.5470  2.6750  0.1814
 5611SOL    HW228296   0.506   2.605   3.126 -0.1959 -0.2878 -1.5332
 5612SOL     OW28297   1.834   3.832   8.866 -0.3720 -0.0134 -0.2258
 5612SOL    HW128298   1.893   3.837   8.790 -0.9988 -0.7341 -0.7628
 5612SOL    HW228299   1.849   3.913   8.914 -1.0787 -1.1419  1.8967
 5613SOL     OW28300   0.620   1.936  13.987 -0.2102  0.3630  0.2967
 5613SOL    HW128301   0.685   1.908  14.052 -0.1765 -1.5312 -0.5739
 5613SOL    HW228302   0.616   2.029  14.008  0.2238 -0.0300  2.1275
 5614SOL     OW28303   1.733   2.584   8.076 -0.6951  0.4284  0.0168
 5614SOL    HW128304   1.656   2.607   8.025 -0.7550 -0.6582 -0.3956
 5614SOL    HW228305   1.792   2.546   8.011 -0.2695  0.9750  0.0908
 5615SOL     OW28306   3.403   3.111   6.616  0.5286 -0.1822 -0.3748
 5615SOL    HW128307   3.457   3.044   6.658  1.5880  0.2167 -1.1051
 5615SOL    HW228308   3.325   3.110   6.671  0.6793  1.5382 -0.1419
 5616SOL     OW28309   2.023   4.266  12.797  0.6904 -0.3055  0.0385
 5616SOL    HW128310   1.937   4.247  12.836  0.2674 -0.5783 -1.0245
 5616SOL    HW228311   2.012   4.361  12.793 -4.0601 -0.6966  3.1186
 5617SOL     OW28312   1.340   0.949   8.192  0.3734 -0.1087 -0.0442
 5617SOL    HW128313   1.331   1.027   8.247  0.9189 -0.7073  0.8873
 5617SOL    HW228314   1.309   0.886   8.256 -1.0462  0.4649 -0.1668
 5618SOL     OW28315   2.324   0.535   1.822  0.1099  0.2707  0.8440
 5618SOL    HW128316   2.329   0.556   1.729  1.1232 -3.5407  0.0529
 5618SOL    HW228317   2.387   0.466   1.841 -0.9383 -1.4891 -2.1960
 5619SOL     OW28318   3.325   1.263  13.093 -0.1032 -0.4763 -0.1970
 5619SOL    HW128319   3.293   1.230  13.009  0.5298  1.3818 -1.1680
 5619SOL    HW228320   3.254   1.327  13.105 -0.5537 -1.4324  2.1023
 5620SOL     OW28321   3.655   1.381   3.071 -0.3507  0.5130 -0.1971
 5620SOL    HW128322   3.686   1.321   3.004 -3.4914 -0.4367 -0.8049
 5620SOL    HW228323   3.727   1.443   3.082  0.1460  0.2395 -1.9588
 5621SOL     OW28324   3.368   4.250   6.867  0.4589  0.7028 -0.1711
 5621SOL    HW128325   3.289   4.206   6.834 -0.0106  1.5783 -0.1971
 5621SOL    HW228326   3.400   4.192   6.937 -0.4795  0.3700 -0.0018
 5622SOL     OW28327   1.876   3.932   6.357 -0.2955 -0.1566  0.2911
 5622SOL    HW128328   1.925   4.013   6.364  0.0624 -0.5603  2.5392
 5622SOL    HW228329   1.948   3.869   6.351  0.9500  1.2764  0.1561
 5623SOL     OW28330   2.086   3.472   8.647 -0.4143 -0.3681  0.6769
 5623SOL    HW128331   2.134   3.390   8.661  1.2635  0.4855 -0.0030
 5623SOL    HW228332   2.144   3.509   8.581 -1.3406 -0.3191 -0.1076
 5624SOL     OW28333   4.347   4.092   8.398  0.5220  0.4256 -0.1535
 5624SOL    HW128334   4.320   4.008   8.359  0.5772  0.4902 -0.3327
 5624SOL    HW228335   4.281   4.147   8.355 -2.6965 -2.6930  0.7373
 5625SOL     OW28336   3.965   0.313  11.747 -0.2826  0.0896 -0.1597
 5625SOL    HW128337   3.898   0.292  11.811 -0.7730  0.5752 -0.5171
 5625SOL    HW228338   3.920   0.300  11.663 -2.6505 -2.9926  1.5911
 5626SOL     OW28339   4.075   4.041   0.115  0.1335  0.0291 -0.1666
 5626SOL    HW128340   4.161   4.075   0.141 -0.3839  0.6887  0.6815
 5626SOL    HW228341   4.091   4.022   0.022 -1.9456  1.6424 -0.8626
 5627SOL     OW28342   1.370   1.301   5.053 -0.5610  0.3319 -0.4491
 5627SOL    HW128343   1.344   1.347   5.133 -1.2579  2.1912 -1.7502
 5627SOL    HW228344   1.350   1.209   5.071  2.1970 -0.1344  0.2421
 5628SOL     OW28345   2.381   1.342   7.545  0.1074  0.3207 -0.5918
 5628SOL    HW128346   2.424   1.305   7.622 -2.3329  0.0164  0.6586
 5628SOL    HW228347   2.451   1.378   7.491  1.0605 -1.3913 -0.4929
 5629SOL     OW28348   4.350   4.695   5.185  0.6883 -0.3393 -0.6652
 5629SOL    HW128349   4.396   4.645   5.252 -1.1034 -0.8433  0.2122
 5629SOL    HW228350   4.316   0.037   5.246 -0.2928 -1.3517 -0.1337
 5630SOL     OW28351   2.138   2.375   7.579  0.2947  0.0995 -0.3775
 5630SOL    HW128352   2.133   2.354   7.673  0.6734  0.2639 -0.3199
 5630SOL    HW228353   2.080   2.451   7.577  0.1984  0.1345  2.9212
 5631SOL     OW28354   2.150   1.653   7.934 -0.0514  0.5363  0.2409
 5631SOL    HW128355   2.158   1.653   8.029  2.5355 -1.4305  0.0149
 5631SOL    HW228356   2.210   1.584   7.904  0.9296  0.4572  2.3623
 5632SOL     OW28357   3.576   3.241   5.859  0.9486 -0.2727 -0.0386
 5632SOL    HW128358   3.562   3.199   5.944  0.3187  0.2078  0.0949
 5632SOL    HW228359   3.664   3.273   5.875  0.4725  1.7451 -1.4618
 5633SOL     OW28360   4.592   3.226  11.411 -0.7295  0.4922 -0.4341
 5633SOL    HW128361   4.658   3.250  11.477 -0.5483 -0.3776 -0.2892
 5633SOL    HW228362   4.642   3.151  11.377  1.2101  0.7072  1.8902
 5634SOL     OW28363   3.725   0.940  16.145  0.0575  0.8323 -0.3138
 5634SOL    HW128364   3.702   0.990  16.224 -2.7718 -0.4087 -0.3446
 5634SOL    HW228365   3.819   0.955  16.153  0.4609 -1.2438 -1.1832
 5635SOL     OW28366   4.397   1.185  13.687 -0.1639  0.2327  0.0197
 5635SOL    HW128367   4.404   1.246  13.613  2.6023  0.0970  0.1560
 5635SOL    HW228368   4.305   1.168  13.707 -0.2924 -0.7088 -1.3815
 5636SOL     OW28369   2.501   1.338   5.334  0.3425  0.1897 -0.1094
 5636SOL    HW128370   2.431   1.286   5.294  0.0099 -1.0503  2.0814
 5636SOL    HW228371   2.476   1.341   5.426  0.6202 -1.8003  0.0486
 5637SOL     OW28372   2.466   2.492   8.968 -0.7548 -0.0715 -0.2657
 5637SOL    HW128373   2.408   2.423   9.000  0.7408 -1.9109 -1.5010
 5637SOL    HW228374   2.542   2.476   9.024 -0.4948 -1.2015 -0.9455
 5638SOL     OW28375   2.936   1.625   3.731 -0.2319  0.1842 -0.4717
 5638SOL    HW128376   3.030   1.635   3.716  0.0164  1.1083  1.6306
 5638SOL    HW228377   2.918   1.719   3.742  0.2760  0.0304  1.6702
 5639SOL     OW28378   2.800   1.716   7.966  0.0133 -0.1184  0.3644
 5639SOL    HW128379   2.817   1.773   8.042  3.0324  0.9219 -1.0994
 5639SOL    HW228380   2.735   1.662   8.011  1.0041  0.4883  2.5449
 5640SOL     OW28381   0.595   3.303   7.538  0.1783  0.4575 -0.0653
 5640SOL    HW128382   0.681   3.335   7.513 -0.4599  0.6769 -1.9773
 5640SOL    HW228383   0.586   3.336   7.628 -2.8095  2.3703 -1.0392
 5641SOL     OW28384   2.544   0.515   2.787  0.0251 -0.0401  0.3092
 5641SOL    HW128385   2.515   0.596   2.747 -0.0748 -0.1273  0.2045
 5641SOL    HW228386   2.492   0.448   2.743 -0.6219  1.2892 -0.9416
 5642SOL     OW28387   0.269   0.430   4.304 -0.9028 -0.6024  0.1018
 5642SOL    HW128388   0.351   0.413   4.350  0.1528 -1.3618 -2.0622
 5642SOL    HW228389   0.282   0.375   4.227  2.6132 -1.0367  1.0218
 5643SOL     OW28390   0.724   3.348  15.006 -0.1499  0.3311  0.4857
 5643SOL    HW128391   0.767   3.280  14.954 -0.9013  1.5739 -1.8013
 5643SOL    HW228392   0.802   3.398  15.029  0.9141 -0.5539 -1.1785
 5644SOL     OW28393   1.161   0.241   6.208 -0.1072 -0.1071 -0.2248
 5644SOL    HW128394   1.256   0.238   6.199 -0.2153 -0.6967 -1.1507
 5644SOL    HW228395   1.148   0.189   6.287  0.1157 -0.0794 -0.1708
 5645SOL     OW28396   2.131   0.996  10.085 -0.2867 -0.5494 -0.4407
 5645SOL    HW128397   2.158   1.062  10.148  0.4386 -0.3294 -0.9767
 5645SOL    HW228398   2.214   0.950  10.073 -0.0771 -0.3184  0.1309
 5646SOL     OW28399   1.112   1.443   2.972  0.2931  0.4194 -0.2211
 5646SOL    HW128400   1.146   1.528   2.947 -0.2638  0.2928 -1.3882
 5646SOL    HW228401   1.017   1.453   2.973  0.1560 -0.9909  1.4326
 5647SOL     OW28402   1.607   2.116   5.182 -0.0275 -0.4757 -0.3092
 5647SOL    HW128403   1.537   2.081   5.126 -1.0288  0.3951  0.4006
 5647SOL    HW228404   1.565   2.130   5.267 -1.7966  1.4212 -1.4889
 5648SOL     OW28405   1.954   1.807   4.028 -0.4439 -0.4892 -0.2223
 5648SOL    HW128406   1.966   1.789   3.935 -0.1554  0.6670 -0.4195
 5648SOL    HW228407   1.868   1.850   4.026  0.3890  1.1723 -0.8670
 5649SOL     OW28408   1.901   4.634   3.724  0.0925  0.2244  0.1016
 5649SOL    HW128409   1.974   4.608   3.668 -0.6014 -0.8816 -0.3036
 5649SOL    HW228410   1.923   4.717   3.765  1.1071  0.2265 -0.4572
 5650SOL     OW28411   2.054   3.626   6.174 -0.5065 -0.4428  0.3369
 5650SOL    HW128412   2.084   3.690   6.109  0.0355 -0.4719  0.5618
 5650SOL    HW228413   2.124   3.560   6.170  0.9062  1.1192 -0.7488
 5651SOL     OW28414   3.629   1.070  12.712  0.2788  0.1591  0.4649
 5651SOL    HW128415   3.570   1.090  12.785  0.3084  3.3406 -0.3872
 5651SOL    HW228416   3.580   1.088  12.632 -3.2421  0.6475  2.7403
 5652SOL     OW28417   2.521   3.920   7.665  0.1241  0.2780  0.0945
 5652SOL    HW128418   2.457   3.991   7.663 -0.9093 -0.6100  1.6682
 5652SOL    HW228419   2.540   3.901   7.573  0.4822 -0.0467  0.2374
 5653SOL     OW28420   3.292   3.394   4.008  0.0181 -0.2103 -0.6773
 5653SOL    HW128421   3.329   3.463   3.952 -1.6279 -0.6257 -2.2768
 5653SOL    HW228422   3.208   3.377   3.966 -0.0262 -1.0555 -0.2253
 5654SOL     OW28423   2.138   0.473   0.679  0.1901 -0.3187 -0.5776
 5654SOL    HW128424   2.202   0.531   0.720 -0.2208 -0.3805  0.1387
 5654SOL    HW228425   2.173   0.478   0.589  1.7639  0.4778  0.0754
 5655SOL     OW28426   2.363   3.631   5.494 -0.0942 -0.3385  0.2426
 5655SOL    HW128427   2.320   3.690   5.432  0.6309 -1.1945 -1.0755
 5655SOL    HW228428   2.306   3.554   5.493  0.3076 -0.6171 -1.8226
 5656SOL     OW28429   0.677   1.299   6.386  0.2902  0.8503 -0.0928
 5656SOL    HW128430   0.651   1.354   6.312 -2.2408  0.1221  0.2284
 5656SOL    HW228431   0.615   1.319   6.456 -0.7123 -2.1113 -0.1596
 5657SOL     OW28432   4.110   3.597   7.599 -0.5894 -0.5995 -0.5397
 5657SOL    HW128433   4.125   3.545   7.520  1.3896 -2.2568  0.9183
 5657SOL    HW228434   4.191   3.593   7.650 -0.2619 -0.1556 -1.0298
 5658SOL     OW28435   4.504   1.049   6.581 -0.4797  0.4147  0.1934
 5658SOL    HW128436   4.448   1.041   6.504  2.3328 -0.0576 -1.8359
 5658SOL    HW228437   4.538   1.139   6.580  0.4930  0.0472  1.2443
 5659SOL     OW28438   4.039   2.999   6.553  0.1443  0.1411  0.6708
 5659SOL    HW128439   3.944   3.010   6.546 -0.1166 -1.7838  1.1520
 5659SOL    HW228440   4.043   2.937   6.480 -0.3031 -0.8750  1.5111
 5660SOL     OW28441   1.313   2.731   4.029  0.0348 -0.1828 -0.1955
 5660SOL    HW128442   1.373   2.806   4.031  0.6753 -0.6904 -0.2102
 5660SOL    HW228443   1.239   2.750   3.973 -0.0021 -1.9356 -0.7616
 5661SOL     OW28444   0.067   2.751   6.612 -0.2864 -0.2220  0.1274
 5661SOL    HW128445   0.131   2.714   6.673 -1.3812 -1.8347  0.2823
 5661SOL    HW228446   0.069   2.692   6.536 -0.1198 -1.1452  0.8571
 5662SOL     OW28447   0.835   0.873  16.779  0.1235  0.2993 -0.0639
 5662SOL    HW128448   0.893   0.886  16.704  0.2119  0.9710  0.1178
 5662SOL    HW228449   0.753   0.909  16.746 -0.0837 -1.1492 -1.1025
 5663SOL     OW28450   3.244   4.377   7.222 -0.2900 -0.2430  0.2944
 5663SOL    HW128451   3.280   4.314   7.160 -1.2524  0.8053 -1.3263
 5663SOL    HW228452   3.152   4.379   7.199 -0.2405  0.2939  0.1530
 5664SOL     OW28453   4.391   0.149   1.976 -0.1026 -0.2530  0.7770
 5664SOL    HW128454   4.422   0.072   1.927 -0.8280 -0.4789  0.6692
 5664SOL    HW228455   4.303   0.132   2.012 -0.4871 -0.0069 -0.0380
 5665SOL     OW28456   3.683   2.201   6.946  0.1881  0.8308  0.3889
 5665SOL    HW128457   3.634   2.248   6.878 -1.5574 -2.6705 -0.7663
 5665SOL    HW228458   3.614   2.158   6.997 -0.1150  2.3945  1.2786
 5666SOL     OW28459   0.699   0.250   0.183 -0.2912  0.3762 -0.1060
 5666SOL    HW128460   0.695   0.225   0.090 -0.6163 -1.4147  0.3928
 5666SOL    HW228461   0.607   0.271   0.196 -0.0415  1.6396 -0.3402
 5667SOL     OW28462   2.678   0.838   4.601 -0.9082 -0.0944 -0.5549
 5667SOL    HW128463   2.626   0.895   4.659 -0.2545  0.1386 -0.1971
 5667SOL    HW228464   2.688   0.893   4.523  2.0947 -0.6112 -0.5417
 5668SOL     OW28465   4.112   0.625   4.495 -0.2628  0.1195  0.3388
 5668SOL    HW128466   4.137   0.614   4.587  1.7591  0.3799 -0.1786
 5668SOL    HW228467   4.147   0.712   4.479 -0.9813  0.4480  0.5554
 5669SOL     OW28468   2.883   0.989   7.302 -0.2295 -0.3449 -0.2257
 5669SOL    HW128469   2.830   1.066   7.324 -1.7557 -1.7930  1.1147
 5669SOL    HW228470   2.947   1.037   7.249 -2.0892  1.4263 -0.8815
 5670SOL     OW28471   0.257   0.800   3.056  0.3508 -0.0314 -0.2206
 5670SOL    HW128472   0.223   0.719   3.018  1.8175 -0.4291 -0.7029
 5670SOL    HW228473   0.340   0.758   3.079 -1.0306 -0.2759  4.1933
 5671SOL     OW28474   4.354   1.275   8.398  0.1717  0.1496 -0.0292
 5671SOL    HW128475   4.341   1.255   8.490  1.1019  0.7996  0.2515
 5671SOL    HW228476   4.290   1.223   8.350 -1.0014 -0.4941  2.2320
 5672SOL     OW28477   1.924   3.064   0.912  0.2015 -0.3023 -0.1846
 5672SOL    HW128478   1.935   2.986   0.966  0.1066 -1.1843 -1.4408
 5672SOL    HW228479   2.002   3.113   0.940 -0.7721  1.9365 -1.4069
 5673SOL     OW28480   2.183   3.941   6.377 -0.4398  0.2599 -0.0151
 5673SOL    HW128481   2.214   3.976   6.460 -1.2467 -3.8165  2.0206
 5673SOL    HW228482   2.264   3.923   6.328  0.0646 -2.1493  1.6977
 5674SOL     OW28483   1.228   0.722   4.403 -0.4571  0.1448 -0.2144
 5674SOL    HW128484   1.173   0.704   4.327  0.9081 -0.0099 -1.1562
 5674SOL    HW228485   1.159   0.726   4.470 -0.7951  0.4708 -0.5843
 5675SOL     OW28486   0.405   3.705   3.040  0.3169  0.4494 -0.1939
 5675SOL    HW128487   0.335   3.658   2.995  0.7374  0.0051 -0.3863
 5675SOL    HW228488   0.414   3.658   3.123  0.0381  2.4664  0.9740
 5676SOL     OW28489   2.219   3.706  11.951  0.0632  0.6796  0.2780
 5676SOL    HW128490   2.252   3.618  11.970  0.7223  1.0717  0.9913
 5676SOL    HW228491   2.126   3.688  11.962  0.3377 -1.3145 -0.8184
 5677SOL     OW28492   3.956   0.320   5.081  0.7117 -0.6000  0.0573
 5677SOL    HW128493   3.936   0.232   5.049 -2.0253  1.0038 -2.6310
 5677SOL    HW228494   3.995   0.355   5.001 -1.7870  1.5099 -0.2154
 5678SOL     OW28495   1.976   3.641  12.072  0.4622  0.3605 -0.3233
 5678SOL    HW128496   1.960   3.572  12.007  0.2842  1.6053 -1.6139
 5678SOL    HW228497   1.897   3.693  12.058  1.2843  1.4147 -1.0454
 5679SOL     OW28498   0.683   1.896   3.684 -0.2079 -0.0878  0.6919
 5679SOL    HW128499   0.714   1.892   3.594 -1.7006  0.8585  0.1321
 5679SOL    HW228500   0.599   1.934   3.658  0.7595  0.6839 -1.3201
 5680SOL     OW28501   3.835   2.445   2.914 -0.2588  0.5657 -0.5428
 5680SOL    HW128502   3.754   2.399   2.892 -2.2320  2.1762  3.3672
 5680SOL    HW228503   3.874   2.459   2.828 -0.5948  0.2042 -0.7556
 5681SOL     OW28504   1.704   2.503   7.762 -0.2332  0.0611 -0.5110
 5681SOL    HW128505   1.724   2.431   7.702 -1.7769  0.2840 -1.2805
 5681SOL    HW228506   1.689   2.577   7.703 -1.5875 -0.0704 -0.3323
 5682SOL     OW28507   0.977   3.391   9.477 -0.2368  0.6108  0.9178
 5682SOL    HW128508   0.982   3.414   9.384  0.2797 -0.6452  0.6287
 5682SOL    HW228509   0.947   3.476   9.509  0.8372  1.0573  0.7536
 5683SOL     OW28510   2.639   0.707  10.729 -0.0764  0.1972  0.8148
 5683SOL    HW128511   2.560   0.652  10.736 -0.1166  0.2517  0.7891
 5683SOL    HW228512   2.689   0.656  10.666  1.1556 -2.0367  3.5681
 5684SOL     OW28513   2.772   3.378   7.808 -0.0343  0.1742 -0.5839
 5684SOL    HW128514   2.697   3.344   7.760 -1.9579  2.0194  1.1056
 5684SOL    HW228515   2.767   3.314   7.880 -0.0882  0.5996 -0.2114
 5685SOL     OW28516   1.059   1.794   4.226 -0.5286  0.4188  0.4184
 5685SOL    HW128517   1.126   1.762   4.287 -0.8481  0.7106  0.9211
 5685SOL    HW228518   1.116   1.843   4.167 -1.3105  0.9111  0.0797
 5686SOL     OW28519   3.851   0.842  11.630  0.7719 -0.4415  0.7559
 5686SOL    HW128520   3.803   0.761  11.649  0.9237 -0.7095 -0.0077
 5686SOL    HW228521   3.936   0.836  11.674  0.2401  0.4814  1.9169
 5687SOL     OW28522   4.354   4.671   8.405  0.3699  0.3401 -0.7261
 5687SOL    HW128523   4.447   4.672   8.428 -0.4761  1.0886  2.6485
 5687SOL    HW228524   4.372   4.631   8.320  0.1346  0.3081 -0.7620
 5688SOL     OW28525   2.469   1.420   3.657 -0.0344 -0.5755 -0.2643
 5688SOL    HW128526   2.427   1.452   3.577 -1.5802 -1.8464  0.0252
 5688SOL    HW228527   2.560   1.449   3.651 -0.6340  1.3756  0.4358
 5689SOL     OW28528   4.120   3.883   7.027  0.4213 -0.4389 -0.3766
 5689SOL    HW128529   4.132   3.863   6.934 -1.5392 -0.3477 -0.6470
 5689SOL    HW228530   4.211   3.896   7.054  0.6243 -1.6350 -0.4795
 5690SOL     OW28531   0.359   0.007   7.743  0.8603  0.4637  0.4323
 5690SOL    HW128532   0.361   4.635   7.746 -0.5116  0.4129  0.1167
 5690SOL    HW228533   0.453   0.024   7.743  1.3851 -2.3933 -0.8976
 5691SOL     OW28534   0.218   0.521  10.257 -0.0298  0.6738  0.2174
 5691SOL    HW128535   0.157   0.589  10.230 -1.4725 -1.1305 -1.1109
 5691SOL    HW228536   0.283   0.561  10.315  1.8443  0.0474 -1.4600
 5692SOL     OW28537   0.917   1.287   2.330  0.6118 -0.3646 -0.2969
 5692SOL    HW128538   0.911   1.289   2.234 -0.1229 -0.6895 -0.2571
 5692SOL    HW228539   0.870   1.368   2.351  0.6188  0.1096 -2.0700
 5693SOL     OW28540   2.783   0.231   0.438  0.2336  0.0981  0.1422
 5693SOL    HW128541   2.819   0.296   0.499 -0.6691  0.6322  0.1228
 5693SOL    HW228542   2.786   0.152   0.491 -1.2747 -1.3407 -1.9124
 5694SOL     OW28543   3.123   3.486   5.771  0.1334  0.7504 -0.6761
 5694SOL    HW128544   3.132   3.400   5.730  2.5287  0.6247  0.1112
 5694SOL    HW228545   3.216   3.507   5.767 -0.6733  4.0487 -1.7560
 5695SOL     OW28546   0.195   0.614   0.010 -0.0143 -0.1478  0.1612
 5695SOL    HW128547   0.255   0.557   0.058 -1.7757 -1.8229  0.3260
 5695SOL    HW228548   0.219   0.596  17.614 -0.4657 -0.7421  0.1634
 5696SOL     OW28549   3.059   1.226   6.637  0.5618 -0.1360 -0.7263
 5696SOL    HW128550   3.026   1.304   6.680 -0.7059 -0.9242 -0.2683
 5696SOL    HW228551   3.013   1.235   6.554 -0.3185  1.0438 -0.1134
 5697SOL     OW28552   2.648   3.153   7.388 -0.0740  0.1597  0.6465
 5697SOL    HW128553   2.588   3.220   7.356  0.5107  1.5204  2.3696
 5697SOL    HW228554   2.726   3.182   7.340  0.0877 -0.3873  0.5832
 5698SOL     OW28555   0.341   3.215  16.106 -0.3228 -0.1996  0.1543
 5698SOL    HW128556   0.432   3.188  16.111 -0.0219  1.0551  1.5321
 5698SOL    HW228557   0.295   3.132  16.089  2.9223 -1.9179 -0.2384
 5699SOL     OW28558   0.359   3.638   6.731 -0.1050  0.5956 -0.3777
 5699SOL    HW128559   0.362   3.703   6.801 -0.3461  1.5347 -1.2449
 5699SOL    HW228560   0.274   3.594   6.735 -0.1463  0.6047 -1.1003
 5700SOL     OW28561   4.320   4.180   6.183  0.2535 -0.1966  0.8313
 5700SOL    HW128562   4.302   4.122   6.257  1.7528  0.4687  1.7215
 5700SOL    HW228563   4.284   4.140   6.105  2.2620 -1.6127  0.6279
 5701SOL     OW28564   0.974   3.400  15.082  0.7264 -0.5987 -0.2741
 5701SOL    HW128565   1.023   3.477  15.053 -1.7002  1.4859  1.1162
 5701SOL    HW228566   1.033   3.326  15.064 -0.5393 -1.5068 -0.6896
 5702SOL     OW28567   2.874   3.657   5.087 -0.0006  0.7996 -0.0047
 5702SOL    HW128568   2.867   3.713   5.164 -0.1330  2.7299 -1.3968
 5702SOL    HW228569   2.804   3.595   5.105  0.9382 -0.2948 -0.1452
 5703SOL     OW28570   1.398   2.918   6.962 -0.0809 -0.5076  0.2208
 5703SOL    HW128571   1.434   2.830   6.951 -0.9661 -1.0524  1.5935
 5703SOL    HW228572   1.458   2.976   6.915  0.6911  0.4191  2.3292
 5704SOL     OW28573   2.306   3.605   9.640  0.0518 -0.5511 -0.0041
 5704SOL    HW128574   2.318   3.522   9.596 -2.1768 -0.5553 -0.6099
 5704SOL    HW228575   2.253   3.578   9.715 -0.2821  0.4815  0.1372
 5705SOL     OW28576   3.797   2.552   9.029  0.4276  0.2696 -0.4344
 5705SOL    HW128577   3.764   2.636   8.999 -0.6882  0.2896  0.8498
 5705SOL    HW228578   3.771   2.559   9.121  1.2682 -5.1766  0.2207
 5706SOL     OW28579   3.609   3.034   2.542  0.3055 -0.0204 -0.2035
 5706SOL    HW128580   3.679   3.099   2.533  0.0276  0.4284  1.0188
 5706SOL    HW228581   3.529   3.068   2.580 -0.3656 -0.6132 -1.0903
 5707SOL     OW28582   0.282   4.040  15.077 -0.1927 -0.3788  0.0658
 5707SOL    HW128583   0.201   4.088  15.095  0.6512  0.3297  1.9523
 5707SOL    HW228584   0.344   4.091  15.128  1.7503 -1.8765 -0.7991
 5708SOL     OW28585   0.382   2.397   5.237  0.2359  0.0758 -0.0261
 5708SOL    HW128586   0.393   2.309   5.202 -0.4923  0.2867 -0.7699
 5708SOL    HW228587   0.313   2.376   5.300  0.2591  1.7536  0.5831
 5709SOL     OW28588   1.122   1.122   3.959 -0.4428 -0.0292 -0.3670
 5709SOL    HW128589   1.114   1.196   3.898  2.2321  0.2978 -0.3077
 5709SOL    HW228590   1.071   1.163   4.029 -1.2017  1.1723 -1.6071
 5710SOL     OW28591   2.666   4.270  12.564 -0.1387  0.4427 -0.6432
 5710SOL    HW128592   2.597   4.309  12.619 -0.3567 -0.8373 -0.0179
 5710SOL    HW228593   2.742   4.327  12.576  0.3830  0.1907 -2.7916
 5711SOL     OW28594   1.189   0.165   8.834  0.0325 -0.6929  0.1853
 5711SOL    HW128595   1.268   0.208   8.868 -1.1171  1.5692 -0.0379
 5711SOL    HW228596   1.131   0.163   8.911 -1.2277 -1.2864 -0.7818
 5712SOL     OW28597   2.752   1.215   6.142 -0.2112 -0.4555  0.2953
 5712SOL    HW128598   2.756   1.308   6.121  1.1956 -0.5942 -0.0032
 5712SOL    HW228599   2.844   1.191   6.148 -0.5030 -1.4682  0.8189
 5713SOL     OW28600   1.263   1.408   8.409 -0.4603  0.9722 -0.0146
 5713SOL    HW128601   1.230   1.491   8.444  2.1028  2.0436 -0.1157
 5713SOL    HW228602   1.347   1.403   8.454 -1.0400 -0.8024  0.8469
 5714SOL     OW28603   3.503   4.004   5.258  0.9211  0.1614  0.0751
 5714SOL    HW128604   3.475   4.022   5.168  2.1629  0.0442 -0.3454
 5714SOL    HW228605   3.494   3.909   5.258 -0.6308  0.3068  2.3761
 5715SOL     OW28606   3.570   3.452  14.515  0.1675  0.1195 -1.0180
 5715SOL    HW128607   3.599   3.363  14.499 -2.2943 -0.5125 -1.7898
 5715SOL    HW228608   3.509   3.429  14.584  0.0933 -0.3341 -1.2380
 5716SOL     OW28609   4.116   1.995   0.162 -0.6328  0.2503  0.4763
 5716SOL    HW128610   4.107   2.089   0.180  0.9297  0.4554  0.1985
 5716SOL    HW228611   4.077   1.990   0.075  0.8122 -0.4161 -0.1294
 5717SOL     OW28612   1.569   1.735   5.260 -0.0036 -0.0461 -0.2966
 5717SOL    HW128613   1.536   1.777   5.181 -2.6404  0.4511  1.0563
 5717SOL    HW228614   1.662   1.757   5.255 -0.2701  1.2444  0.5461
 5718SOL     OW28615   1.492   1.018   4.420  0.0828 -0.0998 -0.7252
 5718SOL    HW128616   1.576   1.001   4.377 -0.2117  2.3713 -2.2503
 5718SOL    HW228617   1.430   1.007   4.348  0.2301 -0.7035 -0.7588
 5719SOL     OW28618   0.252   0.548  13.884 -0.6944 -0.2406  0.3950
 5719SOL    HW128619   0.173   0.555  13.937 -0.7226 -0.3862  0.3718
 5719SOL    HW228620   0.225   0.489  13.815 -1.5796 -1.0684  1.4492
 5720SOL     OW28621   2.185   2.990   8.527 -0.2575  0.2644  0.2504
 5720SOL    HW128622   2.238   3.043   8.467  0.0841  0.6686  0.9158
 5720SOL    HW228623   2.176   2.907   8.480  0.9126 -0.2429  0.9378
 5721SOL     OW28624   1.464   1.694   8.429  0.0712  0.2352 -0.0064
 5721SOL    HW128625   1.495   1.686   8.339  0.9571  1.3600  0.2005
 5721SOL    HW228626   1.547   1.719   8.470  1.3928 -0.6405 -2.1475
 5722SOL     OW28627   2.566   4.437   2.597  0.0687  0.4296  0.1832
 5722SOL    HW128628   2.595   4.402   2.513  0.1844 -0.2923  0.5220
 5722SOL    HW228629   2.478   4.465   2.574 -0.3192  0.8241  2.1548
 5723SOL     OW28630   2.822   3.378   8.492 -0.3378 -0.6486 -0.1735
 5723SOL    HW128631   2.839   3.467   8.522  1.4879 -0.9111 -0.4757
 5723SOL    HW228632   2.762   3.360   8.564 -1.1850  0.1924 -0.6506
 5724SOL     OW28633   2.631   0.984   4.367  0.7041  0.1369  0.6076
 5724SOL    HW128634   2.626   0.923   4.292 -3.1394 -0.4960  1.3830
 5724SOL    HW228635   2.603   1.070   4.335  2.0851  0.2466 -0.3175
 5725SOL     OW28636   2.096   0.873   0.737  0.2621  0.0948  0.0148
 5725SOL    HW128637   2.146   0.837   0.664  0.5613 -0.1539  0.3381
 5725SOL    HW228638   2.147   0.954   0.748  1.3792 -0.5523 -0.3681
 5726SOL     OW28639   1.639   4.710   2.027  0.7061  0.7325 -0.0200
 5726SOL    HW128640   1.631   4.614   2.026  0.3757  0.7663 -0.6985
 5726SOL    HW228641   1.728   4.705   1.992 -0.1215 -0.7701 -1.9265
 5727SOL     OW28642   3.046   0.754   2.402  0.0170  0.1892  0.5497
 5727SOL    HW128643   3.091   0.675   2.372  0.8824  0.6729  0.5774
 5727SOL    HW228644   2.998   0.733   2.482 -2.7607  0.7227 -0.9429
 5728SOL     OW28645   3.627   4.691  11.582  0.4104 -0.2214 -1.0833
 5728SOL    HW128646   3.575   4.634  11.638  0.2378  0.9334 -0.0596
 5728SOL    HW228647   3.613   0.052  11.626 -0.1406 -2.5299  3.1250
 5729SOL     OW28648   3.691   2.574   5.842 -0.5791 -0.0627 -0.1490
 5729SOL    HW128649   3.770   2.537   5.802 -0.0114  1.3124 -0.2721
 5729SOL    HW228650   3.702   2.540   5.931 -1.1053  1.2375  0.3937
 5730SOL     OW28651   4.445   3.122   8.678  0.1894  0.3311 -0.2326
 5730SOL    HW128652   4.473   3.036   8.647 -0.5917  0.3278 -0.9341
 5730SOL    HW228653   4.391   3.150   8.604 -0.4672  1.0978  0.5266
 5731SOL     OW28654   1.500   4.462  17.677 -0.3233 -0.0812 -0.5321
 5731SOL    HW128655   1.499   4.511  17.595  3.2943 -1.1866 -1.2576
 5731SOL    HW228656   1.589   4.428  17.667 -0.3136  0.2397 -1.5605
 5732SOL     OW28657   2.175   4.036   6.633 -0.1565  0.4539  0.5362
 5732SOL    HW128658   2.121   4.023   6.710 -2.2488 -0.6537 -1.1238
 5732SOL    HW228659   2.218   4.115   6.666 -0.4578 -0.3533  2.8427
 5733SOL     OW28660   2.646   0.542  17.115 -0.3284  0.2174  0.2875
 5733SOL    HW128661   2.557   0.575  17.126 -0.2302  0.5926 -0.0545
 5733SOL    HW228662   2.680   0.580  17.034  0.5740  0.9829  1.0069
 5734SOL     OW28663   1.089   1.047   5.896 -0.0227 -0.2528 -0.2638
 5734SOL    HW128664   1.100   0.952   5.884  1.5066  0.1218 -1.9511
 5734SOL    HW228665   1.171   1.072   5.853 -1.2148  2.0639 -1.1970
 5735SOL     OW28666   0.844   2.439   6.048  0.6181 -0.4621 -0.4010
 5735SOL    HW128667   0.893   2.517   6.074 -1.2316  0.4714  0.2330
 5735SOL    HW228668   0.791   2.475   5.977 -3.1853  0.1605  2.7761
 5736SOL     OW28669   1.573   1.055   5.540  0.5940 -0.1414 -0.4328
 5736SOL    HW128670   1.485   1.063   5.502 -0.2819 -2.6195  1.0845
 5736SOL    HW228671   1.608   1.139   5.510 -1.3016  0.6635 -0.3909
 5737SOL     OW28672   0.618   1.650   3.286 -0.8900  0.0004 -0.1176
 5737SOL    HW128673   0.569   1.596   3.348 -1.3295  0.5674  0.0213
 5737SOL    HW228674   0.707   1.615   3.287 -0.2321  1.7026  0.9534
 5738SOL     OW28675   1.088   2.455   2.387  0.1108  0.0688  0.0553
 5738SOL    HW128676   0.994   2.466   2.399  0.2671  0.4822  0.8617
 5738SOL    HW228677   1.095   2.480   2.294 -1.1886 -1.1206 -0.3678
 5739SOL     OW28678   4.174   0.206   5.852  0.1917 -0.2207 -0.2082
 5739SOL    HW128679   4.242   0.256   5.806 -0.0363 -0.2832 -0.6191
 5739SOL    HW228680   4.178   0.240   5.941  1.2137 -0.6094 -0.1010
 5740SOL     OW28681   1.963   4.456  10.744 -0.0279  0.3307  0.0398
 5740SOL    HW128682   2.040   4.454  10.688 -1.2014  0.3704 -1.5667
 5740SOL    HW228683   1.931   4.543  10.720 -1.5923 -0.4845 -0.8819
 5741SOL     OW28684   4.062   1.989  17.099  0.1502  0.3119  0.0592
 5741SOL    HW128685   4.064   2.054  17.169  3.7642  0.4827 -0.2169
 5741SOL    HW228686   4.149   1.995  17.059 -0.4781 -1.9485 -1.6144
 5742SOL     OW28687   0.451   1.693   7.880 -0.2097  0.2185 -0.1120
 5742SOL    HW128688   0.431   1.642   7.802  1.2963 -0.0691 -0.3035
 5742SOL    HW228689   0.433   1.628   7.948 -0.3153  0.6470  0.2688
 5743SOL     OW28690   0.557   0.169  16.090 -0.1244  0.3230 -0.3459
 5743SOL    HW128691   0.637   0.221  16.085  0.5422 -0.8199 -1.4882
 5743SOL    HW228692   0.520   0.184  16.003 -0.8725 -0.8673 -0.2466
 5744SOL     OW28693   1.083   3.303   3.580 -0.2610  0.4102  0.0848
 5744SOL    HW128694   1.013   3.278   3.641 -1.3175  2.6003 -0.2358
 5744SOL    HW228695   1.147   3.323   3.650  1.0246 -2.6291 -0.2319
 5745SOL     OW28696   3.485   1.297   6.991  0.4702  0.3335 -0.4211
 5745SOL    HW128697   3.406   1.342   7.022  0.3044 -0.8659  0.9127
 5745SOL    HW228698   3.550   1.343   7.044  1.3521 -0.5540 -0.7503
 5746SOL     OW28699   0.576   3.594  16.095  0.3201  0.0330 -0.0564
 5746SOL    HW128700   0.643   3.594  16.027  0.4761  0.6116  0.0967
 5746SOL    HW228701   0.505   3.576  16.034  1.2062 -0.7988 -0.8234
 5747SOL     OW28702   2.808   0.303   1.015  0.4984  0.2398  0.2163
 5747SOL    HW128703   2.886   0.254   1.039 -0.0791 -0.6609  0.2680
 5747SOL    HW228704   2.740   0.235   1.014  1.4576 -0.6897 -2.0663
 5748SOL     OW28705   2.352   3.658  10.608  0.4199 -0.8643 -0.0521
 5748SOL    HW128706   2.431   3.604  10.616  0.5813 -0.8407 -1.5698
 5748SOL    HW228707   2.391   3.745  10.612  0.1511 -0.7274 -0.3986
 5749SOL     OW28708   2.493   3.118   3.178  0.3551 -0.0111  0.2804
 5749SOL    HW128709   2.408   3.086   3.146  0.2925 -0.8487  1.3040
 5749SOL    HW228710   2.527   3.168   3.104 -1.5157  1.6079  0.5058
 5750SOL     OW28711   1.818   2.028  16.871 -0.1887 -0.0540 -0.0859
 5750SOL    HW128712   1.743   2.044  16.929  0.2146  1.3246  0.0556
 5750SOL    HW228713   1.829   2.121  16.851 -0.0389 -0.5786 -2.3543
 5751SOL     OW28714   2.070   2.195  15.409  0.1265 -0.0112 -0.7467
 5751SOL    HW128715   2.163   2.173  15.419  0.4203  1.1704 -0.8984
 5751SOL    HW228716   2.076   2.285  15.441 -1.5182 -0.0480 -0.3178
 5752SOL     OW28717   2.281   3.722   3.091  0.3767 -0.3150  0.1028
 5752SOL    HW128718   2.292   3.642   3.040 -0.9038  0.1135 -0.8373
 5752SOL    HW228719   2.361   3.771   3.072  0.4922 -0.2281  0.8262
 5753SOL     OW28720   1.287   4.170   0.438  0.0098 -0.6625 -0.0956
 5753SOL    HW128721   1.342   4.248   0.432 -0.5334 -0.1499  1.4583
 5753SOL    HW228722   1.201   4.211   0.445  1.0178  1.3419  0.6647
 5754SOL     OW28723   2.352   3.429   4.079 -0.0725  0.2530  0.3683
 5754SOL    HW128724   2.333   3.522   4.062 -1.0952 -0.3474 -1.7717
 5754SOL    HW228725   2.327   3.392   3.994  1.5697 -0.7655  0.3229
 5755SOL     OW28726   4.420   2.975   8.049  0.4403 -0.0475 -0.1782
 5755SOL    HW128727   4.388   2.904   7.994 -0.2168 -0.0856  0.2454
 5755SOL    HW228728   4.393   3.055   8.005 -0.8941  0.2891  1.2438
 5756SOL     OW28729   2.106   0.011   0.092 -0.7489  0.5409  0.2866
 5756SOL    HW128730   2.177   4.671   0.087 -0.0970  1.2705  0.3541
 5756SOL    HW228731   2.053   4.718   0.014  1.2258 -1.1891 -0.6946
 5757SOL     OW28732   3.735   4.099   3.915 -0.3562 -0.7814 -0.2482
 5757SOL    HW128733   3.713   4.096   3.821  1.9605  1.4191 -0.8463
 5757SOL    HW228734   3.734   4.193   3.931  1.4411 -0.4397 -2.0470
 5758SOL     OW28735   0.704   0.430   2.465  0.1407  0.2364  0.1245
 5758SOL    HW128736   0.769   0.451   2.399  0.3586  1.4086  0.7000
 5758SOL    HW228737   0.642   0.501   2.452 -1.5094 -0.8478  1.9718
 5759SOL     OW28738   4.678   3.853   4.047 -0.1638 -0.8804  0.1923
 5759SOL    HW128739   4.594   3.808   4.053 -0.9794  0.2900 -2.0867
 5759SOL    HW228740   4.661   3.915   3.975  1.3573 -0.7033 -0.0068
 5760SOL     OW28741   0.168   0.003   8.363  0.4632  0.2724  0.0793
 5760SOL    HW128742   0.214   4.692   8.286 -2.7323 -4.0626  0.1537
 5760SOL    HW228743   0.210   4.672   8.429 -1.4432 -0.3056  0.8067
 5761SOL     OW28744   2.599   1.126   7.355  0.2476  0.0769  0.2428
 5761SOL    HW128745   2.623   1.218   7.360 -1.6244  0.6477 -1.4311
 5761SOL    HW228746   2.584   1.117   7.261 -0.5191 -1.3686  0.5007
 5762SOL     OW28747   3.916   1.774   2.897  0.0253 -0.3741  0.1918
 5762SOL    HW128748   3.903   1.717   2.974  0.6582  1.4910  1.6842
 5762SOL    HW228749   3.923   1.704   2.833 -0.5319 -1.5283  1.3792
 5763SOL     OW28750   1.271   2.061   3.801  0.0240 -0.1742 -0.0050
 5763SOL    HW128751   1.311   2.113   3.871 -1.6960 -1.0870  1.6265
 5763SOL    HW228752   1.235   2.131   3.747  0.4988 -0.3507 -0.5620
 5764SOL     OW28753   4.080   2.454  14.447 -0.1223 -0.0790  0.2096
 5764SOL    HW128754   4.042   2.431  14.532  2.7207  1.2524  1.8390
 5764SOL    HW228755   4.004   2.492  14.403  0.8772  1.2471 -0.3746
 5765SOL     OW28756   3.988   0.764   3.188  0.3933  0.4089  0.0345
 5765SOL    HW128757   4.061   0.816   3.152 -0.7214  3.2912  1.9603
 5765SOL    HW228758   3.957   0.829   3.251  2.0409  0.6822  0.5649
 5766SOL     OW28759   3.148   1.565   8.745  0.4663  0.7101  0.2122
 5766SOL    HW128760   3.141   1.659   8.760 -2.3149  0.5452 -0.0243
 5766SOL    HW228761   3.072   1.563   8.687 -0.4038  0.7817  1.3566
 5767SOL     OW28762   3.817   3.440   2.554 -0.1402 -0.0848 -0.5649
 5767SOL    HW128763   3.743   3.492   2.584 -0.1076  1.4804 -3.1852
 5767SOL    HW228764   3.795   3.434   2.462 -0.9843  1.8154 -0.4887
 5768SOL     OW28765   1.687   4.149   2.778  0.0291 -0.5050  0.3840
 5768SOL    HW128766   1.772   4.177   2.810 -0.3262 -0.1935  1.0608
 5768SOL    HW228767   1.675   4.219   2.713 -0.1593 -0.4941  0.4297
 5769SOL     OW28768   0.529   3.138   4.202 -0.0810 -0.2706  0.1345
 5769SOL    HW128769   0.451   3.098   4.239 -0.2102  1.2405  1.4694
 5769SOL    HW228770   0.510   3.132   4.108 -1.2008  2.8512  0.1756
 5770SOL     OW28771   0.993   3.587   7.323 -0.0098  0.8705  0.3413
 5770SOL    HW128772   0.952   3.523   7.382  0.3076  0.2821 -0.0816
 5770SOL    HW228773   1.047   3.631   7.389  2.1001 -0.6486 -0.3750
 5771SOL     OW28774   3.287   0.536   6.888  0.0700  0.5017 -0.2318
 5771SOL    HW128775   3.368   0.535   6.938 -0.8492  0.3002  1.2370
 5771SOL    HW228776   3.278   0.631   6.879  0.5374  0.5534 -0.1329
 5772SOL     OW28777   0.252   3.963   5.022 -0.4890  0.5411 -0.1983
 5772SOL    HW128778   0.217   4.037   4.972  2.0303  2.1536  0.4347
 5772SOL    HW228779   0.336   4.002   5.045 -0.7126  1.6510 -1.2774
 5773SOL     OW28780   3.181   1.429   6.362 -0.1864 -0.5920  0.2498
 5773SOL    HW128781   3.251   1.368   6.389  1.3940  0.4457 -1.5087
 5773SOL    HW228782   3.157   1.456   6.451  1.4653 -1.4155  0.9582
 5774SOL     OW28783   0.700   0.519   6.627 -0.3844 -0.0503  0.1919
 5774SOL    HW128784   0.619   0.555   6.664 -0.2308  0.2191  0.2686
 5774SOL    HW228785   0.720   0.449   6.689  0.5309 -0.3336 -0.4331
 5775SOL     OW28786   3.787   0.375   3.889  0.0401 -0.3457  0.8165
 5775SOL    HW128787   3.859   0.348   3.946  1.8909  1.6506 -0.5914
 5775SOL    HW228788   3.802   0.469   3.878  1.6364 -0.5149  1.5913
 5776SOL     OW28789   4.120   2.187  16.366 -0.0171  0.3923  1.1784
 5776SOL    HW128790   4.183   2.202  16.296 -0.6155 -3.2777 -0.1415
 5776SOL    HW228791   4.143   2.261  16.423  0.9138  1.1174 -0.1449
 5777SOL     OW28792   0.459   2.556   4.769  0.1309 -0.3447  0.6935
 5777SOL    HW128793   0.424   2.614   4.701  0.0489  0.5466  1.4844
 5777SOL    HW228794   0.545   2.533   4.734  0.3295 -0.9231  1.5696
 5778SOL     OW28795   4.591   2.571   6.973 -0.4471 -0.2315 -0.1473
 5778SOL    HW128796   4.585   2.660   7.009 -2.8823 -0.4180 -0.0916
 5778SOL    HW228797   4.509   2.536   7.008 -0.7259  1.1166  0.5724
 5779SOL     OW28798   1.422   1.144  10.674  0.2816  0.1479 -0.5380
 5779SOL    HW128799   1.410   1.101  10.588  1.3006  2.1690 -1.6865
 5779SOL    HW228800   1.469   1.074  10.718 -0.7325 -0.5219 -0.5156
 5780SOL     OW28801   2.127   2.040  14.336  0.2470  0.0021 -0.7751
 5780SOL    HW128802   2.183   1.963  14.329 -0.8330 -0.8652  0.2272
 5780SOL    HW228803   2.101   2.052  14.245  2.0023  0.3066 -1.2393
 5781SOL     OW28804   1.841   0.928   0.768 -0.6845 -0.8306 -0.6459
 5781SOL    HW128805   1.806   0.840   0.760 -0.0955 -1.3430  2.3751
 5781SOL    HW228806   1.931   0.895   0.772 -0.4181  0.1205  1.4880
 5782SOL     OW28807   0.899   0.348  12.809  0.1384  0.5196  1.0617
 5782SOL    HW128808   0.957   0.284  12.851  1.5364  2.1910  1.7154
 5782SOL    HW228809   0.839   0.384  12.873 -0.2945 -0.9109  1.4649
 5783SOL     OW28810   4.433   2.218   9.908 -0.0529 -0.0893 -0.0847
 5783SOL    HW128811   4.479   2.178   9.983 -2.2748 -2.1750  0.1940
 5783SOL    HW228812   4.407   2.141   9.857  2.2744 -0.5298 -0.5710
 5784SOL     OW28813   0.691   3.595  14.655  0.0550 -0.5616 -0.1664
 5784SOL    HW128814   0.644   3.539  14.593  0.4471  0.6926 -1.5909
 5784SOL    HW228815   0.746   3.532  14.702  0.7072  0.8866  1.0212
 5785SOL     OW28816   3.309   0.420  10.807 -0.0405  0.0079  0.0678
 5785SOL    HW128817   3.269   0.385  10.728  1.4586 -1.1081 -0.2090
 5785SOL    HW228818   3.269   0.506  10.811  0.4849  0.1744  1.9184
 5786SOL     OW28819   1.449   3.041   8.707 -0.3510  0.6647 -0.8850
 5786SOL    HW128820   1.406   2.969   8.753 -0.3464  0.1930 -1.6228
 5786SOL    HW228821   1.381   3.108   8.710 -1.4837 -0.5387  0.1549
 5787SOL     OW28822   3.734   3.625  15.127  0.0584  0.1073 -0.4813
 5787SOL    HW128823   3.684   3.706  15.134 -0.1888 -0.2754  2.5772
 5787SOL    HW228824   3.702   3.575  15.053 -0.7274  2.1929 -1.5393
 5788SOL     OW28825   2.892   2.035   5.579 -0.2362 -0.5965 -0.3133
 5788SOL    HW128826   2.915   2.107   5.519  1.6311  1.4573  2.8811
 5788SOL    HW228827   2.829   2.003   5.514  1.5667 -0.8798 -1.9300
 5789SOL     OW28828   3.183   4.690   3.788  0.1196 -0.5043  0.6431
 5789SOL    HW128829   3.151   0.057   3.782 -2.7179 -1.7670 -2.7121
 5789SOL    HW228830   3.178   4.678   3.883 -1.8620 -2.7833  0.2326
 5790SOL     OW28831   3.678   1.057   0.028  0.2840  0.0262 -0.0822
 5790SOL    HW128832   3.681   0.973   0.073  1.3357  0.2950  0.3465
 5790SOL    HW228833   3.688   1.026  17.633 -2.1706  0.6115 -0.5566
 5791SOL     OW28834   0.483   3.684   3.784  0.0203  1.0126  0.4487
 5791SOL    HW128835   0.572   3.718   3.795  0.4220  0.2368 -0.3713
 5791SOL    HW228836   0.435   3.736   3.848  0.3395  0.5115  1.0874
 5792SOL     OW28837   1.083   2.311   0.953 -0.0482  1.1045 -0.5878
 5792SOL    HW128838   1.177   2.293   0.945 -0.1580  0.3765 -0.2547
 5792SOL    HW228839   1.086   2.342   1.044 -1.0197 -0.6328  0.0445
 5793SOL     OW28840   0.941   3.459   0.743  0.5564  0.3732 -0.0450
 5793SOL    HW128841   1.010   3.490   0.803  0.3715  0.4879  0.1094
 5793SOL    HW228842   0.936   3.540   0.693  0.0131 -0.4578 -1.3255
 5794SOL     OW28843   1.595   2.685   6.923  0.0592 -0.0125  0.0887
 5794SOL    HW128844   1.569   2.654   6.836 -3.5131 -0.4925  1.3224
 5794SOL    HW228845   1.667   2.739   6.890  0.8911 -0.2295  1.5594
 5795SOL     OW28846   2.556   2.493   6.446  0.2220 -0.2662 -0.0160
 5795SOL    HW128847   2.566   2.436   6.370 -0.3220 -0.3096 -0.0557
 5795SOL    HW228848   2.644   2.529   6.456 -0.4282  0.6496  2.2453
 5796SOL     OW28849   0.483   0.413   4.453 -0.1480 -0.4336 -0.2579
 5796SOL    HW128850   0.533   0.339   4.488  0.3087  0.4330  0.9388
 5796SOL    HW228851   0.492   0.477   4.524 -0.7290 -2.4050  1.5898
 5797SOL     OW28852   1.946   4.525  12.844 -0.2099  0.0132  0.0413
 5797SOL    HW128853   1.873   4.556  12.790  2.5012  1.4240 -2.7855
 5797SOL    HW228854   2.009   4.597  12.836  0.5126 -0.3335  2.6940
 5798SOL     OW28855   3.616   1.221  16.558 -0.3384 -0.0140 -0.6047
 5798SOL    HW128856   3.652   1.309  16.546 -1.3844  0.4948 -0.0384
 5798SOL    HW228857   3.606   1.221  16.653 -0.4096 -1.4710 -0.6085
 5799SOL     OW28858   0.062   0.959   2.481  0.0365  0.3543 -0.1261
 5799SOL    HW128859   0.109   0.880   2.509 -0.3726 -0.0090 -0.4529
 5799SOL    HW228860   4.715   0.968   2.545  1.0804  0.1646  1.0524
 5800SOL     OW28861   0.445   1.192   6.166  0.4191 -0.1494  0.3726
 5800SOL    HW128862   0.462   1.106   6.204  3.6812  0.2363 -0.2517
 5800SOL    HW228863   0.517   1.210   6.106  0.7875 -2.4554  0.1199
 5801SOL     OW28864   2.491   4.235   9.847 -0.4291  0.0175  0.1458
 5801SOL    HW128865   2.560   4.225   9.782  0.1263  2.0431  0.4106
 5801SOL    HW228866   2.479   4.330   9.849  3.1522  0.4923 -0.3120
 5802SOL     OW28867   1.390   3.655   1.876  0.5733  0.2538  0.4664
 5802SOL    HW128868   1.437   3.573   1.860  1.7008  1.1189 -0.6305
 5802SOL    HW228869   1.375   3.649   1.971  0.0993 -1.0685  0.3180
 5803SOL     OW28870   1.063   1.134   5.481  0.0348 -0.4927 -0.5544
 5803SOL    HW128871   1.034   1.138   5.390 -2.2982 -1.0453  0.1609
 5803SOL    HW228872   0.992   1.081   5.519  0.0101 -0.9506 -1.2353
 5804SOL     OW28873   2.545   4.650   2.226 -0.2293 -0.4348 -0.0535
 5804SOL    HW128874   2.526   4.556   2.220  0.7918 -0.7002  0.9026
 5804SOL    HW228875   2.627   4.632   2.272 -0.3083 -0.2592  0.1540
 5805SOL     OW28876   1.477   1.341   2.534  0.2295 -0.5558  0.1325
 5805SOL    HW128877   1.489   1.435   2.519  0.4510 -0.6532 -0.3338
 5805SOL    HW228878   1.382   1.335   2.526  0.1583 -0.3995  0.8975
 5806SOL     OW28879   0.327   0.617   8.923 -0.1528 -0.9463 -0.0069
 5806SOL    HW128880   0.345   0.672   8.847 -1.4310 -0.6008 -0.0590
 5806SOL    HW228881   0.259   0.558   8.892 -0.2743 -0.7550 -0.1027
 5807SOL     OW28882   1.413   2.485   1.313  0.0141 -0.5633 -0.4703
 5807SOL    HW128883   1.487   2.538   1.344 -0.0391  0.3737 -1.9820
 5807SOL    HW228884   1.368   2.466   1.396  1.7075 -1.9176  0.1626
 5808SOL     OW28885   1.219   1.303  16.757  0.3961  0.4220  0.1370
 5808SOL    HW128886   1.145   1.328  16.813  1.0248  0.1990  1.0732
 5808SOL    HW228887   1.287   1.285  16.821  1.4321  2.5793 -0.3747
 5809SOL     OW28888   3.872   0.074   7.442  0.4080 -0.3075 -0.1241
 5809SOL    HW128889   3.901   0.045   7.529 -0.0880  1.5261  0.6445
 5809SOL    HW228890   3.777   0.076   7.450  0.1655 -0.8424 -3.0457
 5810SOL     OW28891   3.025   1.714   2.529 -0.0180 -0.0425 -0.4792
 5810SOL    HW128892   3.082   1.709   2.453  1.1079 -0.0342  0.3635
 5810SOL    HW228893   2.938   1.706   2.490 -1.1205 -1.3210  2.2095
 5811SOL     OW28894   0.301   0.013   2.674 -0.3313  0.4993  0.2747
 5811SOL    HW128895   0.331   4.672   2.610 -0.3786  1.5860 -0.8516
 5811SOL    HW228896   0.231   4.686   2.715  0.0804  0.6448  1.1650
 5812SOL     OW28897   2.524   3.368   2.225 -0.5008  0.4185  0.1956
 5812SOL    HW128898   2.502   3.461   2.227  0.6215  0.6771  0.7642
 5812SOL    HW228899   2.617   3.372   2.249 -0.5099 -1.0743  0.4615
 5813SOL     OW28900   3.271   2.450   8.689  0.5887 -0.6333 -0.2060
 5813SOL    HW128901   3.191   2.426   8.643  0.2297  0.4490 -0.1267
 5813SOL    HW228902   3.266   2.405   8.774 -1.1984 -1.3089 -0.6749
 5814SOL     OW28903   1.213   2.551   0.266  0.4272  0.3498  0.0532
 5814SOL    HW128904   1.155   2.627   0.265  2.2236  1.7518  0.9424
 5814SOL    HW228905   1.239   2.544   0.357 -1.3710 -0.4436  0.4927
 5815SOL     OW28906   1.893   1.477  16.863  0.1462  1.0215 -0.0263
 5815SOL    HW128907   1.832   1.550  16.876 -0.5676  0.7454 -1.9237
 5815SOL    HW228908   1.837   1.437  16.797 -0.9379  2.8167 -0.1885
 5816SOL     OW28909   0.042   1.984   2.964 -0.4991  0.0911 -0.0282
 5816SOL    HW128910   0.030   1.952   2.875  1.8911 -0.0418 -0.2986
 5816SOL    HW228911   0.136   1.996   2.978 -0.5468  0.4870 -0.0383
 5817SOL     OW28912   2.377   4.711  11.201 -0.1671 -0.0738  0.8184
 5817SOL    HW128913   2.340   4.622  11.202  0.9552 -0.5330  0.6860
 5817SOL    HW228914   2.375   0.006  11.107 -0.2367 -3.0199  0.2545
 5818SOL     OW28915   3.222   4.302   3.230  0.3760  0.5497 -0.2501
 5818SOL    HW128916   3.221   4.285   3.136 -0.3451  0.9426 -0.3211
 5818SOL    HW228917   3.150   4.365   3.236 -1.0896 -1.1577  0.0740
 5819SOL     OW28918   0.834   2.851   5.051 -0.3061  0.3838 -0.0412
 5819SOL    HW128919   0.819   2.921   4.988 -2.0493 -1.7281 -1.9854
 5819SOL    HW228920   0.920   2.813   5.031  0.3515 -0.0652  3.6619
 5820SOL     OW28921   4.113   1.235  12.320  0.2412  0.3118  0.2460
 5820SOL    HW128922   4.168   1.176  12.372  0.4106 -1.2205 -1.6461
 5820SOL    HW228923   4.071   1.297  12.379  3.4693  0.4446  2.4012
 5821SOL     OW28924   3.600   0.198  13.799 -0.1673  0.9309  0.3861
 5821SOL    HW128925   3.692   0.175  13.815 -0.3248 -0.1618 -0.3583
 5821SOL    HW228926   3.577   0.233  13.885  3.2674  0.4868  1.5219
 5822SOL     OW28927   1.563   4.097  13.759  0.7989  0.1509  0.7277
 5822SOL    HW128928   1.654   4.098  13.788  0.9539  1.3475  0.2090
 5822SOL    HW228929   1.556   4.191  13.738 -0.8406 -0.4574 -1.3767
 5823SOL     OW28930   0.010   0.151   7.473 -0.0744 -0.1743  0.0592
 5823SOL    HW128931   0.085   0.106   7.434  0.5476  1.8075 -1.0214
 5823SOL    HW228932   4.665   0.084   7.479 -1.4719  1.2826  0.5461
 5824SOL     OW28933   2.010   4.158   6.389  0.3164  0.0455 -0.3144
 5824SOL    HW128934   2.029   4.213   6.465  1.1479  0.4217 -0.7897
 5824SOL    HW228935   2.094   4.113   6.385  0.7560  0.8227  0.2597
 5825SOL     OW28936   0.580   1.718  11.019 -0.2118 -0.2948  0.0789
 5825SOL    HW128937   0.612   1.631  11.043  0.3055  0.3993  1.9810
 5825SOL    HW228938   0.641   1.753  10.954 -1.3334  0.9930 -0.2718
 5826SOL     OW28939   3.641   1.386   4.048 -0.4868  0.1926 -0.0363
 5826SOL    HW128940   3.587   1.465   4.040  1.0523  1.1998 -0.4646
 5826SOL    HW228941   3.623   1.332   3.971  3.0407 -4.4294  2.3712
 5827SOL     OW28942   0.480   2.865   8.087  0.1006  0.1302 -0.3133
 5827SOL    HW128943   0.508   2.800   8.023 -0.5118 -1.7225  1.2901
 5827SOL    HW228944   0.555   2.923   8.095  2.0017 -2.2918 -0.6926
 5828SOL     OW28945   0.034   0.465   4.405 -0.4792 -0.2528 -0.3408
 5828SOL    HW128946   4.709   0.478   4.323  1.3827  0.8782 -1.2558
 5828SOL    HW228947   0.119   0.449   4.364  0.5074 -0.0390  1.6099
 5829SOL     OW28948   2.365   0.322   5.389 -0.0359 -0.5900  0.5644
 5829SOL    HW128949   2.277   0.292   5.367  0.4083  1.3549 -3.9774
 5829SOL    HW228950   2.376   0.311   5.483  0.4336 -1.5000  0.4018
 5830SOL     OW28951   1.831   4.000   5.890  0.0451  0.4766 -0.0928
 5830SOL    HW128952   1.772   4.012   5.964 -2.4086 -1.4664 -1.7157
 5830SOL    HW228953   1.895   4.068   5.908 -0.7737  1.3726 -0.5598
 5831SOL     OW28954   1.129   4.708   7.919  0.6654  0.6335 -0.1888
 5831SOL    HW128955   1.223   4.691   7.906  1.2162  1.9024  2.1539
 5831SOL    HW228956   1.098   4.705   7.829 -0.1908  0.4690  0.1189
 5832SOL     OW28957   0.135   3.572   0.516  0.6732  0.2453  0.4149
 5832SOL    HW128958   0.058   3.622   0.541  0.4077 -0.3394  0.7726
 5832SOL    HW228959   0.142   3.508   0.587  0.0208 -0.1796  0.0993
 5833SOL     OW28960   0.379   3.302   4.520 -0.3648 -0.0653  0.0398
 5833SOL    HW128961   0.460   3.293   4.570  1.2320  1.7690 -2.2078
 5833SOL    HW228962   0.369   3.214   4.485 -3.2998  0.1400  0.4035
 5834SOL     OW28963   1.798   2.228   2.551  0.4401  0.6400  0.0099
 5834SOL    HW128964   1.748   2.198   2.626  1.3597 -0.6470  0.1221
 5834SOL    HW228965   1.814   2.321   2.567  1.6828  0.8313 -2.2475
 5835SOL     OW28966   2.594   1.306   3.045  0.3169 -0.3184 -0.6909
 5835SOL    HW128967   2.672   1.291   2.990 -0.8808 -2.3116 -1.8545
 5835SOL    HW228968   2.530   1.337   2.981 -1.8223 -1.3676  0.9216
 5836SOL     OW28969   2.967   1.426  14.787  0.2761 -0.1430 -0.7660
 5836SOL    HW128970   2.951   1.506  14.737  0.9947  1.3041  1.3032
 5836SOL    HW228971   2.892   1.374  14.757  1.5448 -3.0889  1.2061
 5837SOL     OW28972   3.671   3.892   2.259 -0.1159 -0.6629 -0.3020
 5837SOL    HW128973   3.694   3.933   2.342  0.3781  0.2894 -0.9089
 5837SOL    HW228974   3.633   3.963   2.207  1.4279 -0.5192 -1.2220
 5838SOL     OW28975   3.838   3.370  15.243 -0.6288  0.0667 -0.2845
 5838SOL    HW128976   3.798   3.454  15.219 -1.1936 -0.0469  0.2610
 5838SOL    HW228977   3.928   3.398  15.262 -0.8877  2.9214 -3.1982
 5839SOL     OW28978   1.085   4.669  11.144 -0.0865 -0.0320  0.1878
 5839SOL    HW128979   1.039   0.019  11.186 -0.8258 -1.5680  2.0619
 5839SOL    HW228980   1.173   4.704  11.154  0.3048 -0.9111 -0.1784
 5840SOL     OW28981   1.650   3.526   2.664  0.5884  0.2114  0.5694
 5840SOL    HW128982   1.695   3.470   2.601 -0.6629 -0.6566  0.4696
 5840SOL    HW228983   1.577   3.471   2.691  0.2378 -0.0025 -0.8458
 5841SOL     OW28984   0.203   2.585  12.782 -0.1130 -0.5845  0.4035
 5841SOL    HW128985   0.290   2.601  12.819  1.0127  0.1107 -2.5399
 5841SOL    HW228986   0.164   2.672  12.776 -2.1871 -1.4982  0.6451
 5842SOL     OW28987   1.276   2.207   8.170  0.1163  0.2950  0.6623
 5842SOL    HW128988   1.276   2.218   8.265 -3.0985  0.2380  0.6405
 5842SOL    HW228989   1.254   2.114   8.178 -0.1760  0.3301  0.2209
 5843SOL     OW28990   2.195   2.607   7.126  0.7331  0.1626 -0.0338
 5843SOL    HW128991   2.175   2.611   7.032  1.4852 -1.2673 -0.2491
 5843SOL    HW228992   2.265   2.543   7.134 -0.8789 -1.3643  1.7426
 5844SOL     OW28993   3.088   0.129   2.469  0.3899  0.0147 -0.0714
 5844SOL    HW128994   3.024   0.078   2.519  0.8379 -1.1454 -0.6701
 5844SOL    HW228995   3.088   0.070   2.394  0.7988 -1.5096  1.1161
 5845SOL     OW28996   2.368   2.280   5.542  0.2120 -0.5401 -0.2071
 5845SOL    HW128997   2.450   2.283   5.492  0.1247 -0.3966 -0.3429
 5845SOL    HW228998   2.391   2.323   5.625 -2.1050  0.4400 -0.0607
 5846SOL     OW28999   2.629   3.066   2.701  0.6021  0.3504  0.0134
 5846SOL    HW129000   2.647   2.996   2.638 -2.0477 -1.0964  0.8606
 5846SOL    HW229001   2.586   3.138   2.655 -0.7540 -0.1933  0.4228
 5847SOL     OW29002   3.284   3.498   3.486  0.2380 -0.5844 -0.4244
 5847SOL    HW129003   3.230   3.517   3.410  1.1002  0.4296 -0.7829
 5847SOL    HW229004   3.250   3.411   3.508 -0.4176  0.0813  1.1691
 5848SOL     OW29005   4.658   0.900   6.759  0.1435  0.1624 -0.1849
 5848SOL    HW129006   4.622   0.949   6.685 -1.9005 -2.2268 -0.7875
 5848SOL    HW229007   0.024   0.934   6.771  0.0396 -0.4659  2.2858
 5849SOL     OW29008   2.264   1.885   4.416  0.0616  0.1277  0.3553
 5849SOL    HW129009   2.246   1.824   4.344  1.4026  1.3220 -0.9809
 5849SOL    HW229010   2.356   1.903   4.400 -0.0297  0.1794 -0.1062
 5850SOL     OW29011   0.032   0.151  11.913 -0.2112 -0.0281  0.1081
 5850SOL    HW129012   4.690   0.214  11.883  0.4111  2.3414  3.7513
 5850SOL    HW229013   0.111   0.199  11.889 -0.0915 -0.7186 -0.8777
 5851SOL     OW29014   3.095   2.638   7.285  0.4805  0.1240 -0.6059
 5851SOL    HW129015   3.104   2.716   7.229 -0.6588  0.3691 -0.4484
 5851SOL    HW229016   3.110   2.676   7.371  0.0875  0.7166 -0.7946
 5852SOL     OW29017   3.982   1.675   7.411 -0.0369  0.5326 -0.4048
 5852SOL    HW129018   3.982   1.709   7.500 -2.7285  2.3368 -1.0871
 5852SOL    HW229019   4.075   1.680   7.392  0.1883 -0.3805  0.5117
 5853SOL     OW29020   1.616   4.685   3.365 -0.2856  0.7834 -0.2331
 5853SOL    HW129021   1.605   0.055   3.379  2.6239  1.6817 -3.9575
 5853SOL    HW229022   1.567   4.676   3.283 -1.0805 -1.2998  0.4711
 5854SOL     OW29023   3.156   1.451   1.416  0.3903 -0.0647  0.4880
 5854SOL    HW129024   3.136   1.362   1.446 -2.7632  1.0376  1.5877
 5854SOL    HW229025   3.252   1.442   1.412  0.4885  2.2497 -1.9354
 5855SOL     OW29026   3.688   2.437  10.016  0.2471 -0.1529  0.1571
 5855SOL    HW129027   3.596   2.447   9.994  0.7348 -1.7675 -2.6928
 5855SOL    HW229028   3.687   2.365  10.079  0.3316  0.7639  1.2116
 5856SOL     OW29029   1.417   0.209   9.289  0.0652  0.3450 -0.1711
 5856SOL    HW129030   1.415   0.250   9.375 -0.6996 -2.4847  1.1499
 5856SOL    HW229031   1.392   0.289   9.243  1.0366  0.0551 -1.2053
 5857SOL     OW29032   2.511   4.521  10.214  0.3669  0.2315  0.5260
 5857SOL    HW129033   2.560   4.474  10.147  1.3458  0.2283  1.2443
 5857SOL    HW229034   2.576   4.556  10.276  0.8203  3.2473 -1.6296
 5858SOL     OW29035   3.059   1.848  11.247 -0.2544 -0.5316 -0.2073
 5858SOL    HW129036   3.066   1.884  11.335  0.5448 -1.3954  0.0743
 5858SOL    HW229037   3.143   1.875  11.210  0.6636 -0.7698  1.6957
 5859SOL     OW29038   2.054   4.331   7.555 -0.2285  0.5352  0.2340
 5859SOL    HW129039   2.097   4.355   7.637 -0.2974  2.7972 -0.4001
 5859SOL    HW229040   2.123   4.356   7.494 -0.7186 -1.6161 -1.1906
 5860SOL     OW29041   4.292   4.678   3.355  0.2590 -0.5475  0.1131
 5860SOL    HW129042   4.235   0.016   3.309  0.1713  1.0921  2.4047
 5860SOL    HW229043   4.382   4.700   3.332  0.5793 -1.6812  0.2657
 5861SOL     OW29044   0.945   3.100  14.052  0.5481  0.3867  0.5924
 5861SOL    HW129045   0.915   3.174  13.999 -2.5759 -0.2163  1.5246
 5861SOL    HW229046   0.906   3.126  14.135 -1.2449  1.1531 -0.4968
 5862SOL     OW29047   0.460   2.883   6.327 -0.0883 -0.5348  0.2750
 5862SOL    HW129048   0.490   2.970   6.352 -0.2254 -0.6438  0.8171
 5862SOL    HW229049   0.492   2.823   6.395  1.2713 -0.3902 -0.2368
 5863SOL     OW29050   0.067   0.249   2.196  0.1911  0.0857 -0.0952
 5863SOL    HW129051   0.082   0.343   2.184 -0.3050  0.0093 -1.3222
 5863SOL    HW229052   0.149   0.219   2.157 -0.6545 -0.3291 -1.5449
 5864SOL     OW29053   4.324   3.451   4.995  0.3650 -0.5324  0.0097
 5864SOL    HW129054   4.374   3.434   4.915  2.1434  0.4027  0.9288
 5864SOL    HW229055   4.256   3.517   4.978 -1.3602 -1.6929  2.5140
 5865SOL     OW29056   4.720   0.119   2.426  0.4176 -0.3304 -0.5597
 5865SOL    HW129057   4.672   0.039   2.407 -0.7446  0.1241  0.4743
 5865SOL    HW229058   0.030   0.160   2.346  2.8056  2.3940  1.8079
 5866SOL     OW29059   1.714   0.499   5.346  0.7224 -0.5760  0.9134
 5866SOL    HW129060   1.799   0.487   5.388  0.3238 -3.2591  0.9686
 5866SOL    HW229061   1.705   0.594   5.339  0.8287 -0.5432  1.2195
 5867SOL     OW29062   3.950   1.572   3.672 -0.0038 -0.2123  0.2680
 5867SOL    HW129063   4.045   1.561   3.667 -0.4651 -4.9841  1.7209
 5867SOL    HW229064   3.913   1.516   3.603 -1.1143  2.8768 -1.6641
 5868SOL     OW29065   0.132   2.647  16.494 -0.7155  0.2906  0.2625
 5868SOL    HW129066   0.121   2.690  16.578 -0.2181  0.0602  0.4439
 5868SOL    HW229067   0.225   2.663  16.483 -0.5888 -1.0050 -0.6178
 5869SOL     OW29068   3.583   4.589   4.082  0.0891 -0.1998 -0.0157
 5869SOL    HW129069   3.654   4.645   4.050 -0.5622 -0.9548 -2.7960
 5869SOL    HW229070   3.509   4.650   4.069 -0.5366 -0.7875  0.8095
 5870SOL     OW29071   2.420   0.374   6.627  0.5074 -0.1347  0.4925
 5870SOL    HW129072   2.411   0.465   6.652  0.5189 -0.0928  0.3481
 5870SOL    HW229073   2.505   0.379   6.582 -0.8800  0.6728 -2.0578
 5871SOL     OW29074   2.575   3.254   2.939  0.6904  0.3069 -0.4262
 5871SOL    HW129075   2.588   3.182   2.878  0.4895  1.0330 -1.3283
 5871SOL    HW229076   2.555   3.329   2.884  0.0841 -0.2462 -0.9613
 5872SOL     OW29077   2.223   2.862   6.639  0.3688 -0.1950  0.0002
 5872SOL    HW129078   2.283   2.935   6.628  1.9104 -1.7101 -1.6163
 5872SOL    HW229079   2.284   2.817   6.697  0.1768 -0.4229  0.0266
 5873SOL     OW29080   4.568   0.855   8.823  0.2483 -0.3927  0.0267
 5873SOL    HW129081   4.548   0.772   8.779 -1.5431  1.2413 -2.2109
 5873SOL    HW229082   4.644   0.822   8.871 -0.3744 -0.4036  1.0006
 5874SOL     OW29083   2.795   1.932   4.334  0.4067 -0.2539 -0.0893
 5874SOL    HW129084   2.866   1.880   4.372  1.3898 -0.7985 -2.6653
 5874SOL    HW229085   2.806   2.017   4.376  1.1261  0.1822 -1.1478
 5875SOL     OW29086   0.641   1.881   2.378  0.3586  0.5133  0.0602
 5875SOL    HW129087   0.664   1.974   2.381 -1.8495  0.9999  1.5118
 5875SOL    HW229088   0.602   1.863   2.463 -2.6991 -1.9887 -1.8619
 5876SOL     OW29089   4.332   1.732   8.459 -0.3329 -0.6708  0.0179
 5876SOL    HW129090   4.249   1.690   8.439 -0.7725 -1.1823  2.8226
 5876SOL    HW229091   4.394   1.659   8.464  0.5950 -0.0151 -2.2027
 5877SOL     OW29092   2.460   2.708  11.586 -0.5360  0.2291  0.1324
 5877SOL    HW129093   2.419   2.756  11.514 -1.3270 -0.9239 -0.1769
 5877SOL    HW229094   2.419   2.757  11.657  1.0195  0.8994  0.5593
 5878SOL     OW29095   3.395   1.029   8.344 -0.1249 -0.2962  0.2853
 5878SOL    HW129096   3.450   0.970   8.292 -0.6853 -0.2583 -0.3410
 5878SOL    HW229097   3.328   0.968   8.373 -1.8863  1.2963 -0.4250
 5879SOL     OW29098   3.237   2.634   5.792 -0.7027 -0.0534 -0.0575
 5879SOL    HW129099   3.313   2.648   5.736  0.2998 -1.5315  0.9231
 5879SOL    HW229100   3.219   2.710   5.848  1.1929  0.3557 -0.0124
 5880SOL     OW29101   3.971   0.106   4.926  0.1204 -0.2565 -0.2983
 5880SOL    HW129102   4.063   0.080   4.921 -0.0880 -1.5373  2.6363
 5880SOL    HW229103   3.932   0.072   4.845  0.3516  0.0805 -0.5504
 5881SOL     OW29104   3.759   1.307   1.712 -0.3561 -1.0196  0.2546
 5881SOL    HW129105   3.776   1.215   1.696  0.5374 -0.8429  0.1823
 5881SOL    HW229106   3.738   1.325   1.621 -1.0109 -0.9454  0.4239
 5882SOL     OW29107   4.712   1.265   3.762  0.0713  0.1706  0.4921
 5882SOL    HW129108   0.006   1.298   3.850 -0.1803  0.2761  0.5028
 5882SOL    HW229109   0.030   1.327   3.702  0.1350  0.6498  1.0328
 5883SOL     OW29110   1.797   4.558  16.584 -0.4396 -0.2879  0.1113
 5883SOL    HW129111   1.856   4.484  16.600 -0.9589  0.1853  4.1700
 5883SOL    HW229112   1.866   4.625  16.582  1.8727 -2.6264  0.9475
 5884SOL     OW29113   0.602   2.950   7.178  0.4403  0.3554 -0.5232
 5884SOL    HW129114   0.611   2.871   7.124  0.4787 -0.2952  0.4328
 5884SOL    HW229115   0.653   3.012   7.126  0.2828  0.7524 -0.2013
 5885SOL     OW29116   2.323   0.175   0.227  0.0057  0.9391  0.8602
 5885SOL    HW129117   2.246   0.129   0.195  2.3273 -2.4872  0.1492
 5885SOL    HW229118   2.297   0.266   0.232 -2.2599  0.5189 -3.4987
 5886SOL     OW29119   4.708   2.538   4.436  0.0667  0.5994  0.4458
 5886SOL    HW129120   4.624   2.502   4.466 -0.1999 -0.7679 -2.0355
 5886SOL    HW229121   0.020   2.565   4.521 -1.0127  0.6016  0.9014
 5887SOL     OW29122   1.459   4.702   8.312  0.0789  0.4594 -0.3850
 5887SOL    HW129123   1.511   0.043   8.361 -2.9664  1.6291  1.2961
 5887SOL    HW229124   1.372   0.009   8.338 -0.6208 -1.9098  0.0537
 5888SOL     OW29125   3.066   2.741   6.507  0.3065  0.0119  0.4658
 5888SOL    HW129126   2.998   2.688   6.550  2.0266 -1.9793  0.7093
 5888SOL    HW229127   3.020   2.822   6.485  1.2570 -0.1233 -2.0049
 5889SOL     OW29128   0.157   1.802   5.201  0.3125 -0.0958 -0.3199
 5889SOL    HW129129   0.245   1.823   5.234 -1.0145 -1.0957  3.9544
 5889SOL    HW229130   0.135   1.722   5.249 -0.7739 -0.8727 -2.1258
 5890SOL     OW29131   2.039   3.222   3.076 -0.5165  0.3508 -0.7785
 5890SOL    HW129132   1.952   3.230   3.116  0.1357 -0.3136  0.7629
 5890SOL    HW229133   2.034   3.276   2.997  1.3700 -0.5257 -1.4921
 5891SOL     OW29134   4.156   2.377   7.434 -0.2138 -0.1803 -0.0322
 5891SOL    HW129135   4.100   2.337   7.368  0.4433 -0.2209 -0.5667
 5891SOL    HW229136   4.239   2.330   7.422 -0.5426 -0.6786 -0.3623
 5892SOL     OW29137   0.255   2.890  11.146  0.0728 -0.5927  0.2878
 5892SOL    HW129138   0.243   2.849  11.232  0.0645 -2.1586 -0.4698
 5892SOL    HW229139   0.211   2.975  11.160 -0.5676 -0.9304  0.3321
 5893SOL     OW29140   1.132   3.617   7.564  0.3365  0.2960  0.0570
 5893SOL    HW129141   1.085   3.554   7.619 -2.6761  0.8289 -1.9679
 5893SOL    HW229142   1.121   3.694   7.621  0.1777  1.5547 -1.6836
 5894SOL     OW29143   2.120   0.167  14.330 -0.4861  0.6027  0.1861
 5894SOL    HW129144   2.202   0.140  14.289 -0.2928 -0.1066  1.0336
 5894SOL    HW229145   2.155   0.228  14.395 -0.2151 -1.0455  1.5994
 5895SOL     OW29146   0.205   4.624   4.611  0.1954 -0.4358  0.2298
 5895SOL    HW129147   0.276   4.688   4.614  0.7540 -1.0297 -0.1503
 5895SOL    HW229148   0.173   4.628   4.701 -0.7416 -0.4732 -0.1092
 5896SOL     OW29149   1.397   1.341   0.375 -0.2836  0.4809 -0.0666
 5896SOL    HW129150   1.463   1.307   0.435  1.1648  1.7186 -0.9704
 5896SOL    HW229151   1.418   1.434   0.386  0.3062  0.2923  0.3733
 5897SOL     OW29152   3.974   1.874   7.086  0.4521  0.0410 -0.3066
 5897SOL    HW129153   3.944   1.932   7.016 -1.0860 -1.8262 -1.1713
 5897SOL    HW229154   3.967   1.799   7.028 -1.5133  0.6044 -0.7969
 5898SOL     OW29155   3.390   0.429  13.819 -0.5804 -0.6677  0.5581
 5898SOL    HW129156   3.413   0.510  13.865  2.3940 -1.0466 -0.2626
 5898SOL    HW229157   3.366   0.462  13.732  0.9813 -0.1571  0.3362
 5899SOL     OW29158   4.419   1.400   4.827  0.3192  0.7281 -0.1216
 5899SOL    HW129159   4.332   1.439   4.834  0.1831 -0.0007  2.1599
 5899SOL    HW229160   4.414   1.370   4.736 -1.0782  0.0585  0.1708
 5900SOL     OW29161   3.014   2.514   9.395 -0.2272  0.0227 -0.3309
 5900SOL    HW129162   2.922   2.536   9.408  0.0348  3.1601 -3.8154
 5900SOL    HW229163   3.051   2.563   9.469  2.2143 -3.1971  0.5805
 5901SOL     OW29164   2.278   2.984  14.648 -0.0915  0.2260  0.3298
 5901SOL    HW129165   2.302   3.051  14.584 -2.0152  1.7039  1.1434
 5901SOL    HW229166   2.347   3.011  14.709  0.0352 -0.0789  0.3232
 5902SOL     OW29167   2.453   2.518   8.659  0.6601 -0.1204 -0.1918
 5902SOL    HW129168   2.518   2.498   8.727 -0.3235 -0.4321  0.6581
 5902SOL    HW229169   2.403   2.591   8.696 -0.0581  0.6120 -2.6382
 5903SOL     OW29170   1.911   0.191   0.509  0.3853  0.5079  0.3274
 5903SOL    HW129171   1.891   0.121   0.447  1.2995  1.4253 -0.9960
 5903SOL    HW229172   1.919   0.257   0.441 -1.1908 -0.0145 -0.3428
 5904SOL     OW29173   2.353   3.888  15.282 -0.8136  0.0856 -0.4868
 5904SOL    HW129174   2.311   3.894  15.368 -2.8043 -1.0119 -1.3707
 5904SOL    HW229175   2.357   3.981  15.262 -0.2129  0.5452  1.7898
 5905SOL     OW29176   3.014   1.117   2.583 -0.1268 -0.3609  0.6195
 5905SOL    HW129177   2.920   1.121   2.602 -0.5073 -0.4320 -1.2760
 5905SOL    HW229178   3.048   1.103   2.671 -0.3777 -1.8050  0.4921
 5906SOL     OW29179   0.708   2.965   8.794 -0.2730  0.2599 -0.7059
 5906SOL    HW129180   0.698   3.046   8.845 -0.8074 -0.7145  0.7370
 5906SOL    HW229181   0.617   2.937   8.787 -0.7702  1.3176  1.2997
 5907SOL     OW29182   4.474   4.090   5.218  0.0826  0.0399  0.1765
 5907SOL    HW129183   4.528   4.049   5.150 -2.8135 -2.6606 -0.4750
 5907SOL    HW229184   4.464   4.177   5.179  0.5544  0.7748  1.6608
 5908SOL     OW29185   3.381   1.056   6.001 -0.4753  0.2888  0.7196
 5908SOL    HW129186   3.338   1.116   5.941  2.2255  0.7126 -0.8055
 5908SOL    HW229187   3.469   1.057   5.963 -0.6686 -1.8398  0.2193
 5909SOL     OW29188   4.195   0.929  10.265  0.0323 -0.6205  0.4155
 5909SOL    HW129189   4.141   0.979  10.326 -0.3987  0.2355 -0.6707
 5909SOL    HW229190   4.275   0.902  10.310  0.6935  0.3060 -0.2189
 5910SOL     OW29191   3.703   0.496   8.325 -0.3196 -0.1450  0.7379
 5910SOL    HW129192   3.680   0.423   8.268  1.8201  0.2616 -0.6522
 5910SOL    HW229193   3.768   0.448   8.377  0.6603  1.5960  1.1022
 5911SOL     OW29194   3.953   1.610   1.013  0.2152 -0.5284  0.2374
 5911SOL    HW129195   3.980   1.538   0.956 -1.1521 -0.8127 -0.0482
 5911SOL    HW229196   3.913   1.674   0.954  2.0599  0.0604 -0.3683
 5912SOL     OW29197   0.193   3.141   2.166 -1.0795  0.2968  0.6217
 5912SOL    HW129198   0.231   3.170   2.083 -2.2753  3.2991  1.1221
 5912SOL    HW229199   0.264   3.157   2.229  0.3710 -0.4707 -0.8163
 5913SOL     OW29200   0.101   3.664  17.614 -0.3782 -0.1344 -0.4941
 5913SOL    HW129201   0.185   3.668  17.568 -1.8414  0.9723 -3.0552
 5913SOL    HW229202   0.125   3.673   0.012 -1.8545  1.6854 -0.2785
 5914SOL     OW29203   4.041   2.482   7.093 -0.1308  0.9661 -0.3964
 5914SOL    HW129204   4.018   2.565   7.133  2.6804  1.1970  0.6792
 5914SOL    HW229205   3.957   2.437   7.108  1.1591 -2.8041 -4.2226
 5915SOL     OW29206   0.477   1.041  14.717  0.1815  0.1577 -0.1879
 5915SOL    HW129207   0.495   1.133  14.739  1.6444 -0.3784  0.8252
 5915SOL    HW229208   0.542   1.016  14.652 -0.6839 -2.3717 -0.0500
 5916SOL     OW29209   2.216   0.996   8.550 -0.4643  0.0257 -0.1691
 5916SOL    HW129210   2.236   0.953   8.633  2.7699  1.1870 -0.3468
 5916SOL    HW229211   2.215   0.921   8.491  0.2344  1.3439 -1.8617
 5917SOL     OW29212   3.638   4.583  15.545  0.0632 -0.1087  0.3999
 5917SOL    HW129213   3.689   4.591  15.465 -0.6303  2.8231  0.2412
 5917SOL    HW229214   3.568   4.645  15.526 -1.5443 -1.8010  0.7643
 5918SOL     OW29215   2.864   2.880  13.703  0.0289  0.8383  0.3615
 5918SOL    HW129216   2.874   2.834  13.786 -0.8386  0.2755  0.1536
 5918SOL    HW229217   2.781   2.928  13.705 -0.9389 -0.5801 -4.5328
 5919SOL     OW29218   2.706   2.972   2.952  0.6052 -0.0578 -0.2520
 5919SOL    HW129219   2.642   2.907   2.981 -1.0030  0.4552 -2.6817
 5919SOL    HW229220   2.682   2.994   2.862 -0.0866  1.5334  0.3289
 5920SOL     OW29221   2.996   4.425   2.922 -0.2596 -0.5056  0.5066
 5920SOL    HW129222   2.906   4.444   2.895 -0.1208  0.5465  0.7905
 5920SOL    HW229223   3.010   4.472   3.004 -1.5320  1.0897 -0.2056
 5921SOL     OW29224   3.746   2.428   3.183  0.0266  0.4009  0.8935
 5921SOL    HW129225   3.759   2.445   3.090 -0.7365 -1.3289  0.4695
 5921SOL    HW229226   3.743   2.332   3.180  3.7829  0.3119  0.6079
 5922SOL     OW29227   0.607   2.745  13.015 -0.4944  0.1394  0.2411
 5922SOL    HW129228   0.663   2.818  12.990  0.5528 -1.6355 -2.6598
 5922SOL    HW229229   0.565   2.731  12.930  1.2797  0.0375 -0.6149
 5923SOL     OW29230   1.662   1.290  13.425 -0.4966  0.0077  0.0121
 5923SOL    HW129231   1.647   1.291  13.330 -3.0190 -0.0912  0.4284
 5923SOL    HW229232   1.754   1.266  13.435 -0.5274  0.5200  1.4024
 5924SOL     OW29233   3.491   4.380   1.368  0.1473 -0.3478 -0.1435
 5924SOL    HW129234   3.575   4.420   1.388  0.5575 -0.8237 -0.9115
 5924SOL    HW229235   3.476   4.408   1.277  3.0959 -0.0419 -0.5276
 5925SOL     OW29236   3.557   0.687   6.040  0.7871 -0.2283  0.3289
 5925SOL    HW129237   3.551   0.603   6.087  0.5885 -1.3720 -1.7693
 5925SOL    HW229238   3.645   0.715   6.068  0.1577  1.9481  0.1312
 5926SOL     OW29239   0.872   3.371  13.465 -0.2547 -0.2675 -0.7136
 5926SOL    HW129240   0.967   3.376  13.469 -0.2513 -0.1235 -0.9431
 5926SOL    HW229241   0.873   3.276  13.469 -1.8630 -0.3009 -0.8981
 5927SOL     OW29242   0.647   0.865   4.835 -0.3471  0.2598  0.1346
 5927SOL    HW129243   0.629   0.808   4.760  1.7375 -0.5946  0.2671
 5927SOL    HW229244   0.571   0.838   4.886  0.0580 -0.7882  0.1958
 5928SOL     OW29245   2.482   4.229   0.564 -0.3801 -0.0723  0.0217
 5928SOL    HW129246   2.490   4.137   0.588  2.8878  0.7999  2.3365
 5928SOL    HW229247   2.476   4.265   0.653 -0.5066 -2.5584  1.0033
 5929SOL     OW29248   3.122   2.899   3.492  0.0665 -0.8046 -0.2012
 5929SOL    HW129249   3.035   2.939   3.493 -0.0438 -1.0622  0.6474
 5929SOL    HW229250   3.167   2.899   3.408  2.2121 -0.1094  0.9552
 5930SOL     OW29251   0.084   1.036   2.222 -0.5857 -0.1543  0.1679
 5930SOL    HW129252   0.102   1.028   2.316 -1.3360 -1.4261  0.1987
 5930SOL    HW229253   0.035   0.956   2.204  0.3852 -1.1025  1.6713
 5931SOL     OW29254   2.511   4.265   1.644  0.4929 -0.5631 -0.2450
 5931SOL    HW129255   2.540   4.234   1.558  0.7820  0.4064 -0.5025
 5931SOL    HW229256   2.455   4.340   1.622  0.5853 -0.0085  1.4041
 5932SOL     OW29257   1.997   1.814   6.241  0.6475  0.5463 -0.3974
 5932SOL    HW129258   1.968   1.905   6.252  1.0386  0.6079  0.1241
 5932SOL    HW229259   1.983   1.798   6.148  0.4544  1.5140 -0.5343
 5933SOL     OW29260   4.717   0.945  11.720  0.4808 -0.6422  0.4312
 5933SOL    HW129261   0.023   0.922  11.808 -0.5076  0.9817  1.1869
 5933SOL    HW229262   0.064   1.005  11.695 -0.2999 -0.1638 -0.6514
 5934SOL     OW29263   4.654   3.074   4.518  0.0383  0.3307 -0.4777
 5934SOL    HW129264   4.580   3.023   4.484  0.8438 -2.0633  1.4014
 5934SOL    HW229265   4.617   3.162   4.508 -0.9388  0.1141  1.1996
 5935SOL     OW29266   1.730   2.026   1.946  0.2319  0.5119  0.0077
 5935SOL    HW129267   1.718   2.116   1.975 -0.8780  0.5755 -0.6560
 5935SOL    HW229268   1.662   2.003   1.882 -0.6093 -0.5327  1.2675
 5936SOL     OW29269   2.697   4.032   5.975 -0.0996  0.1545 -0.3516
 5936SOL    HW129270   2.720   4.125   5.984 -1.3959  0.5282 -0.8347
 5936SOL    HW229271   2.714   3.995   6.061  3.1779  0.1154 -1.0162
 5937SOL     OW29272   0.023   2.461   8.640 -0.0351  0.1264 -0.3775
 5937SOL    HW129273   0.000   2.494   8.553  0.8670 -0.5749 -0.8885
 5937SOL    HW229274   0.025   2.365   8.634 -0.6235  0.3508 -4.3884
 5938SOL     OW29275   2.238   2.122   2.447 -0.2958  0.3452  0.5940
 5938SOL    HW129276   2.265   2.132   2.538  0.3502  2.0228  0.2245
 5938SOL    HW229277   2.188   2.203   2.436  0.6492  0.4975 -2.7516
 5939SOL     OW29278   3.235   4.601   5.990  0.3073 -0.1499 -0.0735
 5939SOL    HW129279   3.253   4.656   6.066  2.6056 -0.7778 -0.1502
 5939SOL    HW229280   3.314   4.626   5.941  0.3359 -0.8334 -0.3796
 5940SOL     OW29281   2.950   2.497   7.677  0.1843  0.1890  0.6588
 5940SOL    HW129282   2.898   2.437   7.731  0.5803 -0.5417  0.2218
 5940SOL    HW229283   3.031   2.448   7.664  0.2551  0.2231  0.9701
 5941SOL     OW29284   4.267   3.584   4.236 -0.0199 -0.0177 -0.0373
 5941SOL    HW129285   4.197   3.645   4.258  0.0747 -0.6968  2.1098
 5941SOL    HW229286   4.349   3.617   4.273 -0.9002  0.8124  1.1423
 5942SOL     OW29287   3.884   2.328   5.346 -0.2350 -0.3239 -0.7181
 5942SOL    HW129288   3.908   2.254   5.290 -1.3540  0.2169 -1.8990
 5942SOL    HW229289   3.804   2.302   5.391 -0.3113  2.9241  1.0368
 5943SOL     OW29290   0.746   3.930   3.683 -0.0306  0.0325 -0.1957
 5943SOL    HW129291   0.743   3.837   3.704 -1.4327 -0.1599 -1.2574
 5943SOL    HW229292   0.833   3.931   3.643  0.1470 -0.7524  0.1870
 5944SOL     OW29293   0.159   2.068   2.015  0.0912 -0.1820 -0.1509
 5944SOL    HW129294   0.188   2.157   2.032  2.3553 -0.9476  0.0400
 5944SOL    HW229295   0.075   2.064   2.060 -0.9104  1.2309 -1.9076
 5945SOL     OW29296   0.837   1.784   6.456  0.7861 -0.2198  1.1442
 5945SOL    HW129297   0.875   1.777   6.368  3.7061  2.3101  2.1827
 5945SOL    HW229298   0.750   1.745   6.459  0.7583 -0.3270 -1.2670
 5946SOL     OW29299   0.629   3.847   8.712 -0.2027 -0.3276 -0.5929
 5946SOL    HW129300   0.556   3.878   8.767  0.2977 -0.3154  0.0625
 5946SOL    HW229301   0.697   3.871   8.775 -0.2431  0.8875 -1.0006
 5947SOL     OW29302   0.241   4.355   9.587 -0.5277  0.4632 -0.1395
 5947SOL    HW129303   0.211   4.301   9.660 -2.3732 -1.3490 -2.2242
 5947SOL    HW229304   0.221   4.311   9.505  2.1682 -0.7722 -0.1516
 5948SOL     OW29305   1.785   2.475  11.162 -0.3058 -0.3976  0.0817
 5948SOL    HW129306   1.705   2.435  11.197  1.1674 -0.7087  3.0938
 5948SOL    HW229307   1.759   2.564  11.141  2.0608  0.0141 -1.0631
 5949SOL     OW29308   4.514   3.453   9.699 -0.3114 -0.2185  0.3457
 5949SOL    HW129309   4.472   3.401   9.631 -4.4222  1.2435  1.7655
 5949SOL    HW229310   4.479   3.402   9.771 -0.6557  3.0199  2.4831
 5950SOL     OW29311   1.993   0.148  13.529 -0.0862 -0.4106  0.1634
 5950SOL    HW129312   1.979   0.056  13.551 -0.0264 -0.9925 -2.2186
 5950SOL    HW229313   1.918   0.188  13.573 -0.6734  2.1078 -3.0840
 5951SOL     OW29314   4.305   1.809   0.238 -0.5372  0.0170 -0.5100
 5951SOL    HW129315   4.245   1.880   0.214  0.3228  0.8247 -0.2339
 5951SOL    HW229316   4.247   1.733   0.240  1.5549 -1.6128 -1.7219
 5952SOL     OW29317   0.394   3.053   2.861 -0.6004  0.2726 -0.0479
 5952SOL    HW129318   0.314   3.006   2.839 -0.4638 -0.7867  1.7657
 5952SOL    HW229319   0.361   3.143   2.863 -1.8889 -0.1923 -0.1363
 5953SOL     OW29320   2.599   2.670   3.975  0.5077 -0.0182 -0.1653
 5953SOL    HW129321   2.599   2.646   3.883 -0.9680 -0.9399  0.0730
 5953SOL    HW229322   2.510   2.647   4.002  1.2775  1.3582  3.5768
 5954SOL     OW29323   2.367   0.641   6.005  0.5113  0.0190 -0.2040
 5954SOL    HW129324   2.372   0.629   5.910 -0.1685  1.3912 -0.4159
 5954SOL    HW229325   2.459   0.616   6.010  0.6805  0.3452 -1.6365
 5955SOL     OW29326   0.189   2.688   9.702  0.3734  0.2140  0.0065
 5955SOL    HW129327   0.237   2.668   9.783  0.4515  0.4027  0.0055
 5955SOL    HW229328   0.260   2.703   9.640 -0.3819  1.5189 -0.5364
 5956SOL     OW29329   0.048   0.582  14.080 -0.6298 -0.1716 -0.0537
 5956SOL    HW129330   0.036   0.677  14.082 -0.4489 -0.0740 -2.7618
 5956SOL    HW229331   4.690   0.551  14.119  0.7603 -3.6172  0.1002
 5957SOL     OW29332   2.957   2.775   7.705  0.3770 -0.1772 -0.2374
 5957SOL    HW129333   2.871   2.792   7.667  0.5466 -0.0274 -0.5558
 5957SOL    HW229334   2.945   2.684   7.732 -0.1000 -0.0969 -0.1825
 5958SOL     OW29335   0.650   0.503   3.154  0.2166  0.0154 -0.1721
 5958SOL    HW129336   0.655   0.591   3.192  0.6004 -1.1486  2.4446
 5958SOL    HW229337   0.723   0.516   3.094  0.9133 -1.7929  0.2966
 5959SOL     OW29338   4.181   3.489   7.358 -0.2302  0.3602 -0.7060
 5959SOL    HW129339   4.261   3.438   7.373 -0.5998 -0.1802 -0.5481
 5959SOL    HW229340   4.118   3.420   7.337  1.7649 -0.7709 -2.9326
 5960SOL     OW29341   0.624   2.618   8.435 -0.2855 -0.3770  0.5230
 5960SOL    HW129342   0.707   2.654   8.466  0.6808 -1.8256 -0.3898
 5960SOL    HW229343   0.582   2.604   8.520 -0.1543 -0.0308  0.6448
 5961SOL     OW29344   1.275   2.826   8.156  0.3927 -0.2960  0.0653
 5961SOL    HW129345   1.278   2.869   8.070  1.1329 -0.0693  0.2064
 5961SOL    HW229346   1.207   2.878   8.199  1.5674 -0.4878  2.1494
 5962SOL     OW29347   3.169   1.331   4.916 -0.4062 -0.4572 -0.2647
 5962SOL    HW129348   3.111   1.407   4.915 -1.0197 -0.9285  0.0850
 5962SOL    HW229349   3.253   1.376   4.925 -1.1690  1.2682 -1.7932
 5963SOL     OW29350   0.225   1.983   2.330 -0.5692 -0.1390 -0.2741
 5963SOL    HW129351   0.216   1.923   2.256  0.0329  0.2976 -0.6999
 5963SOL    HW229352   0.180   2.052   2.281 -0.5868  1.0778  1.4450
 5964SOL     OW29353   1.030   4.226   6.372 -0.0547  0.0388  0.3571
 5964SOL    HW129354   1.097   4.159   6.356 -0.9281 -0.4243 -1.4014
 5964SOL    HW229355   1.041   4.251   6.464  0.6011 -1.3917  0.6613
 5965SOL     OW29356   2.422   3.245  14.765 -0.3646 -0.2653 -0.4074
 5965SOL    HW129357   2.436   3.334  14.799  1.0413  0.1075 -1.9879
 5965SOL    HW229358   2.343   3.218  14.813 -0.6803  1.2471 -0.0759
 5966SOL     OW29359   3.792   4.314  10.149 -0.5627  0.2900  0.2974
 5966SOL    HW129360   3.744   4.258  10.210 -0.8053 -2.2092 -2.1598
 5966SOL    HW229361   3.723   4.324  10.083 -1.5819 -0.8067  1.2131
 5967SOL     OW29362   2.695   3.459   5.140  0.5164  0.0969 -0.7443
 5967SOL    HW129363   2.718   3.444   5.232 -3.5536  0.7829  0.3895
 5967SOL    HW229364   2.605   3.490   5.151  0.2348 -1.2145  0.5973
 5968SOL     OW29365   1.737   2.206   9.019  0.4478 -0.3230 -0.7671
 5968SOL    HW129366   1.698   2.228   9.104  2.1526 -0.4017  0.0287
 5968SOL    HW229367   1.736   2.110   9.021  1.0193 -0.2983  0.3549
 5969SOL     OW29368   1.866   3.171  10.083  0.4954 -0.8020 -0.3996
 5969SOL    HW129369   1.934   3.113  10.116  1.6268  0.2533 -0.9127
 5969SOL    HW229370   1.794   3.161  10.146 -1.1087 -1.3684 -2.3146
 5970SOL     OW29371   3.243   1.926   3.554  0.8550  0.3744 -0.2570
 5970SOL    HW129372   3.333   1.899   3.571  0.6567 -1.7782 -2.6610
 5970SOL    HW229373   3.198   1.843   3.537 -1.0413  1.5390 -0.9595
 5971SOL     OW29374   4.056   0.416   0.683  0.0114 -0.5909  0.7013
 5971SOL    HW129375   4.074   0.485   0.619  0.3685  0.6733  2.1616
 5971SOL    HW229376   3.987   0.460   0.733 -2.6570 -1.2507 -2.4209
 5972SOL     OW29377   1.218   0.841   3.793  0.1747  0.3837  0.2545
 5972SOL    HW129378   1.153   0.884   3.848 -0.6350 -1.9962  1.1932
 5972SOL    HW229379   1.291   0.899   3.815 -2.5124  2.9028  2.4746
 5973SOL     OW29380   2.364   3.709  14.194  0.2139 -0.1457  0.1892
 5973SOL    HW129381   2.371   3.805  14.198  0.9880 -0.2892  2.0818
 5973SOL    HW229382   2.274   3.690  14.165 -0.9527 -0.0010  3.7028
 5974SOL     OW29383   0.736   1.597  15.785  0.3114  0.3415  0.2961
 5974SOL    HW129384   0.684   1.677  15.791  0.5185  0.5501 -0.7638
 5974SOL    HW229385   0.789   1.609  15.706 -0.3803 -0.8300 -0.3351
 5975SOL     OW29386   2.775   4.135   2.075  0.1937 -0.7242 -0.0339
 5975SOL    HW129387   2.819   4.201   2.129 -0.2945 -1.0134  0.7273
 5975SOL    HW229388   2.755   4.180   1.993 -1.4228 -0.2753  0.6026
 5976SOL     OW29389   2.728   0.519   5.496 -0.3513  0.0987 -0.0561
 5976SOL    HW129390   2.687   0.434   5.480  1.3163 -0.5238 -1.0854
 5976SOL    HW229391   2.770   0.496   5.579 -1.1615 -0.0838  0.2996
 5977SOL     OW29392   1.912   3.454   6.613 -0.0387  0.5257 -0.1459
 5977SOL    HW129393   1.837   3.479   6.666  0.3031 -1.7062  1.4232
 5977SOL    HW229394   1.870   3.459   6.528 -0.1666  0.9103 -0.0552
 5978SOL     OW29395   1.608   2.270   9.245  0.0111  0.0393  0.3448
 5978SOL    HW129396   1.662   2.316   9.308  0.0770  0.3970  0.0276
 5978SOL    HW229397   1.538   2.241   9.304  0.5344 -0.8958  0.4993
 5979SOL     OW29398   0.390   2.997   1.125  0.0597  0.4479 -0.1385
 5979SOL    HW129399   0.328   2.952   1.067  1.3620 -1.0251 -0.3940
 5979SOL    HW229400   0.357   3.084   1.105 -0.6624  0.2303  0.0996
 5980SOL     OW29401   1.299   2.855  13.393  0.5815  0.2371 -0.3246
 5980SOL    HW129402   1.252   2.926  13.350  1.5272 -0.4995 -2.5392
 5980SOL    HW229403   1.257   2.844  13.479  1.4768  0.2996  0.1235
 5981SOL     OW29404   3.980   0.487   5.896  0.3023  0.3884 -0.0778
 5981SOL    HW129405   3.900   0.520   5.856 -0.7222  1.6697  2.9848
 5981SOL    HW229406   4.009   0.566   5.943  1.7104 -0.4345  0.4516
 5982SOL     OW29407   2.398   2.272   7.037  0.3803  0.2501  0.1074
 5982SOL    HW129408   2.366   2.208   6.974  1.0637 -2.3891  2.4388
 5982SOL    HW229409   2.472   2.311   6.992  1.6974 -1.0456  1.1687
 5983SOL     OW29410   1.523   3.881   9.533  0.2499 -0.0441 -0.0917
 5983SOL    HW129411   1.594   3.817   9.531 -1.2931 -1.8630  3.7843
 5983SOL    HW229412   1.465   3.849   9.463 -0.0843 -0.7345  0.4992
 5984SOL     OW29413   0.767   2.964   1.789  0.6716  0.1707 -0.1968
 5984SOL    HW129414   0.816   2.998   1.714 -0.7232  1.4658 -0.5266
 5984SOL    HW229415   0.828   2.974   1.862  0.0759  1.9041  0.0729
 5985SOL     OW29416   2.295   4.447   4.743  0.0742 -0.0182  0.8392
 5985SOL    HW129417   2.346   4.501   4.683 -0.1612  0.0318  0.6899
 5985SOL    HW229418   2.212   4.494   4.746 -0.5618 -0.9709 -2.2115
 5986SOL     OW29419   4.584   1.871   8.590  0.0911  0.3361 -0.1137
 5986SOL    HW129420   4.569   1.929   8.665  0.0339 -1.0851  0.9882
 5986SOL    HW229421   4.503   1.823   8.574  0.6860 -0.4079 -0.9392
 5987SOL     OW29422   0.951   0.898   7.701  0.3161  0.0129 -0.2331
 5987SOL    HW129423   0.903   0.848   7.634  3.1229 -2.2838 -0.5383
 5987SOL    HW229424   0.878   0.937   7.750  2.0162  0.5243  1.8775
 5988SOL     OW29425   4.425   2.149   2.379 -0.1199  0.2576  0.3063
 5988SOL    HW129426   4.475   2.200   2.316  2.5583 -1.5946  0.9353
 5988SOL    HW229427   4.480   2.151   2.457 -0.5672 -1.3191  0.6647
 5989SOL     OW29428   3.890   0.374  14.442 -0.0648 -0.3556 -0.5910
 5989SOL    HW129429   3.905   0.291  14.487  1.1366  1.9862  3.3408
 5989SOL    HW229430   3.800   0.388  14.472 -0.4113 -0.3761 -1.6140
 5990SOL     OW29431   0.108   0.529   5.115  0.3832 -0.8093 -0.2086
 5990SOL    HW129432   0.158   0.579   5.051 -1.4117 -0.0088 -0.9639
 5990SOL    HW229433   0.037   0.591   5.129 -0.1702 -2.2859  3.5807
 5991SOL     OW29434   2.724   1.530   2.655 -0.6509  0.8062  0.0651
 5991SOL    HW129435   2.753   1.460   2.598  1.1752  2.6442 -1.2548
 5991SOL    HW229436   2.630   1.524   2.640 -0.7418  1.9146  0.1482
 5992SOL     OW29437   4.487   3.651   1.246  0.2765 -0.1619  0.1085
 5992SOL    HW129438   4.533   3.676   1.166 -0.1959  0.8850  0.1618
 5992SOL    HW229439   4.539   3.585   1.292  1.6805  1.1884  0.4394
 5993SOL     OW29440   4.363   3.728   1.960 -0.1912 -0.2043  0.7807
 5993SOL    HW129441   4.402   3.660   1.905 -0.6154 -0.0237  0.2541
 5993SOL    HW229442   4.270   3.708   1.961 -0.0463 -0.9883 -0.7189
 5994SOL     OW29443   1.591   3.231   1.002  0.1177 -0.1626  0.2110
 5994SOL    HW129444   1.667   3.288   0.991  0.1243 -0.5457 -1.7254
 5994SOL    HW229445   1.544   3.238   0.919 -0.0414 -3.0283  0.0496
 5995SOL     OW29446   2.480   3.001   8.496  0.0960  0.0328 -0.4193
 5995SOL    HW129447   2.551   3.046   8.543 -1.4768  2.0238  0.0542
 5995SOL    HW229448   2.424   3.078   8.484 -1.5919 -0.9798  0.9965
 5996SOL     OW29449   1.690   4.581   0.237  0.5075 -0.2343 -0.3594
 5996SOL    HW129450   1.610   4.604   0.283 -0.1492 -1.2309 -1.0249
 5996SOL    HW229451   1.683   4.486   0.229 -0.9082 -0.0708 -0.9820
 5997SOL     OW29452   0.070   4.546   2.776  0.8199  0.5951  0.1231
 5997SOL    HW129453   0.043   4.470   2.724 -0.4171  1.0631  0.0893
 5997SOL    HW229454   0.086   4.514   2.864  0.5735  1.1275  0.3622
 5998SOL     OW29455   3.363   0.986   7.193  0.1907  0.1664 -0.4102
 5998SOL    HW129456   3.395   1.029   7.272 -1.7715  2.5780 -0.9239
 5998SOL    HW229457   3.443   0.982   7.140 -0.0836 -2.6178 -0.6537
 5999SOL     OW29458   4.222   0.583   7.740 -0.1465  0.7971 -0.2939
 5999SOL    HW129459   4.278   0.531   7.683 -1.1791  0.1819 -0.7608
 5999SOL    HW229460   4.265   0.667   7.729 -1.5605  1.5373 -0.1249
 6000SOL     OW29461   3.995   0.158   3.511 -0.7224  0.0825 -0.4407
 6000SOL    HW129462   4.053   0.158   3.435  2.0191 -2.8774  1.6345
 6000SOL    HW229463   3.916   0.187   3.465 -0.2818  0.3802 -1.0102
 6001SOL     OW29464   4.565   2.878  13.281  0.2885  0.2927 -0.5619
 6001SOL    HW129465   4.526   2.873  13.194 -1.1906  1.4657  0.0364
 6001SOL    HW229466   4.659   2.865  13.266  0.3142  1.9200 -1.8790
 6002SOL     OW29467   2.450   0.379  11.329  0.2019 -0.2709  0.1026
 6002SOL    HW129468   2.484   0.316  11.393  1.4178  0.4830  0.2128
 6002SOL    HW229469   2.532   0.418  11.299  1.4475 -3.1776 -0.2221
 6003SOL     OW29470   2.007   1.482   3.443 -1.1085 -0.5359  0.2156
 6003SOL    HW129471   2.043   1.506   3.528  0.0872  0.1066 -0.4658
 6003SOL    HW229472   2.054   1.403   3.417 -0.1241  0.2049 -0.2672
 6004SOL     OW29473   0.378   2.112   0.671 -0.2994  0.5058  0.5409
 6004SOL    HW129474   0.398   2.059   0.748  1.1890  0.6032  0.2272
 6004SOL    HW229475   0.460   2.107   0.622 -1.7679 -4.1798 -1.4467
 6005SOL     OW29476   1.392   4.283   5.942 -0.2986 -0.4124 -0.5682
 6005SOL    HW129477   1.479   4.290   5.902 -0.2752 -0.1939 -0.4791
 6005SOL    HW229478   1.339   4.247   5.871 -1.1616 -2.1427  0.9571
 6006SOL     OW29479   3.512   2.488   3.311  0.1798  0.1697 -0.6576
 6006SOL    HW129480   3.596   2.479   3.265 -0.1746 -0.4328 -1.1837
 6006SOL    HW229481   3.479   2.400   3.295 -1.3284  0.7353 -0.7101
 6007SOL     OW29482   0.099   3.378   2.659  0.2539  0.3785 -0.1366
 6007SOL    HW129483   0.006   3.402   2.654  0.0292 -0.5318 -0.3237
 6007SOL    HW229484   0.097   3.294   2.612  3.8612 -0.2035  0.7830
 6008SOL     OW29485   2.472   0.902   0.204  0.0662  0.6369  0.2261
 6008SOL    HW129486   2.407   0.968   0.182  0.5281  0.5335 -1.4042
 6008SOL    HW229487   2.488   0.924   0.296  2.5673 -1.7886  0.3796
 6009SOL     OW29488   2.841   1.318   4.319  0.4505 -0.5231  0.3667
 6009SOL    HW129489   2.763   1.270   4.290 -0.3338  1.0460 -0.1282
 6009SOL    HW229490   2.873   1.340   4.231  1.0718  0.4337  0.8374
 6010SOL     OW29491   4.544   4.411   7.457 -0.4637  0.3542  0.1176
 6010SOL    HW129492   4.501   4.496   7.453  2.1703  1.7574  1.6497
 6010SOL    HW229493   4.482   4.357   7.409 -0.2724 -1.3483  1.7465
 6011SOL     OW29494   1.361   1.290   4.080  0.3509 -0.3075  0.3578
 6011SOL    HW129495   1.362   1.195   4.098  1.1960 -0.6556 -1.6259
 6011SOL    HW229496   1.367   1.284   3.985 -1.1750  0.1530  0.2351
 6012SOL     OW29497   2.806   0.595   3.782 -0.2823 -0.4297  0.3404
 6012SOL    HW129498   2.717   0.623   3.805  0.0526  3.0271 -2.4744
 6012SOL    HW229499   2.801   0.630   3.693 -3.0365  0.9336  1.0293
 6013SOL     OW29500   4.633   2.198   6.709 -0.3898 -0.5305 -0.4489
 6013SOL    HW129501   4.641   2.157   6.795  1.0309 -1.0404 -0.8282
 6013SOL    HW229502   4.668   2.284   6.732 -2.6058 -0.0069  1.0014
 6014SOL     OW29503   1.614   3.988   3.140 -0.3658  0.4294  0.3304
 6014SOL    HW129504   1.609   4.080   3.166 -2.4463  0.4203 -0.0698
 6014SOL    HW229505   1.707   3.982   3.118 -0.3312  3.5083 -0.3562
 6015SOL     OW29506   3.465   2.629   2.088 -0.0105 -0.0119 -0.2445
 6015SOL    HW129507   3.538   2.658   2.142 -0.6624  0.2710  0.4933
 6015SOL    HW229508   3.470   2.692   2.016 -2.0318  1.0262  0.4889
 6016SOL     OW29509   4.163   2.277   7.845 -0.0230 -0.2650 -0.5550
 6016SOL    HW129510   4.204   2.358   7.816  0.1662  0.0778  0.6668
 6016SOL    HW229511   4.105   2.270   7.768  0.1679 -0.4626 -0.6788
 6017SOL     OW29512   1.945   4.580   6.331 -0.4035  0.5881  0.0792
 6017SOL    HW129513   1.997   4.649   6.371 -1.4780  0.9008  0.9334
 6017SOL    HW229514   2.007   4.552   6.264  0.2822 -0.2666  1.0795
 6018SOL     OW29515   0.521   0.292   3.838  0.8176  0.0955  0.0375
 6018SOL    HW129516   0.450   0.347   3.804  0.2875 -0.4894  0.2094
 6018SOL    HW229517   0.565   0.278   3.754  3.5071  0.5434  1.3817
 6019SOL     OW29518   2.446   0.307   3.311 -0.4507 -0.6741  0.6679
 6019SOL    HW129519   2.391   0.230   3.325  2.1903 -1.9575  3.9579
 6019SOL    HW229520   2.408   0.345   3.231  0.4253  0.5338  0.8247
 6020SOL     OW29521   1.184   0.317   7.080 -0.1092 -0.4442  0.2190
 6020SOL    HW129522   1.205   0.389   7.140 -0.1656 -0.6056  0.4298
 6020SOL    HW229523   1.137   0.368   7.014  0.1711 -1.1851 -0.5588
 6021SOL     OW29524   2.584   1.628   3.294  0.2533 -0.4688 -0.1570
 6021SOL    HW129525   2.619   1.640   3.205 -2.0518  1.5603 -0.8045
 6021SOL    HW229526   2.667   1.631   3.341  0.3791  0.6674 -0.4607
 6022SOL     OW29527   0.522   1.948   9.900  0.0141 -0.3869  0.2705
 6022SOL    HW129528   0.455   1.992   9.847 -0.3419 -0.0398  1.0093
 6022SOL    HW229529   0.602   1.996   9.880 -1.9521  2.6206 -0.2982
 6023SOL     OW29530   3.328   0.180   4.645 -1.0760 -0.3585 -0.0298
 6023SOL    HW129531   3.300   0.266   4.676 -0.0573 -0.0966  0.1694
 6023SOL    HW229532   3.317   0.195   4.552  0.2129 -0.8215 -0.2659
 6024SOL     OW29533   0.808   0.889   7.124  0.9582  0.8535  0.6043
 6024SOL    HW129534   0.759   0.941   7.060  1.7824 -0.2430 -0.8982
 6024SOL    HW229535   0.765   0.917   7.206 -0.0148 -0.9952  0.7235
 6025SOL     OW29536   2.478   0.589   6.812  0.2331 -0.2638  0.1765
 6025SOL    HW129537   2.535   0.558   6.883  1.4182 -0.0426 -0.6785
 6025SOL    HW229538   2.394   0.582   6.856  0.6072 -0.8108  0.8036
 6026SOL     OW29539   3.659   2.657   4.334  0.6331  0.4216 -0.3529
 6026SOL    HW129540   3.732   2.611   4.376  0.5982 -1.2786 -2.1802
 6026SOL    HW229541   3.687   2.666   4.243  3.3272  3.5976  0.7528
 6027SOL     OW29542   4.230   0.902   2.205  0.0596  0.4973 -0.2983
 6027SOL    HW129543   4.137   0.896   2.224  0.0658 -0.0382 -0.4593
 6027SOL    HW229544   4.247   0.809   2.221  1.1622  0.8808  0.7355
 6028SOL     OW29545   3.394   0.458   4.830  0.0523  0.0121 -0.2366
 6028SOL    HW129546   3.476   0.407   4.831 -0.3747 -0.7148 -1.7675
 6028SOL    HW229547   3.391   0.516   4.906  1.4856  2.7234 -2.2430
 6029SOL     OW29548   1.822   2.540  10.319 -0.3006 -0.0467 -0.3681
 6029SOL    HW129549   1.761   2.483  10.365 -2.4599  0.0988 -3.0855
 6029SOL    HW229550   1.783   2.624  10.347  0.1551  0.5962 -1.6844
 6030SOL     OW29551   4.527   2.412   0.393  0.0287 -0.6180  0.1863
 6030SOL    HW129552   4.456   2.347   0.395  1.6315 -2.4058 -1.0114
 6030SOL    HW229553   4.495   2.473   0.459  0.4723  1.5269 -1.5944
 6031SOL     OW29554   0.627   1.749   6.033  0.3978 -0.6187  0.1181
 6031SOL    HW129555   0.543   1.715   6.063  0.4706  0.9075  2.0231
 6031SOL    HW229556   0.609   1.842   6.050  1.7659 -0.4924  0.8186
 6032SOL     OW29557   0.237   3.244  11.137  0.2340  0.5802 -0.2890
 6032SOL    HW129558   0.328   3.215  11.141 -0.3520 -1.4128 -1.5955
 6032SOL    HW229559   0.201   3.207  11.056  0.4767  0.7851 -0.4904
 6033SOL     OW29560   0.946   2.213   9.397  0.7218  0.5512  0.5581
 6033SOL    HW129561   1.007   2.139   9.393  0.0141  0.0088 -0.2536
 6033SOL    HW229562   0.938   2.223   9.302 -0.2963 -1.0195  0.4743
 6034SOL     OW29563   2.424   4.343   3.303  0.0545 -0.1146 -0.6099
 6034SOL    HW129564   2.416   4.438   3.303 -0.6056 -0.1688  2.9159
 6034SOL    HW229565   2.476   4.327   3.224  0.1320 -1.0144 -0.3741
 6035SOL     OW29566   0.167   4.042   3.898 -0.0331 -0.3179  0.6729
 6035SOL    HW129567   0.262   4.035   3.893  0.1080  0.7418  2.0052
 6035SOL    HW229568   0.165   4.094   3.978  0.8348  2.9451 -1.4301
 6036SOL     OW29569   2.696   4.546   4.599 -0.1570 -0.2857  0.7024
 6036SOL    HW129570   2.604   4.522   4.593  0.6390 -3.2651  0.4079
 6036SOL    HW229571   2.687   4.636   4.631  3.1652  0.4366 -0.3373
 6037SOL     OW29572   2.659   4.168   7.995 -0.3356  0.2215  0.5556
 6037SOL    HW129573   2.625   4.245   8.040 -1.8790 -1.8303  2.8920
 6037SOL    HW229574   2.585   4.109   8.012 -1.0351  1.2752  1.1587
 6038SOL     OW29575   0.420   2.367   5.657 -0.2248 -0.3064 -0.0171
 6038SOL    HW129576   0.492   2.311   5.684 -1.1433 -1.2625  0.4741
 6038SOL    HW229577   0.424   2.439   5.719  1.3228 -0.2488 -0.2085
 6039SOL     OW29578   0.247   0.347   9.481 -0.3028 -0.1480  0.2122
 6039SOL    HW129579   0.270   0.315   9.394 -2.0145  0.6415 -0.5316
 6039SOL    HW229580   0.198   0.268   9.505 -1.9456  0.4631 -1.1052
 6040SOL     OW29581   4.090   4.486  12.009  0.2519 -0.4670  0.1306
 6040SOL    HW129582   4.002   4.522  12.020  1.0153  1.1305  0.9205
 6040SOL    HW229583   4.144   4.563  11.993 -0.1069  0.1622  2.0594
 6041SOL     OW29584   4.133   3.410   2.296  0.0968 -0.2713 -0.2548
 6041SOL    HW129585   4.144   3.401   2.390  0.5903  0.1920 -0.2683
 6041SOL    HW229586   4.217   3.444   2.264 -0.3493 -1.6341 -2.9269
 6042SOL     OW29587   2.787   3.311   0.155 -0.1026 -0.2894 -0.1253
 6042SOL    HW129588   2.832   3.394   0.139  0.5115 -1.1786 -3.1862
 6042SOL    HW229589   2.863   3.252   0.149 -1.6922 -2.5139  1.9632
 6043SOL     OW29590   1.036   0.536   2.870  0.1315 -0.1208 -0.0697
 6043SOL    HW129591   1.123   0.496   2.878 -0.2991 -0.9672  0.2690
 6043SOL    HW229592   1.052   0.572   2.783  2.8747 -0.6840  0.1958
 6044SOL     OW29593   2.876   3.286   7.257 -0.0272 -0.1351 -0.2588
 6044SOL    HW129594   2.922   3.369   7.263 -0.9428  0.4162 -0.8536
 6044SOL    HW229595   2.932   3.226   7.306 -1.2085 -0.8154  0.2545
 6045SOL     OW29596   0.597   2.875   3.647  0.1629 -0.1844 -0.4667
 6045SOL    HW129597   0.543   2.878   3.568  0.3870  0.3717 -0.6032
 6045SOL    HW229598   0.638   2.962   3.646 -1.5569  0.6094 -1.6631
 6046SOL     OW29599   0.715   1.212   5.656  0.1439 -0.1693 -0.1868
 6046SOL    HW129600   0.744   1.288   5.707 -1.2915  0.8224 -0.8467
 6046SOL    HW229601   0.756   1.225   5.570 -2.1484 -0.0184 -1.2728
 6047SOL     OW29602   1.038   2.520   8.337 -0.1418 -0.0382  0.2565
 6047SOL    HW129603   0.974   2.532   8.267  1.0505 -1.7407 -1.1094
 6047SOL    HW229604   1.010   2.437   8.377 -0.4425  0.7682  1.7184
 6048SOL     OW29605   2.854   2.705   4.089  1.1036  0.2633 -0.0737
 6048SOL    HW129606   2.781   2.660   4.046  0.0523  1.1867  0.7430
 6048SOL    HW229607   2.838   2.797   4.067  1.1146  0.1313 -0.6355
 6049SOL     OW29608   1.627   4.361  13.111 -0.2250  0.3884 -0.8303
 6049SOL    HW129609   1.538   4.335  13.134 -0.5418  2.8825  0.7446
 6049SOL    HW229610   1.671   4.285  13.149  3.2105  2.8663  0.2114
 6050SOL     OW29611   4.273   4.219   8.907  0.0716 -0.3969  0.1348
 6050SOL    HW129612   4.228   4.213   8.992  0.8243  1.9282  0.6953
 6050SOL    HW229613   4.195   4.234   8.853 -0.4324  1.3577  1.3189
 6051SOL     OW29614   2.044   1.891  15.215 -0.1178  0.2596 -0.4022
 6051SOL    HW129615   2.124   1.904  15.164 -1.8036 -0.5287 -3.2607
 6051SOL    HW229616   2.090   1.871  15.297 -1.0376  1.9401  0.5129
 6052SOL     OW29617   3.747   3.596  17.543  0.4619  0.1041  0.2497
 6052SOL    HW129618   3.717   3.578  17.632  1.4030 -1.1180  0.3174
 6052SOL    HW229619   3.740   3.508  17.506  0.0472  1.0754 -1.9991
 6053SOL     OW29620   0.484   3.148  13.094  0.7704  0.0466  0.4904
 6053SOL    HW129621   0.490   3.168  13.001  1.6090  1.7009  0.9069
 6053SOL    HW229622   0.393   3.164  13.121  0.0077 -0.4525 -1.8308
 6054SOL     OW29623   4.591   0.907   7.028 -0.6362  0.2697  0.4805
 6054SOL    HW129624   4.608   0.893   6.934  1.2252 -0.7222  0.9528
 6054SOL    HW229625   4.577   1.002   7.030 -0.2201  0.3872 -1.8235
 6055SOL     OW29626   1.109   4.692   0.997  0.3002  0.2813 -1.1522
 6055SOL    HW129627   1.064   0.029   0.937  1.5522  1.3014 -1.0694
 6055SOL    HW229628   1.198   0.004   0.999  0.9111 -1.4088  1.5181
 6056SOL     OW29629   2.809   1.952   6.920  0.1583  0.1839  0.2993
 6056SOL    HW129630   2.895   1.954   6.878  0.7653 -2.6587  1.4184
 6056SOL    HW229631   2.792   2.046   6.924 -0.2296  0.1107  0.3088
 6057SOL     OW29632   4.001   2.244   3.523 -0.6757  0.6583 -0.0517
 6057SOL    HW129633   4.014   2.334   3.493  1.9245  0.6039  0.8564
 6057SOL    HW229634   4.090   2.234   3.557 -0.8209 -2.5141 -0.6499
 6058SOL     OW29635   3.306   0.792  13.992 -0.2028  0.1699 -0.0076
 6058SOL    HW129636   3.277   0.808  14.082  3.4262  0.5584  1.0865
 6058SOL    HW229637   3.352   0.708  14.002  0.3568  0.6077  1.0319
 6059SOL     OW29638   1.854   1.775   2.639 -0.0539  0.3606  0.1966
 6059SOL    HW129639   1.770   1.751   2.600  1.3498 -2.1355 -1.3203
 6059SOL    HW229640   1.877   1.849   2.582  1.5425 -0.5688 -0.3809
 6060SOL     OW29641   0.989   0.814  15.991 -0.2247 -0.1955  0.7009
 6060SOL    HW129642   0.914   0.845  16.042 -1.4615  0.9949 -1.8896
 6060SOL    HW229643   0.990   0.875  15.918  1.3029 -1.7541 -0.5575
 6061SOL     OW29644   3.205   1.944   3.224  0.1135  0.0783 -0.0378
 6061SOL    HW129645   3.299   1.952   3.203  0.2772 -0.3211  0.5485
 6061SOL    HW229646   3.189   2.036   3.248 -0.8971  0.4311 -2.0665
 6062SOL     OW29647   3.589   2.930   6.741 -0.5966  0.1566  0.1594
 6062SOL    HW129648   3.653   2.862   6.762 -0.5117 -0.1159 -0.9618
 6062SOL    HW229649   3.577   2.972   6.826 -0.4260  0.4503  0.0362
 6063SOL     OW29650   3.363   0.154  13.609 -0.0915 -0.3386 -0.1393
 6063SOL    HW129651   3.415   0.084  13.571  0.0095 -0.3021 -0.0662
 6063SOL    HW229652   3.421   0.173  13.682  2.0348 -1.1102 -1.6296
 6064SOL     OW29653   4.200   4.361   3.075  0.3289 -0.3214 -0.4977
 6064SOL    HW129654   4.272   4.408   3.033 -1.1544  0.6954 -1.8834
 6064SOL    HW229655   4.145   4.438   3.089 -1.6552 -1.4588 -1.9576
 6065SOL     OW29656   2.419   0.591   4.366  0.3256  0.1821 -0.0245
 6065SOL    HW129657   2.511   0.595   4.392  0.1939  0.1895  0.4452
 6065SOL    HW229658   2.383   0.573   4.453  1.1697 -0.5684  0.1714
 6066SOL     OW29659   2.793   0.564   1.106 -0.2325 -0.2669 -0.4796
 6066SOL    HW129660   2.886   0.574   1.124 -0.6734  0.5817  1.3447
 6066SOL    HW229661   2.795   0.471   1.082  0.9170 -0.4034  0.1555
 6067SOL     OW29662   2.210   2.761  10.486  0.4616 -0.1814  0.3038
 6067SOL    HW129663   2.260   2.749  10.567  0.6033 -2.1662 -0.0693
 6067SOL    HW229664   2.126   2.793  10.520  1.5477  2.0316  0.9271
 6068SOL     OW29665   2.779   2.157   3.279 -0.0062  0.4246 -0.1078
 6068SOL    HW129666   2.838   2.083   3.295 -2.3618 -1.2512  0.7919
 6068SOL    HW229667   2.782   2.156   3.183 -1.9593 -1.0322 -0.1452
 6069SOL     OW29668   2.762   2.624   6.961 -1.1151 -0.2886  0.4845
 6069SOL    HW129669   2.767   2.580   7.046  0.0337  0.1627  0.6594
 6069SOL    HW229670   2.691   2.686   6.977  0.1891  1.3027  0.1280
 6070SOL     OW29671   3.896   2.028   3.950  0.0057  0.3587  0.5010
 6070SOL    HW129672   3.890   1.946   3.900 -0.8872 -0.6927  2.3160
 6070SOL    HW229673   3.984   2.059   3.928  0.1193 -0.2884  0.0368
 6071SOL     OW29674   3.319   2.420   2.416 -0.2236  0.1335 -0.4578
 6071SOL    HW129675   3.262   2.416   2.339  0.1560 -0.7612 -0.6936
 6071SOL    HW229676   3.346   2.511   2.411 -0.1333  0.1307  0.0678
 6072SOL     OW29677   0.667   1.629  14.250 -0.0420  0.4951 -0.3481
 6072SOL    HW129678   0.581   1.670  14.243 -2.0548 -3.5659  0.3408
 6072SOL    HW229679   0.661   1.553  14.191 -1.0908  0.5051 -0.2427
 6073SOL     OW29680   3.609   0.095   7.461 -0.1441 -0.3674 -0.1461
 6073SOL    HW129681   3.564   0.157   7.403  2.0013  0.0191 -1.4224
 6073SOL    HW229682   3.530   0.047   7.484 -0.4861 -0.2287 -1.0416
 6074SOL     OW29683   4.318   0.987   6.766 -0.1017 -0.2277 -0.6969
 6074SOL    HW129684   4.280   0.968   6.680  0.2162  0.3630 -0.9666
 6074SOL    HW229685   4.408   1.009   6.741  0.3712  0.9113  2.0576
 6075SOL     OW29686   0.336   2.781   8.322 -0.3237  0.4683  0.1536
 6075SOL    HW129687   0.276   2.739   8.260  1.7985 -0.7673 -1.0698
 6075SOL    HW229688   0.412   2.811   8.272  0.4860 -0.7511  0.6393
 6076SOL     OW29689   4.678   1.029   4.368 -0.3620  0.0368 -0.3378
 6076SOL    HW129690   4.709   0.952   4.320  0.5101 -0.7247  1.4416
 6076SOL    HW229691   4.642   0.986   4.446 -0.0290 -1.8105 -1.1916
 6077SOL     OW29692   1.976   2.797   1.055  0.3841 -0.1368 -0.1489
 6077SOL    HW129693   2.041   2.791   1.125 -1.9903 -0.8062  1.9839
 6077SOL    HW229694   1.898   2.807   1.111 -1.1740  1.0911 -2.5480
 6078SOL     OW29695   1.290   1.110   8.397  0.3738 -0.4188  0.0171
 6078SOL    HW129696   1.284   1.075   8.485  0.6064  0.5541  0.4223
 6078SOL    HW229697   1.285   1.203   8.421  1.1787  0.0735 -1.7124
 6079SOL     OW29698   1.668   3.252   5.526  0.6168  0.3124 -0.9092
 6079SOL    HW129699   1.637   3.309   5.596  0.8244 -0.8959  0.1598
 6079SOL    HW229700   1.710   3.318   5.470  2.0974 -2.5299 -3.1413
 6080SOL     OW29701   2.130   1.042   2.749  0.0036  0.0894 -0.3907
 6080SOL    HW129702   2.191   0.974   2.720 -0.0224 -0.2341  0.3130
 6080SOL    HW229703   2.090   1.069   2.667  1.1036  1.7171 -0.3940
 6081SOL     OW29704   4.132   0.309   3.705 -0.5716  0.0520  0.2708
 6081SOL    HW129705   4.075   0.252   3.653 -0.6819 -0.3106  0.7942
 6081SOL    HW229706   4.165   0.370   3.638 -1.2096 -1.2157 -1.2110
 6082SOL     OW29707   0.874   3.567  10.140 -1.0145  0.0396 -0.2567
 6082SOL    HW129708   0.903   3.476  10.138  1.3507  0.7620  0.3454
 6082SOL    HW229709   0.814   3.573  10.214 -0.6019  0.7381  0.0234
 6083SOL     OW29710   1.695   0.578   2.126  0.6142  0.6465  0.8132
 6083SOL    HW129711   1.671   0.661   2.083  1.0581  0.6991  0.6738
 6083SOL    HW229712   1.684   0.509   2.061 -1.7267  0.1259  1.7524
 6084SOL     OW29713   0.725   4.535  15.270  0.0049  0.3151 -0.0941
 6084SOL    HW129714   0.790   4.465  15.278 -2.3496 -1.9339 -0.4299
 6084SOL    HW229715   0.783   4.608  15.248  0.3177  0.7692  2.2597
 6085SOL     OW29716   3.272   2.413  15.567  0.2868  0.4180 -0.3330
 6085SOL    HW129717   3.194   2.445  15.611 -0.6053 -0.1075 -1.5460
 6085SOL    HW229718   3.250   2.437  15.477 -0.7473  1.0455  0.0922
 6086SOL     OW29719   1.399   1.191   2.980  0.0385 -0.4331 -0.6082
 6086SOL    HW129720   1.338   1.190   3.054 -0.9342 -1.3957 -1.4160
 6086SOL    HW229721   1.376   1.111   2.933  1.3092 -0.6605 -0.8247
 6087SOL     OW29722   3.582   4.699   2.326  0.4857  0.3846 -0.3302
 6087SOL    HW129723   3.509   4.657   2.371  1.2486  0.1792  0.7373
 6087SOL    HW229724   3.581   0.053   2.383 -0.1988  1.3182 -1.6026
 6088SOL     OW29725   3.438   1.480  13.899 -0.2956  0.7119 -0.0207
 6088SOL    HW129726   3.429   1.570  13.931 -0.3159  1.1627 -1.3200
 6088SOL    HW229727   3.359   1.445  13.940 -0.0551  0.7538  0.4890
 6089SOL     OW29728   0.354   0.414   8.179  0.0434  0.7605  0.0960
 6089SOL    HW129729   0.324   0.428   8.089 -0.8700 -3.5357 -0.2869
 6089SOL    HW229730   0.393   0.501   8.176 -1.7966  1.6424  1.4089
 6090SOL     OW29731   1.685   2.166   6.145 -0.6261 -0.2844  0.1330
 6090SOL    HW129732   1.726   2.212   6.072  0.8519  0.2441  1.2927
 6090SOL    HW229733   1.601   2.137   6.110 -1.8763  2.8136  0.6396
 6091SOL     OW29734   2.988   0.982   3.354  0.2077 -0.3058 -0.1777
 6091SOL    HW129735   3.050   0.931   3.302  0.9855  1.5661 -1.1032
 6091SOL    HW229736   3.053   1.046   3.383 -1.4540  2.0701 -1.6619
 6092SOL     OW29737   3.363   4.381   1.596  0.7516  0.5358 -0.3526
 6092SOL    HW129738   3.440   4.349   1.643 -0.5914 -0.9948  0.8260
 6092SOL    HW229739   3.387   4.394   1.504  1.8110  0.0977 -0.1329
 6093SOL     OW29740   2.229   1.647  16.972  0.1867 -1.0577 -0.2390
 6093SOL    HW129741   2.170   1.717  16.942  1.7996  0.7806  0.9136
 6093SOL    HW229742   2.310   1.697  16.979 -1.1300  0.8953  1.1284
 6094SOL     OW29743   0.922   1.962   8.171  0.4624  0.1480  0.3124
 6094SOL    HW129744   0.854   1.896   8.162  1.3453 -0.2912 -3.1658
 6094SOL    HW229745   0.889   2.013   8.245  0.6302  1.7590 -0.7023
 6095SOL     OW29746   4.560   3.762   0.272  0.4968 -0.3956 -0.5497
 6095SOL    HW129747   4.582   3.823   0.202  0.8234  1.3227  1.0415
 6095SOL    HW229748   4.548   3.688   0.212 -2.8986 -0.3577  0.1066
 6096SOL     OW29749   0.388   2.745   4.567  0.4631  0.5906 -0.4474
 6096SOL    HW129750   0.449   2.762   4.495  1.2933 -1.1589 -0.1664
 6096SOL    HW229751   0.366   2.838   4.569 -1.8723  0.0332  0.0865
 6097SOL     OW29752   4.222   2.252   7.053  0.1318 -0.1684 -0.2095
 6097SOL    HW129753   4.164   2.325   7.073 -0.1897 -0.4840  0.0125
 6097SOL    HW229754   4.189   2.191   7.119  2.2532  0.7952  1.6995
 6098SOL     OW29755   2.014   4.355   1.921 -0.3542  0.0762 -0.1298
 6098SOL    HW129756   2.043   4.277   1.968 -2.0019 -1.5752 -1.8423
 6098SOL    HW229757   2.035   4.322   1.833  0.8525 -2.1483  0.9913
 6099SOL     OW29758   0.039   1.964   4.646  0.4589 -0.3418 -0.4686
 6099SOL    HW129759   4.676   1.981   4.684  0.5134 -1.5810  0.2331
 6099SOL    HW229760   0.095   2.021   4.699 -0.7012  2.5031 -2.3142
 6100SOL     OW29761   0.644   1.533   4.527  0.3542 -0.8179  0.0211
 6100SOL    HW129762   0.630   1.624   4.503  0.6575 -1.0152 -0.9032
 6100SOL    HW229763   0.665   1.536   4.620 -1.2717  2.2321  0.2731
 6101SOL     OW29764   4.005   1.101  13.012  0.9666 -0.0527 -0.1864
 6101SOL    HW129765   4.092   1.136  12.990  0.6347  0.9966  0.2030
 6101SOL    HW229766   3.941   1.172  13.008 -1.3908 -2.1661  0.4538
 6102SOL     OW29767   3.487   1.851   3.607  0.2064  0.3546 -0.2505
 6102SOL    HW129768   3.510   1.762   3.632  0.3154  1.0336  2.0972
 6102SOL    HW229769   3.565   1.870   3.555  0.6891 -0.7888  0.0471
 6103SOL     OW29770   1.010   2.862  13.303 -0.2396  0.2770  0.1345
 6103SOL    HW129771   1.019   2.809  13.383  0.5765 -0.8030 -0.6662
 6103SOL    HW229772   0.953   2.799  13.259  0.9600 -0.1324 -0.8292
 6104SOL     OW29773   0.428   3.455   5.630 -0.3524  0.1479 -0.2008
 6104SOL    HW129774   0.395   3.385   5.574  0.0474 -1.0729  1.1100
 6104SOL    HW229775   0.517   3.427   5.647 -0.8822 -0.5046  1.4794
 6105SOL     OW29776   0.863   3.173  14.544 -0.0255  0.8997 -0.0685
 6105SOL    HW129777   0.842   3.192  14.453  2.7265 -1.2885 -1.1261
 6105SOL    HW229778   0.953   3.200  14.561  0.0817 -0.1238  1.0205
 6106SOL     OW29779   0.151   2.632   8.098 -0.1248  0.4556  0.6027
 6106SOL    HW129780   0.148   2.714   8.048 -1.6601  1.0479  1.6852
 6106SOL    HW229781   0.090   2.657   8.167 -1.4129  2.9542 -1.4321
 6107SOL     OW29782   0.863   1.253  16.795 -0.1559  0.4083  0.3075
 6107SOL    HW129783   0.912   1.247  16.713 -3.6512  1.0552 -1.8495
 6107SOL    HW229784   0.864   1.160  16.815  2.7336  0.2035 -0.8436
 6108SOL     OW29785   3.825   0.484   6.853 -0.0171  0.3188  0.7315
 6108SOL    HW129786   3.879   0.435   6.791 -0.2118 -1.4964  1.9788
 6108SOL    HW229787   3.737   0.454   6.828  0.5823 -0.6269 -0.2374
 6109SOL     OW29788   4.574   2.915   2.883  0.3445  0.4678 -0.0756
 6109SOL    HW129789   4.521   2.874   2.815  0.1303  1.4112 -0.4681
 6109SOL    HW229790   4.561   3.009   2.876 -2.9602 -0.0138 -0.6512
 6110SOL     OW29791   1.541   0.498   6.009 -0.1985  0.1262 -0.5392
 6110SOL    HW129792   1.526   0.525   5.919 -0.6352  1.1665 -0.1510
 6110SOL    HW229793   1.543   0.582   6.054  1.9570 -0.1825 -0.0658
 6111SOL     OW29794   0.324   4.239   8.585 -0.0018  0.4592 -0.3646
 6111SOL    HW129795   0.287   4.296   8.518 -1.9119  0.9120  1.0927
 6111SOL    HW229796   0.364   4.167   8.537  1.3442 -0.3624  1.9614
 6112SOL     OW29797   3.153   2.192   3.339  0.2235  0.1408 -0.1100
 6112SOL    HW129798   3.096   2.210   3.413  1.1853 -0.8331  0.8610
 6112SOL    HW229799   3.238   2.199   3.382  0.4326  1.2346 -0.6922
 6113SOL     OW29800   0.193   2.996  16.067 -0.7913 -1.0063  0.3833
 6113SOL    HW129801   0.213   2.937  16.140  0.7485  0.5841  1.2229
 6113SOL    HW229802   0.188   2.926  16.001 -2.7160 -0.3518 -0.1666
 6114SOL     OW29803   3.696   0.479  11.012 -0.6037  0.4229 -0.0613
 6114SOL    HW129804   3.723   0.407  11.068 -1.8969  0.7480  0.9891
 6114SOL    HW229805   3.602   0.467  10.997 -0.3557  2.1473 -2.9476
 6115SOL     OW29806   1.809   1.248   2.180 -0.0512  0.3553 -0.0818
 6115SOL    HW129807   1.715   1.240   2.198  0.2879 -0.0542  1.5238
 6115SOL    HW229808   1.843   1.335   2.203 -1.6846  0.1957  2.9716
 6116SOL     OW29809   2.607   3.247  10.482 -0.0006 -0.0530  0.1724
 6116SOL    HW129810   2.677   3.215  10.424  0.0661 -1.5087  1.0480
 6116SOL    HW229811   2.588   3.173  10.540 -0.9506  0.7867  0.9122
 6117SOL     OW29812   1.490   3.028  13.293 -0.0965  0.1574 -0.5125
 6117SOL    HW129813   1.444   2.946  13.279  0.1163 -0.0486 -0.0232
 6117SOL    HW229814   1.521   3.015  13.383 -0.4413  0.6163 -0.3292
 6118SOL     OW29815   0.977   1.545  12.717 -0.0799 -0.3376 -0.8081
 6118SOL    HW129816   1.032   1.623  12.731  0.8509 -1.3969  1.4727
 6118SOL    HW229817   0.912   1.566  12.784  0.6489 -1.2307  0.1702
 6119SOL     OW29818   2.895   3.589   7.138 -0.2863 -0.3595  0.2064
 6119SOL    HW129819   2.843   3.660   7.177 -0.5521  1.1713 -2.9432
 6119SOL    HW229820   2.952   3.562   7.209 -0.4597  1.2217  0.9579
 6120SOL     OW29821   4.563   1.841   3.097  0.4658  0.2409 -0.4460
 6120SOL    HW129822   4.584   1.927   3.060 -3.2160  0.8039 -1.2259
 6120SOL    HW229823   4.515   1.864   3.177  1.6013 -0.7829  0.5217
 6121SOL     OW29824   1.507   1.983   4.963  0.1461  0.2752 -0.2685
 6121SOL    HW129825   1.596   1.961   4.935  0.8152  2.4315  0.1807
 6121SOL    HW229826   1.453   1.918   4.919  0.0842  0.2220 -0.1143
 6122SOL     OW29827   3.155   0.094   1.762  0.6503 -0.2381  0.2319
 6122SOL    HW129828   3.185   0.072   1.850  0.4641  2.7597  1.0695
 6122SOL    HW229829   3.107   0.172   1.790  1.1241  0.3643 -0.6459
 6123SOL     OW29830   2.350   2.802  16.753 -0.2954 -0.1725  0.3944
 6123SOL    HW129831   2.266   2.809  16.707  0.7639 -1.8974 -1.8307
 6123SOL    HW229832   2.379   2.893  16.752 -1.1286  0.0989  0.3284
 6124SOL     OW29833   2.617   3.184   7.644 -0.3354  0.0507  0.2413
 6124SOL    HW129834   2.523   3.199   7.634  0.3029  5.6725  2.5389
 6124SOL    HW229835   2.656   3.192   7.557 -2.5118 -0.5127 -0.7804
 6125SOL     OW29836   3.772   4.559  13.888 -0.0535  0.5392  0.4034
 6125SOL    HW129837   3.833   4.632  13.899  0.5198  0.1646 -0.2418
 6125SOL    HW229838   3.764   4.550  13.793  0.6581  0.7893  0.3149
 6126SOL     OW29839   3.518   0.282  16.341  0.1984  0.2816 -0.0101
 6126SOL    HW129840   3.433   0.285  16.295 -0.1534 -2.0642  0.4553
 6126SOL    HW229841   3.542   0.374  16.340  0.8457  0.1186  1.1815
 6127SOL     OW29842   3.550   3.857   6.713 -0.1623 -0.7480 -0.1484
 6127SOL    HW129843   3.491   3.832   6.784 -1.8293  1.3643 -0.7748
 6127SOL    HW229844   3.597   3.777   6.692 -0.7980 -1.1666  0.0218
 6128SOL     OW29845   3.433   3.749   5.312 -0.2198  0.0953  0.2742
 6128SOL    HW129846   3.471   3.675   5.265 -1.4446 -0.9662  0.9222
 6128SOL    HW229847   3.448   3.725   5.404 -0.2545  0.7280  0.4428
 6129SOL     OW29848   2.603   0.449   3.497 -0.0190  0.3881  0.6525
 6129SOL    HW129849   2.669   0.380   3.495  0.8094  1.1961 -0.7040
 6129SOL    HW229850   2.526   0.419   3.448  0.9084  0.4452 -0.8446
 6130SOL     OW29851   0.865   2.412   7.703  0.1126 -0.2529 -0.1100
 6130SOL    HW129852   0.773   2.419   7.729  0.2322  0.3812  0.1218
 6130SOL    HW229853   0.874   2.319   7.680 -2.3715 -0.8008  1.0952
 6131SOL     OW29854   0.229   1.559   3.454 -0.0926 -0.5614  0.5509
 6131SOL    HW129855   0.202   1.531   3.367 -1.9446  1.0740  0.6068
 6131SOL    HW229856   0.315   1.516   3.458  0.9157  1.3288 -1.1814
 6132SOL     OW29857   1.080   2.559   3.612 -0.3205 -0.1554  0.1895
 6132SOL    HW129858   0.986   2.576   3.613 -0.1783  0.5714  0.9646
 6132SOL    HW229859   1.100   2.549   3.519 -0.5477  0.0522  0.1203
 6133SOL     OW29860   2.789   0.759   5.031  0.4761  0.2010  0.0895
 6133SOL    HW129861   2.878   0.744   5.063  0.5022  1.5883  0.6610
 6133SOL    HW229862   2.767   0.850   5.047  0.7666  0.1202  0.9515
 6134SOL     OW29863   0.304   2.053   3.019  0.5853  0.2591 -0.0364
 6134SOL    HW129864   0.353   2.095   2.949 -0.3255 -0.0847 -0.8887
 6134SOL    HW229865   0.320   2.102   3.100 -0.6952 -0.0021  0.3862
 6135SOL     OW29866   0.782   2.768   0.227  0.1801 -0.3210 -0.0057
 6135SOL    HW129867   0.864   2.798   0.266  0.9317 -1.2146 -0.9086
 6135SOL    HW229868   0.715   2.802   0.286  0.9434  0.4855  0.3922
 6136SOL     OW29869   4.242   2.306   1.806 -0.2230  1.0443 -0.1486
 6136SOL    HW129870   4.222   2.235   1.746  0.1066  0.0544  0.9240
 6136SOL    HW229871   4.246   2.265   1.892  0.6980  0.1554 -0.6162
 6137SOL     OW29872   2.926   2.103  10.698 -0.5414 -0.4332  0.0310
 6137SOL    HW129873   2.893   2.184  10.660 -1.9390 -1.2476 -0.4988
 6137SOL    HW229874   2.854   2.043  10.675  0.0962 -2.3433  3.0346
 6138SOL     OW29875   0.479   3.000   4.803  0.6071  0.4531  0.6873
 6138SOL    HW129876   0.408   3.057   4.834 -1.4165 -2.1122  0.6839
 6138SOL    HW229877   0.487   2.938   4.876 -1.6546  2.6958  2.8294
 6139SOL     OW29878   0.887   2.491   9.410  0.0214 -0.7305  0.0915
 6139SOL    HW129879   0.923   2.409   9.377  1.0434  0.4414 -1.7158
 6139SOL    HW229880   0.815   2.499   9.347 -0.8135 -1.6448  0.9227
 6140SOL     OW29881   1.645   3.158   3.377  0.2780  0.3851  0.4559
 6140SOL    HW129882   1.622   3.067   3.360 -0.1481  0.2069  1.9537
 6140SOL    HW229883   1.702   3.150   3.454  0.7222 -0.9249 -0.0135
 6141SOL     OW29884   0.726   3.988   0.267  0.0216  0.2944  0.3619
 6141SOL    HW129885   0.806   4.034   0.241 -0.8822 -0.1296 -3.2214
 6141SOL    HW229886   0.680   3.980   0.183  0.3128 -0.8681  0.3234
 6142SOL     OW29887   4.098   2.656   5.596 -0.1347  0.4367  0.2195
 6142SOL    HW129888   4.126   2.746   5.611  1.4114  0.1574 -0.9147
 6142SOL    HW229889   4.041   2.661   5.519  2.4729 -0.2065 -1.7579
 6143SOL     OW29890   4.159   0.194   4.592  0.3665  0.1152  0.0914
 6143SOL    HW129891   4.226   0.183   4.660  0.2491  0.3801  0.2474
 6143SOL    HW229892   4.131   0.282   4.615  0.5144 -0.0377  0.8514
 6144SOL     OW29893   1.879   3.122   2.420 -0.1037  0.3801 -0.6407
 6144SOL    HW129894   1.938   3.061   2.465 -2.1908  0.1382  1.7441
 6144SOL    HW229895   1.920   3.144   2.336  0.6332 -0.7094 -0.5677
 6145SOL     OW29896   2.545   2.021  17.594  0.0710  0.5287 -0.2382
 6145SOL    HW129897   2.638   2.033  17.576 -0.5529 -0.5911 -4.1170
 6145SOL    HW229898   2.515   2.100  17.549  1.6324  0.9597 -0.5425
 6146SOL     OW29899   2.214   2.187   4.685  0.3670 -0.5361 -0.2404
 6146SOL    HW129900   2.154   2.112   4.682 -0.9493  0.5014  0.1379
 6146SOL    HW229901   2.252   2.188   4.773  0.9832 -0.3406 -0.5151
 6147SOL     OW29902   1.332   1.752   4.412 -0.4152  0.2664  0.5659
 6147SOL    HW129903   1.418   1.726   4.447  0.0621  1.3803  0.2052
 6147SOL    HW229904   1.343   1.831   4.360  0.6776 -1.0701 -1.2558
 6148SOL     OW29905   0.588   3.839   1.068  0.0192 -0.4680  0.0750
 6148SOL    HW129906   0.601   3.849   0.973  1.1354  1.2654  0.4132
 6148SOL    HW229907   0.613   3.928   1.093  1.1644 -0.7119 -0.1660
 6149SOL     OW29908   2.517   1.481   6.797 -0.2835 -0.2901  0.0723
 6149SOL    HW129909   2.573   1.483   6.874  2.2562  0.7667 -1.8074
 6149SOL    HW229910   2.505   1.388   6.777  0.8305 -0.1297 -1.3513
 6150SOL     OW29911   3.047   2.024   6.833  0.7533  0.4735  0.4586
 6150SOL    HW129912   3.045   2.054   6.742  0.1424  1.3137  0.7427
 6150SOL    HW229913   3.137   2.038   6.862  1.8744 -1.7947 -1.9477
 6151SOL     OW29914   0.905   3.433  14.720 -0.1537 -0.1550 -0.1845
 6151SOL    HW129915   0.993   3.442  14.683 -0.1737 -0.3242 -0.2752
 6151SOL    HW229916   0.913   3.342  14.750  0.8372  0.3923  1.2027
 6152SOL     OW29917   2.400   4.402   5.028 -0.3537  0.1798 -0.1923
 6152SOL    HW129918   2.385   4.318   5.072 -2.7050  0.6994 -0.0202
 6152SOL    HW229919   2.355   4.378   4.947  1.5919 -1.1736 -0.8886
 6153SOL     OW29920   3.390   0.363   1.893  0.7294  0.2604 -0.3925
 6153SOL    HW129921   3.479   0.393   1.913  1.7908 -3.6686  0.7503
 6153SOL    HW229922   3.397   0.288   1.952 -2.2363  0.7243  0.5558
 6154SOL     OW29923   2.224   3.147  14.903 -0.6595 -0.1129  0.0552
 6154SOL    HW129924   2.236   3.180  14.992  1.7981  0.0419 -0.3362
 6154SOL    HW229925   2.177   3.065  14.918  0.8541 -0.8116  1.0456
 6155SOL     OW29926   4.053   4.194   5.751  0.3372  0.0846  0.0436
 6155SOL    HW129927   4.087   4.133   5.686  2.2604  0.0801  1.0455
 6155SOL    HW229928   3.994   4.249   5.700 -0.6244  0.0725  1.1322
 6156SOL     OW29929   2.420   0.048  10.114  0.3518 -0.6461  0.1644
 6156SOL    HW129930   2.448   4.700  10.172 -0.7553 -0.6235  0.7347
 6156SOL    HW229931   2.488   0.044  10.047 -0.1861 -2.5450 -0.2758
 6157SOL     OW29932   1.357   3.643   2.869  0.8556 -0.2529  0.4862
 6157SOL    HW129933   1.306   3.569   2.901 -0.2098 -0.7705 -2.3637
 6157SOL    HW229934   1.322   3.705   2.932  0.7410  1.4436 -1.2374
 6158SOL     OW29935   4.283   1.718  14.489 -0.1850  0.1034 -0.3435
 6158SOL    HW129936   4.318   1.675  14.411  0.1541 -0.9497  0.4027
 6158SOL    HW229937   4.325   1.671  14.561  0.0341  0.5005 -0.2089
 6159SOL     OW29938   4.203   1.500   3.630  0.0425  0.6164  0.4602
 6159SOL    HW129939   4.256   1.423   3.651 -0.8953 -0.4890 -1.1856
 6159SOL    HW229940   4.218   1.503   3.535  1.1053  0.0603  0.6073
 6160SOL     OW29941   2.964   0.392   7.214  0.3096 -0.3703  0.4202
 6160SOL    HW129942   2.960   0.434   7.128 -0.5575  0.4669  0.8706
 6160SOL    HW229943   3.052   0.354   7.219 -0.9115 -3.4203 -1.7556
 6161SOL     OW29944   0.981   2.646   1.896 -0.3964 -0.4863  0.3468
 6161SOL    HW129945   0.949   2.629   1.807 -1.7721 -3.4598  1.4227
 6161SOL    HW229946   0.901   2.654   1.949 -1.6191  0.6558 -1.6749
 6162SOL     OW29947   1.123   4.052  11.554  0.0397 -0.3225  0.0136
 6162SOL    HW129948   1.215   4.033  11.570 -0.0408 -2.3449 -1.8985
 6162SOL    HW229949   1.094   3.973  11.508  0.0571  0.5322 -1.4622
 6163SOL     OW29950   3.533   2.969   7.975  0.3092 -0.5116 -0.1662
 6163SOL    HW129951   3.509   2.979   8.067  0.7008  0.0066 -0.1188
 6163SOL    HW229952   3.585   3.047   7.956  1.6061 -1.0139  1.2971
 6164SOL     OW29953   3.144   3.030   5.335 -0.5724 -0.4606  0.2383
 6164SOL    HW129954   3.221   3.015   5.280 -1.1214 -2.7921  0.0944
 6164SOL    HW229955   3.169   2.994   5.420  0.4947  1.7225  0.8366
 6165SOL     OW29956   4.491   2.775   9.465  0.0048  0.3911 -0.4593
 6165SOL    HW129957   4.443   2.784   9.383 -0.8000  2.0602  0.2177
 6165SOL    HW229958   4.433   2.809   9.532 -0.9213  0.0310 -1.0842
 6166SOL     OW29959   0.588   3.754  16.948  0.2472 -0.7353 -0.4023
 6166SOL    HW129960   0.495   3.772  16.960  0.1861 -1.9357  0.9212
 6166SOL    HW229961   0.617   3.842  16.972 -0.0370 -0.5903 -0.5900
 6167SOL     OW29962   0.407   4.639   4.912 -0.1282 -0.6756 -0.0597
 6167SOL    HW129963   0.449   4.711   4.866 -0.1532 -0.1419  0.7571
 6167SOL    HW229964   0.435   4.676   4.996 -0.3265 -0.7134  0.0250
 6168SOL     OW29965   1.378   3.683   8.962 -0.4435  0.1591  0.3355
 6168SOL    HW129966   1.392   3.645   8.875  0.1101 -0.3395  0.6410
 6168SOL    HW229967   1.443   3.752   8.954  0.5097 -0.8123 -0.3398
 6169SOL     OW29968   4.484   4.376   9.023  0.1616  0.3832  0.0891
 6169SOL    HW129969   4.536   4.456   9.015 -1.3327  1.2368 -1.0950
 6169SOL    HW229970   4.413   4.386   8.959 -0.1601 -0.0978  0.3764
 6170SOL     OW29971   4.131   1.182   6.109 -0.3631  0.4436  0.5067
 6170SOL    HW129972   4.074   1.224   6.044 -1.1016 -0.7808  0.3727
 6170SOL    HW229973   4.218   1.197   6.072 -0.1035 -1.0871  0.5176
 6171SOL     OW29974   0.926   4.543  10.294  0.2817  0.3748  0.0795
 6171SOL    HW129975   0.940   4.563  10.201 -0.1038  1.5995  0.2896
 6171SOL    HW229976   0.989   4.599  10.338 -1.8192  1.1586  2.0544
 6172SOL     OW29977   3.273   0.261  15.426 -0.1437 -0.2344 -0.3903
 6172SOL    HW129978   3.299   0.293  15.340 -1.2312  1.0744 -0.2183
 6172SOL    HW229979   3.215   0.194  15.390  0.2689 -0.6613 -0.2727
 6173SOL     OW29980   3.107   0.554   1.149  0.0481 -0.3011  0.2335
 6173SOL    HW129981   3.111   0.622   1.081 -1.4225 -1.2760 -0.8263
 6173SOL    HW229982   3.110   0.609   1.227  0.3325  1.0409 -0.7058
 6174SOL     OW29983   3.793   3.178   2.828 -0.0122 -0.2811 -0.1374
 6174SOL    HW129984   3.856   3.179   2.756  0.9016 -1.7611  0.6528
 6174SOL    HW229985   3.721   3.218   2.779  1.8859  1.9259 -1.1414
 6175SOL     OW29986   0.421   1.391   3.391  0.3475 -0.3379 -0.1970
 6175SOL    HW129987   0.374   1.351   3.318 -1.9742  0.3848  0.9237
 6175SOL    HW229988   0.427   1.315   3.449 -2.6284 -1.9553 -2.0284
 6176SOL     OW29989   3.373   2.681   9.738 -0.1255 -0.2980 -0.2383
 6176SOL    HW129990   3.462   2.694   9.771 -0.0418  0.0729 -0.6150
 6176SOL    HW229991   3.335   2.764   9.767  2.2805 -0.4525  3.3507
 6177SOL     OW29992   4.413   2.924   4.402 -0.1041  0.3196  0.0180
 6177SOL    HW129993   4.448   2.854   4.348 -1.1898  1.7190 -2.5258
 6177SOL    HW229994   4.349   2.878   4.457  0.4784  0.9379  1.2185
 6178SOL     OW29995   2.828   3.347   5.688 -0.0590  0.2517  0.1037
 6178SOL    HW129996   2.832   3.438   5.717  0.9263  0.5388 -0.9210
 6178SOL    HW229997   2.792   3.304   5.765  0.4471  1.3651  0.9612
 6179SOL     OW29998   0.919   4.091  16.029  0.2162  0.2612 -0.0030
 6179SOL    HW129999   0.846   4.139  16.069 -0.8312 -1.1154 -0.2687
 6179SOL    HW230000   0.897   3.998  16.032  3.3905 -0.4602  1.1143
 6180SOL     OW30001   0.313   2.369   7.894 -0.0056  0.2854 -0.0266
 6180SOL    HW130002   0.302   2.276   7.872 -0.4976  0.3602 -0.1024
 6180SOL    HW230003   0.304   2.376   7.989 -0.1849  2.1298 -0.1742
 6181SOL     OW30004   1.670   3.068   0.747 -0.2775  0.1888  0.4014
 6181SOL    HW130005   1.743   3.054   0.806  0.6841 -1.5860 -1.2078
 6181SOL    HW230006   1.656   2.979   0.714 -1.1245 -0.2530  1.9408
 6182SOL     OW30007   2.827   4.550   9.770  0.0466  0.2204  0.1827
 6182SOL    HW130008   2.881   4.471   9.778 -1.3797 -1.0518 -2.6648
 6182SOL    HW230009   2.882   4.605   9.714  1.3415 -0.6580  0.5698
 6183SOL     OW30010   4.099   4.134   9.101  0.0576 -0.3516  0.3831
 6183SOL    HW130011   4.032   4.074   9.069 -0.1174 -0.2399  0.5400
 6183SOL    HW230012   4.102   4.102   9.192  1.2200  0.3183  0.5876
 6184SOL     OW30013   2.975   0.535   7.739 -0.0393  0.1420  0.3630
 6184SOL    HW130014   3.026   0.595   7.792  3.2241 -1.3974 -1.0146
 6184SOL    HW230015   3.034   0.480   7.686 -0.9021 -0.0451 -0.4138
 6185SOL     OW30016   3.176   4.483   4.221  0.3301  0.1049  0.1963
 6185SOL    HW130017   3.270   4.485   4.204  0.2878  1.4824  0.1373
 6185SOL    HW230018   3.146   4.392   4.223 -1.0930  0.5417 -0.6565
 6186SOL     OW30019   2.222   0.144   5.855  0.3473  0.1178 -0.7450
 6186SOL    HW130020   2.244   0.203   5.927  0.3065  0.3706 -0.9401
 6186SOL    HW230021   2.293   0.166   5.795  0.5776  1.4614  0.0184
 6187SOL     OW30022   4.292   4.714   6.301 -0.1511  0.1737 -0.0888
 6187SOL    HW130023   4.318   4.645   6.240 -1.0579  0.9819 -1.3878
 6187SOL    HW230024   4.202   0.008   6.274 -0.0919 -1.0244 -1.0416
 6188SOL     OW30025   0.099   0.111  14.710 -0.2034 -0.2595  0.3525
 6188SOL    HW130026   0.169   0.059  14.670 -2.1358 -0.4419 -2.8363
 6188SOL    HW230027   0.145   0.195  14.719  0.2682 -0.6787  1.7049
 6189SOL     OW30028   2.827   3.864   7.213 -0.5683 -0.0710  0.2371
 6189SOL    HW130029   2.810   3.899   7.300  1.4059  0.3873  0.4313
 6189SOL    HW230030   2.749   3.890   7.164 -1.9046 -0.0675  2.3834
 6190SOL     OW30031   0.165   4.029   7.866 -0.7302 -0.1495  0.5169
 6190SOL    HW130032   0.085   3.983   7.893  1.1263 -1.3028  4.0771
 6190SOL    HW230033   0.119   4.081   7.800 -1.0168  1.1375  1.7168
 6191SOL     OW30034   0.814   3.173   4.331 -0.0246  0.2403  0.5108
 6191SOL    HW130035   0.857   3.172   4.245 -1.4704 -1.7914 -0.1932
 6191SOL    HW230036   0.725   3.167   4.298 -0.9411  1.5019  2.7764
 6192SOL     OW30037   1.756   4.172   7.018 -0.3700  0.5027  0.1624
 6192SOL    HW130038   1.696   4.170   7.092  0.2014  0.9601  0.6399
 6192SOL    HW230039   1.813   4.243   7.048 -2.4042  2.5770 -0.9203
 6193SOL     OW30040   0.715   1.456  17.641  0.5148  0.3007  0.3007
 6193SOL    HW130041   0.797   1.429  17.598  1.6114  0.9035  1.9886
 6193SOL    HW230042   0.681   1.529  17.589  0.6027 -0.1269 -0.3548
 6194SOL     OW30043   0.064   0.440  11.557  0.0383 -0.0269  0.0572
 6194SOL    HW130044   0.042   0.351  11.585  1.5664 -0.0787  1.0805
 6194SOL    HW230045   0.106   0.484  11.631 -0.5734  2.6202 -1.1345
 6195SOL     OW30046   3.591   2.751   2.563 -0.4800 -0.4048  0.3066
 6195SOL    HW130047   3.609   2.844   2.554  0.7255 -0.9749 -3.3240
 6195SOL    HW230048   3.673   2.701   2.560 -0.2449 -0.0631  1.3805
 6196SOL     OW30049   1.318   4.431  16.704  0.0643 -0.1206 -1.0352
 6196SOL    HW130050   1.225   4.441  16.683  0.2385 -0.3195 -1.9134
 6196SOL    HW230051   1.301   4.376  16.780 -0.5539  0.9581 -0.3858
 6197SOL     OW30052   0.803   4.439   6.404 -0.1810  0.6868 -0.4100
 6197SOL    HW130053   0.741   4.451   6.332  0.8359  1.5609 -1.1453
 6197SOL    HW230054   0.886   4.450   6.357  0.0529  1.7098  0.2503
 6198SOL     OW30055   0.128   0.942   7.797 -0.5156 -0.1018 -0.3166
 6198SOL    HW130056   0.090   0.869   7.747 -1.7819 -0.9666  1.8904
 6198SOL    HW230057   0.046   0.974   7.836  1.1576  2.8165  0.7973
 6199SOL     OW30058   4.658   3.662  10.987  0.9704 -0.2547 -0.3777
 6199SOL    HW130059   4.642   3.719  10.912  0.1539 -0.0335 -0.0338
 6199SOL    HW230060   4.655   3.580  10.938 -0.3907 -1.0709  1.0847
 6200SOL     OW30061   0.440   2.898   2.285  0.6153 -0.1406  0.1865
 6200SOL    HW130062   0.492   2.976   2.266  0.0787 -0.1775 -1.4920
 6200SOL    HW230063   0.426   2.899   2.379 -0.2915  1.3792  0.0403
 6201SOL     OW30064   1.264   2.823  12.748  0.5691 -1.2742  0.0860
 6201SOL    HW130065   1.185   2.844  12.798  1.3587 -1.4601  1.4055
 6201SOL    HW230066   1.299   2.755  12.805 -2.2381 -1.6763  1.3123
 6202SOL     OW30067   1.066   1.139   4.453  0.0671  0.2476  0.1599
 6202SOL    HW130068   1.101   1.098   4.532  0.0712  2.7816  1.4567
 6202SOL    HW230069   1.148   1.181   4.429  1.1470 -2.0378 -0.1192
 6203SOL     OW30070   1.045   4.134   3.753 -0.0545 -0.0582  0.1599
 6203SOL    HW130071   1.078   4.207   3.701  0.6433  0.9580  2.0558
 6203SOL    HW230072   1.103   4.060   3.734 -1.8765 -1.1809 -1.0480
 6204SOL     OW30073   2.375   2.155   8.421 -0.3712 -0.1984 -0.2183
 6204SOL    HW130074   2.467   2.141   8.443 -0.7896 -1.8257  0.5108
 6204SOL    HW230075   2.330   2.139   8.504  0.0801  0.1579  0.0949
 6205SOL     OW30076   1.928   1.990   3.078  0.2799 -0.3087  0.1467
 6205SOL    HW130077   1.872   2.067   3.071 -1.2110 -1.2855  1.5226
 6205SOL    HW230078   1.948   1.998   3.171 -1.5662 -1.4865  0.6252
 6206SOL     OW30079   2.545   0.643   7.807  0.3514  0.1396  0.5862
 6206SOL    HW130080   2.549   0.548   7.797  0.7823  0.4352 -2.0046
 6206SOL    HW230081   2.621   0.676   7.759 -0.2334 -1.5916 -1.5010
 6207SOL     OW30082   3.503   2.104   7.919  0.0986 -0.3093 -0.0934
 6207SOL    HW130083   3.423   2.092   7.970  0.2675 -0.3144  0.1728
 6207SOL    HW230084   3.473   2.078   7.833  0.5613  0.6356 -0.5424
 6208SOL     OW30085   2.388   0.933   3.235  0.2094  0.4375  0.2072
 6208SOL    HW130086   2.424   0.847   3.212 -0.9147 -0.5496  2.1694
 6208SOL    HW230087   2.306   0.909   3.278  0.9587  0.3665  1.6085
 6209SOL     OW30088   0.124   1.793  16.134  0.8069  0.4357  0.1043
 6209SOL    HW130089   0.137   1.763  16.224  2.2230  0.4912 -0.0774
 6209SOL    HW230090   0.064   1.866  16.147  0.5376  0.3950 -0.9012
 6210SOL     OW30091   4.256   2.322  14.254  0.8441 -0.0566 -0.0216
 6210SOL    HW130092   4.218   2.363  14.332 -3.4836 -2.2741 -0.9837
 6210SOL    HW230093   4.186   2.258  14.241  1.3032 -0.4167 -0.6866
 6211SOL     OW30094   2.029   3.278   3.608  0.1823  0.6657  0.1892
 6211SOL    HW130095   2.082   3.222   3.552 -1.3396  1.2629 -1.8685
 6211SOL    HW230096   1.976   3.213   3.656  1.3023 -1.6371 -1.7094
 6212SOL     OW30097   4.632   0.492   7.943 -0.2153  0.5623  0.2343
 6212SOL    HW130098   4.640   0.469   7.851 -0.8589  1.4996 -0.0560
 6212SOL    HW230099   4.694   0.434   7.988 -2.7243 -2.6346 -0.3803
 6213SOL     OW30100   2.244   4.534  11.440 -0.1503 -0.4369  0.3403
 6213SOL    HW130101   2.243   4.527  11.345  2.5439  0.2731  0.2725
 6213SOL    HW230102   2.323   4.481  11.452  0.3351  0.3415  0.5891
 6214SOL     OW30103   0.735   4.543   3.601  0.0530  0.3663 -0.2886
 6214SOL    HW130104   0.758   4.450   3.609  0.2285  0.3974 -0.4189
 6214SOL    HW230105   0.821   4.579   3.623 -0.9740  1.8527  1.2276
 6215SOL     OW30106   2.054   1.519  11.880  0.5386  0.1667  0.1267
 6215SOL    HW130107   2.024   1.584  11.816  1.2014 -0.7078 -1.0765
 6215SOL    HW230108   2.081   1.441  11.832 -0.2700  1.0421 -1.7896
 6216SOL     OW30109   3.638   3.639  17.256 -0.0505  0.6626  0.0254
 6216SOL    HW130110   3.687   3.597  17.327  1.2140 -0.0156 -1.2289
 6216SOL    HW230111   3.656   3.580  17.182  1.8311  1.1481  0.0791
 6217SOL     OW30112   1.620   0.610   5.766  0.3664  0.3444 -0.2482
 6217SOL    HW130113   1.591   0.561   5.689  0.0644 -1.7988  1.2432
 6217SOL    HW230114   1.660   0.686   5.724 -0.4740  0.4218 -0.9244
 6218SOL     OW30115   1.345   3.811   2.577  0.2909 -0.4371 -0.2253
 6218SOL    HW130116   1.344   3.716   2.562 -0.7689 -0.3958 -0.4203
 6218SOL    HW230117   1.437   3.837   2.587  0.4284 -1.4576  1.1928
 6219SOL     OW30118   3.647   1.647   7.052 -0.2035 -0.7993 -0.4169
 6219SOL    HW130119   3.605   1.695   6.980 -0.7122 -1.6895 -0.7155
 6219SOL    HW230120   3.742   1.660   7.047 -0.1442 -1.0815 -0.0012
 6220SOL     OW30121   2.237   0.532  11.239  0.3906  0.4915  0.2871
 6220SOL    HW130122   2.295   0.464  11.273  1.4079 -0.0710 -2.5629
 6220SOL    HW230123   2.296   0.604  11.261 -0.5698  1.5673 -0.6051
 6221SOL     OW30124   0.157   0.259  10.349 -0.3742  0.7839 -0.0195
 6221SOL    HW130125   0.063   0.246  10.358 -0.3070 -0.4493 -1.1120
 6221SOL    HW230126   0.167   0.354  10.345  1.0059  0.6426 -0.1130
 6222SOL     OW30127   2.585   1.686   8.951 -0.3160  0.0032  0.7639
 6222SOL    HW130128   2.494   1.710   8.973 -1.0769 -0.9771 -1.3402
 6222SOL    HW230129   2.623   1.688   9.039  0.9917  0.5045  0.1731
 6223SOL     OW30130   1.578   2.334   4.514 -0.3702  0.6987 -0.2599
 6223SOL    HW130131   1.604   2.370   4.598 -0.5778 -1.2119  0.6135
 6223SOL    HW230132   1.517   2.265   4.540  0.6066 -0.0527  0.0332
 6224SOL     OW30133   4.176   4.041   6.368 -0.0502 -0.2625  0.4580
 6224SOL    HW130134   4.105   4.071   6.424  0.6453 -0.4135  1.4225
 6224SOL    HW230135   4.144   3.961   6.326  1.9971  0.3117 -2.2366
 6225SOL     OW30136   1.203   4.513   7.314  0.7034  0.2309 -0.1700
 6225SOL    HW130137   1.126   4.569   7.322  1.5609  1.6311 -1.9175
 6225SOL    HW230138   1.166   4.442   7.368  0.8614 -0.3290 -0.7888
 6226SOL     OW30139   0.306   1.606   0.316  0.4064  0.0155  0.1920
 6226SOL    HW130140   0.377   1.650   0.269  0.6474 -0.5134  0.0633
 6226SOL    HW230141   0.239   1.672   0.335 -1.0905 -1.7690  1.1524
 6227SOL     OW30142   3.887   1.240   4.680 -1.3832 -0.0141 -0.5891
 6227SOL    HW130143   3.877   1.261   4.587  1.0753  0.4809 -0.7397
 6227SOL    HW230144   3.850   1.153   4.694  0.9112 -1.0935 -1.1981
 6228SOL     OW30145   4.576   2.153   7.934  0.1847  0.3009 -0.5498
 6228SOL    HW130146   4.493   2.137   7.889  0.7538 -1.3307 -0.9886
 6228SOL    HW230147   4.539   2.148   8.022  0.7625 -0.7389 -0.3672
 6229SOL     OW30148   1.213   2.667   9.591 -0.3799  0.5124 -0.3163
 6229SOL    HW130149   1.268   2.739   9.559 -0.5427  1.8501  2.3950
 6229SOL    HW230150   1.128   2.711   9.598 -1.0214 -0.9232  0.7133
 6230SOL     OW30151   4.340   2.020   3.801  0.1848  0.0011  0.3039
 6230SOL    HW130152   4.315   1.943   3.750 -1.5085 -0.1435  1.3625
 6230SOL    HW230153   4.422   1.985   3.835  0.1593 -2.2680 -1.9532
 6231SOL     OW30154   2.207   1.904   0.695  0.3300  0.2923  0.2283
 6231SOL    HW130155   2.130   1.960   0.704 -0.7777 -1.1393 -0.3218
 6231SOL    HW230156   2.216   1.872   0.785  0.4519  0.6549  0.3479
 6232SOL     OW30157   3.470   2.485  12.586 -0.5554 -0.0169  0.0841
 6232SOL    HW130158   3.550   2.492  12.637 -0.5822  2.6300 -0.2449
 6232SOL    HW230159   3.482   2.556  12.524 -1.3492 -3.0949 -3.6039
 6233SOL     OW30160   0.554   3.405   8.493  0.3929  0.1300  0.0028
 6233SOL    HW130161   0.554   3.320   8.537 -2.6278  1.0588  1.7829
 6233SOL    HW230162   0.609   3.463   8.547 -1.4159  1.6065  0.2560
 6234SOL     OW30163   3.231   2.323   5.358  0.3316  0.2947  0.1075
 6234SOL    HW130164   3.221   2.417   5.344  1.0002  0.3789  0.1890
 6234SOL    HW230165   3.322   2.319   5.388  0.3414  1.4589  0.2448
 6235SOL     OW30166   0.939   1.612   2.505 -0.0187  0.9751  0.5594
 6235SOL    HW130167   0.854   1.567   2.506  0.7576 -0.4620  1.1855
 6235SOL    HW230168   0.916   1.704   2.516  0.6355  0.7474  3.7307
 6236SOL     OW30169   1.518   1.324   8.507 -0.1789  0.0218  0.1235
 6236SOL    HW130170   1.595   1.316   8.564 -0.1820  0.0806  0.1362
 6236SOL    HW230171   1.536   1.269   8.430 -0.1977  1.3340 -0.8101
 6237SOL     OW30172   4.438   1.956   2.058 -0.0196  0.7540  0.0824
 6237SOL    HW130173   4.455   1.863   2.049 -0.6872  0.8188 -1.8979
 6237SOL    HW230174   4.380   1.976   1.984  2.2192 -2.0229 -2.4026
 6238SOL     OW30175   3.703   2.564   3.787 -0.2548  0.7637  0.6700
 6238SOL    HW130176   3.620   2.605   3.763 -0.9713  0.1645  2.1312
 6238SOL    HW230177   3.765   2.603   3.725 -1.4614 -1.0882 -1.7016
 6239SOL     OW30178   2.113   3.827   3.302 -0.2514  0.4155  0.5223
 6239SOL    HW130179   2.073   3.758   3.354 -2.9739  1.1200 -0.6206
 6239SOL    HW230180   2.146   3.775   3.228 -1.6473 -2.0523  1.6098
 6240SOL     OW30181   0.147   2.868   4.773  0.0540 -0.4583  0.2455
 6240SOL    HW130182   0.210   2.894   4.840 -0.9971 -0.5939  1.3004
 6240SOL    HW230183   0.076   2.931   4.785  1.8477  2.1086 -2.7096
 6241SOL     OW30184   0.516   2.363   2.311 -0.1779 -0.2536  0.2098
 6241SOL    HW130185   0.534   2.349   2.219  0.1974  4.2025 -0.3831
 6241SOL    HW230186   0.437   2.418   2.308  0.9440  1.4129  1.3015
 6242SOL     OW30187   3.223   1.055  11.870 -0.3919  0.5728  0.4988
 6242SOL    HW130188   3.215   0.960  11.877 -2.0794  0.8865  2.7679
 6242SOL    HW230189   3.134   1.087  11.864 -0.3139  0.6506 -0.2717
 6243SOL     OW30190   1.565   3.102  12.051  0.0964 -0.3026  0.2582
 6243SOL    HW130191   1.601   3.014  12.063 -3.7317 -2.0851 -1.2213
 6243SOL    HW230192   1.522   3.111  12.136  1.1789 -1.7206  0.9548
 6244SOL     OW30193   0.321   3.907  12.910  0.5625  0.1764  0.1563
 6244SOL    HW130194   0.348   3.956  12.987 -0.8907  0.9258  0.1939
 6244SOL    HW230195   0.402   3.886  12.863  1.3846 -0.3688  1.8448
 6245SOL     OW30196   4.620   3.767   4.930  0.2882  0.6783  0.3903
 6245SOL    HW130197   4.661   3.711   4.864  0.2709  2.0379 -0.7909
 6245SOL    HW230198   4.610   3.713   5.008  0.4360  1.4451  0.9395
 6246SOL     OW30199   1.021   4.275   5.475  0.0533 -0.5796 -0.4399
 6246SOL    HW130200   1.067   4.353   5.506 -2.2986  0.1816  1.1016
 6246SOL    HW230201   1.089   4.220   5.436  1.0675  2.4381 -2.9830
 6247SOL     OW30202   0.889   1.596   2.989  0.3295 -0.4100 -0.0548
 6247SOL    HW130203   0.798   1.617   2.965  0.5556  0.2618 -0.3202
 6247SOL    HW230204   0.935   1.677   2.967  0.9464 -1.5261 -2.8402
 6248SOL     OW30205   2.602   3.767   3.155 -0.1363  0.1738  0.8961
 6248SOL    HW130206   2.650   3.772   3.072 -0.7400  0.9267  0.5977
 6248SOL    HW230207   2.594   3.859   3.179  0.6774  0.3114  0.6580
 6249SOL     OW30208   1.237   0.670   3.341  0.1218 -0.5344 -0.4599
 6249SOL    HW130209   1.298   0.597   3.332 -1.7889 -2.2475  0.5234
 6249SOL    HW230210   1.240   0.715   3.256  2.5579  0.0919 -0.0365
 6250SOL     OW30211   4.139   0.564   8.304 -0.1545  0.1360  0.1670
 6250SOL    HW130212   4.123   0.643   8.357  1.9115 -0.6393  1.9417
 6250SOL    HW230213   4.048   0.541   8.289 -0.3257  1.2225 -0.4629
 6251SOL     OW30214   0.995   1.889   9.850  0.1675  0.2488  0.2477
 6251SOL    HW130215   0.915   1.938   9.830 -0.5525 -1.3824 -0.7877
 6251SOL    HW230216   1.044   1.877   9.769 -0.9278  1.9003 -0.6569
 6252SOL     OW30217   0.605   4.047  13.535  0.5734  0.1659  0.2480
 6252SOL    HW130218   0.542   4.084  13.473  1.2747  0.5018 -0.2769
 6252SOL    HW230219   0.537   3.999  13.582  3.6710 -1.5965  2.9132
 6253SOL     OW30220   4.001   4.575  10.112  0.1993 -0.4275  0.8214
 6253SOL    HW130221   4.001   4.573  10.017  0.7315 -0.0618  0.8092
 6253SOL    HW230222   4.032   4.489  10.138  0.0987 -1.2159 -1.7808
 6254SOL     OW30223   1.568   2.015   3.146 -0.4448 -0.4387  0.1673
 6254SOL    HW130224   1.482   2.001   3.108 -0.6464 -1.7225  1.1232
 6254SOL    HW230225   1.607   1.930   3.164  0.4973  0.3677  1.8954
 6255SOL     OW30226   4.712   1.005   9.522 -0.3278 -0.2863 -0.9055
 6255SOL    HW130227   0.037   0.922   9.530 -2.1349 -1.6332 -4.1860
 6255SOL    HW230228   4.683   1.000   9.431 -0.5405  0.3954 -0.8713
 6256SOL     OW30229   0.301   2.217   3.546 -0.3642 -0.4952 -0.4051
 6256SOL    HW130230   0.217   2.173   3.557 -0.3390 -0.1140  1.3760
 6256SOL    HW230231   0.292   2.279   3.618 -2.1870  1.2191 -2.1100
 6257SOL     OW30232   4.034   2.282   5.889  0.8137  0.4141 -0.0104
 6257SOL    HW130233   4.079   2.219   5.832  0.1980  0.3952 -0.4689
 6257SOL    HW230234   4.112   2.323   5.926  1.0948  0.9301 -1.1684
 6258SOL     OW30235   1.998   0.095   5.110 -0.1379 -0.3016  0.4728
 6258SOL    HW130236   2.047   0.023   5.069 -1.9958 -1.6984  0.6784
 6258SOL    HW230237   1.953   0.047   5.180 -2.4818  0.7046 -0.3685
 6259SOL     OW30238   3.294   3.238   2.785 -0.4876  0.2177 -0.6936
 6259SOL    HW130239   3.238   3.191   2.723  1.3574 -2.0690 -0.6063
 6259SOL    HW230240   3.240   3.230   2.864 -1.2736 -2.4446 -1.5078
 6260SOL     OW30241   2.124   3.243   1.839 -0.2917  0.5748 -0.0408
 6260SOL    HW130242   2.057   3.221   1.904 -1.5374 -1.4029 -2.0191
 6260SOL    HW230243   2.104   3.336   1.827 -1.4442 -0.1196 -3.4533
 6261SOL     OW30244   3.885   4.039  14.391 -0.3395 -0.0774  0.2966
 6261SOL    HW130245   3.948   3.967  14.388 -0.1169  0.0583  1.8466
 6261SOL    HW230246   3.918   4.089  14.466  1.1420 -0.0674 -0.3614
 6262SOL     OW30247   4.001   3.791   7.795 -1.2063 -0.1036  0.3178
 6262SOL    HW130248   3.982   3.701   7.766 -1.9550  0.8070 -2.0125
 6262SOL    HW230249   3.929   3.816   7.853 -1.5718  0.3150 -0.3166
 6263SOL     OW30250   2.892   4.271   6.362 -0.3052 -0.1059  0.2595
 6263SOL    HW130251   2.916   4.188   6.403  1.3161  1.5807  2.7181
 6263SOL    HW230252   2.806   4.252   6.325  0.6133 -3.8679  0.1016
 6264SOL     OW30253   3.758   2.569   1.674 -0.0166  0.0984  0.2680
 6264SOL    HW130254   3.834   2.557   1.731  0.7394 -1.0894 -1.0083
 6264SOL    HW230255   3.790   2.542   1.588 -0.4734 -1.3759  0.5615
 6265SOL     OW30256   4.024   1.045   9.117 -0.2187  0.1252  0.0483
 6265SOL    HW130257   3.988   1.002   9.039 -0.4169 -1.7538  1.1833
 6265SOL    HW230258   4.086   1.103   9.074 -0.9873  0.7193 -0.2680
 6266SOL     OW30259   1.236   2.107   7.110  0.1240  0.1459 -0.4856
 6266SOL    HW130260   1.160   2.123   7.053 -1.2730 -0.8247  1.0997
 6266SOL    HW230261   1.236   2.011   7.100  0.9668  0.0959  0.0031
 6267SOL     OW30262   2.857   4.296   5.524  0.1231  0.1326 -0.4252
 6267SOL    HW130263   2.952   4.303   5.520 -0.0972  1.9660 -2.5219
 6267SOL    HW230264   2.841   4.202   5.536  1.5484  0.1381  1.7063
 6268SOL     OW30265   1.831   2.998   7.166  0.2669 -0.1489  0.4928
 6268SOL    HW130266   1.843   3.065   7.233 -0.4721 -0.5049  0.9764
 6268SOL    HW230267   1.879   2.925   7.204 -2.0061 -2.6420 -1.4976
 6269SOL     OW30268   4.062   3.411   1.670 -0.0902  0.4235  0.0109
 6269SOL    HW130269   4.126   3.362   1.721  1.5273  0.1528 -2.2751
 6269SOL    HW230270   4.119   3.451   1.603 -0.4126  0.0619 -0.4802
 6270SOL     OW30271   0.659   0.130   2.303 -0.4310  0.3062 -0.1476
 6270SOL    HW130272   0.631   0.214   2.266  1.9459  2.0155  1.9859
 6270SOL    HW230273   0.599   0.123   2.378 -3.8196  2.1674 -2.6511
 6271SOL     OW30274   1.992   4.499   4.403  0.1737 -0.5310  0.4484
 6271SOL    HW130275   2.070   4.487   4.349  0.1443 -0.7604  0.4557
 6271SOL    HW230276   1.932   4.534   4.337  0.6221 -0.4741  0.0735
 6272SOL     OW30277   3.307   4.671   4.978 -0.0480 -0.0172  0.1962
 6272SOL    HW130278   3.378   4.717   5.025 -0.4211  0.6059  0.1524
 6272SOL    HW230279   3.243   0.018   4.983  0.1962  0.2703 -0.6917
 6273SOL     OW30280   1.474   0.488   5.511 -0.2280 -0.5879  0.2420
 6273SOL    HW130281   1.493   0.396   5.530  0.5855 -0.3436  0.6169
 6273SOL    HW230282   1.549   0.499   5.452 -0.8376 -0.4640 -0.5156
 6274SOL     OW30283   0.373   3.196   1.960  0.3857 -0.9041  0.2632
 6274SOL    HW130284   0.431   3.152   1.898  0.6022 -1.4124  0.8259
 6274SOL    HW230285   0.327   3.260   1.906  1.0545 -1.6058 -1.1185
 6275SOL     OW30286   2.991   0.071   6.531 -0.5278 -0.2971 -0.5159
 6275SOL    HW130287   2.982   0.023   6.449  0.1522  1.8433 -1.8466
 6275SOL    HW230288   2.903   0.053   6.564 -0.7031 -0.4073 -1.0333
 6276SOL     OW30289   0.099   0.578   7.372 -0.1824 -0.2561  0.4462
 6276SOL    HW130290   0.054   0.578   7.288  1.2155 -1.1192 -0.3016
 6276SOL    HW230291   0.180   0.539   7.341 -0.5220 -1.9465  1.6530
 6277SOL     OW30292   2.437   0.577   5.761  0.0628  0.0855  0.3236
 6277SOL    HW130293   2.422   0.648   5.699 -0.2579  1.1928  1.6827
 6277SOL    HW230294   2.532   0.564   5.762 -0.0107 -0.5333 -0.9882
 6278SOL     OW30295   4.718   4.116   2.324  0.5840  0.0387 -0.3309
 6278SOL    HW130296   0.087   4.108   2.299  0.7886  0.5553  0.2490
 6278SOL    HW230297   4.699   4.025   2.349  1.8174  1.0058  4.1045
 6279SOL     OW30298   3.631   0.229  15.305 -0.0642 -0.5855 -0.0627
 6279SOL    HW130299   3.593   0.141  15.298  1.7516 -1.6098  2.9008
 6279SOL    HW230300   3.724   0.220  15.325  0.3322  1.7163 -0.8394
 6280SOL     OW30301   1.359   1.995  11.983  0.3440 -0.3266  0.0304
 6280SOL    HW130302   1.402   1.923  11.938  0.0168 -0.9471  0.7035
 6280SOL    HW230303   1.275   1.995  11.936  0.9324 -2.2870 -1.0225
 6281SOL     OW30304   1.735   0.271   4.525 -0.9491 -0.4723  0.2932
 6281SOL    HW130305   1.704   0.311   4.443  1.1603 -0.2344 -0.3972
 6281SOL    HW230306   1.670   0.204   4.544 -0.1961 -1.4252 -0.4661
 6282SOL     OW30307   3.341   2.218   0.437  0.0677  0.0633 -0.1077
 6282SOL    HW130308   3.334   2.252   0.348  2.6169 -1.4999 -0.8847
 6282SOL    HW230309   3.418   2.166   0.415 -0.7092 -2.6125  3.5521
 6283SOL     OW30310   4.703   2.740   7.525 -0.0710 -0.0775  0.7766
 6283SOL    HW130311   4.670   2.817   7.479 -1.8594 -0.5282  1.2687
 6283SOL    HW230312   4.662   2.744   7.612  1.0974  0.3827  1.3088
 6284SOL     OW30313   1.051   4.023   5.334  0.5596  0.1554  0.0443
 6284SOL    HW130314   1.044   4.064   5.247  0.4806  0.8306  0.3663
 6284SOL    HW230315   0.958   4.010   5.351  0.4445 -1.3213 -1.8310
 6285SOL     OW30316   4.114   0.311  14.282  0.0336  0.1464 -0.2851
 6285SOL    HW130317   4.112   0.387  14.224  0.9152 -0.1433 -0.7046
 6285SOL    HW230318   4.036   0.326  14.335 -0.8558  1.3009 -1.9405
 6286SOL     OW30319   1.322   0.767   2.843 -0.4225 -0.0847 -0.2349
 6286SOL    HW130320   1.265   0.843   2.847 -0.4921 -0.1955  0.6921
 6286SOL    HW230321   1.339   0.760   2.748 -1.7776  1.0381 -0.5523
 6287SOL     OW30322   0.991   4.142   4.331 -0.5202  0.3024  0.1710
 6287SOL    HW130323   0.997   4.047   4.337  1.2680  0.4224  0.4581
 6287SOL    HW230324   0.937   4.155   4.408 -0.4401 -2.3793  0.6648
 6288SOL     OW30325   1.252   1.199   8.811 -0.4396  0.2747 -0.5305
 6288SOL    HW130326   1.291   1.258   8.875 -1.8871  2.0404 -1.2649
 6288SOL    HW230327   1.162   1.200   8.844  0.3415 -3.3191  1.6747
 6289SOL     OW30328   0.988   4.423   6.188 -0.2724  0.0582 -0.1129
 6289SOL    HW130329   1.035   4.364   6.247 -0.3132  0.3845  0.2543
 6289SOL    HW230330   0.932   4.360   6.144  1.4602 -1.4697 -0.1337
 6290SOL     OW30331   0.891   4.643   1.294  0.3047  0.2488  0.0251
 6290SOL    HW130332   0.882   0.013   1.271 -2.4604  0.0700  0.3814
 6290SOL    HW230333   0.799   4.617   1.290  0.1527  1.0130 -1.5565
 6291SOL     OW30334   0.726   1.713   7.453  0.0850  0.2147  0.1360
 6291SOL    HW130335   0.759   1.678   7.370 -0.2506  2.4752 -0.9667
 6291SOL    HW230336   0.672   1.783   7.418 -2.0075 -0.0773  2.8461
 6292SOL     OW30337   3.530   3.125   3.367  0.5346  0.0738 -0.8256
 6292SOL    HW130338   3.497   3.189   3.305  0.2939  0.3871 -0.3686
 6292SOL    HW230339   3.464   3.136   3.436 -0.4628 -1.6735 -1.4879
 6293SOL     OW30340   1.124   4.333   3.571  0.9065  0.3768 -0.9040
 6293SOL    HW130341   1.203   4.350   3.520  1.3222 -0.2456 -0.4736
 6293SOL    HW230342   1.072   4.412   3.559 -0.9155 -0.7893 -0.6478
 6294SOL     OW30343   4.608   3.199   8.933  0.2317  0.5263 -0.4195
 6294SOL    HW130344   4.575   3.161   9.014 -0.5182  1.0487 -0.4756
 6294SOL    HW230345   4.529   3.187   8.881  0.0013  0.8327 -0.1371
 6295SOL     OW30346   3.501   1.056   1.756 -0.0219 -0.0432 -0.1611
 6295SOL    HW130347   3.451   0.998   1.814  0.4221 -0.8672 -0.6114
 6295SOL    HW230348   3.514   0.996   1.683 -0.4539  1.9272 -1.8450
 6296SOL     OW30349   3.456   1.896   3.148 -0.5187 -0.2867  0.4298
 6296SOL    HW130350   3.533   1.840   3.156  1.2649  2.2384  0.7767
 6296SOL    HW230351   3.423   1.873   3.061 -1.1916 -0.0916  0.6347
 6297SOL     OW30352   1.065   4.251  15.774  0.2198  0.2725  0.3559
 6297SOL    HW130353   0.975   4.284  15.776 -0.2501 -1.1674  2.1351
 6297SOL    HW230354   1.105   4.282  15.693  0.2548 -1.2579 -0.2237
 6298SOL     OW30355   1.296   0.138   1.701  0.0478  0.7082  0.2112
 6298SOL    HW130356   1.209   0.105   1.723  0.0392  0.1401 -0.6650
 6298SOL    HW230357   1.284   0.157   1.608 -0.2575  2.5632  0.6274
 6299SOL     OW30358   1.497   1.890  14.127  0.1543  0.4295  0.0070
 6299SOL    HW130359   1.569   1.919  14.183  0.7898 -2.4835  0.6950
 6299SOL    HW230360   1.545   1.916  14.048  1.6326 -2.1929  0.0547
 6300SOL     OW30361   3.333   3.322  15.736 -0.0552  0.0270  0.1842
 6300SOL    HW130362   3.350   3.293  15.647 -1.9780 -1.3397  0.2747
 6300SOL    HW230363   3.414   3.368  15.760 -1.2767  1.9765  0.5943
 6301SOL     OW30364   3.494   0.332   3.329 -0.0128 -0.3628 -0.5857
 6301SOL    HW130365   3.515   0.239   3.342 -1.2773 -0.7309 -1.2330
 6301SOL    HW230366   3.538   0.367   3.407 -1.0822 -1.5279  0.5565
 6302SOL     OW30367   4.485   2.973   1.926  0.2175  0.5335  0.2048
 6302SOL    HW130368   4.567   3.021   1.930  0.2876  0.2756  2.2253
 6302SOL    HW230369   4.449   2.974   2.015 -0.5718 -1.3116 -0.0804
 6303SOL     OW30370   1.265   0.270  13.056  0.4231 -0.5202  0.1862
 6303SOL    HW130371   1.324   0.246  13.128  1.8786  0.8033 -0.5584
 6303SOL    HW230372   1.326   0.306  12.991  0.6875  1.0698  1.3032
 6304SOL     OW30373   3.588   0.230   5.776 -0.5617 -0.4344  0.3066
 6304SOL    HW130374   3.638   0.195   5.702 -0.5674  1.2184 -0.4718
 6304SOL    HW230375   3.624   0.182   5.851 -0.0766 -1.5257 -0.6293
 6305SOL     OW30376   2.503   2.113   9.992  0.4548 -0.0897  0.3109
 6305SOL    HW130377   2.541   2.189  10.036 -2.0988  1.2794  0.0993
 6305SOL    HW230378   2.516   2.039  10.052 -0.1482  0.5283  1.1969
 6306SOL     OW30379   1.205   4.244  13.922  0.0812 -0.1875 -0.1630
 6306SOL    HW130380   1.267   4.171  13.925  0.9951  0.6598  1.4677
 6306SOL    HW230381   1.276   4.308  13.928  0.7440 -0.7182 -2.2110
 6307SOL     OW30382   4.376   0.461   8.016 -0.0437 -0.5688 -0.4357
 6307SOL    HW130383   4.470   0.481   8.011 -0.3046  0.7494 -0.1726
 6307SOL    HW230384   4.371   0.406   7.938 -1.4307  0.9921 -1.4272
 6308SOL     OW30385   2.819   4.025   2.791 -0.0188 -0.4015 -0.4350
 6308SOL    HW130386   2.809   3.969   2.868 -3.2574 -4.0850 -3.5584
 6308SOL    HW230387   2.741   3.995   2.746  0.1790 -1.1178 -0.3056
 6309SOL     OW30388   0.187   0.088   3.896 -0.4308  0.7969  0.3838
 6309SOL    HW130389   0.113   0.093   3.835 -0.0722 -1.0435 -0.2054
 6309SOL    HW230390   0.219   4.721   3.898 -0.9229  0.6226  0.2643
 6310SOL     OW30391   2.413   1.152   4.093  0.3131  0.0589 -0.4345
 6310SOL    HW130392   2.506   1.132   4.085  0.5793  2.5081 -3.1632
 6310SOL    HW230393   2.389   1.106   4.174  1.2998  0.1162 -0.1051
 6311SOL     OW30394   4.716   1.184   7.042 -0.4151  0.2039 -0.6008
 6311SOL    HW130395   4.690   1.266   6.998 -4.3290  0.5891  2.4604
 6311SOL    HW230396   0.087   1.195   7.030 -0.4544  0.7614 -0.4376
 6312SOL     OW30397   3.040   2.545   3.563 -0.1012 -0.0453 -0.4987
 6312SOL    HW130398   2.952   2.512   3.546 -0.1418 -1.1566  1.9875
 6312SOL    HW230399   3.093   2.528   3.484  1.6742  2.2008  0.2110
 6313SOL     OW30400   3.215   2.284   3.601 -0.1684 -0.5154  0.1364
 6313SOL    HW130401   3.184   2.311   3.687  3.0438 -1.1149  1.4979
 6313SOL    HW230402   3.292   2.341   3.600 -1.0782  0.7425  1.5895
 6314SOL     OW30403   3.237   0.562  11.079 -0.3114 -0.1686  0.5373
 6314SOL    HW130404   3.322   0.522  11.096 -0.6313 -0.6064  1.1070
 6314SOL    HW230405   3.174   0.512  11.131  1.0295 -0.4377  1.9046
 6315SOL     OW30406   3.620   1.096   6.732 -0.8491 -0.2630 -0.3414
 6315SOL    HW130407   3.570   1.019   6.760 -1.2227  0.1124  0.0296
 6315SOL    HW230408   3.554   1.162   6.711  1.1835  1.5185 -1.1142
 6316SOL     OW30409   1.308   0.747   8.876 -0.7891 -0.0627  0.4641
 6316SOL    HW130410   1.397   0.768   8.903 -1.3803  2.1879  0.7109
 6316SOL    HW230411   1.260   0.818   8.920 -0.9080  0.3389 -0.3102
 6317SOL     OW30412   2.424   2.457   6.670 -0.2080  0.1488 -0.2505
 6317SOL    HW130413   2.482   2.420   6.736 -1.2958 -1.0579  0.0303
 6317SOL    HW230414   2.478   2.467   6.592  1.1097 -2.3559  0.3318
 6318SOL     OW30415   2.222   0.035   2.334  0.1491  0.0148 -0.2697
 6318SOL    HW130416   2.151   4.695   2.334  0.8498 -0.7387  2.0819
 6318SOL    HW230417   2.171   0.107   2.296 -0.2280 -0.6518 -1.0092
 6319SOL     OW30418   0.661   2.118   9.466 -0.5077  0.5138  0.7405
 6319SOL    HW130419   0.726   2.188   9.465 -1.3196  1.2484 -0.3714
 6319SOL    HW230420   0.604   2.133   9.391  0.0108  1.8247  0.6108
 6320SOL     OW30421   0.362   2.683   9.952 -0.2294 -0.3000  0.0142
 6320SOL    HW130422   0.322   2.630  10.020 -2.2229  0.5583 -0.4876
 6320SOL    HW230423   0.435   2.622   9.940 -0.4337 -0.0611 -2.4100
 6321SOL     OW30424   3.823   3.530   8.455  0.1696  0.3838 -0.3201
 6321SOL    HW130425   3.808   3.437   8.471  0.9594  0.3795  0.4362
 6321SOL    HW230426   3.916   3.540   8.477 -0.4650  1.7280  1.7069
 6322SOL     OW30427   1.773   2.853   1.221 -0.0856 -0.0855 -0.2188
 6322SOL    HW130428   1.825   2.913   1.273  0.9430 -0.9355 -0.2680
 6322SOL    HW230429   1.711   2.821   1.286 -1.1479 -0.4892 -1.4133
 6323SOL     OW30430   3.470   3.509   6.344  0.3673  0.4778 -0.4370
 6323SOL    HW130431   3.439   3.521   6.255 -0.7085  0.1846 -0.1009
 6323SOL    HW230432   3.488   3.600   6.369  0.6202  0.5918 -1.0477
 6324SOL     OW30433   1.680   0.635   6.670  0.2877  0.1935  0.4220
 6324SOL    HW130434   1.669   0.625   6.764 -2.7302  1.8104  0.2201
 6324SOL    HW230435   1.756   0.577   6.659  0.1636 -0.3730  2.7344
 6325SOL     OW30436   0.192   1.040   8.845 -0.3169  0.1519  0.4058
 6325SOL    HW130437   0.178   1.040   8.940 -0.3159  1.2528  0.4097
 6325SOL    HW230438   0.288   1.041   8.845 -0.2898 -1.6279  1.1971
 6326SOL     OW30439   3.168   1.274   5.509  0.4124 -0.8360 -0.5810
 6326SOL    HW130440   3.262   1.271   5.525  0.1538  0.1370  1.1305
 6326SOL    HW230441   3.152   1.181   5.491  1.6582 -1.0711 -0.4566
 6327SOL     OW30442   1.145   3.603   4.991  0.2135  0.2942  0.0755
 6327SOL    HW130443   1.121   3.563   5.074 -1.0209  0.4334 -0.2056
 6327SOL    HW230444   1.226   3.555   4.973 -0.4560 -0.2538 -1.5426
 6328SOL     OW30445   0.396   3.402   1.316 -0.2143 -0.0308 -0.0474
 6328SOL    HW130446   0.394   3.366   1.227  1.1387  1.1310 -0.5429
 6328SOL    HW230447   0.312   3.367   1.347 -0.0720  0.0047  0.3650
 6329SOL     OW30448   3.596   3.839   4.307 -0.1985  0.4553  0.5194
 6329SOL    HW130449   3.668   3.890   4.269 -1.1367  0.5117 -1.2049
 6329SOL    HW230450   3.527   3.904   4.318  0.1280  0.7833  0.6482
 6330SOL     OW30451   2.394   4.138   9.576 -0.3645  0.3483  0.4227
 6330SOL    HW130452   2.472   4.191   9.590 -1.6743  2.3098  0.1876
 6330SOL    HW230453   2.412   4.093   9.493  1.0736 -0.7220  1.3066
 6331SOL     OW30454   3.204   3.034   5.832  0.0810 -0.0936 -0.7585
 6331SOL    HW130455   3.189   2.965   5.896 -0.5846 -0.5465 -1.4121
 6331SOL    HW230456   3.283   3.000   5.789  0.6426  0.3111 -0.0617
 6332SOL     OW30457   0.785   1.108   1.064 -0.0371  0.8745 -0.2575
 6332SOL    HW130458   0.785   1.048   1.139  1.0917 -0.0199 -0.9726
 6332SOL    HW230459   0.692   1.106   1.039 -0.3822  1.5076  0.9588
 6333SOL     OW30460   1.526   0.010   5.761 -0.0219 -0.2071  0.3123
 6333SOL    HW130461   1.573   0.083   5.802  0.7262  0.3895 -1.6261
 6333SOL    HW230462   1.525   4.690   5.847  2.0027 -2.2591 -0.6842
 6334SOL     OW30463   3.212   3.393   4.306  0.0562 -0.1436  0.2988
 6334SOL    HW130464   3.264   3.321   4.269 -0.0227  0.0475 -0.1905
 6334SOL    HW230465   3.206   3.367   4.397 -0.4078  0.8453  0.5458
 6335SOL     OW30466   2.035   3.462   2.727  0.3500 -0.4409  0.3605
 6335SOL    HW130467   2.020   3.417   2.644 -2.6296 -1.2804  1.3255
 6335SOL    HW230468   1.996   3.395   2.784  0.5010 -1.1917 -0.4137
 6336SOL     OW30469   4.647   1.658   3.961 -0.8074 -0.8392 -0.6020
 6336SOL    HW130470   4.606   1.666   3.875 -1.1809  2.1055 -0.1508
 6336SOL    HW230471   4.706   1.586   3.936 -0.2672 -1.1838  1.6779
 6337SOL     OW30472   0.342   1.935   4.954 -0.3663 -0.3469  0.7478
 6337SOL    HW130473   0.397   1.917   5.031  2.1734 -0.8997 -1.2172
 6337SOL    HW230474   0.388   1.878   4.892 -0.5665  0.9309 -0.5560
 6338SOL     OW30475   4.494   3.767   8.520 -0.1647  0.6772  0.3170
 6338SOL    HW130476   4.502   3.750   8.427 -2.4174  4.4296 -0.5681
 6338SOL    HW230477   4.542   3.848   8.535 -0.3360  0.5561  1.5215
 6339SOL     OW30478   4.625   2.485   8.362 -0.6048  0.2355 -0.2721
 6339SOL    HW130479   4.635   2.580   8.354 -0.2851  0.2093 -0.1902
 6339SOL    HW230480   4.534   2.475   8.335 -0.3666  0.5708 -1.1867
 6340SOL     OW30481   2.462   2.618   6.164 -0.2326  0.1966  0.3490
 6340SOL    HW130482   2.413   2.622   6.246 -3.8632 -1.5417 -1.7098
 6340SOL    HW230483   2.428   2.690   6.111  0.3767  0.8906  0.9179
 6341SOL     OW30484   0.021   3.148   2.461 -0.6619  0.7846  0.3103
 6341SOL    HW130485   4.652   3.176   2.462 -0.5989  1.0646 -2.1220
 6341SOL    HW230486   0.035   3.132   2.368 -0.4909  1.1318  0.2737
 6342SOL     OW30487   3.582   3.492   5.206 -0.1092  0.1470  0.6925
 6342SOL    HW130488   3.567   3.470   5.114  1.3946 -1.1987  0.7595
 6342SOL    HW230489   3.532   3.420   5.245  0.0218 -0.1655  0.2883
 6343SOL     OW30490   2.217   3.231   7.825  0.5111 -0.0578  0.6328
 6343SOL    HW130491   2.271   3.307   7.803 -0.5889  1.0290  1.6709
 6343SOL    HW230492   2.232   3.172   7.752  3.2017 -2.0743  2.8131
 6344SOL     OW30493   0.232   0.366  11.870 -0.4444 -0.2346 -0.1453
 6344SOL    HW130494   0.327   0.375  11.866 -0.5779  0.9809 -0.5193
 6344SOL    HW230495   0.209   0.441  11.815 -0.7990  0.7490  1.3280
 6345SOL     OW30496   1.804   1.013   1.882  0.1426 -0.4198 -0.1186
 6345SOL    HW130497   1.729   1.019   1.823  0.1362  1.0275  0.0324
 6345SOL    HW230498   1.878   1.021   1.822 -0.9061  1.1997 -1.1850
 6346SOL     OW30499   1.448   0.200   6.182 -0.0429 -0.2413 -0.1327
 6346SOL    HW130500   1.529   0.251   6.188 -1.7464  2.2428  2.0797
 6346SOL    HW230501   1.476   0.127   6.128 -1.4839 -0.3282 -0.7597
 6347SOL     OW30502   0.891   3.386   7.495 -0.3205 -0.1088  0.3741
 6347SOL    HW130503   0.901   3.293   7.471 -0.6302  0.1557 -0.8165
 6347SOL    HW230504   0.904   3.377   7.589  1.4664  1.4021  0.2595
 6348SOL     OW30505   2.323   2.848   3.387 -0.0075  0.1063 -0.2491
 6348SOL    HW130506   2.265   2.794   3.333 -0.9002  0.6023  0.2314
 6348SOL    HW230507   2.405   2.815   3.350 -0.0571 -1.0778  0.7104
 6349SOL     OW30508   4.563   3.459   2.696  0.0546 -0.5118 -0.4427
 6349SOL    HW130509   4.501   3.507   2.642  0.2616 -1.1644 -1.2620
 6349SOL    HW230510   4.515   3.427   2.772 -0.1783 -0.7050 -0.6712
 6350SOL     OW30511   4.213   0.698   3.812  0.5120  0.2583  0.1237
 6350SOL    HW130512   4.221   0.773   3.870  3.0467 -0.3832  0.6261
 6350SOL    HW230513   4.178   0.627   3.866  0.7346 -0.0087 -0.0742
 6351SOL     OW30514   1.514   0.010   8.920 -0.0391 -0.1027  0.4122
 6351SOL    HW130515   1.518   0.105   8.910  0.2000  0.0195  1.6155
 6351SOL    HW230516   1.480   4.718   9.009  0.9376  1.1383  0.9870
 6352SOL     OW30517   1.354   2.701  11.840  0.3589  0.5620 -0.3280
 6352SOL    HW130518   1.328   2.784  11.879 -1.5045 -0.5698  0.8582
 6352SOL    HW230519   1.324   2.638  11.905  0.7820 -0.3262 -0.9895
 6353SOL     OW30520   3.956   0.848   7.586  0.3412 -0.1149 -0.0535
 6353SOL    HW130521   3.932   0.760   7.616 -0.8069  0.6749  1.3293
 6353SOL    HW230522   3.894   0.903   7.634  0.6099 -1.1081  1.4598
 6354SOL     OW30523   3.816   0.278   9.211  0.3131  0.3589 -0.4135
 6354SOL    HW130524   3.742   0.316   9.163  0.7231  1.4452 -0.1841
 6354SOL    HW230525   3.804   0.185   9.195  0.9431  0.3437 -0.7875
 6355SOL     OW30526   2.560   1.161   6.768 -0.5873  0.2290 -0.4594
 6355SOL    HW130527   2.508   1.198   6.839 -0.8582 -1.6297  0.3171
 6355SOL    HW230528   2.553   1.068   6.790  0.0742  0.7046  1.7959
 6356SOL     OW30529   3.019   0.235   7.955  0.0337  0.8280 -0.2120
 6356SOL    HW130530   3.104   0.273   7.976 -0.9743  3.2929 -0.6775
 6356SOL    HW230531   3.042   0.208   7.865  0.7401  0.5211  0.0551
 6357SOL     OW30532   3.117   3.882   7.208 -0.0543 -0.2442 -0.0170
 6357SOL    HW130533   3.114   3.882   7.304 -1.5846  0.7035 -0.0587
 6357SOL    HW230534   3.031   3.843   7.190 -0.6310  0.3337  1.4891
 6358SOL     OW30535   4.546   0.715   3.979  0.0947 -0.1962 -0.0272
 6358SOL    HW130536   4.618   0.700   3.918 -0.1545 -3.3818  0.4495
 6358SOL    HW230537   4.490   0.780   3.936 -0.1288 -0.8856 -0.7594
 6359SOL     OW30538   4.262   4.195   4.688  0.2448  0.3889  0.1710
 6359SOL    HW130539   4.341   4.250   4.686  3.0062 -3.5679 -0.5770
 6359SOL    HW230540   4.291   4.113   4.648 -0.8253  1.0780 -1.9974
 6360SOL     OW30541   3.307   2.843   1.898  0.2958 -0.9778 -0.2916
 6360SOL    HW130542   3.223   2.797   1.898 -1.6397  2.4953 -0.3971
 6360SOL    HW230543   3.304   2.918   1.839 -1.1355 -1.6927 -1.1257
 6361SOL     OW30544   3.574   0.714   7.973  0.0325  0.4331 -0.0907
 6361SOL    HW130545   3.567   0.705   7.878  0.0388 -1.6064  0.1084
 6361SOL    HW230546   3.530   0.633   7.999 -0.2522  0.5769 -0.1164
 6362SOL     OW30547   3.872   0.490   1.961 -0.1087  0.1404  0.2267
 6362SOL    HW130548   3.901   0.581   1.949  0.0030 -0.1375 -1.5106
 6362SOL    HW230549   3.930   0.455   2.028 -2.2751 -3.0631  0.4344
 6363SOL     OW30550   0.303   2.022  12.100  0.3434 -0.0242  0.5434
 6363SOL    HW130551   0.255   2.093  12.141  1.5800  1.1307 -0.0032
 6363SOL    HW230552   0.375   2.061  12.051 -0.4858 -0.7273 -1.2242
 6364SOL     OW30553   1.867   0.508   0.599  0.2548 -0.3575  0.2212
 6364SOL    HW130554   1.961   0.502   0.619  0.6557  2.2604 -1.0101
 6364SOL    HW230555   1.863   0.454   0.520 -0.2047 -1.2942  0.8765
 6365SOL     OW30556   4.094   3.795   2.067 -0.3845  0.1596  0.5455
 6365SOL    HW130557   4.065   3.841   1.988 -1.1606  1.0131  1.3296
 6365SOL    HW230558   4.090   3.861   2.136 -0.4242 -0.1327  0.8177
 6366SOL     OW30559   4.655   3.269   8.258  0.0904 -0.6304 -0.1276
 6366SOL    HW130560   4.647   3.177   8.282 -0.2357 -0.9485 -1.4333
 6366SOL    HW230561   0.027   3.275   8.248  0.0504  0.4378  0.1304
 6367SOL     OW30562   1.755   2.437   7.092  0.9019  0.0152 -0.2918
 6367SOL    HW130563   1.826   2.450   7.154 -0.3561 -1.8747  1.5794
 6367SOL    HW230564   1.694   2.510   7.100  2.1217  0.9687  0.1744
 6368SOL     OW30565   3.355   3.501  12.491  0.1752  0.5291  0.0205
 6368SOL    HW130566   3.338   3.498  12.585 -1.0992  1.4111 -0.1935
 6368SOL    HW230567   3.269   3.507  12.451 -0.1924  2.7238  1.1620
 6369SOL     OW30568   1.114   3.940   2.393 -0.1022  0.3538  0.2697
 6369SOL    HW130569   1.050   3.893   2.340 -0.7623  0.4490  0.9780
 6369SOL    HW230570   1.057   3.946   2.470 -1.5051 -1.9433 -0.6041
 6370SOL     OW30571   2.066   2.308   3.472 -0.7936 -0.3477 -0.0558
 6370SOL    HW130572   2.006   2.339   3.540 -0.0577  1.7124 -0.3343
 6370SOL    HW230573   2.149   2.337   3.510 -0.6685 -0.6494 -0.0983
 6371SOL     OW30574   3.984   4.090   4.657 -0.8119 -0.5423 -0.1016
 6371SOL    HW130575   4.075   4.116   4.665 -0.0567 -3.1151 -0.3599
 6371SOL    HW230576   3.965   4.110   4.749  0.3168 -0.3567  0.0928
 6372SOL     OW30577   1.586   1.186   8.875 -0.1504 -0.1032 -0.2118
 6372SOL    HW130578   1.602   1.129   8.950  0.5089  1.3453  0.7380
 6372SOL    HW230579   1.510   1.237   8.903  1.1405  1.4097  0.4829
 6373SOL     OW30580   1.887   1.142   9.966  0.2267  0.8231 -0.3029
 6373SOL    HW130581   1.903   1.155  10.060 -2.6260 -0.4346  0.3808
 6373SOL    HW230582   1.854   1.052   9.969 -2.7777  1.9215 -0.0656
 6374SOL     OW30583   2.653   3.945  16.937 -0.0946  0.0755 -0.1761
 6374SOL    HW130584   2.608   4.021  16.974 -0.0409  0.8899 -1.7910
 6374SOL    HW230585   2.681   3.905  17.019 -0.5999  0.3564  0.1321
 6375SOL     OW30586   4.475   1.180  16.196 -0.0623 -0.1442  0.8431
 6375SOL    HW130587   4.478   1.276  16.197 -1.8397 -0.0811  1.0759
 6375SOL    HW230588   4.402   1.169  16.257 -0.3753 -2.4947  0.0655
 6376SOL     OW30589   2.950   1.918   9.506 -0.2377 -0.0908 -0.2269
 6376SOL    HW130590   3.044   1.912   9.521 -0.6494 -0.0093  2.4035
 6376SOL    HW230591   2.940   1.840   9.452  0.1090  1.1133 -2.0100
 6377SOL     OW30592   0.249   4.382   5.621 -0.0435 -0.5573 -0.1304
 6377SOL    HW130593   0.317   4.440   5.586 -0.5073  0.6540  0.9653
 6377SOL    HW230594   0.218   4.415   5.705 -1.8554 -1.2953 -0.5016
 6378SOL     OW30595   4.633   3.225   0.899 -0.1671  0.6349 -0.2566
 6378SOL    HW130596   4.659   3.162   0.967 -1.3312  0.5618  0.1139
 6378SOL    HW230597   4.543   3.194   0.887 -0.9019  2.1697  1.4098
 6379SOL     OW30598   4.043   1.188   7.512  0.6326  0.2373  0.0893
 6379SOL    HW130599   3.986   1.150   7.445  0.0622  0.1967  0.6041
 6379SOL    HW230600   4.095   1.115   7.546 -0.2357 -1.1910 -1.6599
 6380SOL     OW30601   2.103   4.603  11.668 -0.3249 -0.0709 -0.4569
 6380SOL    HW130602   2.016   4.565  11.680  0.7081 -0.8952  4.3471
 6380SOL    HW230603   2.123   4.569  11.581  0.6383  0.8098 -0.5771
 6381SOL     OW30604   0.171   3.250  13.258  0.6326  0.1004  0.0450
 6381SOL    HW130605   0.095   3.278  13.309  0.5678  1.9427 -1.0898
 6381SOL    HW230606   0.208   3.334  13.231  1.0327 -0.1746 -0.2672
 6382SOL     OW30607   1.965   0.451   5.493  0.4416 -0.4315  0.3403
 6382SOL    HW130608   1.962   0.387   5.564  2.0818  0.2885  1.0422
 6382SOL    HW230609   1.957   0.530   5.547  0.1554 -0.5423  0.4655
 6383SOL     OW30610   3.649   0.087   8.816  0.5312 -0.5671  0.4340
 6383SOL    HW130611   3.554   0.074   8.824  0.5063 -1.2971 -0.8799
 6383SOL    HW230612   3.662   0.067   8.723  0.9089 -0.7793  0.5318
 6384SOL     OW30613   2.198   0.109   5.323 -0.3573 -0.1499 -0.0357
 6384SOL    HW130614   2.248   0.031   5.302  0.3496  0.2694  0.0814
 6384SOL    HW230615   2.149   0.116   5.241  0.1051  0.3634 -0.2769
 6385SOL     OW30616   1.205   1.468  12.578 -0.4085 -0.8338 -0.4661
 6385SOL    HW130617   1.125   1.483  12.630  0.2884 -3.8326  1.5067
 6385SOL    HW230618   1.166   1.425  12.502  2.3481 -1.0668 -1.7556
 6386SOL     OW30619   2.890   1.655  10.068  0.3667  0.5460  0.6026
 6386SOL    HW130620   2.921   1.630  10.155  2.3923 -0.8684 -0.5421
 6386SOL    HW230621   2.957   1.720  10.047  2.8263 -2.0423  0.5505
 6387SOL     OW30622   3.931   2.971   5.762 -0.7485 -1.3157  0.1009
 6387SOL    HW130623   3.921   3.063   5.787  0.7424 -1.2355  0.3984
 6387SOL    HW230624   3.868   2.924   5.817 -0.7219  0.5601  1.7120
 6388SOL     OW30625   3.391   4.169  11.811 -0.0278 -0.4338 -0.7381
 6388SOL    HW130626   3.433   4.161  11.896 -0.6833 -0.0439 -0.3679
 6388SOL    HW230627   3.308   4.124  11.828  1.1243 -2.0763  0.4007
 6389SOL     OW30628   4.302   3.303  11.363  0.4737 -0.1948 -0.6128
 6389SOL    HW130629   4.390   3.273  11.384 -0.2141 -1.3272  0.6610
 6389SOL    HW230630   4.287   3.238  11.294 -2.2615  1.9549 -2.0417
 6390SOL     OW30631   2.347   1.657  14.637 -0.4040 -0.1801  0.1106
 6390SOL    HW130632   2.434   1.677  14.604  0.3641 -0.6012  1.8749
 6390SOL    HW230633   2.354   1.641  14.732 -1.4984  2.8587  0.6913
 6391SOL     OW30634   4.686   2.405   5.756  0.1067  0.2007  0.2453
 6391SOL    HW130635   4.634   2.470   5.709  0.4175  1.0260  1.0298
 6391SOL    HW230636   4.622   2.337   5.776  2.6465 -1.8539  1.4249
 6392SOL     OW30637   1.687   0.503   6.918 -0.7330 -0.1935 -0.4558
 6392SOL    HW130638   1.652   0.517   7.006  0.6849 -0.4484  0.1389
 6392SOL    HW230639   1.605   0.468   6.882  0.2264 -3.1961  0.3298
 6393SOL     OW30640   0.946   0.185   6.058 -0.0278 -0.6049  0.4342
 6393SOL    HW130641   0.964   0.091   6.054 -1.0635 -0.8276  1.0552
 6393SOL    HW230642   1.023   0.208   6.111 -0.2898 -0.7540  0.8807
 6394SOL     OW30643   1.065   1.772  17.608  0.4525  0.3934 -0.3678
 6394SOL    HW130644   1.074   1.830  17.684 -0.9446  0.7647 -0.4767
 6394SOL    HW230645   1.088   1.690  17.653  2.0389  1.6512  1.1255
 6395SOL     OW30646   2.909   0.294   1.794  0.0096 -1.3043 -0.0224
 6395SOL    HW130647   2.980   0.341   1.749  1.1992 -2.4232  0.7008
 6395SOL    HW230648   2.860   0.259   1.720 -0.9253  0.7408 -0.3787
 6396SOL     OW30649   0.612   3.128   3.236  0.2409  0.2497  0.8794
 6396SOL    HW130650   0.560   3.048   3.225 -1.1535  1.1207  1.1258
 6396SOL    HW230651   0.556   3.191   3.192 -1.0167 -1.3507  0.1899
 6397SOL     OW30652   0.608   2.199  14.046 -0.0625 -0.8596  0.3457
 6397SOL    HW130653   0.671   2.261  14.083 -0.4690  0.0311 -0.4436
 6397SOL    HW230654   0.542   2.257  14.008  0.9786  0.7939  1.0894
 6398SOL     OW30655   1.840   3.984   3.785  0.2262  0.1684  0.3216
 6398SOL    HW130656   1.858   3.907   3.731  0.4133  1.2038 -1.0980
 6398SOL    HW230657   1.914   4.042   3.763 -0.0521 -1.0177 -3.6806
 6399SOL     OW30658   4.710   2.184   3.124 -0.2173  0.1309 -0.3698
 6399SOL    HW130659   0.073   2.190   3.164 -0.7830  0.3329  0.8080
 6399SOL    HW230660   4.720   2.118   3.055  0.2995 -1.1192  0.9095
 6400SOL     OW30661   3.960   2.523   7.861 -0.3651 -0.3772  0.1774
 6400SOL    HW130662   4.038   2.480   7.827  1.2171  0.6963  2.4579
 6400SOL    HW230663   3.931   2.580   7.790 -0.1889 -0.4133  0.0764
 6401SOL     OW30664   2.777   1.429  11.033 -0.3136  0.0301 -0.3021
 6401SOL    HW130665   2.830   1.455  11.108 -1.1617  1.4687 -0.1924
 6401SOL    HW230666   2.790   1.501  10.971 -2.5278  0.5315 -0.2049
 6402SOL     OW30667   0.660   1.449  16.850  0.8379 -0.1488 -0.0930
 6402SOL    HW130668   0.616   1.390  16.910 -1.1009  0.2988 -1.0808
 6402SOL    HW230669   0.728   1.384  16.831  1.3664  0.1082  0.9103
 6403SOL     OW30670   2.098   0.786   1.008  0.2632  0.3606  0.4669
 6403SOL    HW130671   2.055   0.828   0.934  0.8423  0.1063 -0.0177
 6403SOL    HW230672   2.081   0.852   1.075 -1.3394 -0.7388  1.1553
 6404SOL     OW30673   0.181   3.423  13.570 -0.1470  0.6472 -0.1784
 6404SOL    HW130674   0.112   3.386  13.514 -0.0873  0.6390 -0.2464
 6404SOL    HW230675   0.167   3.372  13.650  0.4966  0.5661 -0.1154
 6405SOL     OW30676   1.650   3.427   6.260 -0.4737  0.1974 -0.0696
 6405SOL    HW130677   1.592   3.452   6.332 -0.5467  0.1336 -0.1061
 6405SOL    HW230678   1.588   3.433   6.187 -1.6590 -2.6268  0.6882
 6406SOL     OW30679   0.692   4.527   5.678 -0.2439  0.1013  0.6491
 6406SOL    HW130680   0.722   4.594   5.740 -1.3409 -1.0799  2.4705
 6406SOL    HW230681   0.721   4.573   5.600  0.0131 -0.9294  0.1346
 6407SOL     OW30682   2.602   1.320  17.005 -0.0838 -0.2878  0.0593
 6407SOL    HW130683   2.677   1.300  16.949 -1.8985  1.5310 -2.9812
 6407SOL    HW230684   2.540   1.348  16.938 -0.2674  0.3020  0.4684
 6408SOL     OW30685   0.738   1.628  14.517  0.1476 -0.0634  0.0112
 6408SOL    HW130686   0.705   1.617  14.427 -1.3777 -0.0861  0.5826
 6408SOL    HW230687   0.691   1.706  14.545 -2.9320 -2.3320  1.1564
 6409SOL     OW30688   4.437   4.360  13.067 -0.1180 -1.0728  0.4409
 6409SOL    HW130689   4.518   4.361  13.117  1.2116 -0.2902 -1.7332
 6409SOL    HW230690   4.398   4.440  13.105  0.5731 -0.7231  0.4080
 6410SOL     OW30691   3.295   2.431   6.897  0.3441 -0.4089  0.1931
 6410SOL    HW130692   3.309   2.525   6.911 -1.7503 -0.1563  0.5987
 6410SOL    HW230693   3.201   2.416   6.895  0.1307  0.7392  1.4285
 6411SOL     OW30694   4.045   0.649   8.669 -0.3513 -0.3558  0.1370
 6411SOL    HW130695   4.128   0.665   8.712  0.3080 -1.5285 -0.7031
 6411SOL    HW230696   4.015   0.561   8.690  0.4385 -0.5950  0.2508
 6412SOL     OW30697   2.482   1.805  13.044 -0.3311 -0.3075  0.2125
 6412SOL    HW130698   2.438   1.886  13.069  1.3649  1.0070 -1.1172
 6412SOL    HW230699   2.440   1.738  13.098  0.7681 -1.3928 -0.2735
 6413SOL     OW30700   3.564   3.087   6.097  0.6262  0.1024  0.1643
 6413SOL    HW130701   3.563   2.993   6.115 -0.4909  0.4788  2.0781
 6413SOL    HW230702   3.497   3.124   6.155  1.4287  0.5026  0.8397
 6414SOL     OW30703   3.842   3.048   6.140 -0.4665 -0.5622  0.3327
 6414SOL    HW130704   3.848   3.143   6.153 -0.2600 -0.6946  1.2240
 6414SOL    HW230705   3.750   3.044   6.114 -1.0678 -0.7448  2.4304
 6415SOL     OW30706   0.255   2.893  10.869 -0.3193  0.3194  0.2169
 6415SOL    HW130707   0.255   2.890  10.965 -0.9731  0.7677  0.2343
 6415SOL    HW230708   0.232   2.984  10.849 -0.3672 -0.1041 -1.6326
 6416SOL     OW30709   2.434   4.610   2.865 -0.4515  0.1970  0.3024
 6416SOL    HW130710   2.446   4.704   2.862  0.4398  0.1100  0.9459
 6416SOL    HW230711   2.396   4.592   2.779  0.1001 -2.4556  0.5904
 6417SOL     OW30712   3.776   3.397  17.362 -0.7855  0.5983  0.4786
 6417SOL    HW130713   3.868   3.379  17.346 -1.1149  0.0850 -0.8807
 6417SOL    HW230714   3.752   3.305  17.374 -0.4266  0.5033  0.4697
 6418SOL     OW30715   2.940   4.710   6.219  0.4411  0.3557 -0.2818
 6418SOL    HW130716   2.871   4.646   6.239  2.8728 -2.9358 -2.4721
 6418SOL    HW230717   3.006   4.641   6.213  0.6700  0.3729  2.2954
 6419SOL     OW30718   2.729   1.604  13.645  0.4852  0.0916 -0.5507
 6419SOL    HW130719   2.701   1.555  13.568 -0.0659  0.9583 -0.9014
 6419SOL    HW230720   2.645   1.637  13.678  0.4414 -3.2146  2.7083
 6420SOL     OW30721   3.639   2.057   7.488  0.1907  0.4457 -0.3230
 6420SOL    HW130722   3.644   2.152   7.477 -1.2580  0.6580  0.9063
 6420SOL    HW230723   3.730   2.034   7.468  0.3439 -1.5390  2.6326
 6421SOL     OW30724   2.695   0.358  11.038  0.5119 -0.2058  0.0734
 6421SOL    HW130725   2.757   0.375  10.967  0.4945 -1.2918 -0.1938
 6421SOL    HW230726   2.720   0.423  11.104  0.8672 -0.1607 -0.1067
 6422SOL     OW30727   4.693   2.873   8.052 -0.0380  0.1986 -0.4107
 6422SOL    HW130728   4.652   2.824   7.980  0.9349  0.2630 -1.0112
 6422SOL    HW230729   4.633   2.947   8.056 -2.2345 -1.4665 -2.5258
 6423SOL     OW30730   0.437   1.519   5.471 -0.7858  0.3467  0.2603
 6423SOL    HW130731   0.474   1.574   5.401  0.3759 -0.1247  0.4933
 6423SOL    HW230732   0.480   1.566   5.542 -2.7988  0.9195  1.0673
 6424SOL     OW30733   1.835   1.761   4.337 -0.0893  0.1737  0.7644
 6424SOL    HW130734   1.826   1.769   4.243 -0.3420  3.4876  1.0658
 6424SOL    HW230735   1.817   1.850   4.368 -0.1590  0.2920  0.3787
 6425SOL     OW30736   2.107   1.942   0.458  0.2320 -0.4412 -0.2366
 6425SOL    HW130737   2.197   1.935   0.489  0.5609  2.2625 -0.5535
 6425SOL    HW230738   2.070   1.960   0.544  1.7598 -1.3780  0.6210
 6426SOL     OW30739   0.649   0.707   6.228  0.7976  0.3887  0.0268
 6426SOL    HW130740   0.651   0.625   6.276  1.7947  0.4558  0.0915
 6426SOL    HW230741   0.689   0.679   6.146 -2.1557  1.8038 -1.9351
 6427SOL     OW30742   2.146   0.480   2.779 -0.0249 -0.5665 -0.1102
 6427SOL    HW130743   2.056   0.456   2.760 -0.6301 -0.4741  2.5830
 6427SOL    HW230744   2.136   0.560   2.831  0.3333  0.0261 -0.9541
 6428SOL     OW30745   3.718   0.908   2.280 -0.2208  0.1300 -0.1182
 6428SOL    HW130746   3.699   0.961   2.358  1.0854 -1.9038  1.5971
 6428SOL    HW230747   3.648   0.932   2.220  0.2097  1.0546 -0.2518
 6429SOL     OW30748   1.666   3.704  15.925 -0.2626  0.0632 -0.5638
 6429SOL    HW130749   1.714   3.784  15.948  2.0389 -1.6856  0.7403
 6429SOL    HW230750   1.645   3.678  16.014  0.4433 -0.9927 -0.7055
 6430SOL     OW30751   2.569   4.111  10.368 -0.3568 -0.6208 -0.4157
 6430SOL    HW130752   2.564   4.124  10.273 -1.0468  1.4653 -0.0815
 6430SOL    HW230753   2.652   4.152  10.392 -0.3942 -0.7253 -0.1018
 6431SOL     OW30754   0.483   4.053   5.347 -0.2853  0.1763 -0.0521
 6431SOL    HW130755   0.400   4.097   5.365 -1.1385  0.0131 -3.5324
 6431SOL    HW230756   0.481   4.059   5.252 -1.0273  0.4613 -0.0148
 6432SOL     OW30757   0.162   3.721   3.880 -0.2077 -0.5864  0.0178
 6432SOL    HW130758   0.110   3.793   3.916  0.6985 -0.2505  0.6476
 6432SOL    HW230759   0.190   3.691   3.966 -0.0609  0.3598  0.2987
 6433SOL     OW30760   2.009   3.585   4.397 -0.4002 -0.1184 -0.0388
 6433SOL    HW130761   2.065   3.657   4.369  0.6764 -1.0526 -0.2827
 6433SOL    HW230762   1.923   3.625   4.383  0.1874  1.7027  1.5822
 6434SOL     OW30763   2.048   4.497   3.172  0.2551 -0.4535  0.0439
 6434SOL    HW130764   2.057   4.590   3.149 -1.5297 -0.1633  0.5385
 6434SOL    HW230765   1.957   4.483   3.145  0.5215 -1.1020 -0.5117
 6435SOL     OW30766   3.658   4.611   7.891  0.1750  0.6505 -0.1252
 6435SOL    HW130767   3.665   4.687   7.833  2.8137 -0.5486 -1.3793
 6435SOL    HW230768   3.659   4.546   7.821  2.3688  0.7114 -0.1430
 6436SOL     OW30769   0.486   0.527   1.249  0.7904  0.1825 -0.5557
 6436SOL    HW130770   0.436   0.572   1.181  1.1766  1.5867  0.1032
 6436SOL    HW230771   0.565   0.581   1.244  0.0900  1.4935  2.1528
 6437SOL     OW30772   4.514   1.502   8.486  0.1369 -0.5236 -0.2292
 6437SOL    HW130773   4.604   1.510   8.455  0.5654 -0.1190  1.1249
 6437SOL    HW230774   4.482   1.429   8.433 -0.3032 -0.0746 -0.5881
 6438SOL     OW30775   2.512   1.712   7.036 -0.2958 -0.1536 -0.0479
 6438SOL    HW130776   2.520   1.779   6.968  2.7794  0.4808  0.9472
 6438SOL    HW230777   2.593   1.662   7.029 -0.6420 -1.1367  3.0551
 6439SOL     OW30778   0.623   2.049   3.913  0.4601  0.4936 -0.0224
 6439SOL    HW130779   0.653   1.980   3.854 -0.9338 -1.1468  1.1791
 6439SOL    HW230780   0.625   2.127   3.858  1.2464  1.3761  1.2687
 6440SOL     OW30781   3.264   3.118   8.661 -0.0309 -0.4173  0.0870
 6440SOL    HW130782   3.174   3.092   8.679 -0.3586  1.9655  2.0332
 6440SOL    HW230783   3.255   3.208   8.628  2.2278 -0.1878  0.0858
 6441SOL     OW30784   0.198   2.055   1.739 -0.3997  0.0371 -0.0343
 6441SOL    HW130785   0.187   1.961   1.749  1.2325 -0.0783  0.6559
 6441SOL    HW230786   0.184   2.078   1.831  2.3496  3.0812 -0.3836
 6442SOL     OW30787   2.851   2.537   4.523  0.3187 -0.7268  0.5089
 6442SOL    HW130788   2.914   2.595   4.480  1.6181 -1.9791  0.7409
 6442SOL    HW230789   2.777   2.539   4.463 -1.5379  1.3704  2.8948
 6443SOL     OW30790   0.853   2.969   2.729  0.0984  0.0414 -0.5444
 6443SOL    HW130791   0.762   2.990   2.710  0.2811  0.5308 -0.8825
 6443SOL    HW230792   0.872   3.062   2.740  0.5855 -0.0990 -0.1461
 6444SOL     OW30793   0.775   1.013   9.012 -0.5322 -0.0154  0.3324
 6444SOL    HW130794   0.735   0.954   8.949 -1.0906  1.7263 -0.9649
 6444SOL    HW230795   0.702   1.024   9.073  0.4749 -0.5697  1.6367
 6445SOL     OW30796   3.190   2.853   6.043 -0.4533 -0.5624 -0.2661
 6445SOL    HW130797   3.101   2.835   6.073 -0.4164 -2.1668 -1.1955
 6445SOL    HW230798   3.247   2.836   6.118 -0.7052 -2.8279 -0.5977
 6446SOL     OW30799   3.968   3.142  12.369 -0.3293  0.3450  0.2785
 6446SOL    HW130800   3.891   3.159  12.424  0.0898 -1.0216  1.2595
 6446SOL    HW230801   3.922   3.098  12.297  0.3010  1.0145 -0.5362
 6447SOL     OW30802   1.171   1.496  11.208  0.0973 -0.2019 -0.2559
 6447SOL    HW130803   1.252   1.448  11.224 -0.0678 -0.4747 -0.2327
 6447SOL    HW230804   1.115   1.418  11.207 -1.2031  0.7391 -0.3663
 6448SOL     OW30805   0.543   3.123   2.160  0.2267 -0.0923 -0.0275
 6448SOL    HW130806   0.592   3.186   2.108 -1.6113  1.3754  0.0045
 6448SOL    HW230807   0.465   3.131   2.105  0.6281 -1.2369 -0.7384
 6449SOL     OW30808   4.474   1.402   2.014 -0.0092  0.1071  0.2446
 6449SOL    HW130809   4.381   1.381   2.027  0.1551 -0.8386 -0.1061
 6449SOL    HW230810   4.522   1.349   2.077  1.7057  3.5400  1.8225
 6450SOL     OW30811   2.485   2.304   0.528 -0.2704 -0.0371  0.3297
 6450SOL    HW130812   2.425   2.254   0.473 -0.4670  1.0815 -0.4774
 6450SOL    HW230813   2.482   2.250   0.607 -0.0202 -1.4341 -0.6205
 6451SOL     OW30814   0.174   4.413   4.789 -0.3094 -0.0465 -0.0902
 6451SOL    HW130815   0.189   4.458   4.705  0.4193 -0.0835  0.0151
 6451SOL    HW230816   0.128   4.481   4.838  2.1031  0.1671  1.9051
 6452SOL     OW30817   1.942   0.696  11.519 -0.0228 -0.6186  0.2619
 6452SOL    HW130818   1.918   0.750  11.594 -1.3458 -0.3700 -0.3508
 6452SOL    HW230819   1.998   0.634  11.566 -0.4111 -0.7537  0.5502
 6453SOL     OW30820   1.093   2.872   2.614 -0.4026  0.1097 -0.3200
 6453SOL    HW130821   1.000   2.892   2.629 -0.2424 -0.8098  1.8799
 6453SOL    HW230822   1.129   2.949   2.659  0.0376  1.2029 -2.5080
 6454SOL     OW30823   4.527   2.845   6.653 -0.2662  0.0629  0.3251
 6454SOL    HW130824   4.621   2.825   6.647  0.1108  1.7030  0.7062
 6454SOL    HW230825   4.496   2.755   6.661 -0.5904  0.1197 -0.3275
 6455SOL     OW30826   4.454   1.542   7.256  0.0407  0.1225  0.0526
 6455SOL    HW130827   4.453   1.636   7.240 -4.0049 -0.0664 -0.8674
 6455SOL    HW230828   4.375   1.528   7.309  3.0617  1.0361  4.8295
 6456SOL     OW30829   1.388   3.467  13.421 -0.1407 -0.1548 -0.4492
 6456SOL    HW130830   1.418   3.558  13.427  0.2624 -0.1478 -2.7559
 6456SOL    HW230831   1.433   3.413  13.486 -3.1057 -0.9765  0.9266
 6457SOL     OW30832   1.557   1.046  16.625  0.0372 -0.1137  0.0560
 6457SOL    HW130833   1.548   0.996  16.544 -1.0809 -1.5812  1.0765
 6457SOL    HW230834   1.499   1.119  16.603 -1.7646 -1.3782  0.5869
 6458SOL     OW30835   0.840   2.176  16.703  0.5823 -0.3241 -0.3879
 6458SOL    HW130836   0.793   2.097  16.676 -0.8039  0.8281 -1.3704
 6458SOL    HW230837   0.900   2.190  16.630  1.2099  0.1606  0.2148
 6459SOL     OW30838   0.170   4.146  10.448  0.3143  0.3452  0.9837
 6459SOL    HW130839   0.161   4.165  10.541 -0.9172  3.6167  0.2048
 6459SOL    HW230840   0.253   4.192  10.442 -0.3687  1.2917 -1.2483
 6460SOL     OW30841   2.260   4.088  12.487 -0.1026  0.0801 -0.2520
 6460SOL    HW130842   2.201   4.038  12.431  0.3899 -0.6642 -0.1164
 6460SOL    HW230843   2.282   4.163  12.432 -1.0584  1.0291  0.6903
 6461SOL     OW30844   1.283   0.766   8.358 -0.0936 -0.3208  0.4907
 6461SOL    HW130845   1.335   0.688   8.340  0.1440  0.0416 -0.3956
 6461SOL    HW230846   1.202   0.748   8.405 -1.5560 -1.2187 -2.3655
 6462SOL     OW30847   4.341   2.761   2.689  0.0179 -0.2216 -0.4208
 6462SOL    HW130848   4.293   2.844   2.687  3.6964  1.9031 -0.8797
 6462SOL    HW230849   4.278   2.699   2.726  3.5503 -2.7187  1.3550
 6463SOL     OW30850   0.476   1.159   4.834 -0.4879 -0.2623 -0.0552
 6463SOL    HW130851   0.537   1.090   4.859  1.0722  0.4830 -1.8261
 6463SOL    HW230852   0.537   1.230   4.814 -1.4411  0.8539  0.9766
 6464SOL     OW30853   0.064   4.336  11.410  0.1974 -0.2074 -0.5639
 6464SOL    HW130854   0.078   4.252  11.454 -1.1503  0.5237  1.2636
 6464SOL    HW230855   0.014   4.308  11.333  1.2798 -0.9351 -0.9994
 6465SOL     OW30856   4.042   4.279   8.742  0.4247  0.3511 -0.1505
 6465SOL    HW130857   3.986   4.336   8.795  1.5550 -0.4716  1.9338
 6465SOL    HW230858   3.987   4.205   8.718  1.0293  0.1913 -1.0403
 6466SOL     OW30859   3.440   3.739  11.645  0.0406 -0.3059  0.1085
 6466SOL    HW130860   3.349   3.723  11.621 -0.8823 -0.0514  3.3980
 6466SOL    HW230861   3.480   3.795  11.578 -0.3173 -0.2951 -0.0970
 6467SOL     OW30862   4.252   1.657  13.667 -0.5421 -0.0499 -0.3759
 6467SOL    HW130863   4.174   1.657  13.612  0.0731  2.7722 -1.2446
 6467SOL    HW230864   4.299   1.583  13.629  0.1029  0.7995 -1.2283
 6468SOL     OW30865   2.281   4.457   1.538  0.4100 -0.0963  0.5393
 6468SOL    HW130866   2.371   4.490   1.537  0.1397  0.6461  0.2158
 6468SOL    HW230867   2.236   4.538   1.514 -1.9167 -1.8998 -1.2221
 6469SOL     OW30868   3.469   0.287  16.976  0.2686  0.1570 -0.3030
 6469SOL    HW130869   3.431   0.200  16.989  0.4806 -0.0433 -0.9923
 6469SOL    HW230870   3.422   0.322  16.901 -1.2184 -1.7148 -0.2587
 6470SOL     OW30871   3.377   3.435   9.761  0.3759  0.3419 -0.3311
 6470SOL    HW130872   3.466   3.413   9.734  0.2200  1.3978 -1.7497
 6470SOL    HW230873   3.389   3.511   9.818 -1.0018  1.0395 -0.9810
 6471SOL     OW30874   3.807   0.083  11.856  0.4391  0.0115 -1.1706
 6471SOL    HW130875   3.732   0.106  11.800 -0.8272  0.4359  0.6994
 6471SOL    HW230876   3.798   0.142  11.931  0.1463 -0.9375 -0.4607
 6472SOL     OW30877   1.637   4.472   0.871  0.1284  0.1636  0.7280
 6472SOL    HW130878   1.645   4.564   0.895  1.2282 -0.0284  1.0869
 6472SOL    HW230879   1.569   4.483   0.805  2.9075  2.8085 -1.6705
 6473SOL     OW30880   2.809   2.771   2.706 -0.0657 -0.1091  0.0600
 6473SOL    HW130881   2.850   2.837   2.762  0.6564 -0.7100  0.2265
 6473SOL    HW230882   2.754   2.823   2.647 -1.7251  0.4030  2.0138
 6474SOL     OW30883   0.113   3.295   4.964 -0.0680  0.6625  0.4676
 6474SOL    HW130884   0.145   3.217   4.919 -0.2814  1.7423 -1.5291
 6474SOL    HW230885   0.195   3.339   4.986  0.3810  0.2494 -0.4086
 6475SOL     OW30886   0.722   1.660   4.752  0.4361  0.0752  0.1611
 6475SOL    HW130887   0.765   1.711   4.683  0.5635 -0.8135 -0.4185
 6475SOL    HW230888   0.790   1.592   4.758 -1.0407 -1.2854  1.3165
 6476SOL     OW30889   0.879   1.273   6.566 -0.2647 -0.8117 -0.3729
 6476SOL    HW130890   0.824   1.198   6.585 -1.9217  0.2075 -1.0891
 6476SOL    HW230891   0.820   1.306   6.497 -1.0445  0.6017  0.9637
 6477SOL     OW30892   4.550   1.679   4.333 -0.4950  0.3627  0.2690
 6477SOL    HW130893   4.618   1.710   4.272 -0.5474  0.5771  0.3175
 6477SOL    HW230894   4.594   1.613   4.386  0.5719  0.9456  0.1243
 6478SOL     OW30895   4.529   1.755  12.891 -0.2203  0.2812  0.1930
 6478SOL    HW130896   4.466   1.699  12.845 -0.4960  1.2468 -0.6171
 6478SOL    HW230897   4.595   1.691  12.916 -0.5743  0.1984  0.9264
 6479SOL     OW30898   3.254   0.149   3.533  0.3819 -0.1160 -0.0895
 6479SOL    HW130899   3.232   0.243   3.536 -3.4224 -1.0594  1.8768
 6479SOL    HW230900   3.212   0.128   3.616 -2.1963  2.5802 -0.6811
 6480SOL     OW30901   0.930   0.284  15.593 -0.1383  0.0980  0.4168
 6480SOL    HW130902   0.942   0.232  15.514 -0.2860  1.1259 -0.2926
 6480SOL    HW230903   0.968   0.216  15.648 -0.7993  1.2975  2.4026
 6481SOL     OW30904   2.144   3.264   5.778  0.1665 -0.6887 -0.0584
 6481SOL    HW130905   2.083   3.193   5.758 -1.0262  0.2824  0.2145
 6481SOL    HW230906   2.084   3.338   5.788 -0.0522 -0.8596 -0.1014
 6482SOL     OW30907   2.343   3.786   2.776  0.1990 -0.3451 -0.2970
 6482SOL    HW130908   2.345   3.698   2.738  1.8926 -0.6741  0.5559
 6482SOL    HW230909   2.360   3.837   2.697  1.3833  0.0482  0.2035
 6483SOL     OW30910   0.777   3.417  12.635 -0.1517 -0.5916  0.0409
 6483SOL    HW130911   0.728   3.457  12.563  2.3957  0.5703 -1.0269
 6483SOL    HW230912   0.828   3.490  12.668 -0.1653 -0.7392  0.3973
 6484SOL     OW30913   4.115   0.292   4.244 -0.2571 -0.6574  0.5298
 6484SOL    HW130914   4.202   0.253   4.251  0.4473  0.4172 -2.1866
 6484SOL    HW230915   4.089   0.285   4.335  2.4567 -0.8484  1.2954
 6485SOL     OW30916   0.450   2.425  13.601  0.3745  0.5802  0.6504
 6485SOL    HW130917   0.417   2.498  13.653 -0.6388  0.1731  0.5756
 6485SOL    HW230918   0.531   2.461  13.564  0.5739 -2.2497 -1.7048
 6486SOL     OW30919   3.684   0.473   5.168  0.0757  0.6737  0.4276
 6486SOL    HW130920   3.745   0.546   5.175 -0.8638  1.2601  2.2984
 6486SOL    HW230921   3.736   0.392   5.171  1.2548  1.4885  1.7045
 6487SOL     OW30922   1.498   0.745   6.165 -0.5912 -0.0583 -0.1489
 6487SOL    HW130923   1.435   0.692   6.215 -0.0303 -0.9544 -0.3872
 6487SOL    HW230924   1.485   0.836   6.192  0.7564  0.2702 -0.6072
 6488SOL     OW30925   1.366   4.572   1.534 -0.3619  0.3733 -0.3289
 6488SOL    HW130926   1.396   4.655   1.496  0.0379 -0.6390 -2.1977
 6488SOL    HW230927   1.274   4.590   1.553 -0.0745 -0.8105  2.2084
 6489SOL     OW30928   0.951   0.128  11.310  0.1235 -0.3877 -0.1424
 6489SOL    HW130929   0.856   0.123  11.319 -0.1741  2.0509 -1.8874
 6489SOL    HW230930   0.977   0.100  11.397 -1.1207  0.8392  0.6385
 6490SOL     OW30931   3.915   4.147   2.608 -0.8717  0.2217 -0.0409
 6490SOL    HW130932   3.996   4.192   2.632  0.3419 -0.7695 -2.2175
 6490SOL    HW230933   3.950   4.059   2.624 -1.2851  0.3646  1.6719
 6491SOL     OW30934   1.489   0.004   6.706 -0.0446 -0.1132 -0.1712
 6491SOL    HW130935   1.548   4.654   6.690 -0.5690 -0.2993 -1.2324
 6491SOL    HW230936   1.489   4.722   6.802  2.7905 -1.2187 -0.2287
 6492SOL     OW30937   2.859   4.043   9.086  0.3539 -0.3287 -0.3107
 6492SOL    HW130938   2.823   3.983   9.152 -1.3667  1.0335 -0.0067
 6492SOL    HW230939   2.798   4.116   9.090  0.7322  0.1296 -3.4538
 6493SOL     OW30940   2.804   1.329   4.049  0.1716  0.5417  0.4887
 6493SOL    HW130941   2.731   1.392   4.049  0.5372  0.9573 -0.4515
 6493SOL    HW230942   2.836   1.333   3.959 -0.2538 -0.3854  0.2967
 6494SOL     OW30943   2.475   3.254   3.417  0.0577 -0.2918 -0.3049
 6494SOL    HW130944   2.395   3.298   3.390 -1.2577 -1.1103  2.2461
 6494SOL    HW230945   2.482   3.193   3.343 -0.7570  2.3536 -2.5468
 6495SOL     OW30946   1.149   0.101   2.715  0.4504 -0.8659 -0.4259
 6495SOL    HW130947   1.240   0.071   2.710  1.0796  1.0384 -0.3327
 6495SOL    HW230948   1.157   0.175   2.656 -0.1793  0.1239  0.7421
 6496SOL     OW30949   3.704   0.589   0.292 -0.3845 -0.5956 -0.4286
 6496SOL    HW130950   3.677   0.520   0.232  1.9173 -2.3808  0.5999
 6496SOL    HW230951   3.655   0.662   0.256 -0.9014  0.0713  1.5962
 6497SOL     OW30952   2.364   4.574   8.605 -0.2614  1.0207  0.3197
 6497SOL    HW130953   2.349   4.668   8.609  2.3158  1.5190 -1.3561
 6497SOL    HW230954   2.427   4.577   8.676 -0.2179  1.6284  0.2559
 6498SOL     OW30955   0.135   4.403   1.272 -0.7335  0.4453 -0.3337
 6498SOL    HW130956   0.074   4.474   1.251  0.2318  0.9919 -1.3505
 6498SOL    HW230957   0.081   4.377   1.347 -0.8294 -0.4484 -0.7086
 6499SOL     OW30958   2.948   1.741   7.057 -0.7087  0.1452 -0.1477
 6499SOL    HW130959   3.042   1.730   7.074 -0.4920  1.8550 -0.2566
 6499SOL    HW230960   2.929   1.779   7.143  0.2336 -1.6705  0.8730
 6500SOL     OW30961   3.897   1.754   5.909  0.5834  0.2090 -0.1546
 6500SOL    HW130962   3.845   1.820   5.956  0.0978 -0.9231  0.8732
 6500SOL    HW230963   3.849   1.768   5.827 -0.7103 -0.7344  0.4462
 6501SOL     OW30964   0.325   0.148   3.608 -0.0175 -0.3521  0.1726
 6501SOL    HW130965   0.419   0.137   3.594  0.0014  0.2147 -0.1657
 6501SOL    HW230966   0.313   0.111   3.695  1.2282  0.9738  0.9087
 6502SOL     OW30967   4.629   4.609  14.682 -0.3949 -0.0158  0.3720
 6502SOL    HW130968   4.634   4.701  14.707  2.3159 -0.4762  1.4602
 6502SOL    HW230969   4.721   4.586  14.695 -0.2089  1.1546  1.1146
 6503SOL     OW30970   2.270   0.441   6.166 -0.2495  0.1140  0.1155
 6503SOL    HW130971   2.318   0.472   6.090 -0.9895 -0.7299 -0.7080
 6503SOL    HW230972   2.307   0.354   6.178 -0.1132  0.0473 -0.8145
 6504SOL     OW30973   3.970   0.277   1.759 -0.5074 -0.1363  0.2402
 6504SOL    HW130974   3.924   0.205   1.803 -0.9629  0.3840  0.6175
 6504SOL    HW230975   3.953   0.343   1.825 -1.5540 -0.7391  0.5762
 6505SOL     OW30976   0.628   3.866   0.512 -0.3711 -0.2127 -0.0360
 6505SOL    HW130977   0.677   3.889   0.434  1.7820  0.4250  1.4982
 6505SOL    HW230978   0.617   3.946   0.564  0.5475 -0.4131  0.4626
 6506SOL     OW30979   0.542   3.569  10.536  0.1206 -0.4973 -0.1838
 6506SOL    HW130980   0.467   3.541  10.485 -0.4088 -0.3590  0.5186
 6506SOL    HW230981   0.497   3.592  10.617  0.7321  3.1772 -0.8540
 6507SOL     OW30982   3.021   1.775  16.566 -0.2079 -0.2184  0.5533
 6507SOL    HW130983   3.102   1.826  16.555  0.0718 -0.8970 -0.5299
 6507SOL    HW230984   3.003   1.745  16.478  1.5138  0.7949 -0.1487
 6508SOL     OW30985   4.409   0.643  10.113 -0.4772  0.1757 -0.4033
 6508SOL    HW130986   4.430   0.703  10.041  0.1869  0.5029  0.0585
 6508SOL    HW230987   4.391   0.565  10.060  2.0987 -0.5203 -0.2992
 6509SOL     OW30988   1.164   2.453   6.398  0.0369  0.0151  0.2809
 6509SOL    HW130989   1.177   2.370   6.353  0.5304 -0.9210  2.1844
 6509SOL    HW230990   1.184   2.418   6.485  2.0402  0.0902 -0.1597
 6510SOL     OW30991   0.442   4.223   7.371 -0.0295 -0.1996 -0.2829
 6510SOL    HW130992   0.480   4.237   7.284  0.1908 -3.7234 -0.7285
 6510SOL    HW230993   0.447   4.128   7.375 -1.9180 -0.2882  0.0388
 6511SOL     OW30994   4.443   0.261  10.478  0.3404 -1.1041 -0.0447
 6511SOL    HW130995   4.512   0.225  10.422  2.1299  1.7059  0.3651
 6511SOL    HW230996   4.424   0.338  10.425  0.1235 -1.1829 -0.0851
 6512SOL     OW30997   3.027   2.523   2.047 -0.2424 -0.1596  0.0353
 6512SOL    HW130998   2.976   2.467   2.105 -0.1357 -1.4076 -1.0936
 6512SOL    HW230999   3.116   2.505   2.077  0.2056  3.3428  0.8658
 6513SOL     OW31000   2.913   0.006   5.129  0.5586  0.0644  0.2420
 6513SOL    HW131001   2.844   4.678   5.087  0.5486  0.4215 -0.1716
 6513SOL    HW231002   2.962   4.663   5.178 -1.6178 -1.1310  0.8061
 6514SOL     OW31003   1.519   0.567  15.948 -0.2013 -0.3363  0.8644
 6514SOL    HW131004   1.497   0.632  16.015 -1.1871 -2.4562  2.5776
 6514SOL    HW231005   1.533   0.612  15.865 -1.1678 -2.8323 -0.6411
 6515SOL     OW31006   3.510   3.125  15.261 -0.1222 -0.0748  0.3520
 6515SOL    HW131007   3.471   3.064  15.324 -2.0994  1.9108  1.0686
 6515SOL    HW231008   3.452   3.201  15.274 -1.3496 -0.9873  0.2063
 6516SOL     OW31009   1.201   2.838   1.949  0.1861 -0.2310  0.2677
 6516SOL    HW131010   1.163   2.858   2.035 -1.5959  1.1124 -0.8269
 6516SOL    HW231011   1.141   2.773   1.914  0.3742 -0.1882 -0.1363
 6517SOL     OW31012   3.234   0.594  17.156 -0.3025  0.0223  0.4951
 6517SOL    HW131013   3.278   0.615  17.073 -1.2994 -1.1835 -0.3441
 6517SOL    HW231014   3.144   0.587  17.126  0.0979 -0.8868 -0.5138
 6518SOL     OW31015   3.424   0.757   5.838 -0.3197  0.0690 -0.4205
 6518SOL    HW131016   3.465   0.737   5.922 -0.9966 -1.3772 -0.4313
 6518SOL    HW231017   3.404   0.669   5.806  0.0108 -0.8227  1.8092
 6519SOL     OW31018   0.039   2.347   1.664  0.2952 -0.3939  0.1146
 6519SOL    HW131019   0.050   2.419   1.602 -0.9179  0.6570  1.1137
 6519SOL    HW231020   0.032   2.287   1.590  0.4535  0.5680 -0.6725
 6520SOL     OW31021   2.336   2.579  13.896 -0.2335  0.0707 -0.4892
 6520SOL    HW131022   2.294   2.493  13.895  1.0709 -0.5577 -1.0521
 6520SOL    HW231023   2.427   2.556  13.918 -1.0813 -3.1603 -0.2884
 6521SOL     OW31024   1.610   2.622   4.808 -0.2438 -0.0479  0.3375
 6521SOL    HW131025   1.694   2.587   4.777 -1.5000 -0.6331 -2.4649
 6521SOL    HW231026   1.581   2.552   4.865 -2.9328 -0.1915 -1.2113
 6522SOL     OW31027   4.079   4.555   6.373 -0.1850 -0.1656  0.7030
 6522SOL    HW131028   4.146   4.597   6.427  1.3011 -0.3246 -0.9914
 6522SOL    HW231029   4.008   4.549   6.437 -0.2128  2.3749  0.9211
 6523SOL     OW31030   3.813   0.297   2.482  0.6192  0.0932  0.5424
 6523SOL    HW131031   3.814   0.381   2.436  0.1717 -1.0260 -1.4693
 6523SOL    HW231032   3.894   0.253   2.456  0.4154 -0.9950  1.7159
 6524SOL     OW31033   4.436   1.795   7.498 -0.6524 -0.2560  0.0916
 6524SOL    HW131034   4.368   1.841   7.450 -0.2443  1.6897  1.4038
 6524SOL    HW231035   4.391   1.719   7.535  2.6995 -2.0860  0.4247
 6525SOL     OW31036   4.395   0.799  11.959 -0.3278 -0.8045 -0.3675
 6525SOL    HW131037   4.426   0.844  11.880 -1.8661  0.1323 -0.4261
 6525SOL    HW231038   4.473   0.810  12.013  0.4914  0.6887 -1.8466
 6526SOL     OW31039   3.337   3.248  15.452  0.0903  0.0689 -0.0287
 6526SOL    HW131040   3.277   3.225  15.381  2.1788 -0.0284 -1.8015
 6526SOL    HW231041   3.359   3.162  15.486 -1.2969 -0.9440 -1.7004
 6527SOL     OW31042   4.438   2.549  10.828 -0.5432  0.3688 -0.0825
 6527SOL    HW131043   4.405   2.582  10.912  2.8214  0.6700  1.0935
 6527SOL    HW231044   4.369   2.489  10.799  2.3907 -2.3618 -1.4090
 6528SOL     OW31045   0.267   3.181   4.740 -0.0187 -0.1408  0.4184
 6528SOL    HW131046   0.256   3.192   4.645 -1.3478 -0.3950  0.5445
 6528SOL    HW231047   0.342   3.237   4.760  0.5265 -0.8522  0.3550
 6529SOL     OW31048   2.464   0.102  11.465  0.2239 -0.8638  0.5499
 6529SOL    HW131049   2.545   0.152  11.470 -0.2705  0.0254 -0.4639
 6529SOL    HW231050   2.462   0.071  11.375  2.0645  2.8272 -0.7419
 6530SOL     OW31051   0.637   4.508   1.369  0.0498  0.4223  0.6600
 6530SOL    HW131052   0.624   4.556   1.451  4.3165  0.3872  1.3509
 6530SOL    HW231053   0.561   4.451   1.357  0.9390 -1.3547  3.5288
 6531SOL     OW31054   0.135   0.522   5.697  0.5066 -0.3444  0.2920
 6531SOL    HW131055   0.209   0.485   5.745  0.3277 -3.3867 -1.7981
 6531SOL    HW231056   0.069   0.514   5.767  0.3449  0.3871  0.2232
 6532SOL     OW31057   4.467   0.527   0.583  0.1593 -0.4676 -0.2227
 6532SOL    HW131058   4.396   0.556   0.641  0.5975  0.0960  0.0370
 6532SOL    HW231059   4.473   0.434   0.604 -0.1860 -0.2226  0.9728
 6533SOL     OW31060   0.332   1.295   5.964 -0.0441 -0.0969  0.4268
 6533SOL    HW131061   0.343   1.219   5.908  0.2322  0.7169 -0.6335
 6533SOL    HW231062   0.384   1.278   6.043 -0.8659 -1.3861  0.6795
 6534SOL     OW31063   1.236   1.117   9.963 -0.3842  0.1256  0.0854
 6534SOL    HW131064   1.258   1.079   9.878  0.3096  0.8421 -0.0572
 6534SOL    HW231065   1.276   1.051  10.020  0.7652 -0.0647 -0.9282
 6535SOL     OW31066   3.977   2.366  11.707 -0.0815  0.4027 -0.6221
 6535SOL    HW131067   4.034   2.436  11.738  0.0403  0.7085 -1.5456
 6535SOL    HW231068   3.944   2.330  11.789 -0.5980 -1.3113 -1.5879
 6536SOL     OW31069   1.421   0.486   2.933  0.3954  0.5706 -0.6661
 6536SOL    HW131070   1.352   0.460   2.995  1.2138  0.5799  0.2581
 6536SOL    HW231071   1.391   0.565   2.889  1.1608  0.7969 -0.7722
 6537SOL     OW31072   1.006   0.451   6.929 -0.1002  0.1108 -0.0086
 6537SOL    HW131073   0.939   0.516   6.949 -1.5727 -0.8864 -1.7619
 6537SOL    HW231074   1.029   0.489   6.844  0.4370  0.6179  0.3646
 6538SOL     OW31075   0.546   1.643   9.810 -0.1229 -0.1685 -0.0693
 6538SOL    HW131076   0.595   1.622   9.889  1.7055 -0.0585 -1.1760
 6538SOL    HW231077   0.470   1.685   9.849  1.5154 -0.2978  3.2258
 6539SOL     OW31078   0.260   3.858   0.914 -0.3539  0.2708  0.2651
 6539SOL    HW131079   0.284   3.950   0.916 -0.8237  0.3246  4.0353
 6539SOL    HW231080   0.318   3.825   0.846  0.1524  1.6743  0.0194
 6540SOL     OW31081   1.438   0.494   2.095  0.3595  0.5697  0.1550
 6540SOL    HW131082   1.482   0.556   2.154  0.2067  0.7789  0.0489
 6540SOL    HW231083   1.505   0.473   2.030  0.8894 -1.9673  1.5260
 6541SOL     OW31084   2.853   0.877   3.602 -0.3692  0.1909 -0.0233
 6541SOL    HW131085   2.921   0.902   3.540 -0.8027 -0.4320 -0.7542
 6541SOL    HW231086   2.816   0.801   3.557  2.5473 -1.4622  0.3516
 6542SOL     OW31087   2.898   1.695   6.317 -0.0906  0.6284  0.1004
 6542SOL    HW131088   2.887   1.646   6.398 -0.4552  0.0060 -0.3229
 6542SOL    HW231089   2.986   1.666   6.293  0.1667  1.4588  0.0645
 6543SOL     OW31090   0.629   4.136   9.495 -0.5390 -0.1907 -0.5647
 6543SOL    HW131091   0.582   4.078   9.435 -2.5648  0.6298  0.2153
 6543SOL    HW231092   0.566   4.153   9.565  0.9018  1.1679  0.4189
 6544SOL     OW31093   1.445   3.971   0.318  0.4041  0.5337  0.1654
 6544SOL    HW131094   1.374   4.029   0.346 -1.3816 -0.0645 -3.1672
 6544SOL    HW231095   1.524   4.004   0.362  0.8152 -1.0669  0.6244
 6545SOL     OW31096   1.780   4.481   8.918  0.3564 -0.3105  0.2843
 6545SOL    HW131097   1.867   4.493   8.882  1.2877 -1.6987  2.0398
 6545SOL    HW231098   1.742   4.553   8.868 -1.2852 -1.2150  0.2399
 6546SOL     OW31099   0.835   4.275   4.491  0.2322 -0.6478 -0.1242
 6546SOL    HW131100   0.746   4.312   4.488  0.4976  0.0393  0.4936
 6546SOL    HW231101   0.885   4.347   4.528  0.6779  0.8460 -3.6998
 6547SOL     OW31102   0.546   2.036   7.091 -0.4511 -0.1934  0.4921
 6547SOL    HW131103   0.468   2.081   7.058 -0.6216 -2.9720 -2.9242
 6547SOL    HW231104   0.553   1.972   7.020  0.9625  0.5872 -0.0802
 6548SOL     OW31105   1.759   3.479   7.031  0.1203 -0.9101 -0.5676
 6548SOL    HW131106   1.700   3.421   7.079 -0.2360  1.0664  1.3910
 6548SOL    HW231107   1.838   3.428   7.043 -0.5966 -2.1759 -1.2720
 6549SOL     OW31108   0.072   4.186   9.353 -0.7634 -0.3810 -0.1742
 6549SOL    HW131109   0.014   4.133   9.408 -1.2519  1.0907  0.6955
 6549SOL    HW231110   0.043   4.158   9.266  1.1367 -0.3125 -0.8325
 6550SOL     OW31111   4.473   4.207   2.819 -0.4987  0.3533  0.8049
 6550SOL    HW131112   4.507   4.296   2.810  0.3426 -0.2309 -1.7129
 6550SOL    HW231113   4.535   4.163   2.761 -0.0637  1.5398  0.3668
 6551SOL     OW31114   4.586   4.636   6.762  0.6142 -0.1083 -0.9545
 6551SOL    HW131115   4.567   4.578   6.689  2.4452 -1.8220 -0.0520
 6551SOL    HW231116   4.636   4.573   6.813 -1.2150 -0.5414  0.3414
 6552SOL     OW31117   1.958   3.069   5.811 -0.0852  0.5803  0.1026
 6552SOL    HW131118   1.886   3.032   5.761  0.0542 -0.6482  0.8009
 6552SOL    HW231119   1.959   3.015   5.891 -0.7748  1.3002  0.5977
 6553SOL     OW31120   3.745   2.349   8.840 -0.5311 -0.4811  0.0341
 6553SOL    HW131121   3.761   2.403   8.917  1.3232  0.7241 -1.2184
 6553SOL    HW231122   3.708   2.416   8.782 -0.7105 -1.1396 -0.6186
 6554SOL     OW31123   4.468   3.290   6.315 -0.1069 -0.3570 -0.1235
 6554SOL    HW131124   4.525   3.367   6.311  0.9625 -1.1280  0.1273
 6554SOL    HW231125   4.534   3.222   6.297  0.6871  0.7060 -1.2809
 6555SOL     OW31126   3.982   1.571  17.378 -0.1595 -0.3642  0.0932
 6555SOL    HW131127   3.909   1.516  17.406  0.2070 -0.7564  0.2764
 6555SOL    HW231128   4.003   1.534  17.293  0.2327  3.3220 -1.3870
 6556SOL     OW31129   4.375   0.435   4.405  0.2220  0.5685 -0.2996
 6556SOL    HW131130   4.428   0.380   4.347 -0.8323 -0.3500 -0.3799
 6556SOL    HW231131   4.328   0.491   4.343  1.0585 -1.8523 -3.1201
 6557SOL     OW31132   1.421   4.655   7.457 -0.7210 -0.5321 -0.3127
 6557SOL    HW131133   1.343   4.610   7.424 -0.3997 -0.4563 -1.1733
 6557SOL    HW231134   1.430   0.014   7.409 -2.4598  0.8125  1.6794
 6558SOL     OW31135   0.681   3.976  15.880 -0.3455 -0.0606 -0.3114
 6558SOL    HW131136   0.760   3.935  15.844  0.8294  1.6403  0.3377
 6558SOL    HW231137   0.643   4.017  15.802  0.8393 -0.4084 -1.0689
 6559SOL     OW31138   0.963   1.296   6.008  0.0790 -0.4430 -0.2321
 6559SOL    HW131139   1.014   1.215   6.009 -0.3161 -0.7134 -1.5493
 6559SOL    HW231140   1.017   1.347   5.947 -1.2112  1.0989 -0.0992
 6560SOL     OW31141   3.410   3.237   2.075 -0.2116  0.0009 -0.2695
 6560SOL    HW131142   3.322   3.227   2.037 -0.6321  0.8760  0.4693
 6560SOL    HW231143   3.410   3.332   2.089 -0.5582  0.2042 -1.7112
 6561SOL     OW31144   0.969   1.176   8.898  0.3954  0.2711 -0.2178
 6561SOL    HW131145   0.906   1.118   8.942 -0.0120  1.0958  0.2840
 6561SOL    HW231146   0.978   1.250   8.958 -1.7742 -0.5505  1.1151
 6562SOL     OW31147   2.211   3.633  10.847  0.8649 -0.3506 -0.6152
 6562SOL    HW131148   2.118   3.623  10.823  0.5377  0.1834  0.4335
 6562SOL    HW231149   2.255   3.616  10.764 -0.7025  1.2654 -1.7779
 6563SOL     OW31150   4.349   3.763   6.472 -0.0789 -0.0177 -0.0087
 6563SOL    HW131151   4.383   3.729   6.390 -1.6518 -0.4360 -0.4875
 6563SOL    HW231152   4.297   3.691   6.507  1.5354 -0.3656  1.7193
 6564SOL     OW31153   4.188   0.963  11.170 -0.1898  0.1217  0.2283
 6564SOL    HW131154   4.129   1.025  11.214 -0.8788  0.4596 -1.1544
 6564SOL    HW231155   4.266   1.018  11.158  1.2146 -2.1616 -1.0700
 6565SOL     OW31156   3.782   1.505   8.554  0.0861 -0.4778 -0.3576
 6565SOL    HW131157   3.762   1.414   8.574  0.2993 -0.8432 -1.8098
 6565SOL    HW231158   3.848   1.487   8.487 -1.4182 -0.8167 -1.7521
 6566SOL     OW31159   2.770   3.623   8.592 -0.4896 -0.4034 -0.0237
 6566SOL    HW131160   2.841   3.651   8.650 -1.0655 -1.6215  1.2680
 6566SOL    HW231161   2.688   3.658   8.629 -0.9849  1.0156 -2.4362
 6567SOL     OW31162   3.118   3.502   6.123 -0.5317  0.0066 -0.8244
 6567SOL    HW131163   3.050   3.554   6.080  1.1738  0.8247 -2.5763
 6567SOL    HW231164   3.101   3.414   6.091 -1.3804  0.0857 -0.5761
 6568SOL     OW31165   2.694   1.822   3.582 -0.1748  0.2311 -0.5351
 6568SOL    HW131166   2.606   1.824   3.545  0.5288 -0.4962 -2.2306
 6568SOL    HW231167   2.754   1.798   3.512  0.4766  0.0135  0.0996
 6569SOL     OW31168   3.586   4.372   8.670 -0.2633  0.1222 -0.1300
 6569SOL    HW131169   3.533   4.301   8.634  0.1195 -0.5714  0.6664
 6569SOL    HW231170   3.551   4.383   8.759  1.8897  2.1435  0.4620
 6570SOL     OW31171   1.579   2.611  11.381 -0.5242 -0.3361 -0.1493
 6570SOL    HW131172   1.581   2.516  11.387  0.0393 -0.3300 -0.2306
 6570SOL    HW231173   1.495   2.632  11.422 -0.3682  1.0211 -0.5193
 6571SOL     OW31174   2.641   3.633   5.582  0.1185  0.3529 -0.1032
 6571SOL    HW131175   2.661   3.712   5.531  2.3217 -2.2056 -3.2134
 6571SOL    HW231176   2.549   3.620   5.562  0.5173 -2.3148 -0.1556
 6572SOL     OW31177   3.328   2.721   2.310 -0.1721 -0.8783 -0.0418
 6572SOL    HW131178   3.377   2.687   2.234  2.3852  0.4899  0.9922
 6572SOL    HW231179   3.256   2.764   2.265  1.2760  0.8373 -0.6989
 6573SOL     OW31180   0.301   3.696   6.456  0.4844  0.4335 -0.2718
 6573SOL    HW131181   0.362   3.661   6.520  0.3663 -0.7727 -0.8082
 6573SOL    HW231182   0.221   3.662   6.496  1.3556 -0.2385  0.8934
 6574SOL     OW31183   4.359   3.157   5.921  0.8358  0.2281  0.2581
 6574SOL    HW131184   4.313   3.209   5.856  0.3194  1.2830  1.4686
 6574SOL    HW231185   4.445   3.160   5.880 -0.0101  0.2809 -1.5141
 6575SOL     OW31186   3.881   0.455   4.208  0.3079  0.4284  0.1452
 6575SOL    HW131187   3.846   0.371   4.181 -0.8472  1.4045 -1.3776
 6575SOL    HW231188   3.972   0.426   4.216 -0.3679 -2.9172 -4.5434
 6576SOL     OW31189   2.522   4.563   1.480 -0.1379 -0.1300 -0.1801
 6576SOL    HW131190   2.613   4.562   1.451  0.0338  0.2973  0.3384
 6576SOL    HW231191   2.479   4.584   1.397  1.6136  0.1108 -1.0266
 6577SOL     OW31192   4.666   2.043  10.730 -0.3782  0.1951  0.0490
 6577SOL    HW131193   4.628   1.983  10.666 -0.8884  0.9312 -0.3355
 6577SOL    HW231194   0.030   2.005  10.742 -0.6396 -0.7097 -0.8921
 6578SOL     OW31195   2.835   3.281  13.267 -0.2638 -0.1864  0.2013
 6578SOL    HW131196   2.860   3.369  13.240 -1.4008  0.0578 -0.0691
 6578SOL    HW231197   2.866   3.236  13.188  0.4252  0.8399 -0.1153
 6579SOL     OW31198   1.248   0.555   5.668  0.3889 -0.1230  0.3912
 6579SOL    HW131199   1.321   0.525   5.614  1.4992  1.3694  1.0563
 6579SOL    HW231200   1.210   0.473   5.699 -1.0356  0.7874  1.0806
 6580SOL     OW31201   1.598   1.740   4.487  0.6662 -0.3987  0.6795
 6580SOL    HW131202   1.616   1.807   4.553  2.0046 -0.6646  0.5911
 6580SOL    HW231203   1.680   1.757   4.440  0.2140 -0.1964 -0.0295
 6581SOL     OW31204   0.473   2.842   8.853  0.2207  0.7270 -0.4766
 6581SOL    HW131205   0.438   2.931   8.849 -1.0449  0.2447 -0.1854
 6581SOL    HW231206   0.447   2.819   8.942 -0.4127 -0.6545 -1.0266
 6582SOL     OW31207   0.877   2.177   6.136 -0.1491  0.1011 -0.2194
 6582SOL    HW131208   0.874   2.262   6.092 -1.4175  0.1513 -0.0436
 6582SOL    HW231209   0.942   2.192   6.204  0.0339  0.2922 -0.4388
 6583SOL     OW31210   1.478   1.008  16.367  0.3667 -0.2145 -0.0492
 6583SOL    HW131211   1.458   1.058  16.288  0.7325 -1.1499 -0.7275
 6583SOL    HW231212   1.409   1.052  16.416  0.5011 -1.2761  1.0784
 6584SOL     OW31213   4.312   2.890   9.264 -0.5981 -0.2211  0.1579
 6584SOL    HW131214   4.277   2.972   9.299  0.9497  0.4297  0.1969
 6584SOL    HW231215   4.257   2.890   9.186  0.4362 -3.1821 -0.5506
 6585SOL     OW31216   2.883   0.939   6.488 -0.6060 -0.5221 -0.2857
 6585SOL    HW131217   2.908   0.990   6.566  0.3911  0.1648 -1.0575
 6585SOL    HW231218   2.790   0.956   6.497 -0.6842 -0.7638 -0.6608
 6586SOL     OW31219   2.889   0.245   8.998  0.1963  0.5525  0.2769
 6586SOL    HW131220   2.918   0.294   9.075 -1.4923 -2.1258  2.6114
 6586SOL    HW231221   2.952   0.278   8.934  0.5667 -2.0515 -0.7038
 6587SOL     OW31222   1.318   0.707   6.360 -0.0626 -0.6295 -0.2180
 6587SOL    HW131223   1.270   0.755   6.294  0.1535 -0.1112  0.0034
 6587SOL    HW231224   1.244   0.650   6.381 -1.5504  1.4320  0.0595
 6588SOL     OW31225   1.036   3.218   4.849 -0.9060  0.2943  0.1379
 6588SOL    HW131226   1.030   3.193   4.941  1.3026 -0.2708  0.1388
 6588SOL    HW231227   1.001   3.307   4.851  0.7704  0.9212  1.5885
 6589SOL     OW31228   0.319   4.394  13.797 -0.6211  0.4440 -0.5466
 6589SOL    HW131229   0.376   4.459  13.839 -0.5965  0.7481 -1.0466
 6589SOL    HW231230   0.234   4.404  13.840 -0.9414  1.2645 -1.3739
 6590SOL     OW31231   3.369   4.315   2.462  0.0459 -0.4872  0.3461
 6590SOL    HW131232   3.382   4.221   2.476  0.1204 -0.3862  0.9550
 6590SOL    HW231233   3.419   4.339   2.541  0.1134 -3.8067  1.3484
 6591SOL     OW31234   4.019   1.127   1.602 -0.4108  0.0466 -0.4172
 6591SOL    HW131235   4.105   1.164   1.620 -0.5573  0.2336 -0.0988
 6591SOL    HW231236   4.032   1.091   1.514  0.2406  1.2961 -0.8249
 6592SOL     OW31237   0.988   1.078  10.061 -0.1434  0.2132 -0.5531
 6592SOL    HW131238   1.065   1.117  10.020  0.2360 -1.3847 -1.3817
 6592SOL    HW231239   0.937   1.040   9.989 -1.5119 -0.9147  1.0099
 6593SOL     OW31240   3.825   3.085   4.526 -0.8450 -0.3310 -0.7555
 6593SOL    HW131241   3.757   3.019   4.541  0.2973 -1.4188 -0.3894
 6593SOL    HW231242   3.795   3.149   4.591  1.2624  0.8557 -0.9578
 6594SOL     OW31243   0.056   2.349   0.456  0.2413  0.0896 -0.1800
 6594SOL    HW131244   0.078   2.437   0.428  0.0810  1.2314  3.2399
 6594SOL    HW231245   4.684   2.362   0.457  0.4533  1.6209 -0.2441
 6595SOL     OW31246   3.216   3.927   3.127 -0.5605  0.0600  0.2984
 6595SOL    HW131247   3.132   3.957   3.161 -1.1240  0.4623 -1.4292
 6595SOL    HW231248   3.192   3.904   3.037  0.8346 -0.4320  0.0525
 6596SOL     OW31249   3.291   0.568   3.884  0.2268  0.7228 -0.6238
 6596SOL    HW131250   3.220   0.631   3.870  0.0807  0.7626  0.3056
 6596SOL    HW231251   3.247   0.489   3.916  1.2835  0.7563  0.8909
 6597SOL     OW31252   4.439   1.533   6.493 -0.2209 -0.1972  0.5205
 6597SOL    HW131253   4.453   1.582   6.412  1.2126 -2.0857 -0.3815
 6597SOL    HW231254   4.359   1.567   6.534 -1.8323 -1.2469 -1.7615
 6598SOL     OW31255   3.863   1.026   4.384  0.0973  0.3069 -0.1176
 6598SOL    HW131256   3.787   1.075   4.353 -1.4862 -1.6902  0.6475
 6598SOL    HW231257   3.924   1.046   4.313  1.8972 -1.2270  1.0159
 6599SOL     OW31258   2.236   1.205   3.048 -0.1896  0.7550  0.6368
 6599SOL    HW131259   2.297   1.229   3.118  2.8855 -0.6324 -1.5839
 6599SOL    HW231260   2.257   1.263   2.974 -1.8452 -1.2512 -1.3938
 6600SOL     OW31261   1.791   2.954  11.056 -0.1950  0.2656  0.1864
 6600SOL    HW131262   1.724   2.887  11.073 -0.2521  0.7659  1.8590
 6600SOL    HW231263   1.845   2.955  11.134  0.1150  1.6290 -0.0469
 6601SOL     OW31264   2.785   0.741   8.054  0.3432  0.1710 -0.2145
 6601SOL    HW131265   2.771   0.735   8.148  0.2930 -2.3235 -0.3815
 6601SOL    HW231266   2.804   0.650   8.032 -0.9062 -0.7754  2.5639
 6602SOL     OW31267   1.679   1.548   8.202  0.0456  0.1071  0.3702
 6602SOL    HW131268   1.705   1.522   8.290  1.5811 -1.1571 -0.4487
 6602SOL    HW231269   1.763   1.554   8.156  0.3344  0.4968  0.9603
 6603SOL     OW31270   1.405   3.397   6.716  0.2514 -0.0181  0.2638
 6603SOL    HW131271   1.361   3.312   6.710  0.0534  0.1668 -0.8676
 6603SOL    HW231272   1.355   3.447   6.780 -0.2825 -0.2060 -0.0062
 6604SOL     OW31273   0.959   2.346   1.212  0.2529 -0.0184 -0.1777
 6604SOL    HW131274   0.886   2.409   1.204  0.5763  0.1801 -1.5935
 6604SOL    HW231275   0.910   2.277   1.256 -1.9871  2.0502  0.5972
 6605SOL     OW31276   0.286   0.697  16.179  0.0605  0.3768 -0.4826
 6605SOL    HW131277   0.317   0.752  16.107  1.0619  3.3505  2.2422
 6605SOL    HW231278   0.221   0.640  16.137  1.7817  0.2907 -3.0513
 6606SOL     OW31279   2.460   3.559   6.756  0.5400  0.8916 -0.4636
 6606SOL    HW131280   2.423   3.509   6.683  0.6180 -2.0508  1.4814
 6606SOL    HW231281   2.535   3.502   6.775 -0.6035 -0.0201  1.3878
 6607SOL     OW31282   3.183   2.377   5.895 -0.3143  0.5614  0.1826
 6607SOL    HW131283   3.213   2.467   5.878  0.4381  0.1605 -0.5852
 6607SOL    HW231284   3.089   2.386   5.909 -0.6651 -0.8622 -1.3102
 6608SOL     OW31285   0.100   2.178   1.450 -0.0746 -0.2254 -0.3658
 6608SOL    HW131286   0.177   2.198   1.504 -0.9723  0.5154  0.6421
 6608SOL    HW231287   0.134   2.119   1.383 -1.6880  1.1728 -2.4076
 6609SOL     OW31288   1.779   0.796   7.072  0.4961 -0.7549  0.1158
 6609SOL    HW131289   1.832   0.768   7.146  0.2002 -3.5886 -0.7616
 6609SOL    HW231290   1.688   0.782   7.100  0.2246  2.5446  0.8968
 6610SOL     OW31291   1.311   2.009   5.147  0.4930 -0.1735 -0.3225
 6610SOL    HW131292   1.385   1.962   5.107 -0.2796 -0.9709 -0.8219
 6610SOL    HW231293   1.257   1.937   5.181 -0.7702  0.8754 -0.1071
 6611SOL     OW31294   2.644   0.706  16.096 -0.0155 -0.1011 -0.2490
 6611SOL    HW131295   2.574   0.640  16.097 -0.2260  0.1654  1.7691
 6611SOL    HW231296   2.608   0.775  16.039  0.2764  0.4271  0.2118
 6612SOL     OW31297   4.517   0.172   6.730 -0.0136 -0.0741 -0.3037
 6612SOL    HW131298   4.559   0.214   6.806 -0.7480  2.3421 -1.2400
 6612SOL    HW231299   4.537   0.080   6.742 -0.2232 -0.0025  0.5833
 6613SOL     OW31300   3.052   2.123   8.699  0.3455 -0.0599  0.1422
 6613SOL    HW131301   3.068   2.218   8.708 -0.4596  0.0826 -0.0029
 6613SOL    HW231302   3.023   2.100   8.787 -1.5940  0.8608 -0.2609
 6614SOL     OW31303   4.171   2.488   2.084 -0.5281  0.5531 -0.5514
 6614SOL    HW131304   4.264   2.472   2.066 -0.3849  0.0711  0.6227
 6614SOL    HW231305   4.181   2.543   2.161  0.2664  1.9761 -1.6783
 6615SOL     OW31306   2.519   0.682   3.309  0.7997 -0.5524  0.9122
 6615SOL    HW131307   2.565   0.631   3.375  1.4076  0.0299  0.9421
 6615SOL    HW231308   2.554   0.651   3.226 -0.0776 -0.3199  0.4499
 6616SOL     OW31309   3.096   0.264  16.872  0.8474  1.0235 -0.7618
 6616SOL    HW131310   3.128   0.254  16.783  0.8702 -1.1561 -0.5253
 6616SOL    HW231311   3.025   0.201  16.863  1.7608 -0.0400 -0.5405
 6617SOL     OW31312   3.500   1.855   6.008 -0.2058  0.5430 -0.3498
 6617SOL    HW131313   3.508   1.917   5.936 -1.0171  2.5004  1.2320
 6617SOL    HW231314   3.551   1.782   5.972 -1.5193 -0.0260 -1.0746
 6618SOL     OW31315   1.141   3.580   9.649  0.3456  0.1825 -0.5563
 6618SOL    HW131316   1.125   3.495   9.690 -0.0014 -0.3356 -1.7736
 6618SOL    HW231317   1.220   3.561   9.598  0.9959 -2.8008  1.5465
 6619SOL     OW31318   2.465   0.353   4.822  0.0316  0.2901 -0.0390
 6619SOL    HW131319   2.452   0.275   4.876 -3.7277  0.7961 -0.1500
 6619SOL    HW231320   2.559   0.358   4.811 -0.1385  0.7141 -1.2518
 6620SOL     OW31321   2.996   1.739   3.019 -0.5370 -0.3199  0.3130
 6620SOL    HW131322   3.014   1.719   2.927 -1.6872 -2.3228  0.5224
 6620SOL    HW231323   3.051   1.669   3.057 -2.0646 -0.9833  1.3314
 6621SOL     OW31324   1.811   0.397   8.870  0.0740  0.0065  0.0366
 6621SOL    HW131325   1.716   0.393   8.880  0.1911 -0.5585  0.8560
 6621SOL    HW231326   1.833   0.330   8.935 -0.3473 -0.5741 -0.4183
 6622SOL     OW31327   3.919   4.529  14.735 -0.3628  0.1298  0.2737
 6622SOL    HW131328   3.933   4.485  14.651  0.3523  1.8594 -0.5268
 6622SOL    HW231329   4.006   4.568  14.748 -0.8548  1.4699 -0.5088
 6623SOL     OW31330   0.215   4.372   5.948  0.2411 -0.1811 -0.0701
 6623SOL    HW131331   0.168   4.341   6.026  0.1248 -1.4855 -0.6571
 6623SOL    HW231332   0.266   4.296   5.921  1.3586  1.1957 -1.7766
 6624SOL     OW31333   2.368   3.479   4.357 -0.9811  0.7766  0.3497
 6624SOL    HW131334   2.335   3.454   4.271 -0.1099 -1.3402  0.6360
 6624SOL    HW231335   2.409   3.564   4.339 -0.9974  0.9917  1.3008
 6625SOL     OW31336   0.745   1.363  10.030 -0.3285 -0.1252  0.5657
 6625SOL    HW131337   0.833   1.380  10.065 -0.6957  1.0615  0.9041
 6625SOL    HW231338   0.699   1.444  10.049 -0.9668 -0.4073  0.2143
 6626SOL     OW31339   1.606   0.236   5.541  0.3170 -0.5884  0.0208
 6626SOL    HW131340   1.690   0.190   5.544 -0.3345 -2.0288 -3.3670
 6626SOL    HW231341   1.597   0.232   5.446  1.8492 -2.5723 -0.0586
 6627SOL     OW31342   3.541   3.733   7.716 -0.7402  0.1410 -0.0005
 6627SOL    HW131343   3.615   3.767   7.666 -1.5630  0.3825 -1.0459
 6627SOL    HW231344   3.577   3.654   7.757  0.1973  1.6461  2.0835
 6628SOL     OW31345   4.722   4.354  17.299  0.4857 -0.3110 -0.7449
 6628SOL    HW131346   0.047   4.436  17.315 -1.8500  1.2261 -1.4892
 6628SOL    HW231347   4.631   4.380  17.309  0.5011 -1.2601  1.8490
 6629SOL     OW31348   3.088   2.474   5.623  0.9865  0.6110 -0.3208
 6629SOL    HW131349   3.130   2.524   5.693  0.6206  1.6499 -0.8369
 6629SOL    HW231350   3.134   2.500   5.542  1.3871  0.5585 -0.1120
 6630SOL     OW31351   3.190   3.543  14.193  0.7187  0.1583 -0.3547
 6630SOL    HW131352   3.115   3.491  14.222  0.6831  0.7021  0.5438
 6630SOL    HW231353   3.257   3.489  14.236  0.2637  1.2694  1.7223
 6631SOL     OW31354   3.407   3.520   2.924 -0.2791  0.3436 -0.7323
 6631SOL    HW131355   3.499   3.514   2.900 -0.8099 -1.7544 -2.2174
 6631SOL    HW231356   3.380   3.600   2.878  0.1149  1.6793  1.3661
 6632SOL     OW31357   1.300   4.538   8.844  0.1158  0.1194  0.9375
 6632SOL    HW131358   1.353   4.617   8.847 -0.5116  0.6170 -0.8205
 6632SOL    HW231359   1.316   4.508   8.934 -0.7995  1.4683  1.5653
 6633SOL     OW31360   4.211   2.639   3.243 -0.3692 -0.6804  0.0040
 6633SOL    HW131361   4.204   2.633   3.148  3.2312  2.9324 -0.4831
 6633SOL    HW231362   4.299   2.667   3.267 -0.3858 -0.4478 -0.2013
 6634SOL     OW31363   2.793   1.386   4.923 -0.1667  0.2252 -0.4659
 6634SOL    HW131364   2.872   1.438   4.908  0.2770 -0.3849 -0.2447
 6634SOL    HW231365   2.832   1.328   4.988 -0.0799  2.7186  1.6817
 6635SOL     OW31366   0.825   2.608  16.316 -0.2593  0.0910  0.4145
 6635SOL    HW131367   0.887   2.540  16.342  1.6865  1.3127 -1.0165
 6635SOL    HW231368   0.870   2.635  16.236 -2.5471  1.1968 -0.4929
 6636SOL     OW31369   2.772   3.040   3.192  0.5365  0.0708  0.3037
 6636SOL    HW131370   2.681   3.022   3.216  1.8149 -3.1137  2.6873
 6636SOL    HW231371   2.765   3.034   3.096  0.3991 -0.1349  0.3258
 6637SOL     OW31372   0.910   0.544   7.976  1.1213  0.3384  0.0316
 6637SOL    HW131373   0.901   0.475   8.041 -1.6928  0.4476 -0.2486
 6637SOL    HW231374   0.918   0.625   8.027 -0.9217 -0.2164  1.2123
 6638SOL     OW31375   4.171   2.669   5.196 -0.3706  0.7990  0.0997
 6638SOL    HW131376   4.098   2.724   5.226  0.0218  1.5535 -0.3061
 6638SOL    HW231377   4.135   2.581   5.186  0.9898  0.1494  0.8504
 6639SOL     OW31378   0.757   4.072   8.010 -0.2354  0.5281  0.0725
 6639SOL    HW131379   0.806   4.089   8.091  0.1603 -0.6746  0.0799
 6639SOL    HW231380   0.789   3.983   7.994 -0.3495  0.2899  1.1994
 6640SOL     OW31381   4.187   4.001   7.837  0.3477 -0.0108  0.2101
 6640SOL    HW131382   4.115   3.938   7.835 -0.1400  0.5887 -1.7550
 6640SOL    HW231383   4.189   4.017   7.931  0.7307  2.1788 -0.1639
 6641SOL     OW31384   4.454   4.671   7.467 -0.1585  0.1447 -0.2612
 6641SOL    HW131385   4.404   4.687   7.547  0.8558 -2.9961  0.9879
 6641SOL    HW231386   4.456   0.039   7.437 -1.9234  0.5462  0.8269
 6642SOL     OW31387   2.815   4.036   7.783  0.1109  0.1209  0.0547
 6642SOL    HW131388   2.842   3.977   7.854  3.9400  2.7665  0.7987
 6642SOL    HW231389   2.728   4.060   7.818  0.1166 -0.4848  0.4885
 6643SOL     OW31390   2.701   1.366  12.065 -0.4068 -0.1986  0.3537
 6643SOL    HW131391   2.640   1.430  12.028 -0.2139  0.5780  1.3981
 6643SOL    HW231392   2.778   1.385  12.012  0.2654 -0.9736  1.0467
 6644SOL     OW31393   3.048   3.535   7.370  0.0138  0.0580  0.2381
 6644SOL    HW131394   3.108   3.603   7.403 -1.1769  1.6989 -0.9782
 6644SOL    HW231395   3.028   3.483   7.447 -0.0959  1.8527  1.4110
 6645SOL     OW31396   0.001   0.503  12.182  0.0708  0.0131  0.3268
 6645SOL    HW131397   4.703   0.429  12.238 -1.1130  0.5468  0.5930
 6645SOL    HW231398   0.081   0.468  12.143 -0.2970 -1.2273  0.6853
 6646SOL     OW31399   0.138   0.526   9.653  0.5775  0.2716  0.0130
 6646SOL    HW131400   0.044   0.511   9.644  0.9726 -2.2081 -0.1281
 6646SOL    HW231401   0.166   0.444   9.611 -2.7056 -0.4834 -0.7689
 6647SOL     OW31402   3.710   4.005  12.132  0.2581  0.1103 -0.1869
 6647SOL    HW131403   3.654   4.074  12.168 -0.7313 -0.4771 -0.5834
 6647SOL    HW231404   3.798   4.017  12.166  1.2597 -1.3908 -2.2284
 6648SOL     OW31405   3.538   2.618   0.765 -0.7727 -0.3066 -0.1444
 6648SOL    HW131406   3.551   2.712   0.772  1.3820 -0.6413  0.4570
 6648SOL    HW231407   3.512   2.610   0.673 -1.7695  0.1364  0.1013
 6649SOL     OW31408   2.618   2.559   7.667  0.3954 -0.3281 -0.3776
 6649SOL    HW131409   2.626   2.642   7.715  0.7805 -0.3043 -0.4861
 6649SOL    HW231410   2.614   2.596   7.579  0.2799  1.2360  0.2889
 6650SOL     OW31411   1.561   3.901   8.916 -0.3781  0.4249  0.1472
 6650SOL    HW131412   1.549   3.963   8.845  1.4452 -1.6452 -1.9509
 6650SOL    HW231413   1.645   3.858   8.897 -1.1302 -1.0011  0.0389
 6651SOL     OW31414   1.951   1.505   0.252 -0.3207 -0.4651 -0.2599
 6651SOL    HW131415   1.916   1.473   0.335 -1.2936 -1.3822 -1.0263
 6651SOL    HW231416   1.971   1.424   0.205  0.7885  0.4137 -1.3105
 6652SOL     OW31417   2.400   1.224   7.003  0.1710 -0.1357  0.0599
 6652SOL    HW131418   2.342   1.300   7.004  1.6651  0.9776  1.1994
 6652SOL    HW231419   2.342   1.155   7.037  0.5092  0.2921  1.5047
 6653SOL     OW31420   3.081   1.082   7.153  0.0827  0.2390  0.2823
 6653SOL    HW131421   3.160   1.040   7.119 -0.2933 -0.5150  0.3348
 6653SOL    HW231422   3.059   1.142   7.081 -0.2628  1.4654  1.4025
 6654SOL     OW31423   1.767   2.735   0.125 -0.0699  0.5086 -0.0348
 6654SOL    HW131424   1.817   2.782   0.192  0.0287  1.2254 -0.6043
 6654SOL    HW231425   1.685   2.784   0.118  0.9560  1.8997 -2.3446
 6655SOL     OW31426   0.673   2.813  13.584  0.0794  0.2033  0.0543
 6655SOL    HW131427   0.619   2.818  13.663 -1.5166  3.2593 -1.2473
 6655SOL    HW231428   0.610   2.839  13.517 -0.3086 -0.3480  0.2078
 6656SOL     OW31429   1.523   2.232   4.822 -0.1610 -0.8653 -0.0181
 6656SOL    HW131430   1.532   2.174   4.897  0.8862  0.1189  0.6130
 6656SOL    HW231431   1.607   2.278   4.819  0.7398 -2.6827 -2.3927
 6657SOL     OW31432   1.097   3.193   2.930 -0.6185  0.0852 -0.4893
 6657SOL    HW131433   1.137   3.140   2.861 -0.6098 -1.6103  0.8477
 6657SOL    HW231434   1.082   3.276   2.883 -0.6440  0.3081 -0.0885
 6658SOL     OW31435   3.682   4.218   5.868 -0.3664  0.1579  0.3823
 6658SOL    HW131436   3.748   4.181   5.926  0.6807  1.0342 -0.2657
 6658SOL    HW231437   3.729   4.300   5.855 -0.4069  0.0648 -0.3432
 6659SOL     OW31438   1.287   3.155   7.559  0.0481  0.3255 -0.0507
 6659SOL    HW131439   1.279   3.249   7.545  2.8100  0.5088 -0.3168
 6659SOL    HW231440   1.327   3.146   7.645 -0.3389 -1.8381 -0.0755
 6660SOL     OW31441   0.615   1.841   0.031 -0.4083 -0.0932  0.5810
 6660SOL    HW131442   0.548   1.847   0.099 -1.8754  0.5465 -0.9337
 6660SOL    HW231443   0.673   1.916   0.048 -1.2332  0.8761 -0.8682
 6661SOL     OW31444   2.592   1.127   5.749 -0.1356  0.1133 -0.1193
 6661SOL    HW131445   2.564   1.200   5.805  2.0838 -0.4579  1.7601
 6661SOL    HW231446   2.516   1.120   5.692  0.6366 -0.3142 -1.0943
 6662SOL     OW31447   4.683   2.933  12.432 -0.2658  0.3412 -0.7225
 6662SOL    HW131448   4.683   2.848  12.388  4.2521 -0.5163  0.8990
 6662SOL    HW231449   4.605   2.976  12.398 -1.6944 -2.2566 -0.7261
 6663SOL     OW31450   0.454   0.292   0.004 -0.1642  0.3945 -0.5187
 6663SOL    HW131451   0.469   0.384   0.028  2.1707 -0.6628  2.1077
 6663SOL    HW231452   0.438   0.255   0.091  1.6952 -1.1696 -0.8507
 6664SOL     OW31453   1.480   1.741   1.891 -0.4041  0.1929  0.4369
 6664SOL    HW131454   1.400   1.778   1.855 -0.9334 -1.9079 -0.5273
 6664SOL    HW231455   1.452   1.672   1.951 -0.4626  2.1730  2.6672
 6665SOL     OW31456   0.788   1.284   5.375  0.3616 -0.0904  0.2345
 6665SOL    HW131457   0.708   1.293   5.322  0.3643 -2.0096 -0.1065
 6665SOL    HW231458   0.849   1.235   5.320 -2.3012  1.1993 -3.8781
 6666SOL     OW31459   1.527   2.808   9.111 -0.7903 -0.2438 -0.4972
 6666SOL    HW131460   1.449   2.756   9.093  0.6659 -2.0208 -1.8012
 6666SOL    HW231461   1.515   2.884   9.054 -1.3761  0.4574  0.5643
 6667SOL     OW31462   1.757   2.833   3.613 -0.1565 -0.2912  0.2428
 6667SOL    HW131463   1.688   2.881   3.659  0.4204  0.2824  0.5083
 6667SOL    HW231464   1.741   2.742   3.637  1.7187 -0.5898  0.3351
 6668SOL     OW31465   2.319   4.192  11.283 -0.2282  0.4836  0.3796
 6668SOL    HW131466   2.371   4.112  11.291  0.0808  0.6383 -0.0869
 6668SOL    HW231467   2.382   4.257  11.314 -0.6446  0.4735  1.2573
 6669SOL     OW31468   3.088   0.590   9.846 -0.0245  0.1327  0.0453
 6669SOL    HW131469   3.083   0.495   9.844  1.6569  0.0486 -0.3588
 6669SOL    HW231470   3.125   0.606   9.759 -3.1237  2.3771 -0.8783
 6670SOL     OW31471   4.312   3.395  14.748 -0.4273 -0.2727  0.2166
 6670SOL    HW131472   4.371   3.411  14.821 -1.1986  2.4753  0.2400
 6670SOL    HW231473   4.271   3.481  14.732 -2.1947 -1.1014  0.2980
 6671SOL     OW31474   2.716   0.868   5.668 -0.3444 -0.5530  0.9198
 6671SOL    HW131475   2.691   0.961   5.672  0.0829 -0.3471 -1.2371
 6671SOL    HW231476   2.636   0.831   5.632 -0.1390 -1.2234  1.1651
 6672SOL     OW31477   2.639   2.644   1.633  0.1047 -0.0817  0.2532
 6672SOL    HW131478   2.695   2.682   1.701 -0.9483  0.3344  0.8877
 6672SOL    HW231479   2.593   2.722   1.600 -0.2195  0.0157  0.9205
 6673SOL     OW31480   1.978   1.416   2.720  0.0766  0.3158  0.8888
 6673SOL    HW131481   1.965   1.356   2.794 -2.2106 -0.7935 -0.4277
 6673SOL    HW231482   2.061   1.381   2.688 -0.3392  0.9188 -0.8496
 6674SOL     OW31483   2.312   4.672   6.836  0.3278  0.2228 -0.1368
 6674SOL    HW131484   2.340   4.703   6.922  0.1914  4.5325 -1.6500
 6674SOL    HW231485   2.393   4.673   6.785  1.0849 -1.1265  1.0309
 6675SOL     OW31486   4.611   3.843   3.611  0.3502 -0.2102 -0.2519
 6675SOL    HW131487   4.588   3.856   3.519  0.3571 -1.7802 -0.4806
 6675SOL    HW231488   4.633   3.750   3.609 -0.2357 -0.3889  1.9225
 6676SOL     OW31489   0.295   4.572  12.119 -0.3348 -0.4013  0.2887
 6676SOL    HW131490   0.253   4.499  12.165 -1.4744 -0.7986 -1.4253
 6676SOL    HW231491   0.381   4.530  12.109 -0.4911 -0.0796 -2.3737
 6677SOL     OW31492   3.786   4.013   6.768 -0.1774  0.1446  0.1175
 6677SOL    HW131493   3.703   3.966   6.768 -0.6149  0.9199  0.6211
 6677SOL    HW231494   3.804   3.977   6.855  0.6749  0.5865  0.1254
 6678SOL     OW31495   3.746   0.310   0.777  0.1177  0.0087 -0.1940
 6678SOL    HW131496   3.778   0.395   0.806  2.8836 -0.2684 -2.4244
 6678SOL    HW231497   3.725   0.339   0.688  0.4273 -1.4632 -0.7394
 6679SOL     OW31498   2.501   3.999   5.583  0.1556  0.4359  0.2942
 6679SOL    HW131499   2.576   3.986   5.526  0.4216 -1.5833  1.0818
 6679SOL    HW231500   2.436   4.026   5.519  0.4926  1.3079  0.3323
 6680SOL     OW31501   4.103   4.201   5.369 -0.3646  0.2796 -0.2099
 6680SOL    HW131502   4.019   4.158   5.356  0.5284 -1.2419 -0.9521
 6680SOL    HW231503   4.080   4.293   5.364  1.5434  0.7473 -0.4284
 6681SOL     OW31504   0.277   0.554   0.513 -0.3925 -0.1404  0.9039
 6681SOL    HW131505   0.220   0.624   0.481  0.1317  1.1318  2.7708
 6681SOL    HW231506   0.339   0.596   0.573 -0.5657  1.1240  0.1921
 6682SOL     OW31507   2.672   2.087  12.417 -0.0554 -0.2183  0.5133
 6682SOL    HW131508   2.699   2.022  12.482 -1.4022  0.9413  2.2605
 6682SOL    HW231509   2.618   2.034  12.358  0.3842 -0.0411 -0.0419
 6683SOL     OW31510   3.183   4.315   2.141  0.1804  0.5362  0.1401
 6683SOL    HW131511   3.248   4.294   2.074  0.3785  2.0560 -0.1512
 6683SOL    HW231512   3.151   4.232   2.176  2.3926 -0.4352 -0.1648
 6684SOL     OW31513   1.620   2.143  11.897  0.4393  0.1274  0.0999
 6684SOL    HW131514   1.603   2.224  11.849 -1.3886  0.2850  1.0231
 6684SOL    HW231515   1.555   2.084  11.860 -0.1050 -1.6184  3.7909
 6685SOL     OW31516   4.629   3.952   0.081  0.3983  0.3604  0.0220
 6685SOL    HW131517   4.682   4.027   0.106 -0.2256  1.4903 -2.0387
 6685SOL    HW231518   4.670   3.918   0.001  0.5106  1.0896 -0.2295
 6686SOL     OW31519   3.816   4.160   2.240 -0.0578 -0.1674 -0.5455
 6686SOL    HW131520   3.790   4.200   2.322  0.1938  0.0266 -0.5594
 6686SOL    HW231521   3.866   4.232   2.202 -0.0721 -0.9236 -2.0073
 6687SOL     OW31522   3.508   4.625   5.907  0.1701 -0.3726 -0.0863
 6687SOL    HW131523   3.535   4.644   5.817 -0.8667  1.3259 -0.0543
 6687SOL    HW231524   3.590   4.653   5.947 -0.5725 -0.3400  1.3857
 6688SOL     OW31525   3.795   3.122  15.223 -0.0792 -0.3061 -0.5753
 6688SOL    HW131526   3.701   3.119  15.238  0.1317 -0.9023  0.5537
 6688SOL    HW231527   3.807   3.217  15.215  1.4736 -0.3736  0.9169
 6689SOL     OW31528   0.646   0.058   1.801 -0.5947 -0.1982  0.3732
 6689SOL    HW131529   0.665   0.139   1.849 -0.7576  0.4176 -0.5876
 6689SOL    HW231530   0.562   0.038   1.843 -0.7110  0.5875  0.5294
 6690SOL     OW31531   4.048   2.535   3.523  0.2414 -0.7422  0.4198
 6690SOL    HW131532   4.073   2.624   3.547 -3.5870  0.4217  0.0439
 6690SOL    HW231533   4.027   2.545   3.430 -0.7886  0.6860  0.8224
 6691SOL     OW31534   1.951   2.564   3.863  0.1943 -0.0972 -0.2852
 6691SOL    HW131535   2.019   2.627   3.841  0.9965 -1.4165 -1.5047
 6691SOL    HW231536   1.881   2.627   3.882  1.2273  0.2655  2.4187
 6692SOL     OW31537   2.527   0.495  11.787  0.0568  0.0551  0.0744
 6692SOL    HW131538   2.523   0.462  11.698  1.6488 -0.0639  0.0322
 6692SOL    HW231539   2.456   0.558  11.792 -1.2166 -1.2012 -2.6274
 6693SOL     OW31540   0.337   3.504  12.781 -0.2833 -0.2550 -0.9677
 6693SOL    HW131541   0.322   3.591  12.745 -1.7635  0.0904  0.4827
 6693SOL    HW231542   0.312   3.451  12.705  1.1787 -0.5305 -1.2387
 6694SOL     OW31543   4.584   0.728  12.156 -0.2874  0.1161  0.1753
 6694SOL    HW131544   4.511   0.714  12.216 -0.6244  1.0935 -0.0126
 6694SOL    HW231545   4.635   0.647  12.165  0.1474  0.5868  1.8127
 6695SOL     OW31546   1.045   1.247   8.054 -0.1503 -0.3934 -0.0053
 6695SOL    HW131547   1.028   1.218   8.143 -0.5209  1.3508  0.4846
 6695SOL    HW231548   1.088   1.169   8.017  1.8569  0.4890  0.5070
 6696SOL     OW31549   3.907   2.248  12.517  0.0469 -0.2735  0.1678
 6696SOL    HW131550   3.980   2.228  12.459  1.6799 -2.4874  3.0195
 6696SOL    HW231551   3.961   2.239  12.595 -0.1145 -0.4854  0.2539
 6697SOL     OW31552   3.803   1.665   3.230  0.2634  0.2117 -0.2135
 6697SOL    HW131553   3.882   1.719   3.226  0.7527 -0.6200 -1.6130
 6697SOL    HW231554   3.828   1.578   3.199  0.2540 -0.2584  1.0952
 6698SOL     OW31555   3.642   2.600  10.607  0.3613 -0.3461  0.0836
 6698SOL    HW131556   3.712   2.666  10.616  1.5051 -1.4261 -0.9112
 6698SOL    HW231557   3.697   2.523  10.618  0.7446  0.1209  1.5119
 6699SOL     OW31558   4.458   0.150   9.274 -0.1500  0.5225  0.2312
 6699SOL    HW131559   4.371   0.181   9.299  0.7259 -0.0089  4.0144
 6699SOL    HW231560   4.490   0.091   9.342 -0.2476  1.7376  1.3381
 6700SOL     OW31561   3.125   1.294   2.385 -0.6174  0.5068  0.4627
 6700SOL    HW131562   3.043   1.282   2.336  0.6088 -0.4802 -1.3476
 6700SOL    HW231563   3.112   1.254   2.471 -0.5661  0.8996  0.6517
 6701SOL     OW31564   3.897   1.339   3.974 -0.4227  0.1259 -0.3546
 6701SOL    HW131565   3.950   1.406   3.931 -0.5063 -0.8143 -1.9447
 6701SOL    HW231566   3.809   1.370   3.994 -1.4199 -1.6014 -2.0159
 6702SOL     OW31567   4.349   4.291   2.111 -0.2325 -0.0805 -0.6984
 6702SOL    HW131568   4.271   4.255   2.070 -0.3512 -0.1054 -0.4519
 6702SOL    HW231569   4.408   4.243   2.054  1.4957 -1.9033  2.5966
 6703SOL     OW31570   1.941   1.403  13.077 -0.0827  0.6754 -0.0266
 6703SOL    HW131571   1.900   1.473  13.026 -1.1858  3.2328  4.3880
 6703SOL    HW231572   2.031   1.406  13.045  0.6960 -0.0264  2.0835
 6704SOL     OW31573   4.547   0.754   7.937 -0.0298  0.0530  0.2101
 6704SOL    HW131574   4.535   0.772   8.030 -0.8047  0.4500  0.0283
 6704SOL    HW231575   4.576   0.663   7.934  1.1970  0.4238  0.7530
 6705SOL     OW31576   0.915   3.805   2.233 -0.0435  0.6954 -0.4623
 6705SOL    HW131577   0.952   3.764   2.155  1.1411  0.5016  0.2056
 6705SOL    HW231578   0.889   3.723   2.275  0.5396 -0.1531 -1.7538
 6706SOL     OW31579   0.541   3.488  13.012  0.4777  0.0207  0.4058
 6706SOL    HW131580   0.472   3.498  12.947  0.5014 -0.8883  0.2345
 6706SOL    HW231581   0.575   3.409  12.968 -0.8120 -0.8575  1.0123
 6707SOL     OW31582   1.239   2.215   9.289  0.3745 -0.4999 -0.3518
 6707SOL    HW131583   1.285   2.257   9.363 -0.3355 -1.6286  0.7216
 6707SOL    HW231584   1.222   2.126   9.319 -0.8225 -0.3704 -0.6643
 6708SOL     OW31585   2.065   0.079   9.050 -0.1459  0.3729 -0.5543
 6708SOL    HW131586   2.113   0.098   8.970 -0.7131 -1.2921 -1.3047
 6708SOL    HW231587   2.128   0.101   9.119 -1.0259 -0.4875  0.5157
 6709SOL     OW31588   2.092   3.717   5.381  0.1974 -0.0551 -0.0873
 6709SOL    HW131589   2.115   3.803   5.346  2.7215 -0.6330  0.1580
 6709SOL    HW231590   2.022   3.692   5.320 -1.1324 -0.2933  1.5438
 6710SOL     OW31591   3.341   3.115  11.380 -0.2562  0.2747  0.5549
 6710SOL    HW131592   3.270   3.058  11.410 -0.8075 -0.5359 -2.2728
 6710SOL    HW231593   3.405   3.051  11.348  1.0455  0.4292  2.8447
 6711SOL     OW31594   1.969   2.352  15.157  0.2965 -0.0219 -0.1975
 6711SOL    HW131595   1.900   2.285  15.159  0.2220  0.1109  2.6030
 6711SOL    HW231596   2.010   2.343  15.243  0.9096  1.2296 -0.3692
 6712SOL     OW31597   2.310   4.163   5.099 -0.2443 -0.1816 -0.2016
 6712SOL    HW131598   2.245   4.128   5.039 -0.6035 -1.0140  0.6657
 6712SOL    HW231599   2.375   4.093   5.094  1.3669  1.2625  0.7229
 6713SOL     OW31600   1.703   1.280   7.220 -0.4897 -0.4006  0.5072
 6713SOL    HW131601   1.691   1.231   7.301  3.6546  0.7382  1.8160
 6713SOL    HW231602   1.761   1.219   7.175  1.7547  1.5995  0.6956
 6714SOL     OW31603   3.521   0.385   2.783  0.3679  0.1254 -0.2763
 6714SOL    HW131604   3.442   0.410   2.831  0.5452  0.9337 -0.4059
 6714SOL    HW231605   3.513   0.425   2.696  1.7018 -2.6389 -1.6856
 6715SOL     OW31606   3.048   0.866   9.809  0.0272  0.2345  0.5421
 6715SOL    HW131607   3.054   0.771   9.807 -0.2730  0.2263 -0.2888
 6715SOL    HW231608   3.085   0.879   9.896  0.6245 -0.8651  0.4504
 6716SOL     OW31609   3.287   1.343  14.700 -0.0742  0.0045 -0.1001
 6716SOL    HW131610   3.227   1.316  14.631 -0.7529  0.7264  0.2093
 6716SOL    HW231611   3.350   1.390  14.645 -0.8878 -0.6126 -1.5366
 6717SOL     OW31612   3.978   0.640  11.320 -0.0679  0.3858 -0.2579
 6717SOL    HW131613   3.890   0.614  11.347 -0.2531 -1.0937 -2.2579
 6717SOL    HW231614   3.985   0.596  11.235  0.7562 -1.1861  0.6051
 6718SOL     OW31615   1.610   4.301   5.739 -0.4616  0.2544  0.1313
 6718SOL    HW131616   1.647   4.286   5.826  1.2406  1.7738 -0.3099
 6718SOL    HW231617   1.621   4.395   5.753  1.8542  0.2697 -1.6977
 6719SOL     OW31618   1.237   2.218   9.695  0.2826  0.2476 -0.3538
 6719SOL    HW131619   1.255   2.249   9.606 -0.6286  0.4382 -0.4699
 6719SOL    HW231620   1.211   2.299   9.740 -1.8615 -1.1085  0.8488
 6720SOL     OW31621   4.688   4.141  16.372 -0.2979  0.4635  0.3103
 6720SOL    HW131622   4.607   4.127  16.323  0.3207 -1.5183 -0.1542
 6720SOL    HW231623   0.016   4.065  16.343  0.8954  1.0905  0.7633
 6721SOL     OW31624   3.484   2.545   9.114 -0.4923  0.0944  0.2129
 6721SOL    HW131625   3.496   2.607   9.041 -0.8742  0.2040  0.2437
 6721SOL    HW231626   3.557   2.576   9.168  1.1211 -1.6398 -0.9851
 6722SOL     OW31627   2.053   1.588   8.425  1.0334  0.4925  0.2015
 6722SOL    HW131628   2.138   1.628   8.439  1.3155 -0.2634  0.6610
 6722SOL    HW231629   2.027   1.635   8.346 -2.3308 -0.9930  0.4176
 6723SOL     OW31630   2.258   3.207   8.136  0.5454  0.3726  0.2891
 6723SOL    HW131631   2.281   3.129   8.085  1.2246 -0.0405  1.2143
 6723SOL    HW231632   2.239   3.274   8.071  1.9190 -1.0478 -1.5936
 6724SOL     OW31633   2.586   4.680   9.220 -0.1485  0.4189 -0.1806
 6724SOL    HW131634   2.496   4.652   9.205  0.6744 -2.3857  0.1820
 6724SOL    HW231635   2.615   4.627   9.294 -0.0320 -0.2868 -0.7419
 6725SOL     OW31636   1.674   1.688   7.238 -0.0032  0.0979  0.2039
 6725SOL    HW131637   1.712   1.769   7.271 -1.9227  1.0908 -0.0063
 6725SOL    HW231638   1.738   1.655   7.175 -3.4510 -1.6092 -2.4934
 6726SOL     OW31639   3.587   3.417  15.890 -0.3959  0.3556 -0.1461
 6726SOL    HW131640   3.600   3.512  15.886  1.9988  0.0136 -0.1678
 6726SOL    HW231641   3.676   3.387  15.874 -0.2328 -0.1689  1.8134
 6727SOL     OW31642   0.656   1.530   6.243  0.3944 -0.4039  0.3574
 6727SOL    HW131643   0.644   1.578   6.325 -0.7188 -1.3621  0.7663
 6727SOL    HW231644   0.608   1.576   6.175 -0.5728 -1.5554  0.2516
 6728SOL     OW31645   4.012   1.236  10.566 -0.0264  0.4154  0.1645
 6728SOL    HW131646   3.944   1.291  10.527 -1.1268 -1.6996 -0.8760
 6728SOL    HW231647   4.066   1.300  10.613  0.2698 -0.2167  0.6822
 6729SOL     OW31648   1.025   1.700  17.332 -0.4564  0.3095 -0.0372
 6729SOL    HW131649   0.963   1.630  17.311  1.7382 -1.0185 -2.0759
 6729SOL    HW231650   1.015   1.717  17.425 -1.8729 -0.4984 -0.0347
 6730SOL     OW31651   0.199   1.540   3.789  0.2413  0.2795 -0.1392
 6730SOL    HW131652   0.250   1.600   3.844 -0.8286 -0.5463  1.7772
 6730SOL    HW231653   0.235   1.564   3.704 -0.1824  2.5150  0.3109
 6731SOL     OW31654   2.431   1.145   3.730 -0.1195  0.3447  0.1189
 6731SOL    HW131655   2.508   1.091   3.744 -0.8165 -0.5656  0.3852
 6731SOL    HW231656   2.471   1.226   3.696 -0.7903  1.0542  1.0225
 6732SOL     OW31657   2.413   1.931   6.376 -0.0858 -0.5049  0.8557
 6732SOL    HW131658   2.364   1.870   6.431 -0.5311  0.3307  1.3927
 6732SOL    HW231659   2.504   1.909   6.393  0.0701 -0.0344  0.6379
 6733SOL     OW31660   1.049   2.828   5.571 -0.3283  0.4216 -0.4530
 6733SOL    HW131661   1.143   2.832   5.587 -0.3022 -1.2112 -0.2112
 6733SOL    HW231662   1.044   2.846   5.477 -2.4840 -0.1712 -0.4652
 6734SOL     OW31663   2.664   4.684   7.864 -0.5789  0.4253  0.3767
 6734SOL    HW131664   2.642   4.649   7.951  1.3670  1.2156  1.1794
 6734SOL    HW231665   2.614   0.042   7.864 -0.3605  0.5605  2.1700
 6735SOL     OW31666   0.250   0.511   2.163 -0.1678  0.1568  0.0794
 6735SOL    HW131667   0.279   0.501   2.073 -0.0032  0.1945  0.1290
 6735SOL    HW231668   0.225   0.603   2.168 -0.9514 -0.0415 -0.2287
 6736SOL     OW31669   0.090   2.837  16.709  0.2590  0.1081  0.4038
 6736SOL    HW131670   0.020   2.798  16.761  0.6216  1.2150  1.7016
 6736SOL    HW231671   0.056   2.926  16.715 -1.5055 -0.3990 -2.1077
 6737SOL     OW31672   4.073   4.334  12.723 -0.2495  0.7068  0.7678
 6737SOL    HW131673   4.155   4.362  12.683 -0.9013 -1.5661 -2.1753
 6737SOL    HW231674   4.088   4.244  12.751  1.0489  0.8546  0.5125
 6738SOL     OW31675   0.780   2.661   6.666 -0.1452  0.3388  0.1485
 6738SOL    HW131676   0.864   2.656   6.711  0.9967  0.4603 -2.0009
 6738SOL    HW231677   0.782   2.595   6.597 -2.6317  2.1369 -1.6574
 6739SOL     OW31678   4.603   3.412   0.331 -0.1687 -0.1950  0.0055
 6739SOL    HW131679   4.550   3.442   0.405  0.8788  0.1029  0.6261
 6739SOL    HW231680   4.612   3.490   0.275 -0.9074 -0.3737 -0.3766
 6740SOL     OW31681   2.423   1.721   2.732  0.4600 -0.2847 -0.0559
 6740SOL    HW131682   2.441   1.637   2.691 -2.1523 -0.8128 -0.1726
 6740SOL    HW231683   2.373   1.686   2.806  0.3711 -1.1487 -0.5237
 6741SOL     OW31684   3.477   4.719   1.154  0.1080  0.0526 -0.6255
 6741SOL    HW131685   3.524   0.068   1.113  0.2515  0.5509  0.4236
 6741SOL    HW231686   3.482   4.653   1.085 -1.1727 -0.2079 -0.4738
 6742SOL     OW31687   0.196   1.143  14.878  0.3891 -0.1780  0.2266
 6742SOL    HW131688   0.192   1.160  14.972 -1.9943  6.3513 -1.0819
 6742SOL    HW231689   0.207   1.048  14.882  0.1943 -0.3617 -3.5898
 6743SOL     OW31690   3.784   1.521   2.212 -0.5615 -1.0652  0.1011
 6743SOL    HW131691   3.692   1.506   2.234 -0.5403  0.0079  0.9533
 6743SOL    HW231692   3.771   1.558   2.125 -1.8519  0.3118  0.8820
 6744SOL     OW31693   4.010   1.123  11.317 -0.6343 -0.3475  0.2135
 6744SOL    HW131694   3.977   1.172  11.393 -1.7272  0.2053 -0.6214
 6744SOL    HW231695   3.954   1.045  11.316  0.3866 -1.0139 -2.8699
 6745SOL     OW31696   0.019   1.409   6.326  0.1958  0.0845 -0.5235
 6745SOL    HW131697   0.031   1.421   6.232  1.8699 -0.7624 -0.4094
 6745SOL    HW231698   0.100   1.361   6.344  0.5549  0.2776 -1.6706
 6746SOL     OW31699   0.684   3.297   5.083 -0.0879  0.0696  0.0725
 6746SOL    HW131700   0.666   3.333   5.169 -1.1816 -2.1509  0.7553
 6746SOL    HW231701   0.744   3.367   5.056  1.0376 -1.0152 -0.2461
 6747SOL     OW31702   1.078   3.261   6.347 -0.3063  0.2291  0.3077
 6747SOL    HW131703   1.141   3.292   6.282 -1.9208 -1.5110 -2.0765
 6747SOL    HW231704   1.047   3.179   6.309  0.5582 -0.3336  0.8072
 6748SOL     OW31705   0.593   2.313   4.695  0.4789 -0.1222  0.0370
 6748SOL    HW131706   0.520   2.255   4.671 -1.0670  1.6981  0.3792
 6748SOL    HW231707   0.625   2.344   4.611  2.2544 -0.3346  0.6236
 6749SOL     OW31708   1.696   4.097   0.445 -0.0477  0.4939 -0.2693
 6749SOL    HW131709   1.731   4.174   0.490 -0.8862  0.2076  0.8972
 6749SOL    HW231710   1.761   4.027   0.452 -1.5467 -0.6680  2.1771
 6750SOL     OW31711   1.254   3.338   9.065  0.2345  0.1780  0.2321
 6750SOL    HW131712   1.202   3.267   9.102  0.3784 -0.4124 -0.6823
 6750SOL    HW231713   1.258   3.319   8.971 -1.8605 -0.5835  0.3050
 6751SOL     OW31714   2.026   1.212   6.708  0.1793 -0.1351  0.2192
 6751SOL    HW131715   1.958   1.166   6.659 -0.5009  0.8936  0.2103
 6751SOL    HW231716   2.028   1.163   6.790  2.6031  2.5506  1.7665
 6752SOL     OW31717   0.533   3.940   4.782  0.5025  0.2322 -0.1923
 6752SOL    HW131718   0.623   3.947   4.814  0.1328  0.8076  0.7354
 6752SOL    HW231719   0.511   4.028   4.753 -0.3877  0.8075  2.2910
 6753SOL     OW31720   0.871   0.830   6.419 -0.0882  0.3535 -0.2061
 6753SOL    HW131721   0.805   0.797   6.359 -1.2812  0.7426  0.8913
 6753SOL    HW231722   0.867   0.923   6.396  0.5877  0.3532 -0.3443
 6754SOL     OW31723   2.395   0.301   5.657 -0.1013  0.6198  0.1919
 6754SOL    HW131724   2.486   0.298   5.628 -0.8600 -0.9727 -1.9628
 6754SOL    HW231725   2.396   0.377   5.716 -1.8898  0.1990  0.7529
 6755SOL     OW31726   1.710   3.842   7.036 -0.1437 -0.5952  0.2241
 6755SOL    HW131727   1.676   3.899   7.105  0.5383 -0.9150  0.8215
 6755SOL    HW231728   1.696   3.896   6.958  2.8482 -0.7092 -0.3797
 6756SOL     OW31729   2.324   2.562   3.986 -0.1299 -0.2489  0.0209
 6756SOL    HW131730   2.315   2.468   3.970  0.8078 -0.0830 -1.4563
 6756SOL    HW231731   2.244   2.601   3.949 -0.8989 -0.5260  1.3927
 6757SOL     OW31732   0.125   2.749   8.974 -0.2002 -0.4675  0.4602
 6757SOL    HW131733   0.050   2.735   8.917 -0.6799  0.4802  0.8526
 6757SOL    HW231734   0.094   2.792   9.054 -1.4761  0.4285 -0.5043
 6758SOL     OW31735   3.047   2.969  13.232 -0.4941  0.3699 -0.5651
 6758SOL    HW131736   3.011   2.975  13.321  1.8320  2.2029  0.2456
 6758SOL    HW231737   3.053   2.875  13.215 -2.0011  0.7742 -3.2724
 6759SOL     OW31738   3.070   3.379  16.286 -0.6134 -0.3158  0.0115
 6759SOL    HW131739   3.054   3.299  16.236  0.9862 -0.9824  0.5610
 6759SOL    HW231740   2.991   3.428  16.266  0.0109  0.8863  0.5233
 6760SOL     OW31741   2.246   0.562  10.879  0.0889  0.1283  0.3173
 6760SOL    HW131742   2.332   0.522  10.869  0.7919  2.0846 -1.1699
 6760SOL    HW231743   2.263   0.648  10.917 -0.1198 -0.0580  0.8406
 6761SOL     OW31744   2.371   3.427   4.650  0.1394  0.2636  0.4941
 6761SOL    HW131745   2.318   3.348   4.654 -0.2196  0.2916 -3.3206
 6761SOL    HW231746   2.351   3.468   4.565 -0.1470 -1.4204 -0.2405
 6762SOL     OW31747   1.207   0.098   4.593 -0.8245 -0.5007 -0.5711
 6762SOL    HW131748   1.296   0.118   4.621 -1.1870 -2.1979  1.7110
 6762SOL    HW231749   1.218   0.063   4.504  3.4195  1.1785 -0.7028
 6763SOL     OW31750   3.585   0.970   8.880 -0.1949 -0.4491  0.1179
 6763SOL    HW131751   3.547   0.923   8.953 -0.3506 -1.8376 -0.8628
 6763SOL    HW231752   3.559   1.062   8.883  0.0173 -0.3842 -0.0202
 6764SOL     OW31753   1.079   3.158   1.867  0.1287  0.1028  0.6473
 6764SOL    HW131754   1.017   3.098   1.907  0.9773 -1.3203 -0.1795
 6764SOL    HW231755   1.076   3.131   1.775 -1.4024  1.8739  0.1746
 6765SOL     OW31756   3.732   2.699   7.136 -0.1122  0.2419 -0.0006
 6765SOL    HW131757   3.669   2.634   7.169 -1.2028  0.8105 -0.9790
 6765SOL    HW231758   3.668   2.770   7.144 -0.3844  0.0211 -0.2029
 6766SOL     OW31759   1.323   4.293   2.370 -0.4372 -0.3928  0.4767
 6766SOL    HW131760   1.335   4.356   2.299  0.9363 -0.4802  0.6186
 6766SOL    HW231761   1.344   4.210   2.327  1.2574 -0.3713  1.2275
 6767SOL     OW31762   3.280   1.468   7.080  0.0935  0.0691  0.2043
 6767SOL    HW131763   3.332   1.508   7.010  2.2470 -3.1951 -0.0493
 6767SOL    HW231764   3.250   1.547   7.125  1.2066  0.8226 -0.3437
 6768SOL     OW31765   0.160   1.313   5.437  0.3427  0.0412  0.4502
 6768SOL    HW131766   0.247   1.276   5.422 -0.1860 -0.6577 -0.8785
 6768SOL    HW231767   0.109   1.241   5.474  0.1820  0.0516  0.2465
 6769SOL     OW31768   3.376   1.551   8.399 -0.0833 -0.0624  0.3397
 6769SOL    HW131769   3.354   1.618   8.463  0.9517 -1.8435  2.5536
 6769SOL    HW231770   3.309   1.486   8.419  2.4361 -1.9594  2.7265
 6770SOL     OW31771   0.945   2.797   3.344 -0.0310  0.3617 -0.1079
 6770SOL    HW131772   0.855   2.772   3.325  0.1473 -0.2386 -0.1748
 6770SOL    HW231773   0.932   2.820   3.436 -1.5129  0.7932 -0.4270
 6771SOL     OW31774   0.722   4.521   7.001 -0.4243 -0.0221  0.4093
 6771SOL    HW131775   0.645   4.464   7.005  0.8751 -1.8443 -0.5802
 6771SOL    HW231776   0.767   4.508   7.085 -0.9496 -1.0673  0.5351
 6772SOL     OW31777   1.863   0.753   8.762 -0.3765 -0.0684 -0.3394
 6772SOL    HW131778   1.880   0.843   8.791  1.5191 -0.1508 -1.2262
 6772SOL    HW231779   1.921   0.707   8.823  0.8611  1.1243 -0.6222
 6773SOL     OW31780   2.862   4.025  14.867 -0.3035 -0.3169  0.0848
 6773SOL    HW131781   2.932   4.032  14.802  0.7114 -1.9746  0.9894
 6773SOL    HW231782   2.845   3.931  14.875  1.0113 -0.6194 -0.5945
 6774SOL     OW31783   4.201   4.241  11.985 -0.3189  0.5044 -0.1819
 6774SOL    HW131784   4.163   4.326  12.006 -1.3342  0.0552 -0.1640
 6774SOL    HW231785   4.272   4.235  12.048 -1.2905 -0.7629  0.8068
 6775SOL     OW31786   1.346   3.122   3.667 -0.2030  0.3853  0.1346
 6775SOL    HW131787   1.308   3.095   3.751  3.5145 -1.5335  1.2098
 6775SOL    HW231788   1.310   3.210   3.672 -0.2850  0.2744  1.4596
 6776SOL     OW31789   3.972   1.468   6.232  0.2360 -0.1766 -1.0913
 6776SOL    HW131790   3.903   1.446   6.295 -0.4578 -0.5265 -1.9672
 6776SOL    HW231791   4.051   1.449   6.282 -1.1482 -1.9916  0.4403
 6777SOL     OW31792   3.507   4.201   4.511  0.2395  0.3641 -0.0726
 6777SOL    HW131793   3.546   4.288   4.514 -2.6206  1.5977  1.1170
 6777SOL    HW231794   3.472   4.193   4.600  1.4296  0.8792  0.4408
 6778SOL     OW31795   2.718   2.336   7.767 -0.4442 -0.3500  0.6747
 6778SOL    HW131796   2.697   2.420   7.727  2.6719 -0.8073 -1.9260
 6778SOL    HW231797   2.655   2.276   7.728  0.1099 -1.7787  1.9797
 6779SOL     OW31798   1.236   2.172  10.601 -0.2991 -0.0011 -0.1753
 6779SOL    HW131799   1.154   2.192  10.557 -0.2422 -0.1879 -0.3710
 6779SOL    HW231800   1.209   2.126  10.681 -1.0934 -0.9042 -0.9661
 6780SOL     OW31801   0.043   1.465   7.340  0.1776 -0.1441  0.3688
 6780SOL    HW131802   0.029   1.555   7.369  0.8042 -0.3063  1.1921
 6780SOL    HW231803   0.017   1.474   7.248  0.1959  0.1982  0.4008
 6781SOL     OW31804   0.127   3.281  12.078 -0.3150  0.5729  0.6262
 6781SOL    HW131805   0.135   3.186  12.077  1.8610  0.7319  1.4543
 6781SOL    HW231806   0.052   3.306  12.132 -0.7642 -0.9268  0.7009
 6782SOL     OW31807   1.976   0.765   2.766 -0.4288 -0.3908 -0.2739
 6782SOL    HW131808   2.047   0.768   2.830  0.2960 -5.3028 -0.8490
 6782SOL    HW231809   2.022   0.746   2.684 -0.1987  0.4557 -0.3401
 6783SOL     OW31810   4.519   1.144  10.547 -0.1692  0.5610 -0.7553
 6783SOL    HW131811   4.477   1.166  10.630 -0.8929 -0.5413 -0.8249
 6783SOL    HW231812   4.491   1.055  10.525  0.6089 -0.7345  3.5461
 6784SOL     OW31813   2.677   2.092  11.022 -0.3183 -0.7065 -0.3389
 6784SOL    HW131814   2.720   2.039  11.090 -1.2074 -1.8910 -0.7124
 6784SOL    HW231815   2.654   2.021  10.963  0.3229 -0.5476 -0.7900
 6785SOL     OW31816   0.474   2.594   8.010 -0.4390  0.6153 -0.2669
 6785SOL    HW131817   0.515   2.548   8.084 -0.7336 -2.7309 -2.1826
 6785SOL    HW231818   0.440   2.511   7.975  0.8873 -1.3498  3.0939
 6786SOL     OW31819   3.344   1.109  16.530 -0.0665  0.2424 -0.1476
 6786SOL    HW131820   3.354   1.085  16.438  2.0212 -2.3044  0.7517
 6786SOL    HW231821   3.410   1.178  16.541  1.0669 -0.5526 -2.0823
 6787SOL     OW31822   3.349   0.272   3.093  0.3676  0.1008 -0.6319
 6787SOL    HW131823   3.387   0.294   3.178 -0.8275  1.1700 -0.3751
 6787SOL    HW231824   3.333   0.178   3.099  0.3176  0.1408 -0.1639
 6788SOL     OW31825   3.737   1.089   2.535 -0.0399 -0.2802  0.2704
 6788SOL    HW131826   3.716   1.075   2.628 -1.4177  2.5303  0.3816
 6788SOL    HW231827   3.644   1.087   2.514  0.0751  0.1612 -0.2709
 6789SOL     OW31828   3.449   4.047   0.102 -0.2871  0.0091  0.2602
 6789SOL    HW131829   3.529   3.995   0.110  0.0562  0.6444  0.9527
 6789SOL    HW231830   3.450   4.075   0.011 -0.2076  2.3196  0.9630
 6790SOL     OW31831   1.201   0.811   5.544  0.6686 -0.0792 -0.3318
 6790SOL    HW131832   1.241   0.729   5.571 -0.9700 -0.6619  0.3468
 6790SOL    HW231833   1.110   0.786   5.527  1.0847 -2.9855  1.7248
 6791SOL     OW31834   3.847   4.515   5.886  0.0059  0.0625 -0.3276
 6791SOL    HW131835   3.891   4.462   5.820  1.7775 -0.3832  1.2243
 6791SOL    HW231836   3.864   4.607   5.863  0.9902  0.4887  2.1395
 6792SOL     OW31837   2.213   1.747   4.171 -0.9428 -0.0897  0.1280
 6792SOL    HW131838   2.122   1.757   4.144 -0.4061 -1.5703 -2.2297
 6792SOL    HW231839   2.260   1.709   4.096 -1.3304  0.3150 -0.3216
 6793SOL     OW31840   4.621   3.780   9.010  0.4657  0.5796  0.2893
 6793SOL    HW131841   4.558   3.843   8.974 -0.1112  0.2725  0.7613
 6793SOL    HW231842   4.698   3.834   9.025 -0.9078  2.2987  1.2160
 6794SOL     OW31843   0.429   2.700   9.548 -0.2928 -0.1761 -0.4809
 6794SOL    HW131844   0.486   2.674   9.621  0.2322  1.9402 -0.1407
 6794SOL    HW231845   0.486   2.708   9.472 -0.4899  1.8496 -0.4101
 6795SOL     OW31846   0.488   3.030   1.769 -0.0573  0.0234  0.4050
 6795SOL    HW131847   0.445   2.969   1.709  2.4870 -0.6558 -0.7436
 6795SOL    HW231848   0.577   2.994   1.766 -0.3816 -0.7920  0.3432
 6796SOL     OW31849   3.764   0.753   3.650  0.0081 -0.0926 -0.0232
 6796SOL    HW131850   3.745   0.783   3.562  1.0821  2.6599  0.6563
 6796SOL    HW231851   3.806   0.670   3.628 -0.4723  0.0292 -1.3908
 6797SOL     OW31852   1.765   4.249  12.898 -0.2185  0.3147  0.4291
 6797SOL    HW131853   1.699   4.298  12.946 -0.1002  0.9619 -0.0691
 6797SOL    HW231854   1.712   4.206  12.831 -0.6999  1.8688 -0.1798
 6798SOL     OW31855   0.705   2.135   8.008  0.1411 -0.0810 -0.0990
 6798SOL    HW131856   0.787   2.160   7.966  1.2081 -2.6707  0.4058
 6798SOL    HW231857   0.683   2.054   7.961 -1.8487  0.3163  0.1517
 6799SOL     OW31858   2.431   3.483   0.595 -0.3005  0.5611  0.2298
 6799SOL    HW131859   2.495   3.545   0.630  0.2753 -1.0699  2.0707
 6799SOL    HW231860   2.470   3.444   0.517  1.7076  3.4878 -0.2369
 6800SOL     OW31861   0.782   3.582   2.900 -0.0170 -0.2433 -0.2428
 6800SOL    HW131862   0.715   3.626   2.847  2.0791  2.2572 -0.7813
 6800SOL    HW231863   0.770   3.492   2.868 -0.5299  0.3880 -1.8015
 6801SOL     OW31864   0.620   0.483   5.647 -0.5306  0.3259 -0.4295
 6801SOL    HW131865   0.605   0.577   5.657 -1.4049  0.3383 -1.8811
 6801SOL    HW231866   0.556   0.451   5.584 -2.3872 -1.2394  2.2764
 6802SOL     OW31867   4.592   0.281   7.270 -0.0790  0.3921  0.2286
 6802SOL    HW131868   4.640   0.270   7.352 -0.6083  1.1924  0.6419
 6802SOL    HW231869   4.501   0.269   7.298 -0.8620  1.0326 -1.9996
 6803SOL     OW31870   4.197   1.399   5.781  0.0025 -0.2022 -0.3079
 6803SOL    HW131871   4.109   1.429   5.806  0.5891  2.2529 -1.2272
 6803SOL    HW231872   4.192   1.304   5.796 -0.1005 -0.0736  0.5054
 6804SOL     OW31873   3.909   1.853   5.369 -0.5432  0.5465 -0.1332
 6804SOL    HW131874   3.934   1.839   5.460 -2.2512 -1.9324 -0.0336
 6804SOL    HW231875   3.947   1.774   5.330 -3.2061 -0.4999 -0.6952
 6805SOL     OW31876   3.843   2.053   4.210 -0.7279 -0.0887 -0.5089
 6805SOL    HW131877   3.853   2.044   4.115 -1.3472 -1.5808 -0.4276
 6805SOL    HW231878   3.895   2.131   4.230 -2.5960  0.5531  1.8923
 6806SOL     OW31879   3.899   0.124   5.532  0.4330  0.1568 -0.2680
 6806SOL    HW131880   3.815   0.157   5.498  1.1029  1.2103 -0.8799
 6806SOL    HW231881   3.955   0.175   5.475  0.6835 -2.4069 -2.3451
 6807SOL     OW31882   2.427   0.568   6.396 -0.1997  0.4080 -0.0739
 6807SOL    HW131883   2.342   0.612   6.401  0.6168  1.9025  0.9481
 6807SOL    HW231884   2.410   0.511   6.321  0.0606 -1.4768  1.3106
 6808SOL     OW31885   3.839   3.745   9.151  0.1579 -0.8351  0.3949
 6808SOL    HW131886   3.856   3.652   9.136  1.4436 -0.2352 -1.7613
 6808SOL    HW231887   3.744   3.749   9.148  0.0540 -1.1785  2.7532
 6809SOL     OW31888   1.895   0.639  17.191  0.0350 -0.3307 -0.0758
 6809SOL    HW131889   1.898   0.561  17.136 -1.5434 -0.6016  0.2174
 6809SOL    HW231890   1.971   0.689  17.161 -0.2367  0.2182  0.1488
 6810SOL     OW31891   4.091   3.113   5.119  0.2047  0.6211 -0.9314
 6810SOL    HW131892   4.162   3.174   5.139  0.8291 -0.9962  1.8322
 6810SOL    HW231893   4.134   3.030   5.139  1.4126  0.8282 -2.7511
 6811SOL     OW31894   3.597   0.803   4.637  0.0040  0.4130  0.8739
 6811SOL    HW131895   3.651   0.877   4.664  1.2113 -0.0109 -0.4234
 6811SOL    HW231896   3.617   0.749   4.714  1.8917  0.0215  0.1026
 6812SOL     OW31897   1.824   3.586   4.694 -0.4398 -0.2595  0.3128
 6812SOL    HW131898   1.852   3.517   4.634 -1.9990 -0.3876 -0.2528
 6812SOL    HW231899   1.904   3.629   4.724 -0.5373 -0.2723  0.5908
 6813SOL     OW31900   2.617   3.706  16.082  0.4905 -0.2482 -0.2335
 6813SOL    HW131901   2.699   3.657  16.095 -0.0724 -1.2712 -0.5202
 6813SOL    HW231902   2.646   3.794  16.104 -1.7568  0.0698  1.3910
 6814SOL     OW31903   3.364   0.543  13.568 -0.1823 -0.5833 -0.1986
 6814SOL    HW131904   3.376   0.605  13.496 -3.7745  1.6788  1.1473
 6814SOL    HW231905   3.275   0.516  13.545 -0.6337 -1.5537  2.5824
 6815SOL     OW31906   3.829   4.270   7.336 -0.0050 -0.0114  0.3831
 6815SOL    HW131907   3.888   4.215   7.387 -0.3209  0.8930  1.7270
 6815SOL    HW231908   3.893   4.329   7.297  0.7524 -1.1440 -0.0721
 6816SOL     OW31909   4.052   2.830   7.442 -0.3760  0.7692 -0.5465
 6816SOL    HW131910   4.107   2.787   7.377  0.1670  1.2764 -0.4274
 6816SOL    HW231911   4.113   2.900   7.468 -0.6109  0.9589 -0.5083
 6817SOL     OW31912   0.148   1.301  13.889  0.2862 -0.3534 -0.0429
 6817SOL    HW131913   0.167   1.242  13.816  1.1646 -0.2455  0.1048
 6817SOL    HW231914   0.238   1.319  13.913  1.1253 -3.2684 -1.0040
 6818SOL     OW31915   0.621   4.722  10.733  0.2366 -0.1005 -0.8000
 6818SOL    HW131916   0.650   0.045  10.654 -2.6858  0.1164 -1.7377
 6818SOL    HW231917   0.565   0.072  10.761  0.0421 -1.1769  1.5716
 6819SOL     OW31918   0.066   4.433   5.421  0.3955 -0.2612  0.1787
 6819SOL    HW131919   0.005   4.384   5.476  0.6776 -0.3269  0.4346
 6819SOL    HW231920   0.147   4.423   5.472 -0.0026 -0.2950  0.7993
 6820SOL     OW31921   0.450   3.302   3.114 -0.1930  0.4046  0.1718
 6820SOL    HW131922   0.452   3.392   3.148  0.3023  0.5726 -0.2962
 6820SOL    HW231923   0.456   3.310   3.019  2.8603  1.0271  0.3973
 6821SOL     OW31924   3.015   0.643  13.983 -0.2840 -0.1961 -0.2227
 6821SOL    HW131925   3.023   0.680  14.071  0.0834 -0.9808  0.0755
 6821SOL    HW231926   3.098   0.597  13.993  0.3587  0.4845 -2.3096
 6822SOL     OW31927   0.126   4.660   4.875  0.4496 -0.2235 -0.2671
 6822SOL    HW131928   0.087   4.714   4.943  1.9926 -1.9478  1.9985
 6822SOL    HW231929   0.219   4.669   4.896  0.3091 -0.7791  0.5966
 6823SOL     OW31930   1.393   4.432   0.408 -0.1230 -0.1008 -0.2994
 6823SOL    HW131931   1.458   4.417   0.340 -1.0555 -0.7662 -1.0435
 6823SOL    HW231932   1.354   4.514   0.379 -0.7874  0.2945  1.6834
 6824SOL     OW31933   3.155   3.893  13.424 -0.3061 -0.1247 -0.0279
 6824SOL    HW131934   3.132   3.840  13.500 -1.5877  1.5284  0.7357
 6824SOL    HW231935   3.177   3.973  13.471 -2.8503  1.9603 -2.3835
 6825SOL     OW31936   4.487   2.217  10.597  0.4008 -0.3098 -0.0874
 6825SOL    HW131937   4.548   2.183  10.663 -0.4326 -0.3994  0.6327
 6825SOL    HW231938   4.514   2.309  10.594 -0.5512  0.0089  1.4664
 6826SOL     OW31939   4.233   2.445   6.006  0.2182 -0.4346  0.1755
 6826SOL    HW131940   4.310   2.431   6.060  0.1929  1.0958  0.6103
 6826SOL    HW231941   4.229   2.540   6.006  2.1949 -0.3625 -1.7728
 6827SOL     OW31942   0.512   1.072   9.241 -0.0866 -0.2361  0.0178
 6827SOL    HW131943   0.438   1.083   9.182  0.5115  2.4954 -0.2067
 6827SOL    HW231944   0.561   1.154   9.237 -1.2316  0.5532  2.2479
 6828SOL     OW31945   3.578   1.874   1.771 -0.0823  0.0217  0.4327
 6828SOL    HW131946   3.567   1.864   1.865 -2.3082 -1.6642 -0.0096
 6828SOL    HW231947   3.570   1.780   1.756  3.0619 -0.4552  1.8333
 6829SOL     OW31948   2.209   0.149   7.063 -0.0496 -0.6145  0.1875
 6829SOL    HW131949   2.230   0.213   6.995  0.6969 -0.1134  0.8835
 6829SOL    HW231950   2.290   0.101   7.076 -0.2197 -0.9158  0.1329
 6830SOL     OW31951   3.221   0.342   4.033  0.0317 -0.4249 -0.2977
 6830SOL    HW131952   3.195   0.360   4.123 -1.5381 -2.3041 -0.3648
 6830SOL    HW231953   3.313   0.316   4.032  0.1807  0.0870  0.2000
 6831SOL     OW31954   4.689   2.813   0.921  0.0727 -0.8256  1.0634
 6831SOL    HW131955   4.629   2.771   0.860  2.5039 -1.8136 -0.6677
 6831SOL    HW231956   4.709   2.893   0.872 -0.4444 -1.7724 -0.6999
 6832SOL     OW31957   1.795   2.561   6.598 -0.0981  0.5795  0.6508
 6832SOL    HW131958   1.887   2.537   6.587 -0.0946  1.1169 -0.4648
 6832SOL    HW231959   1.783   2.621   6.525  0.8679  1.6539  1.3758
 6833SOL     OW31960   0.947   4.061   7.621  0.1774  0.1531  0.3019
 6833SOL    HW131961   0.903   4.145   7.633 -1.8915 -1.0169  0.9297
 6833SOL    HW231962   0.931   4.035   7.530 -0.0270  1.4974 -0.0486
 6834SOL     OW31963   2.027   2.665   3.513 -0.0412 -0.4565  0.3158
 6834SOL    HW131964   2.117   2.634   3.507  0.0561 -0.7142  2.9079
 6834SOL    HW231965   1.989   2.635   3.596  0.8750 -0.2777  0.8012
 6835SOL     OW31966   1.263   2.200   0.235 -0.0501 -0.8444 -0.3630
 6835SOL    HW131967   1.262   2.135   0.304  1.1203 -0.4622  0.0228
 6835SOL    HW231968   1.349   2.239   0.254 -0.1852 -0.6836 -0.0837
 6836SOL     OW31969   3.950   3.558  13.698  0.8002 -0.2879  0.1536
 6836SOL    HW131970   4.030   3.507  13.683  0.9990 -0.2767  1.2196
 6836SOL    HW231971   3.963   3.612  13.620  1.0822  0.8419  0.9777
 6837SOL     OW31972   4.082   0.839   5.547  0.8695  0.3350  0.2923
 6837SOL    HW131973   4.101   0.928   5.515  0.4691 -0.2545 -1.5723
 6837SOL    HW231974   4.088   0.794   5.463  2.1632 -1.8450  1.5517
 6838SOL     OW31975   2.825   0.718  10.923  0.4748  0.1106 -0.9833
 6838SOL    HW131976   2.761   0.693  10.855 -0.6136 -2.0671  0.8242
 6838SOL    HW231977   2.841   0.808  10.896 -0.8847  0.1413 -1.6806
 6839SOL     OW31978   4.343   3.502   6.111  0.0029 -0.2370  0.0375
 6839SOL    HW131979   4.366   3.419   6.153 -0.0171  1.1835  2.8736
 6839SOL    HW231980   4.390   3.482   6.030  2.3210  0.2652  1.2362
 6840SOL     OW31981   4.694   0.152   1.844 -0.4131  0.3649 -0.3242
 6840SOL    HW131982   4.604   0.183   1.857 -0.6139 -0.5754  0.5580
 6840SOL    HW231983   4.678   0.064   1.811  0.2751 -0.2504  0.9688
 6841SOL     OW31984   1.453   3.423   6.445 -0.3343  0.2215 -0.4934
 6841SOL    HW131985   1.388   3.488   6.420  1.2889  1.0435 -2.5652
 6841SOL    HW231986   1.430   3.417   6.538 -0.5037  1.0744 -0.4832
 6842SOL     OW31987   1.589   3.823   4.946 -0.0107 -0.3108  0.7314
 6842SOL    HW131988   1.650   3.838   5.018  0.0258 -0.2248  0.6818
 6842SOL    HW231989   1.544   3.906   4.937 -0.2897 -0.6591 -1.1193
 6843SOL     OW31990   3.520   3.019  16.838 -0.0511 -0.3146 -0.8113
 6843SOL    HW131991   3.573   3.027  16.917 -0.6519 -4.0364 -0.0269
 6843SOL    HW231992   3.458   3.090  16.854  1.3895  0.4721  1.1575
 6844SOL     OW31993   0.548   2.397   1.737 -0.4438  0.0369 -0.3923
 6844SOL    HW131994   0.636   2.381   1.773  0.2765 -0.3276 -2.3080
 6844SOL    HW231995   0.512   2.312   1.762  0.2563  0.2782  1.4655
 6845SOL     OW31996   0.125   0.358   0.131 -0.0343 -0.0513  0.4810
 6845SOL    HW131997   0.195   0.322   0.185  0.1131 -1.7583 -0.8392
 6845SOL    HW231998   0.074   0.395   0.203 -2.7834 -1.0755 -0.9389
 6846SOL     OW31999   0.092   3.777  11.533  0.7408  0.0813 -0.1650
 6846SOL    HW132000   0.186   3.787  11.523  1.2486 -1.2647  3.4390
 6846SOL    HW232001   0.059   3.752  11.446  2.1892 -1.1785 -0.3446
 6847SOL     OW32002   1.546   1.106  12.709 -0.3199 -0.2836 -0.2755
 6847SOL    HW132003   1.453   1.088  12.695 -0.7627 -0.3477  2.6254
 6847SOL    HW232004   1.556   1.183  12.654 -1.6823  0.8394  1.0561
 6848SOL     OW32005   4.350   2.369   6.439 -0.2312  0.6860  0.4005
 6848SOL    HW132006   4.420   2.366   6.374 -0.3508 -0.8117  0.3426
 6848SOL    HW232007   4.379   2.295   6.492  1.1805  0.3125 -0.9190
 6849SOL     OW32008   0.650   3.298   5.596  0.4250  0.0567 -0.3065
 6849SOL    HW132009   0.612   3.217   5.627 -0.5369  0.6141 -0.0308
 6849SOL    HW232010   0.679   3.278   5.507 -0.5879  0.0490 -0.6374
 6850SOL     OW32011   2.434   2.415  10.279  0.7094 -0.2242 -0.0766
 6850SOL    HW132012   2.500   2.386  10.216 -1.6148 -0.2232 -2.5071
 6850SOL    HW232013   2.488   2.481  10.321 -0.1508 -0.2513  1.0708
 6851SOL     OW32014   2.825   1.593   8.345 -0.1266 -0.1432 -0.1322
 6851SOL    HW132015   2.774   1.547   8.279  0.0771 -0.1398 -0.2904
 6851SOL    HW232016   2.824   1.681   8.309 -3.6985 -0.2586 -0.3246
 6852SOL     OW32017   2.683   3.072   9.298 -0.7685  0.4868 -0.2073
 6852SOL    HW132018   2.693   3.098   9.389  0.2616 -0.1071 -0.1552
 6852SOL    HW232019   2.680   3.155   9.251  0.8991 -0.3612 -1.7938
 6853SOL     OW32020   1.535   2.536   6.704  0.1031  0.5596 -0.1193
 6853SOL    HW132021   1.506   2.534   6.613 -0.5028  0.5754  0.0699
 6853SOL    HW232022   1.628   2.520   6.691 -0.2728  1.3167 -3.7398
 6854SOL     OW32023   3.947   3.758   3.262  0.5310  0.0126 -0.0768
 6854SOL    HW132024   3.908   3.677   3.295 -0.9528  1.4506  1.6749
 6854SOL    HW232025   3.927   3.814   3.337  1.2205  1.7570 -1.2021
 6855SOL     OW32026   4.366   3.594   2.595 -0.5264  0.0131  0.5536
 6855SOL    HW132027   4.364   3.589   2.500  0.1985  0.0479  0.5342
 6855SOL    HW232028   4.302   3.660   2.622 -0.9833 -0.8453  1.5654
 6856SOL     OW32029   0.321   0.191   3.085 -0.6469  0.0326 -0.2193
 6856SOL    HW132030   0.320   0.126   3.156  0.7403 -1.3587 -1.4566
 6856SOL    HW232031   0.407   0.173   3.046  0.1569  2.3952  0.5137
 6857SOL     OW32032   3.641   1.015   5.129  0.1097  0.7760 -0.0743
 6857SOL    HW132033   3.626   1.037   5.037  2.0224  0.1372 -0.5585
 6857SOL    HW232034   3.619   1.095   5.175  0.2011  0.2666  0.8640
 6858SOL     OW32035   3.601   0.182   6.257  0.1791  0.6216 -0.3883
 6858SOL    HW132036   3.525   0.138   6.296  1.6347 -0.2796  1.4161
 6858SOL    HW232037   3.625   0.243   6.327 -2.0134 -1.5714  2.2828
 6859SOL     OW32038   0.187   3.036   7.101 -0.0383 -0.9253 -0.3782
 6859SOL    HW132039   0.163   3.041   7.193  0.8521 -0.5257 -0.1653
 6859SOL    HW232040   0.249   3.109   7.092 -1.0885  0.0893  0.6490
 6860SOL     OW32041   0.034   1.107   7.315 -0.5814  0.0324  0.6814
 6860SOL    HW132042   0.007   1.179   7.373 -0.4196 -0.5376  1.4591
 6860SOL    HW232043   4.723   1.146   7.234  2.0100  0.8689 -0.0067
 6861SOL     OW32044   3.365   4.274   3.685  0.4451  0.7372 -0.1209
 6861SOL    HW132045   3.341   4.261   3.777 -2.6576 -3.5475 -1.5341
 6861SOL    HW232046   3.453   4.310   3.682  0.6164  0.2962 -0.4832
 6862SOL     OW32047   0.098   3.802   4.253 -0.5113  0.0201  0.3037
 6862SOL    HW132048   0.133   3.733   4.197 -3.0938 -1.4650  0.4888
 6862SOL    HW232049   0.052   3.846   4.182 -0.0741 -2.2056 -1.3741
 6863SOL     OW32050   2.998   2.815   5.227 -0.5183  0.2511 -0.2492
 6863SOL    HW132051   3.018   2.813   5.133  0.1097 -2.8683 -0.0624
 6863SOL    HW232052   3.035   2.899   5.251 -0.3793 -0.3316  1.6191
 6864SOL     OW32053   4.049   4.110  14.078 -0.3592 -0.2805 -0.2614
 6864SOL    HW132054   4.046   4.173  14.006  2.2975  0.1340 -0.0007
 6864SOL    HW232055   4.031   4.032  14.025  0.0477 -2.1477  2.3511
 6865SOL     OW32056   4.024   3.749  13.509  0.4422 -0.7810  0.4408
 6865SOL    HW132057   4.064   3.822  13.556 -2.5792  0.8830  0.4099
 6865SOL    HW232058   4.103   3.709  13.472  1.2339  1.3387 -0.1560
 6866SOL     OW32059   1.987   2.919  11.297  0.0139 -0.1581 -0.2497
 6866SOL    HW132060   1.950   2.869  11.370 -0.0369  1.8955  1.1025
 6866SOL    HW232061   2.022   2.997  11.340  1.0854  0.4067 -2.1339
 6867SOL     OW32062   1.496   3.460  17.226  0.9072  0.1408  0.3325
 6867SOL    HW132063   1.561   3.525  17.200  0.4068  0.2960 -0.5586
 6867SOL    HW232064   1.457   3.500  17.303 -1.2851  0.3656 -0.8701
 6868SOL     OW32065   1.921   4.447   4.812  0.2379  0.1723  0.0926
 6868SOL    HW132066   1.897   4.364   4.853  0.0827  0.5537  0.7824
 6868SOL    HW232067   1.917   4.502   4.890 -0.0375 -1.0560  0.9487
 6869SOL     OW32068   3.311   2.677   3.300  0.3338  0.2846  0.0201
 6869SOL    HW132069   3.250   2.611   3.268  0.3502  0.3001 -0.0426
 6869SOL    HW232070   3.381   2.621   3.334 -0.1102 -0.3072 -0.0322
 6870SOL     OW32071   2.738   0.397  12.070 -0.0204  0.1094  0.5153
 6870SOL    HW132072   2.766   0.480  12.110  2.0822  0.5958 -1.9591
 6870SOL    HW232073   2.753   0.334  12.140  4.3262 -0.7974 -1.1999
 6871SOL     OW32074   4.057   0.197   1.496  0.8948 -0.2268 -0.5381
 6871SOL    HW132075   4.049   0.217   1.589  1.3540 -1.1962 -0.2911
 6871SOL    HW232076   3.973   0.160   1.471  0.5966  0.4254 -0.4946
 6872SOL     OW32077   3.357   1.047   3.040  0.0770  0.2861  0.2738
 6872SOL    HW132078   3.410   1.116   3.079  2.5517 -0.9382 -0.9597
 6872SOL    HW232079   3.426   0.985   3.018 -1.2625 -1.2744  0.4598
 6873SOL     OW32080   3.494   0.513   1.619  0.4875  0.5043  0.6408
 6873SOL    HW132081   3.481   0.529   1.713  0.2423 -0.2202  0.7274
 6873SOL    HW232082   3.589   0.517   1.618  0.4385  1.5293 -0.7686
 6874SOL     OW32083   1.805   3.828  10.579 -0.4437  0.1019  0.0507
 6874SOL    HW132084   1.878   3.818  10.517 -1.0072  1.6915 -0.8712
 6874SOL    HW232085   1.795   3.923  10.569 -0.0841  0.2305  0.9198
 6875SOL     OW32086   3.741   3.917   6.408  0.6597 -0.1154 -0.8495
 6875SOL    HW132087   3.764   4.010   6.407 -0.3073  0.1018 -2.8936
 6875SOL    HW232088   3.739   3.895   6.315  1.3439  0.0555 -0.9037
 6876SOL     OW32089   0.345   1.652  10.081  0.4750  0.2242  0.0772
 6876SOL    HW132090   0.339   1.559  10.058  0.1495 -0.2519  2.0618
 6876SOL    HW232091   0.307   1.693  10.004 -0.1116  0.6256  0.5780
 6877SOL     OW32092   2.005   4.280   5.773  0.0287 -0.8657 -0.6921
 6877SOL    HW132093   2.026   4.373   5.766 -2.9506 -0.1437  0.1423
 6877SOL    HW232094   2.087   4.244   5.807  0.7104  0.0856 -1.3251
 6878SOL     OW32095   3.665   1.229   9.165  0.0636 -0.1686  0.6018
 6878SOL    HW132096   3.580   1.197   9.193 -0.5784  0.9482 -0.0876
 6878SOL    HW232097   3.631   1.278   9.090  0.5622 -3.4066 -1.7667
 6879SOL     OW32098   0.206   4.585  17.235  0.4401 -0.0330 -0.2143
 6879SOL    HW132099   0.231   4.553  17.148  0.1812  0.5555 -0.5008
 6879SOL    HW232100   0.140   4.652  17.218  1.2162  0.2656 -2.1306
 6880SOL     OW32101   1.957   1.893  10.388 -0.1112  0.1900 -0.2163
 6880SOL    HW132102   1.925   1.866  10.302  0.4610  1.8850 -0.9634
 6880SOL    HW232103   1.934   1.986  10.392  0.5032  0.4352 -2.2813
 6881SOL     OW32104   3.747   1.162   9.978 -0.6001  0.1366 -0.0158
 6881SOL    HW132105   3.808   1.153   9.905 -0.2533  1.2041  0.1430
 6881SOL    HW232106   3.798   1.202  10.049  1.8242 -0.9348 -1.1667
 6882SOL     OW32107   2.050   1.473   7.320 -0.1589  0.4210  0.1500
 6882SOL    HW132108   1.956   1.492   7.330  0.2079  1.4141  1.8058
 6882SOL    HW232109   2.061   1.520   7.238  1.5997  1.6686  1.1220
 6883SOL     OW32110   0.580   2.736   4.146 -0.3195  0.2732  0.0350
 6883SOL    HW132111   0.528   2.752   4.068  0.3231 -0.1028 -0.4677
 6883SOL    HW232112   0.510   2.716   4.208  1.3708 -3.9554  0.5698
 6884SOL     OW32113   0.994   1.048  17.613 -0.1648  0.2668  0.3853
 6884SOL    HW132114   1.072   1.046  17.557 -0.2901 -1.7731  0.2723
 6884SOL    HW232115   1.022   1.080   0.004  1.1596  0.1877 -0.0227
 6885SOL     OW32116   2.610   0.936   8.381 -0.2239 -0.1294  0.4258
 6885SOL    HW132117   2.672   1.007   8.397 -0.2391 -0.0309  0.0431
 6885SOL    HW232118   2.532   0.984   8.352 -0.5374 -1.4879 -0.9742
 6886SOL     OW32119   1.449   4.172  14.770  0.1037  0.3340  0.1889
 6886SOL    HW132120   1.363   4.184  14.730  0.0873 -2.5637 -0.6890
 6886SOL    HW232121   1.455   4.076  14.779  0.6566  0.3800  0.3088
 6887SOL     OW32122   0.199   1.520   7.011 -0.3582  0.3748  0.6865
 6887SOL    HW132123   0.161   1.476   6.935  0.7006 -0.6781  0.7632
 6887SOL    HW232124   0.196   1.451   7.077 -1.7929 -1.1401 -0.9862
 6888SOL     OW32125   1.085   4.505  16.447  0.0966  0.0509 -0.3901
 6888SOL    HW132126   1.076   4.413  16.471 -1.8583  0.0260 -1.2120
 6888SOL    HW232127   1.110   4.499  16.355  1.4279 -0.5077  0.0062
 6889SOL     OW32128   4.485   4.532   4.985  1.3637 -0.2436 -0.1723
 6889SOL    HW132129   4.437   4.609   5.014  0.9333 -0.6398  0.1826
 6889SOL    HW232130   4.555   4.538   5.051 -0.4110 -2.5658  1.9265
 6890SOL     OW32131   2.804   0.631   8.862 -0.5104 -0.2528  0.0613
 6890SOL    HW132132   2.899   0.637   8.872 -0.4259  1.2192 -1.7506
 6890SOL    HW232133   2.778   0.578   8.937  0.7004  1.7282  1.8872
 6891SOL     OW32134   3.660   3.972  10.137 -1.0595 -0.4410 -0.0717
 6891SOL    HW132135   3.752   3.949  10.121 -0.4650  3.1275 -1.7061
 6891SOL    HW232136   3.614   3.897  10.098 -0.7034 -1.4441  1.4360
 6892SOL     OW32137   4.221   3.512   6.909  0.3521  0.2231 -0.9617
 6892SOL    HW132138   4.315   3.519   6.896  0.5200 -0.3910 -0.1016
 6892SOL    HW232139   4.199   3.542   6.821  0.0502  1.6424 -0.4065
 6893SOL     OW32140   0.806   2.697  13.213 -0.5078  0.2744 -0.1082
 6893SOL    HW132141   0.730   2.749  13.188 -0.5031 -0.7548 -2.2283
 6893SOL    HW232142   0.822   2.637  13.140 -0.6160 -0.0356  0.1227
 6894SOL     OW32143   2.044   0.921   2.357  0.3933  0.7763  0.1137
 6894SOL    HW132144   1.999   0.922   2.272  1.4932 -0.2115 -0.4787
 6894SOL    HW232145   2.106   0.850   2.341 -0.6133 -0.2623  0.7773
 6895SOL     OW32146   1.214   3.483   4.070  0.3450 -0.3310  0.5236
 6895SOL    HW132147   1.219   3.401   4.120  0.3991 -0.8495 -0.3335
 6895SOL    HW232148   1.305   3.511   4.066  0.0190  0.4874 -0.9810
 6896SOL     OW32149   0.697   3.576  13.367 -0.3122 -0.3241  0.1716
 6896SOL    HW132150   0.758   3.510  13.399 -2.2372 -1.5410  1.2845
 6896SOL    HW232151   0.612   3.534  13.358 -0.5891 -0.3447  2.9195
 6897SOL     OW32152   2.384   3.690   3.402  0.1550  1.1366  0.1706
 6897SOL    HW132153   2.316   3.648   3.456  0.0052  0.2641 -0.7031
 6897SOL    HW232154   2.322   3.713   3.333 -0.9996 -0.2798  0.7287
 6898SOL     OW32155   0.152   3.983   6.248 -0.3597 -0.4541  0.2492
 6898SOL    HW132156   0.174   3.925   6.321  2.2267  1.6170  1.1024
 6898SOL    HW232157   0.079   3.932   6.213 -0.7448 -0.0802  0.5194
 6899SOL     OW32158   2.700   1.626  12.230 -0.1850  0.1729 -0.1395
 6899SOL    HW132159   2.632   1.623  12.162  0.3324  2.6294 -0.7844
 6899SOL    HW232160   2.688   1.713  12.269  0.5470 -0.2348  0.9862
 6900SOL     OW32161   1.159   3.579   3.055 -0.2108 -0.2518 -0.1550
 6900SOL    HW132162   1.154   3.500   3.109  1.1199 -0.2026  0.0243
 6900SOL    HW232163   1.090   3.566   2.990 -2.2270 -0.1601  1.9540
 6901SOL     OW32164   0.455   1.261   5.373 -0.0034  0.2376 -0.1050
 6901SOL    HW132165   0.467   1.348   5.410  1.7636 -0.3468  0.6529
 6901SOL    HW232166   0.468   1.267   5.278 -0.0118  0.8001 -0.0721
 6902SOL     OW32167   0.382   3.770   6.144  0.0411  0.0139 -0.2451
 6902SOL    HW132168   0.315   3.824   6.102 -2.0029  0.1126  3.0967
 6902SOL    HW232169   0.337   3.737   6.222  2.3236 -1.8055  0.3071
 6903SOL     OW32170   2.351   2.907  11.753 -0.1930  0.1480  0.2635
 6903SOL    HW132171   2.291   2.966  11.799 -1.2834  0.4365 -1.5294
 6903SOL    HW232172   2.386   2.972  11.693 -1.3803 -0.2951 -0.8948
 6904SOL     OW32173   0.480   4.158   3.466 -0.2511 -1.0250 -0.0049
 6904SOL    HW132174   0.552   4.177   3.405  0.9495  0.5705  1.9194
 6904SOL    HW232175   0.530   4.177   3.546 -0.8916 -0.1976  0.1948
 6905SOL     OW32176   1.482   4.546  15.198  0.1329  0.6972  0.3898
 6905SOL    HW132177   1.483   4.477  15.131  0.6942  1.6037 -0.5312
 6905SOL    HW232178   1.490   4.496  15.279  0.5608  0.1999  0.0414
 6906SOL     OW32179   0.511   3.758  11.364 -0.0805  0.4519 -0.1682
 6906SOL    HW132180   0.492   3.687  11.302 -3.5171  1.8593 -0.7056
 6906SOL    HW232181   0.584   3.713  11.406  0.3979  0.6760 -0.7458
 6907SOL     OW32182   3.345   3.998  13.643  0.2742  0.3152  0.1536
 6907SOL    HW132183   3.402   3.921  13.650  0.7957  0.5375 -1.7835
 6907SOL    HW232184   3.382   4.031  13.562  0.8999 -0.0893  0.2707
 6908SOL     OW32185   2.559   3.069   7.000 -0.1101 -0.2781 -0.1833
 6908SOL    HW132186   2.509   3.114   7.069 -0.7409 -0.1103 -0.7496
 6908SOL    HW232187   2.523   3.112   6.922  0.3991  1.2547  0.4142
 6909SOL     OW32188   3.352   4.656   2.454 -0.5451 -0.3577 -0.4060
 6909SOL    HW132189   3.276   4.599   2.442  0.8134 -2.4014  0.7908
 6909SOL    HW232190   3.317   4.690   2.537 -0.5059 -1.5718  0.1086
 6910SOL     OW32191   0.865   3.092   7.483 -0.4675  0.1335 -0.5131
 6910SOL    HW132192   0.847   3.000   7.498 -0.6114  0.1620 -0.5078
 6910SOL    HW232193   0.897   3.122   7.568 -0.5055  1.1212 -0.8459
 6911SOL     OW32194   3.740   2.336   7.507  0.0405  0.1618 -0.7664
 6911SOL    HW132195   3.669   2.400   7.513 -0.6658 -0.7629  0.6565
 6911SOL    HW232196   3.801   2.408   7.490  1.1330 -0.7317 -0.5988
 6912SOL     OW32197   2.671   1.584  12.956 -0.2766 -0.6694  0.2819
 6912SOL    HW132198   2.624   1.575  12.872 -0.7942 -0.9858  0.6028
 6912SOL    HW232199   2.614   1.642  13.006 -0.8401 -0.7112 -0.3117
 6913SOL     OW32200   3.762   2.472  16.475  0.1779 -0.1542  0.7173
 6913SOL    HW132201   3.714   2.429  16.546  1.5179 -2.8134  0.0053
 6913SOL    HW232202   3.834   2.415  16.448  0.1278 -0.2636  0.8151
 6914SOL     OW32203   3.609   0.963   3.813  0.0566  0.0174  0.5206
 6914SOL    HW132204   3.516   0.946   3.825 -0.6050  2.6493 -0.7937
 6914SOL    HW232205   3.643   0.884   3.772  0.9797  0.7699 -0.1816
 6915SOL     OW32206   1.989   2.520  17.493  0.3698 -0.2773 -0.4848
 6915SOL    HW132207   1.999   2.603  17.539 -2.8962 -1.7112  2.7992
 6915SOL    HW232208   1.930   2.540  17.420 -0.6587 -2.4872 -0.2491
 6916SOL     OW32209   0.673   0.860   6.783  0.2590  0.1234  0.2529
 6916SOL    HW132210   0.764   0.839   6.761  0.5714  2.0806 -0.3628
 6916SOL    HW232211   0.622   0.803   6.726 -1.1084  0.3710  1.2410
 6917SOL     OW32212   3.100   1.363   4.379  1.3720  0.3168  0.0258
 6917SOL    HW132213   3.129   1.366   4.471  1.6203 -1.0703 -0.0067
 6917SOL    HW232214   3.005   1.353   4.386  1.1145  3.6583  0.9850
 6918SOL     OW32215   3.145   2.151   2.780 -0.3367  0.6912 -0.0737
 6918SOL    HW132216   3.185   2.073   2.740  1.4200  1.1711  0.7270
 6918SOL    HW232217   3.221   2.208   2.773  0.6972 -0.9260 -2.3822
 6919SOL     OW32218   3.316   3.357  14.366 -0.3046 -0.2313 -1.0149
 6919SOL    HW132219   3.304   3.394  14.453  0.1490 -0.8298 -0.6888
 6919SOL    HW232220   3.339   3.268  14.395 -0.8083 -0.1256 -0.2985
 6920SOL     OW32221   2.473   4.235   2.786 -0.0262  0.3410 -0.1631
 6920SOL    HW132222   2.473   4.163   2.722 -1.1510  0.0638  0.1526
 6920SOL    HW232223   2.477   4.311   2.728  1.0208  2.0483  2.1667
 6921SOL     OW32224   3.704   1.594   4.693 -0.3187  0.5131  0.6721
 6921SOL    HW132225   3.698   1.591   4.789 -0.1257  1.1911  0.7078
 6921SOL    HW232226   3.682   1.686   4.678 -2.3603  0.2031  1.7271
 6922SOL     OW32227   4.612   0.757   3.464 -0.2160 -0.3442 -0.0733
 6922SOL    HW132228   4.553   0.729   3.394 -1.1895  2.4119 -0.3652
 6922SOL    HW232229   4.561   0.819   3.516 -1.0201 -1.3441  0.3289
 6923SOL     OW32230   4.448   2.522   2.814  0.1378  1.0377  0.3870
 6923SOL    HW132231   4.424   2.613   2.797  1.1317  1.3770  0.8505
 6923SOL    HW232232   4.443   2.499   2.721  0.1387 -0.2153  0.6997
 6924SOL     OW32233   0.391   4.339   4.976  0.1109  0.1946 -0.1490
 6924SOL    HW132234   0.406   4.432   4.993  0.6768 -0.1364  1.2197
 6924SOL    HW232235   0.313   4.339   4.921  0.0212 -3.6260 -0.0436
 6925SOL     OW32236   0.221   4.628   9.446 -0.2369 -0.4143  0.5348
 6925SOL    HW132237   0.263   4.572   9.512  1.2107 -0.1638 -0.1684
 6925SOL    HW232238   0.269   4.599   9.369 -0.2824  1.7161 -0.2739
 6926SOL     OW32239   3.069   1.419   6.877  0.1511  0.3376 -0.1524
 6926SOL    HW132240   3.015   1.373   6.941 -1.6112  1.9161 -0.4793
 6926SOL    HW232241   3.133   1.453   6.939 -0.5978 -0.3214  0.9770
 6927SOL     OW32242   0.219   4.338   2.173 -0.1482 -0.5194 -0.2997
 6927SOL    HW132243   0.286   4.393   2.132  1.2869 -1.8935  0.2284
 6927SOL    HW232244   0.269   4.258   2.183  0.0041 -0.1906  1.7126
 6928SOL     OW32245   2.474   4.644   0.386 -0.2266  0.5283 -0.1786
 6928SOL    HW132246   2.420   4.717   0.416  2.0122  1.1443  2.2835
 6928SOL    HW232247   2.403   4.600   0.339 -0.8085  1.2527  0.0337
 6929SOL     OW32248   4.366   3.140   3.808 -0.9320  0.0046  0.1566
 6929SOL    HW132249   4.313   3.192   3.868  0.1368 -0.7945  1.8004
 6929SOL    HW232250   4.298   3.084   3.769 -2.1993  1.6904 -0.0464
 6930SOL     OW32251   0.021   1.613   0.713 -0.3712  0.1847  0.0222
 6930SOL    HW132252   0.087   1.545   0.699  0.2642  0.5632  1.1973
 6930SOL    HW232253   0.001   1.595   0.805  0.6052 -0.1031  0.1824
 6931SOL     OW32254   1.692   3.007   2.837 -0.2735 -0.5691  0.5724
 6931SOL    HW132255   1.737   2.929   2.869  0.1153 -1.0721 -1.2231
 6931SOL    HW232256   1.705   3.066   2.911  0.5347 -1.9628  1.5353
 6932SOL     OW32257   0.375   4.108   2.438 -0.4073 -0.3380 -0.1306
 6932SOL    HW132258   0.427   4.155   2.503  1.7471  0.4797 -2.4122
 6932SOL    HW232259   0.420   4.133   2.357 -1.7159 -1.2958 -1.1541
 6933SOL     OW32260   2.553   2.994  10.350 -0.2058 -0.3157 -0.1814
 6933SOL    HW132261   2.618   2.968  10.285  0.5703  0.5190  0.2716
 6933SOL    HW232262   2.555   2.926  10.418  1.0825  0.4087  0.4842
 6934SOL     OW32263   1.235   4.336   5.200 -0.0228  0.1503 -0.1460
 6934SOL    HW132264   1.291   4.302   5.271 -1.5512  1.7232  1.8001
 6934SOL    HW232265   1.233   4.427   5.229 -0.1528  0.4766 -1.1992
 6935SOL     OW32266   2.240   4.323   8.613  0.4315  0.2275  0.6523
 6935SOL    HW132267   2.155   4.351   8.580  0.8905  1.0783  0.2058
 6935SOL    HW232268   2.285   4.407   8.606 -0.3878  0.5331 -0.8936
 6936SOL     OW32269   3.109   1.426   8.387  0.1560 -0.2613 -0.0040
 6936SOL    HW132270   3.055   1.501   8.413  0.2218 -0.6484  1.2795
 6936SOL    HW232271   3.043   1.359   8.368 -1.6604  1.2952  0.8782
 6937SOL     OW32272   2.519   1.220   6.297 -0.1608  0.1249  0.4409
 6937SOL    HW132273   2.481   1.137   6.326 -1.2222  0.6367  0.5200
 6937SOL    HW232274   2.594   1.195   6.244 -0.1293  0.8702  0.1427
 6938SOL     OW32275   0.198   0.275   8.651 -0.2760 -0.2912  0.1069
 6938SOL    HW132276   0.215   0.335   8.579  0.7175  0.4247  0.9513
 6938SOL    HW232277   0.284   0.280   8.693  0.5473  1.5075 -1.8275
 6939SOL     OW32278   3.867   1.765   2.007  0.2316  0.1014  0.4630
 6939SOL    HW132279   3.902   1.824   1.940 -0.2719  0.3919  0.4538
 6939SOL    HW232280   3.850   1.691   1.949 -0.5096 -0.9170  1.9751
 6940SOL     OW32281   3.218   0.114  11.582  0.1843 -0.0112  0.5004
 6940SOL    HW132282   3.247   0.023  11.580 -0.8582 -0.2706 -2.7956
 6940SOL    HW232283   3.225   0.142  11.490  1.4819  0.1698  0.6614
 6941SOL     OW32284   3.833   1.168  11.566  0.4543  0.3503  0.7091
 6941SOL    HW132285   3.907   1.189  11.623 -1.0420  0.7329  2.5155
 6941SOL    HW232286   3.767   1.227  11.605 -2.0103 -0.6579 -1.9394
 6942SOL     OW32287   2.033   0.208   6.718 -0.4116  0.6568 -0.0868
 6942SOL    HW132288   2.068   0.221   6.630  1.9081 -1.5155  0.5224
 6942SOL    HW232289   2.114   0.207   6.768 -1.0620 -0.9221  0.9129
 6943SOL     OW32290   1.467   3.110  15.548  0.4811 -0.1769 -0.4442
 6943SOL    HW132291   1.508   3.153  15.473  1.8654 -3.0942 -1.3868
 6943SOL    HW232292   1.375   3.110  15.523 -0.5718 -0.6009  3.5089
 6944SOL     OW32293   2.389   0.321   9.208  0.4280  0.3375 -0.0345
 6944SOL    HW132294   2.338   0.241   9.214 -0.6147  0.9905 -0.2220
 6944SOL    HW232295   2.481   0.301   9.191  0.2643 -0.1430 -0.3450
 6945SOL     OW32296   2.962   1.992   7.599  0.0584  0.1034 -0.3224
 6945SOL    HW132297   2.967   2.064   7.661 -1.8132  0.3958 -0.4977
 6945SOL    HW232298   2.867   1.980   7.605  0.4630 -1.8657  2.1416
 6946SOL     OW32299   3.455   3.076   3.016  0.0356 -0.4377  0.8373
 6946SOL    HW132300   3.414   3.154   2.979  1.7440  0.3566  0.6499
 6946SOL    HW232301   3.391   3.057   3.085 -0.4659 -0.5159  0.3487
 6947SOL     OW32302   1.585   1.764   2.621  0.5946 -0.9990 -0.7811
 6947SOL    HW132303   1.522   1.710   2.573  0.7858 -1.2822 -0.7134
 6947SOL    HW232304   1.571   1.735   2.711 -1.4101  0.7261 -0.5222
 6948SOL     OW32305   1.049   2.172   2.975 -0.2415  0.1104 -0.4052
 6948SOL    HW132306   1.059   2.242   2.910 -0.9733  1.0843  0.5221
 6948SOL    HW232307   1.138   2.150   3.002 -0.6458 -0.8734  0.0998
 6949SOL     OW32308   3.458   0.066  15.533 -0.3234 -0.0551 -0.4249
 6949SOL    HW132309   3.374   0.106  15.512  0.5288  1.5842 -0.7944
 6949SOL    HW232310   3.500   0.142  15.575  0.1916 -1.2421  1.1987
 6950SOL     OW32311   3.502   4.470   8.065  0.2581 -0.0003  0.5253
 6950SOL    HW132312   3.553   4.531   8.013 -1.3988  0.6508 -0.3340
 6950SOL    HW232313   3.442   4.532   8.106 -3.2476 -1.6755 -2.0891
 6951SOL     OW32314   0.078   2.476   7.420 -0.4098  0.6207  0.1717
 6951SOL    HW132315   0.116   2.479   7.508 -0.9546 -0.5831  0.4407
 6951SOL    HW232316   0.071   2.571   7.410  2.4991  1.0778  2.2940
 6952SOL     OW32317   1.117   2.905   6.581  0.5506  0.4632  0.4004
 6952SOL    HW132318   1.164   2.825   6.560  1.3646  1.3381 -1.0797
 6952SOL    HW232319   1.103   2.891   6.675 -0.0015 -0.1691  0.2313
 6953SOL     OW32320   0.787   0.841   4.107 -0.1718 -0.4568  0.0639
 6953SOL    HW132321   0.732   0.919   4.106 -1.2705 -1.2746 -2.9940
 6953SOL    HW232322   0.730   0.771   4.138 -0.4048  0.2826  1.2976
 6954SOL     OW32323   3.598   3.328   8.289 -0.7779  0.8175  0.1542
 6954SOL    HW132324   3.620   3.296   8.377 -2.0616  0.9047  0.5004
 6954SOL    HW232325   3.611   3.422   8.305  0.8191  0.8966 -1.6183
 6955SOL     OW32326   3.051   2.153   2.229 -0.0051 -0.8323 -0.5956
 6955SOL    HW132327   2.983   2.184   2.169  0.3427  0.4352 -0.3354
 6955SOL    HW232328   3.134   2.157   2.182 -0.0799  3.3133 -0.3948
 6956SOL     OW32329   3.902   1.620   6.977 -0.6216  0.2300 -0.4696
 6956SOL    HW132330   3.940   1.548   7.026 -1.9186  1.0440  1.7501
 6956SOL    HW232331   3.929   1.597   6.888 -2.1072  0.7891 -1.0763
 6957SOL     OW32332   4.072   4.188  14.636 -0.4419 -1.0360  0.1388
 6957SOL    HW132333   3.985   4.178  14.676 -0.9479  0.9428 -0.4720
 6957SOL    HW232334   4.052   4.264  14.582  0.0764 -0.2081  1.1032
 6958SOL     OW32335   1.015   3.861   2.955  0.1520 -0.4690 -0.0183
 6958SOL    HW132336   1.098   3.885   2.913 -0.2057  2.0327  0.7407
 6958SOL    HW232337   0.949   3.898   2.897  1.3693  0.5545 -0.7517
 6959SOL     OW32338   1.161   3.968   5.804  0.0692 -0.2571  0.0538
 6959SOL    HW132339   1.160   4.063   5.790 -1.9501 -0.6080 -2.2963
 6959SOL    HW232340   1.154   3.934   5.715  1.2579  1.3390 -0.6592
 6960SOL     OW32341   2.790   2.897  15.981 -0.3142  0.7492  0.0082
 6960SOL    HW132342   2.711   2.950  15.969 -0.7957 -0.0225 -0.2514
 6960SOL    HW232343   2.852   2.943  15.925  1.3471 -0.6146  0.7551
 6961SOL     OW32344   4.201   3.527   4.537 -0.0205  0.2085 -0.2819
 6961SOL    HW132345   4.284   3.486   4.561  0.3808  0.8262 -0.5999
 6961SOL    HW232346   4.231   3.551   4.449 -0.0924 -1.6750 -0.8216
 6962SOL     OW32347   3.700   3.933   7.585  0.2500  0.1417 -0.3650
 6962SOL    HW132348   3.634   3.998   7.611 -0.5637 -0.8090 -0.0328
 6962SOL    HW232349   3.763   3.947   7.656 -0.8127 -4.0828  1.4678
 6963SOL     OW32350   3.955   1.028   5.741  0.2942  0.0670 -0.1654
 6963SOL    HW132351   3.965   0.956   5.679  0.6530 -1.0491  1.1692
 6963SOL    HW232352   3.954   0.972   5.819 -1.8004 -1.7741 -1.5194
 6964SOL     OW32353   1.439   1.193   4.632 -0.5764  0.6529  0.0339
 6964SOL    HW132354   1.526   1.224   4.607 -0.5932  0.6220 -0.0614
 6964SOL    HW232355   1.410   1.147   4.553  2.5019  1.9926 -1.8849
 6965SOL     OW32356   3.028   2.793   2.360 -0.3413 -0.4289 -0.2334
 6965SOL    HW132357   3.015   2.826   2.449  3.5728  0.4784  0.0151
 6965SOL    HW232358   3.007   2.701   2.376 -1.4346  0.1143  1.4129
 6966SOL     OW32359   2.809   1.262   3.282  0.0278  0.0288 -0.0502
 6966SOL    HW132360   2.742   1.279   3.216  0.1517 -0.2336 -0.2443
 6966SOL    HW232361   2.865   1.192   3.247  1.2187  0.4006  1.1286
 6967SOL     OW32362   0.637   3.717   7.324 -0.2320 -0.4694  0.0646
 6967SOL    HW132363   0.666   3.693   7.412  0.7552 -1.8703 -0.6361
 6967SOL    HW232364   0.712   3.760   7.282 -0.1894  0.7785  1.4420
 6968SOL     OW32365   2.719   1.880   7.710  0.5876  0.0759  0.1967
 6968SOL    HW132366   2.629   1.868   7.741  0.3823 -1.0785 -0.8178
 6968SOL    HW232367   2.770   1.812   7.754  1.2291 -0.0759 -0.7857
 6969SOL     OW32368   2.297   4.585   2.621 -0.4065  0.0276 -0.1261
 6969SOL    HW132369   2.201   4.574   2.622 -0.4480  0.3958  0.1463
 6969SOL    HW232370   2.298   4.640   2.542 -1.4347  1.6340  0.9628
 6970SOL     OW32371   1.902   0.201   4.752 -0.1569  0.3549  0.1703
 6970SOL    HW132372   1.880   0.233   4.664 -2.7682  3.1015  1.7855
 6970SOL    HW232373   1.819   0.189   4.798  0.0929 -0.1948  0.4749
 6971SOL     OW32374   3.025   0.830   2.884  0.0655  0.4039 -0.3190
 6971SOL    HW132375   3.063   0.897   2.827 -2.8123  1.8904 -0.4910
 6971SOL    HW232376   2.961   0.876   2.937 -0.5255 -0.8049  0.0177
 6972SOL     OW32377   0.865   2.513   9.899  0.0268  0.1898 -0.7309
 6972SOL    HW132378   0.866   2.427   9.858 -0.1724  0.3580 -1.0936
 6972SOL    HW232379   0.869   2.571   9.823  0.8976 -1.1099 -1.6821
 6973SOL     OW32380   1.936   2.546   2.020 -0.1598  0.0151 -0.6859
 6973SOL    HW132381   2.015   2.598   2.038 -0.4683  0.3536 -0.3279
 6973SOL    HW232382   1.886   2.609   1.968 -1.0369 -0.3954 -0.3409
 6974SOL     OW32383   1.559   1.458   7.978  0.1607 -0.5663  0.1726
 6974SOL    HW132384   1.600   1.480   8.062  2.6095 -1.0293 -0.9195
 6974SOL    HW232385   1.468   1.442   8.005  0.1352 -0.3307  0.2300
 6975SOL     OW32386   1.765   0.876   3.736  0.4609  0.3034 -0.5154
 6975SOL    HW132387   1.842   0.823   3.716  0.3944 -0.2480  0.7171
 6975SOL    HW232388   1.752   0.936   3.662 -2.1497  0.9033  0.4278
 6976SOL     OW32389   3.023   4.359   3.791  0.3223 -0.3693  0.2321
 6976SOL    HW132390   3.054   4.283   3.742 -0.7548 -0.9247  0.3962
 6976SOL    HW232391   3.102   4.382   3.840 -0.5817  0.2128  1.4407
 6977SOL     OW32392   3.439   0.770  11.798  0.3517  0.6019 -0.2114
 6977SOL    HW132393   3.503   0.802  11.861  1.5631  1.2218 -1.7798
 6977SOL    HW232394   3.360   0.791  11.848  0.2759  1.8150 -0.8488
 6978SOL     OW32395   3.161   1.698   8.024  0.1715  0.0002 -0.0357
 6978SOL    HW132396   3.144   1.719   7.932 -2.9054 -2.1063  0.0400
 6978SOL    HW232397   3.140   1.606   8.036  0.1893 -0.2501 -2.0157
 6979SOL     OW32398   3.375   0.210  13.350  0.5223  0.4394 -0.1413
 6979SOL    HW132399   3.286   0.241  13.332 -0.2129 -2.1859 -0.9876
 6979SOL    HW232400   3.359   0.185  13.441 -0.3682  1.7614  0.0713
 6980SOL     OW32401   4.352   3.519   3.260 -0.1869  0.0874 -0.1525
 6980SOL    HW132402   4.335   3.610   3.235 -3.4806 -1.2880 -2.8290
 6980SOL    HW232403   4.333   3.532   3.353 -0.1066 -1.7999  0.1313
 6981SOL     OW32404   3.473   2.237   8.519 -0.4275  0.3050  0.0073
 6981SOL    HW132405   3.516   2.210   8.600 -1.3655  0.3903  0.5360
 6981SOL    HW232406   3.416   2.161   8.509 -1.5581  1.1891 -0.2671
 6982SOL     OW32407   0.572   3.758  16.309 -0.5844 -0.2361  0.3158
 6982SOL    HW132408   0.495   3.740  16.362 -2.9062 -0.8340 -3.2865
 6982SOL    HW232409   0.568   3.676  16.260 -3.9430  0.4179 -0.4535
 6983SOL     OW32410   4.473   1.202  14.236  0.4031 -0.2294 -0.0317
 6983SOL    HW132411   4.513   1.266  14.296 -1.4059 -0.0183  0.9395
 6983SOL    HW232412   4.532   1.202  14.161  0.2136 -1.1849 -0.1814
 6984SOL     OW32413   3.618   2.032  15.760 -0.2515 -0.2641  0.0385
 6984SOL    HW132414   3.674   1.980  15.702 -0.3394  1.2899 -1.4367
 6984SOL    HW232415   3.531   2.016  15.723 -0.6706  2.6725 -0.2587
 6985SOL     OW32416   3.959   3.899   6.571 -0.9001  0.0949 -0.0981
 6985SOL    HW132417   3.899   3.911   6.498 -1.3786  0.6891  0.3917
 6985SOL    HW232418   3.936   3.977   6.621  1.2941  0.4507  0.3679
 6986SOL     OW32419   2.632   4.221   6.324 -0.1854  0.3008  0.0736
 6986SOL    HW132420   2.599   4.134   6.347 -1.5498  0.8748  0.2762
 6986SOL    HW232421   2.574   4.253   6.255 -2.1958  0.1831  1.7097
 6987SOL     OW32422   1.693   1.901   4.082 -0.5644  0.5577 -0.2154
 6987SOL    HW132423   1.636   1.922   4.156 -0.5124 -0.2382  0.0454
 6987SOL    HW232424   1.633   1.884   4.009  3.1087 -2.1589 -2.5873
 6988SOL     OW32425   4.117   2.820  15.379  0.0855 -0.2008  0.7136
 6988SOL    HW132426   4.070   2.742  15.349  2.4313 -1.6955  0.8731
 6988SOL    HW232427   4.086   2.883  15.314  2.1413 -0.4255 -0.4869
 6989SOL     OW32428   1.268   1.157  15.286  0.1411  0.5446 -0.1668
 6989SOL    HW132429   1.250   1.093  15.217  0.2425 -0.0165  0.3184
 6989SOL    HW232430   1.193   1.215  15.281 -0.2043  0.1393  0.3435
 6990SOL     OW32431   4.188   1.714   4.824  0.2970 -0.0398  0.2067
 6990SOL    HW132432   4.263   1.711   4.765  1.3338 -0.4937  1.5475
 6990SOL    HW232433   4.234   1.721   4.907  2.1000  1.1877 -0.9022
 6991SOL     OW32434   2.014   1.667   2.821  0.0910  0.8218 -0.7643
 6991SOL    HW132435   2.013   1.575   2.795  0.8346  0.4780  0.4020
 6991SOL    HW232436   1.961   1.706   2.752 -0.9862  1.1655  0.2509
 6992SOL     OW32437   2.168   4.114  10.631  0.5545 -0.5337  0.2167
 6992SOL    HW132438   2.242   4.054  10.630  0.0344 -1.1721  0.6105
 6992SOL    HW232439   2.220   4.189  10.603 -1.6234  0.5711 -0.8597
 6993SOL     OW32440   1.785   3.919   5.113  0.2994  0.3481  0.3090
 6993SOL    HW132441   1.764   3.859   5.185 -0.6318 -2.3726 -2.2216
 6993SOL    HW232442   1.813   3.994   5.165 -3.8743  1.9801  0.2375
 6994SOL     OW32443   1.959   0.731   6.590  0.4810  1.5122  0.2362
 6994SOL    HW132444   1.922   0.723   6.678 -0.0429 -2.1663 -0.3276
 6994SOL    HW232445   1.886   0.769   6.541 -0.2687 -0.5586 -0.2856
 6995SOL     OW32446   2.143   4.127   2.072 -0.0854 -0.0675  0.1836
 6995SOL    HW132447   2.224   4.104   2.028 -0.2720 -0.0427 -0.1745
 6995SOL    HW232448   2.158   4.127   2.167 -1.5774 -0.4369  0.4192
 6996SOL     OW32449   1.211   4.601   7.005  0.4083  0.3257 -0.5863
 6996SOL    HW132450   1.151   4.638   6.940  0.0264  1.1131  0.2283
 6996SOL    HW232451   1.206   4.670   7.071  0.5099 -0.8797  0.6824
 6997SOL     OW32452   4.419   1.048   4.196  0.1412  0.4385  0.2986
 6997SOL    HW132453   4.511   1.072   4.187 -0.0972  1.4391  0.5266
 6997SOL    HW232454   4.387   1.123   4.246  0.6171  1.1774 -0.4988
 6998SOL     OW32455   0.910   2.424   3.054  0.1147  0.6280  0.2886
 6998SOL    HW132456   0.913   2.328   3.060  0.6433  0.5240 -1.7308
 6998SOL    HW232457   0.955   2.454   3.133  0.0944  0.1515  0.4805
 6999SOL     OW32458   0.669   3.426   3.818  0.9448  0.3882  0.7356
 6999SOL    HW132459   0.603   3.403   3.753  0.2256 -1.0238  1.9770
 6999SOL    HW232460   0.624   3.429   3.903  0.5697 -0.3710  0.5648
 7000SOL     OW32461   1.203   1.866   2.716 -0.1559 -0.4314 -0.2889
 7000SOL    HW132462   1.286   1.911   2.696 -1.9096  2.3306 -1.3880
 7000SOL    HW232463   1.232   1.789   2.764 -1.6285 -0.9779 -0.2810
 7001SOL     OW32464   1.206   3.470   1.332 -0.1530 -0.1315 -0.2580
 7001SOL    HW132465   1.113   3.464   1.310  0.3978  0.8068 -2.9421
 7001SOL    HW232466   1.212   3.491   1.425 -0.3357 -2.1660  0.2197
 7002SOL     OW32467   1.709   4.547   5.713 -0.5729 -0.1105 -0.9538
 7002SOL    HW132468   1.636   4.607   5.729 -1.5659 -1.5657 -0.0071
 7002SOL    HW232469   1.780   4.575   5.770 -1.7442 -1.6317  1.2572
 7003SOL     OW32470   3.385   1.272   3.435  0.4215 -0.1027 -0.1117
 7003SOL    HW132471   3.443   1.226   3.374  1.6453  1.2369  0.0273
 7003SOL    HW232472   3.447   1.331   3.478  1.1170 -2.4313  2.0127
 7004SOL     OW32473   3.852   0.601   4.426 -0.4121 -0.1893  0.1123
 7004SOL    HW132474   3.869   0.544   4.351  0.9799 -1.3022  1.2615
 7004SOL    HW232475   3.939   0.606   4.466 -1.2275 -1.7248  2.0805
 7005SOL     OW32476   4.080   3.689   1.371 -0.1073 -0.4431 -0.2448
 7005SOL    HW132477   4.136   3.767   1.375  0.4412 -0.7548 -1.5772
 7005SOL    HW232478   4.149   3.631   1.404 -0.6374 -0.7227  0.3787
 7006SOL     OW32479   3.060   1.214   5.865  0.3074  0.1356  0.1998
 7006SOL    HW132480   3.031   1.221   5.956  1.2290  2.1699  0.3326
 7006SOL    HW232481   2.988   1.157   5.839  0.9495 -0.1613 -0.9086
 7007SOL     OW32482   4.312   1.215   7.656 -0.5037  0.3901 -0.4100
 7007SOL    HW132483   4.252   1.141   7.664  3.0252 -2.0830  3.1220
 7007SOL    HW232484   4.260   1.284   7.697  1.5337  0.2050  2.5018
 7008SOL     OW32485   2.839   1.961   1.998 -0.0123  0.0191  0.2997
 7008SOL    HW132486   2.893   2.038   2.015 -0.4193  0.2942  0.3424
 7008SOL    HW232487   2.787   1.948   2.077 -0.4521 -0.7200 -0.1145
 7009SOL     OW32488   2.381   4.613   4.531 -0.0721 -0.0620 -0.1955
 7009SOL    HW132489   2.400   4.707   4.530 -1.5875  0.2767  1.7520
 7009SOL    HW232490   2.339   4.596   4.447 -0.0734  2.2670 -0.6660
 7010SOL     OW32491   1.459   3.081   5.933 -1.1095  0.2332  0.5503
 7010SOL    HW132492   1.523   3.129   5.880  0.0340 -0.6756  1.1026
 7010SOL    HW232493   1.482   3.113   6.020  1.3645 -0.8630  0.2878
 7011SOL     OW32494   4.207   1.751   5.642 -0.1496 -0.0139  0.2025
 7011SOL    HW132495   4.188   1.797   5.724 -1.8976 -3.9526  1.9805
 7011SOL    HW232496   4.191   1.825   5.582 -1.8951 -0.6925 -0.1560
 7012SOL     OW32497   0.919   4.636  12.323 -0.0420 -0.0348  0.2449
 7012SOL    HW132498   0.908   4.541  12.322  1.9341 -0.2613  0.0250
 7012SOL    HW232499   0.831   4.669  12.304 -0.1828 -2.5381 -3.4039
 7013SOL     OW32500   3.584   4.110   2.136 -0.0569 -0.2774 -0.8949
 7013SOL    HW132501   3.546   4.197   2.144  1.5144 -0.0783  4.6116
 7013SOL    HW232502   3.675   4.128   2.161  0.1143 -0.0738 -1.6713
 7014SOL     OW32503   1.807   4.239  10.784 -0.6649 -0.2553 -0.3061
 7014SOL    HW132504   1.740   4.276  10.841 -0.4529 -1.7058  0.8809
 7014SOL    HW232505   1.866   4.314  10.784  1.6226 -2.0412 -1.4641
 7015SOL     OW32506   2.716   0.613  16.640 -0.6472  0.4427 -0.3829
 7015SOL    HW132507   2.702   0.541  16.579  2.5839  0.5251 -1.2023
 7015SOL    HW232508   2.802   0.591  16.674 -1.0226  1.0766  0.9815
 7016SOL     OW32509   3.100   4.704   2.856  0.2632  0.2012  0.2114
 7016SOL    HW132510   3.066   4.624   2.894  1.5179 -0.2256  0.4305
 7016SOL    HW232511   3.023   0.037   2.865 -0.9571 -1.5129  0.4092
 7017SOL     OW32512   1.930   1.077   5.779  0.1685 -0.2228 -0.0025
 7017SOL    HW132513   1.970   1.150   5.732  0.2961 -1.7054 -2.1525
 7017SOL    HW232514   1.887   1.124   5.851 -1.5546 -0.3209 -0.9642
 7018SOL     OW32515   2.680   0.708   5.316 -1.3078 -0.4005  0.2888
 7018SOL    HW132516   2.694   0.624   5.361  0.4790 -0.3359 -0.1425
 7018SOL    HW232517   2.710   0.680   5.230 -1.1131 -1.4355  0.6913
 7019SOL     OW32518   0.996   3.460   7.738 -0.1661  1.1579  0.5708
 7019SOL    HW132519   0.926   3.514   7.775 -0.8981  0.7782 -0.2844
 7019SOL    HW232520   1.062   3.464   7.808 -0.3266 -1.3615  0.8769
 7020SOL     OW32521   4.412   4.598  12.799  0.3677  0.0383  0.2664
 7020SOL    HW132522   4.463   4.676  12.778  1.9858 -0.6990  1.4150
 7020SOL    HW232523   4.372   4.569  12.718 -1.9691  1.5236  0.8861
 7021SOL     OW32524   1.542   2.356  11.224  0.0283 -0.0865  0.4150
 7021SOL    HW132525   1.466   2.316  11.182  0.8094 -0.0258 -1.0365
 7021SOL    HW232526   1.558   2.292  11.294 -0.8966 -1.1204 -0.3217
 7022SOL     OW32527   3.117   1.937   5.771  0.3361 -0.1277 -0.0574
 7022SOL    HW132528   3.109   1.871   5.840  1.4106  0.1496  0.3390
 7022SOL    HW232529   3.028   1.974   5.769  0.7534  0.7345 -2.2474
 7023SOL     OW32530   4.049   0.908   4.550 -0.0817 -0.1894  0.1063
 7023SOL    HW132531   3.979   0.952   4.501 -0.4410  0.3194  1.0799
 7023SOL    HW232532   4.020   0.904   4.641 -1.3172  0.0574 -0.2714
 7024SOL     OW32533   0.637   1.564   1.947  0.2243  0.5619 -0.2859
 7024SOL    HW132534   0.640   1.471   1.922 -1.6244  0.0056  1.6106
 7024SOL    HW232535   0.542   1.567   1.945  0.1680 -0.3248  1.1290
 7025SOL     OW32536   1.692   2.657   5.348  0.0528 -0.1802 -0.1336
 7025SOL    HW132537   1.787   2.665   5.356 -0.0789 -0.3228  1.5468
 7025SOL    HW232538   1.684   2.565   5.324  0.2132  0.0681 -1.1140
 7026SOL     OW32539   1.887   4.427   7.071  0.2090 -0.4412  0.5275
 7026SOL    HW132540   1.802   4.468   7.088  0.5266  0.6722 -0.5642
 7026SOL    HW232541   1.950   4.498   7.085 -1.6795  1.4852 -0.8600
 7027SOL     OW32542   2.980   2.742   4.947 -0.5914 -0.4432  0.5408
 7027SOL    HW132543   2.975   2.767   4.854  2.9626  0.9223  0.7186
 7027SOL    HW232544   2.894   2.702   4.955 -0.7850 -0.5775 -2.2129
 7028SOL     OW32545   4.500   1.309   9.826 -0.4487 -0.4561  0.4436
 7028SOL    HW132546   4.448   1.249   9.880  0.1627 -0.0842  1.4288
 7028SOL    HW232547   4.570   1.335   9.885  0.7534  0.7407 -1.4907
 7029SOL     OW32548   4.191   0.988   7.659 -0.3303  0.5907 -0.1465
 7029SOL    HW132549   4.102   0.954   7.652 -0.2560  0.6303 -1.2606
 7029SOL    HW232550   4.232   0.906   7.687  1.0707  1.1998 -0.4249
 7030SOL     OW32551   0.530   0.328   3.362  0.2009 -0.2685 -0.2860
 7030SOL    HW132552   0.587   0.386   3.311  1.3145 -2.9272 -2.0658
 7030SOL    HW232553   0.585   0.250   3.372  1.4577  0.3251 -2.5293
 7031SOL     OW32554   3.156   1.243   3.104  0.2463 -0.1703 -0.4120
 7031SOL    HW132555   3.067   1.218   3.078  0.2575  0.6949 -1.3005
 7031SOL    HW232556   3.213   1.167   3.107  1.8133  0.9717 -1.1035
 7032SOL     OW32557   2.602   2.610  17.541 -0.3398 -0.3100 -0.1468
 7032SOL    HW132558   2.556   2.583  17.461 -2.7703 -1.4293  1.6326
 7032SOL    HW232559   2.661   2.535  17.552  0.6595  1.1272  4.0569
 7033SOL     OW32560   3.145   4.614  14.144  0.3143  0.6860 -0.0516
 7033SOL    HW132561   3.078   4.568  14.094  1.6286 -1.5296  0.2236
 7033SOL    HW232562   3.220   4.607  14.084 -2.9293 -1.1249 -3.9251
 7034SOL     OW32563   4.037   4.275   4.255 -0.0359 -0.3797 -0.3410
 7034SOL    HW132564   4.006   4.352   4.207 -1.3865  1.2333  3.1116
 7034SOL    HW232565   4.108   4.317   4.303 -0.6428 -0.6629  0.8016
 7035SOL     OW32566   2.370   0.053   0.774 -0.1404  1.0219  0.3023
 7035SOL    HW132567   2.277   0.053   0.751  0.0137  1.6739 -0.2986
 7035SOL    HW232568   2.394   4.685   0.756 -0.8790  0.5803  1.5653
 7036SOL     OW32569   2.846   2.912  13.412 -0.0010  0.3682 -0.1173
 7036SOL    HW132570   2.752   2.930  13.419 -0.4320 -1.4256 -1.3351
 7036SOL    HW232571   2.872   2.934  13.502 -2.1415 -1.5388  0.9661
 7037SOL     OW32572   1.263   0.347  16.045 -0.5090  0.1798  0.2793
 7037SOL    HW132573   1.211   0.268  16.032  0.6181 -0.1786 -2.0146
 7037SOL    HW232574   1.259   0.392  15.961 -0.5247  0.9321  0.6822
 7038SOL     OW32575   2.967   1.397  16.572 -0.0905  0.1238  0.2825
 7038SOL    HW132576   2.993   1.309  16.600  1.1523  0.9723  1.8014
 7038SOL    HW232577   2.890   1.386  16.516  0.3987  2.1757 -0.7451
 7039SOL     OW32578   2.296   2.947  15.958  0.2867 -0.0274  0.3227
 7039SOL    HW132579   2.225   3.003  15.927  0.2092  0.3082  1.0999
 7039SOL    HW232580   2.247   2.865  15.960  2.3560 -1.1883  2.8342
 7040SOL     OW32581   4.317   1.549   7.004 -0.2331  0.5015 -0.4748
 7040SOL    HW132582   4.382   1.530   7.071 -0.1260 -0.9758 -0.9969
 7040SOL    HW232583   4.289   1.462   6.975  2.0893 -0.2976 -0.2775
 7041SOL     OW32584   0.180   4.338  10.687 -0.5716 -0.1650 -0.0338
 7041SOL    HW132585   0.096   4.378  10.666 -0.3387  0.9503  1.1722
 7041SOL    HW232586   0.238   4.414  10.681 -1.0979  0.2171 -0.3130
 7042SOL     OW32587   0.745   2.721  17.639  0.8161  0.0225  0.0058
 7042SOL    HW132588   0.744   2.733   0.039 -1.1117  0.0621 -0.0251
 7042SOL    HW232589   0.825   2.669  17.628  1.1526  0.8645 -1.5521
 7043SOL     OW32590   4.619   4.701   8.501  0.0064 -0.3129 -0.4804
 7043SOL    HW132591   4.635   4.685   8.594 -3.0605 -2.8875 -0.4076
 7043SOL    HW232592   4.710   4.702   8.472 -0.5084  2.9070 -1.8628
 7044SOL     OW32593   1.123   2.881   6.861  0.4703 -0.4694 -0.1096
 7044SOL    HW132594   1.194   2.872   6.925 -0.6671 -1.8558  0.9474
 7044SOL    HW232595   1.096   2.971   6.883 -1.8389 -1.1830  0.0158
 7045SOL     OW32596   3.589   0.190   2.062 -0.5780  0.4387 -0.2765
 7045SOL    HW132597   3.583   0.142   2.145 -0.6555  0.0868 -0.4847
 7045SOL    HW232598   3.608   0.276   2.099  0.3870  0.3798 -0.6492
 7046SOL     OW32599   2.833   3.623   6.668 -0.2260 -0.2402  0.0457
 7046SOL    HW132600   2.813   3.690   6.733 -2.1191 -0.6013 -0.1414
 7046SOL    HW232601   2.788   3.546   6.704 -2.1674  1.1053  0.5194
 7047SOL     OW32602   2.458   0.130   2.424  0.1356  0.6262 -0.0087
 7047SOL    HW132603   2.367   0.135   2.393  0.3362 -0.4888 -0.7706
 7047SOL    HW232604   2.481   0.055   2.369 -0.9659 -0.6580  1.2687
 7048SOL     OW32605   4.718   1.276  10.030  0.4662 -0.3124  0.2910
 7048SOL    HW132606   0.071   1.293   9.975  0.6991 -0.3108  0.6173
 7048SOL    HW232607   0.005   1.184  10.053 -0.8103 -0.8334 -1.2083
 7049SOL     OW32608   1.031   3.102   1.208 -0.9272  0.4826  0.1994
 7049SOL    HW132609   1.055   3.032   1.146 -0.4463 -0.6766  1.6950
 7049SOL    HW232610   0.935   3.095   1.213 -0.8849 -0.7771 -0.6059
 7050SOL     OW32611   1.012   1.844  13.140 -0.3522  0.4061 -0.0477
 7050SOL    HW132612   0.917   1.845  13.154 -0.4332  1.9610 -0.6810
 7050SOL    HW232613   1.031   1.750  13.136 -1.3591  0.0650  3.1560
 7051SOL     OW32614   4.581   4.540   7.718 -0.4491  0.0433 -0.2833
 7051SOL    HW132615   4.577   4.495   7.634  4.3279 -2.8028  0.9847
 7051SOL    HW232616   4.635   4.619   7.706  0.9598 -0.4613  2.5658
 7052SOL     OW32617   4.238   1.960   8.619 -0.0835  0.2603 -0.1325
 7052SOL    HW132618   4.160   1.907   8.639 -0.8404  0.5129 -2.3817
 7052SOL    HW232619   4.282   1.897   8.561  1.7521 -0.7753  2.3997
 7053SOL     OW32620   3.133   3.436   5.301  0.2251 -0.2940  0.5160
 7053SOL    HW132621   3.055   3.382   5.302  0.1170 -0.1037  1.5503
 7053SOL    HW232622   3.116   3.491   5.377 -0.1278  1.3792 -0.7495
 7054SOL     OW32623   3.119   4.443   8.403  0.0161  0.8072  0.6452
 7054SOL    HW132624   3.113   4.377   8.472 -0.7774 -1.5275 -1.6261
 7054SOL    HW232625   3.089   4.521   8.450  1.4636  1.9508 -0.3221
 7055SOL     OW32626   4.174   4.416   6.725 -0.4230  0.0013  0.1766
 7055SOL    HW132627   4.258   4.376   6.747 -0.9626 -0.9660  0.4772
 7055SOL    HW232628   4.200   4.509   6.727 -0.5763  0.0635 -0.5280
 7056SOL     OW32629   4.161   2.024   7.449 -0.3874 -0.0152  0.3089
 7056SOL    HW132630   4.226   2.092   7.467  0.5624 -1.0225  0.6844
 7056SOL    HW232631   4.106   2.039   7.525 -0.1714 -1.7287  0.8088
 7057SOL     OW32632   0.823   0.924   5.561 -0.4351 -0.0724 -0.2114
 7057SOL    HW132633   0.813   0.920   5.656 -0.7085  0.0080 -0.2359
 7057SOL    HW232634   0.845   0.836   5.533  0.3306 -0.4051  1.4830
 7058SOL     OW32635   0.506   2.472  10.035 -0.0059 -0.0981 -0.6125
 7058SOL    HW132636   0.494   2.399  10.097  1.5813  2.1731  2.3744
 7058SOL    HW232637   0.577   2.447   9.976  0.3636  0.3325 -0.3503
 7059SOL     OW32638   0.087   3.747   7.105  0.0892  0.4162 -0.6551
 7059SOL    HW132639   0.032   3.770   7.030  0.7856 -0.3297 -1.3889
 7059SOL    HW232640   0.058   3.810   7.171  1.5022 -0.0719  0.4311
 7060SOL     OW32641   0.887   4.656  13.088 -0.9113 -0.5452  0.0325
 7060SOL    HW132642   0.836   4.599  13.146 -0.5717 -0.6660  0.2118
 7060SOL    HW232643   0.930   4.587  13.037  1.9456  0.9753  0.3519
 7061SOL     OW32644   1.967   1.776   2.323  0.5510  0.2758 -0.2121
 7061SOL    HW132645   1.999   1.846   2.379 -0.4228  0.9532 -0.4961
 7061SOL    HW232646   1.953   1.830   2.245  2.3959  2.1347  0.7722
 7062SOL     OW32647   3.826   2.364  15.071 -0.1363  0.3099  0.4737
 7062SOL    HW132648   3.753   2.386  15.128  0.0771 -0.5128  1.0550
 7062SOL    HW232649   3.888   2.431  15.099 -0.5244  0.4438  1.0072
 7063SOL     OW32650   1.104   3.805   9.778  0.3434 -0.3658  0.2460
 7063SOL    HW132651   1.124   3.778   9.868  2.3929 -0.8632 -0.3752
 7063SOL    HW232652   1.131   3.728   9.728  1.2030  0.6395 -0.7962
 7064SOL     OW32653   0.613   0.397   0.646  0.1808  0.1753  0.2180
 7064SOL    HW132654   0.639   0.401   0.554 -2.8164 -3.2407 -0.7964
 7064SOL    HW232655   0.546   0.466   0.645 -0.9429 -0.8904  0.8704
 7065SOL     OW32656   0.416   2.051   5.661 -0.0060  0.0869 -0.2825
 7065SOL    HW132657   0.511   2.044   5.676 -0.2900 -0.3422  1.3189
 7065SOL    HW232658   0.381   2.125   5.711 -2.6443 -1.3021 -0.0811
 7066SOL     OW32659   2.248   2.153  12.225 -0.4443 -0.3015  0.0667
 7066SOL    HW132660   2.162   2.114  12.210 -0.6637  0.9503 -1.8082
 7066SOL    HW232661   2.245   2.180  12.317 -1.7615  2.3514 -0.7700
 7067SOL     OW32662   0.778   3.868  11.356 -0.0474 -0.4239  0.0711
 7067SOL    HW132663   0.689   3.868  11.389 -0.3377 -1.5086 -0.7102
 7067SOL    HW232664   0.808   3.956  11.333 -1.4041  0.0568  0.1525
 7068SOL     OW32665   4.095   2.721   8.776  0.6782 -0.7920  0.1797
 7068SOL    HW132666   4.025   2.701   8.713  0.7314  0.7474 -0.3778
 7068SOL    HW232667   4.160   2.659   8.744  1.6928  0.3742  0.0113
 7069SOL     OW32668   3.800   2.721  15.352 -0.6502 -0.1271  0.1186
 7069SOL    HW132669   3.800   2.797  15.410 -0.1555  0.2323 -0.3496
 7069SOL    HW232670   3.715   2.731  15.309 -0.2213 -1.1618 -0.9805
 7070SOL     OW32671   4.662   0.182   3.422 -0.0878 -0.2801  0.0004
 7070SOL    HW132672   4.638   0.260   3.373  1.5661  0.3894  0.2429
 7070SOL    HW232673   0.030   0.170   3.395  0.3190 -1.1330  1.6826
 7071SOL     OW32674   2.121   3.285   6.200 -0.1242  0.0437  0.2839
 7071SOL    HW132675   2.190   3.243   6.149  0.0613  0.9036 -0.1726
 7071SOL    HW232676   2.044   3.235   6.172  0.2300  1.8521 -3.9725
 7072SOL     OW32677   2.039   3.518   3.152 -0.1311 -0.6676  0.2931
 7072SOL    HW132678   2.012   3.604   3.119  2.4674  0.3221  0.7558
 7072SOL    HW232679   2.119   3.509   3.100 -0.2696 -2.8092  0.4485
 7073SOL     OW32680   4.696   0.434   6.856 -0.0709 -0.3202  0.1071
 7073SOL    HW132681   4.622   0.494   6.848 -1.1751 -1.6561  0.2208
 7073SOL    HW232682   4.671   0.379   6.931 -0.7309 -0.0650  0.0686
 7074SOL     OW32683   3.997   0.896   7.968  0.1627 -0.0993 -0.3301
 7074SOL    HW132684   4.077   0.844   7.978 -0.1251 -0.0602  2.0553
 7074SOL    HW232685   3.956   0.878   8.053 -2.0748  1.0199 -1.1581
 7075SOL     OW32686   0.175   2.523   3.314  0.3283  0.2913  0.2934
 7075SOL    HW132687   0.191   2.581   3.388  2.3506 -0.0272  0.1147
 7075SOL    HW232688   0.229   2.563   3.246 -0.3565 -1.8620 -1.5070
 7076SOL     OW32689   4.467   4.028   8.882  0.1768 -0.3944  0.0972
 7076SOL    HW132690   4.405   3.957   8.870 -0.6929  0.5752 -1.1533
 7076SOL    HW232691   4.416   4.088   8.935  1.0050 -0.3859  0.8914
 7077SOL     OW32692   0.154   4.566   0.887  0.0556  0.0017 -0.1438
 7077SOL    HW132693   0.207   4.522   0.821  0.0330 -0.6874  0.3002
 7077SOL    HW232694   0.126   4.639   0.832  0.5058 -0.8104 -1.4314
 7078SOL     OW32695   0.258   3.648  14.449 -0.1449  0.5468 -0.0086
 7078SOL    HW132696   0.219   3.562  14.461 -0.6247  0.6607 -0.7698
 7078SOL    HW232697   0.221   3.706  14.516 -0.7879  0.6784 -0.4769
 7079SOL     OW32698   2.314   4.100   7.655  0.1979 -0.4542  0.0629
 7079SOL    HW132699   2.262   4.072   7.731  0.6356  0.9454  0.8746
 7079SOL    HW232700   2.358   4.177   7.691 -0.4299  0.4076 -1.0223
 7080SOL     OW32701   0.880   2.604   4.772 -0.1806  0.1781 -0.0505
 7080SOL    HW132702   0.973   2.592   4.754 -0.0852  0.3900  0.3102
 7080SOL    HW232703   0.864   2.666   4.843  1.0123  1.9037 -1.3021
 7081SOL     OW32704   0.504   3.363  13.274 -0.3821 -0.1643  0.6227
 7081SOL    HW132705   0.530   3.423  13.203 -0.7228  0.3118  0.8981
 7081SOL    HW232706   0.555   3.286  13.251  2.6684  1.6520  1.2902
 7082SOL     OW32707   3.529   4.178  10.997  0.6886 -0.2472  0.2971
 7082SOL    HW132708   3.588   4.162  11.070  1.8777  0.5580 -0.4918
 7082SOL    HW232709   3.469   4.248  11.021  1.4710  0.1591  1.0509
 7083SOL     OW32710   1.035   0.561   6.396 -0.2584  0.4855 -0.6158
 7083SOL    HW132711   1.076   0.637   6.354 -0.3727  2.2286  2.4202
 7083SOL    HW232712   0.991   0.519   6.322  1.1477  0.2192 -1.3088
 7084SOL     OW32713   0.052   3.079   4.129 -0.2616  0.2284 -0.1752
 7084SOL    HW132714   4.721   3.158   4.134  1.1110  0.9944  2.3403
 7084SOL    HW232715   0.137   3.109   4.096 -0.1351 -2.1186 -2.0242
 7085SOL     OW32716   3.895   4.204   6.015 -0.1529 -0.5302 -0.1163
 7085SOL    HW132717   3.925   4.271   6.076 -1.0072  0.0709 -0.3626
 7085SOL    HW232718   3.963   4.207   5.948 -0.9721 -0.5115 -0.9546
 7086SOL     OW32719   2.546   0.713   7.474  0.7382  0.5994  0.6619
 7086SOL    HW132720   2.483   0.657   7.519  0.3013  0.4398 -0.1449
 7086SOL    HW232721   2.623   0.659   7.490 -0.4347 -1.6453 -1.1953
 7087SOL     OW32722   3.977   0.553   6.522  0.0028 -0.5189 -0.4744
 7087SOL    HW132723   3.947   0.471   6.560 -1.1434  0.8570  1.6049
 7087SOL    HW232724   3.922   0.556   6.444  0.8735 -1.1150 -1.1101
 7088SOL     OW32725   0.589   3.378   7.799 -0.0174  0.0212 -0.4360
 7088SOL    HW132726   0.496   3.362   7.812  0.0066 -0.5373 -0.9710
 7088SOL    HW232727   0.620   3.358   7.888 -0.5748  0.7424 -0.0918
 7089SOL     OW32728   2.058   4.328   8.867 -0.2880  0.3075 -0.3321
 7089SOL    HW132729   2.130   4.274   8.835  2.1060  2.4744  1.4438
 7089SOL    HW232730   2.086   4.377   8.944  1.4563 -0.6668 -0.3520
 7090SOL     OW32731   4.700   1.055  11.453  0.2259 -0.0314 -0.2064
 7090SOL    HW132732   0.019   0.989  11.398 -1.7246 -0.3938 -1.2343
 7090SOL    HW232733   4.683   1.001  11.530 -1.4266  0.2490 -0.3761
 7091SOL     OW32734   4.667   3.707   8.125 -0.0197  0.5668 -0.4496
 7091SOL    HW132735   4.718   3.639   8.080 -0.7460 -1.6401  2.0378
 7091SOL    HW232736   4.657   3.762   8.047  1.1419 -0.4299 -1.3118
 7092SOL     OW32737   0.419   3.487  15.881 -0.8036  0.0684 -0.1279
 7092SOL    HW132738   0.454   3.410  15.837  0.7993  1.2679 -0.9565
 7092SOL    HW232739   0.361   3.525  15.815  0.9126  1.2127 -0.9934
 7093SOL     OW32740   3.597   3.384   3.766  0.4226  0.0065 -0.5200
 7093SOL    HW132741   3.548   3.461   3.795 -0.2588 -1.7125  2.8746
 7093SOL    HW232742   3.648   3.366   3.845 -0.9045 -0.1173  0.3094
 7094SOL     OW32743   3.982   1.433   5.935  0.7805 -0.3351 -0.3931
 7094SOL    HW132744   3.955   1.525   5.933 -1.2015 -0.8600  2.6072
 7094SOL    HW232745   3.985   1.429   6.031  0.3409 -1.2409 -0.4158
 7095SOL     OW32746   1.525   2.576   6.435  0.0462 -0.2293  0.7812
 7095SOL    HW132747   1.534   2.485   6.405  1.1657 -0.0074  0.4531
 7095SOL    HW232748   1.580   2.624   6.374 -2.7945 -1.9320 -3.1416
 7096SOL     OW32749   2.034   2.998   3.985  0.7180 -0.0083  0.4095
 7096SOL    HW132750   2.003   3.032   3.901  1.3628 -3.7171 -1.3585
 7096SOL    HW232751   1.952   2.996   4.034  0.3778  1.7507 -0.0856
 7097SOL     OW32752   1.416   3.609  17.451  0.2001  0.3435  0.3126
 7097SOL    HW132753   1.408   3.551  17.527 -0.0822 -0.2619 -0.1813
 7097SOL    HW232754   1.438   3.688  17.501  0.1890 -0.5900  1.7978
 7098SOL     OW32755   1.241   0.364   4.059  0.7612 -0.5572 -0.0862
 7098SOL    HW132756   1.257   0.315   4.140  0.7266  1.2502  1.0032
 7098SOL    HW232757   1.211   0.444   4.103  3.6701 -0.2056  1.2630
 7099SOL     OW32758   0.516   2.694   5.677 -0.3936 -0.3695 -0.1120
 7099SOL    HW132759   0.490   2.660   5.762  1.9263  0.4826  0.9390
 7099SOL    HW232760   0.434   2.690   5.628 -0.3089 -0.6922 -0.2267
 7100SOL     OW32761   3.605   1.648  11.793 -0.4223 -0.1233  0.4128
 7100SOL    HW132762   3.565   1.693  11.867  0.2491 -1.8421  1.8144
 7100SOL    HW232763   3.660   1.713  11.750  0.3453 -0.2194  1.2574
 7101SOL     OW32764   3.783   1.179  15.555  0.3054 -0.0961 -0.4583
 7101SOL    HW132765   3.863   1.131  15.575  0.1798 -0.0981  0.0354
 7101SOL    HW232766   3.804   1.272  15.555 -2.2724  0.5104  1.5904
 7102SOL     OW32767   1.756   4.347   0.015  0.0556 -0.0613 -0.3173
 7102SOL    HW132768   1.716   4.338   0.101  1.5628 -0.0408  0.3855
 7102SOL    HW232769   1.849   4.327   0.024  0.1854  1.4993  1.8978
 7103SOL     OW32770   0.249   2.587   5.054 -0.0824  0.4803  0.2270
 7103SOL    HW132771   0.231   2.508   5.004  1.5516 -0.3243  0.8810
 7103SOL    HW232772   0.264   2.539   5.136  0.4741  1.8489  0.9364
 7104SOL     OW32773   0.669   4.683  12.195 -0.5923  0.6484 -0.4759
 7104SOL    HW132774   0.633   4.630  12.124 -1.5412  2.1920 -1.1370
 7104SOL    HW232775   0.603   4.676  12.264  2.5678 -0.0606  2.5100
 7105SOL     OW32776   0.193   0.437   8.417  0.1753  0.0374  0.4999
 7105SOL    HW132777   0.133   0.369   8.387 -0.7774  1.5981 -1.1400
 7105SOL    HW232778   0.253   0.443   8.343 -1.1171 -2.3043 -0.7359
 7106SOL     OW32779   2.643   0.064   4.723  0.0148 -0.7951 -0.0506
 7106SOL    HW132780   2.685   0.150   4.736 -1.2821  0.0191 -1.2626
 7106SOL    HW232781   2.574   0.096   4.666 -0.3406 -2.6819 -0.6684
 7107SOL     OW32782   3.175   2.699   3.725 -0.3555  0.4957 -0.1637
 7107SOL    HW132783   3.127   2.625   3.687 -1.6788  0.8761  0.7773
 7107SOL    HW232784   3.151   2.768   3.663 -1.7134  1.8255  1.8498
 7108SOL     OW32785   2.253   1.815   7.037 -0.4814  0.3584 -0.3948
 7108SOL    HW132786   2.255   1.760   6.959 -0.5992 -0.2702  0.0494
 7108SOL    HW232787   2.344   1.812   7.064 -1.1098 -1.3616  1.5097
 7109SOL     OW32788   3.640   4.047  15.339  0.0464  0.5289  0.0189
 7109SOL    HW132789   3.716   4.100  15.363  0.1971 -0.6816  2.1330
 7109SOL    HW232790   3.581   4.093  15.397  0.7189  0.6752  0.5839
 7110SOL     OW32791   2.013   0.534   0.971 -0.0055 -0.3584 -0.0896
 7110SOL    HW132792   2.037   0.622   1.001  0.5986 -0.1077 -1.2963
 7110SOL    HW232793   2.038   0.540   0.879  2.2960 -1.1717  0.4786
 7111SOL     OW32794   3.194   1.803   2.327  0.4434  0.4054 -0.0032
 7111SOL    HW132795   3.217   1.729   2.270 -1.6505 -0.8026  0.7095
 7111SOL    HW232796   3.260   1.870   2.308  0.7756 -0.3002 -1.3335
 7112SOL     OW32797   3.766   2.883  13.712 -0.4621  0.8649 -0.4595
 7112SOL    HW132798   3.682   2.928  13.722 -0.9073 -0.6502  2.7820
 7112SOL    HW232799   3.773   2.836  13.795 -0.2411 -1.8174 -1.9885
 7113SOL     OW32800   0.240   1.758   9.241 -0.5904 -0.5334 -0.3770
 7113SOL    HW132801   0.305   1.708   9.291 -0.2330  0.7197  0.4328
 7113SOL    HW232802   0.189   1.683   9.212 -2.3351  0.6786 -0.4308
 7114SOL     OW32803   2.437   0.685  11.370 -0.4180  0.1492 -0.4950
 7114SOL    HW132804   2.508   0.666  11.309  1.6833 -1.4359  2.5006
 7114SOL    HW232805   2.473   0.700  11.457  1.6313 -1.2587 -1.1161
 7115SOL     OW32806   2.858   0.693   8.563 -0.0954  0.2389 -0.2318
 7115SOL    HW132807   2.912   0.629   8.610  0.9877  0.7576 -0.7502
 7115SOL    HW232808   2.808   0.733   8.634  1.9668 -0.7190  1.7824
 7116SOL     OW32809   4.578   1.265   3.346 -0.5603  0.1278 -0.3351
 7116SOL    HW132810   4.499   1.307   3.380  1.6108  2.5432  1.6981
 7116SOL    HW232811   4.579   1.289   3.253 -0.3774  2.2285  0.2051
 7117SOL     OW32812   4.555   1.865   1.392 -0.1974 -0.6169  0.5636
 7117SOL    HW132813   4.465   1.836   1.378 -0.2981  0.1035 -0.3040
 7117SOL    HW232814   4.555   1.948   1.344 -0.1466 -2.3220 -2.4208
 7118SOL     OW32815   2.831   2.788   9.248  0.6026 -0.2922 -0.1805
 7118SOL    HW132816   2.784   2.867   9.276 -0.8133 -0.4965 -2.0033
 7118SOL    HW232817   2.807   2.729   9.320  0.2033  0.3950  0.2457
 7119SOL     OW32818   1.151   3.320  11.162 -0.0057  0.5610 -0.0177
 7119SOL    HW132819   1.096   3.262  11.215 -0.6795 -0.4526 -1.8280
 7119SOL    HW232820   1.079   3.364  11.116 -1.1535 -0.7564  0.5177
 7120SOL     OW32821   2.274   2.019   3.823 -0.3019 -0.3755  0.2949
 7120SOL    HW132822   2.209   2.038   3.891  0.6942 -0.7533  1.3469
 7120SOL    HW232823   2.327   1.968   3.883  1.1051  2.0967  1.1612
 7121SOL     OW32824   0.124   0.166   6.765 -0.3891 -0.0750  0.5741
 7121SOL    HW132825   0.216   0.192   6.764  0.3603 -2.6535  1.0833
 7121SOL    HW232826   0.086   0.252   6.750 -1.7024 -0.4157  1.9390
 7122SOL     OW32827   1.222   4.394   3.319  0.2266 -0.1352  0.1628
 7122SOL    HW132828   1.260   4.443   3.247  0.0385 -0.5635 -0.2258
 7122SOL    HW232829   1.298   4.339   3.338  1.2947  0.8611 -1.3150
 7123SOL     OW32830   4.716   3.913  15.026 -0.0721  0.6577  0.4381
 7123SOL    HW132831   4.630   3.924  14.985 -0.2597  1.1076  0.9572
 7123SOL    HW232832   0.041   3.951  14.953 -1.1546 -1.7814 -1.5434
 7124SOL     OW32833   2.456   0.002   7.110  0.4705 -0.1865 -0.1506
 7124SOL    HW132834   2.419   4.705   7.196 -2.2579 -0.5468 -1.4084
 7124SOL    HW232835   2.528   0.059   7.137 -0.9355  1.1341  0.8399
 7125SOL     OW32836   1.953   2.913   6.046  0.3315  0.0408  0.2762
 7125SOL    HW132837   2.010   2.849   6.088 -0.9604 -0.5421  1.1500
 7125SOL    HW232838   1.871   2.864   6.046 -1.7096  3.4808  1.7421
 7126SOL     OW32839   3.110   1.073   5.118  0.1838 -0.5376 -0.0268
 7126SOL    HW132840   3.204   1.061   5.127  0.3876  0.6243 -0.6464
 7126SOL    HW232841   3.100   1.163   5.088  0.4942 -1.4756 -3.0075
 7127SOL     OW32842   2.114   4.055   4.928 -0.4195 -0.0777  0.1264
 7127SOL    HW132843   2.157   4.093   4.852  0.5084 -0.8619  0.2546
 7127SOL    HW232844   2.129   3.964   4.903  1.1966  0.4700 -0.8432
 7128SOL     OW32845   0.761   3.921   2.803  0.3974 -0.1302 -0.7084
 7128SOL    HW132846   0.734   4.002   2.846 -0.0282 -0.1721 -0.8979
 7128SOL    HW232847   0.675   3.878   2.804  1.0099 -1.3453 -1.8469
 7129SOL     OW32848   3.689   3.928   0.056 -0.1865 -0.0577 -0.5126
 7129SOL    HW132849   3.681   3.860   0.123 -1.2432  0.2187 -0.3691
 7129SOL    HW232850   3.780   3.954   0.072  0.5618 -1.4474 -2.4815
 7130SOL     OW32851   1.382   3.770   6.491  0.0024  0.5109 -0.3998
 7130SOL    HW132852   1.458   3.781   6.433 -0.3719  0.1966 -0.9493
 7130SOL    HW232853   1.427   3.770   6.576 -0.6775  0.7323 -0.0409
 7131SOL     OW32854   1.216   0.387   1.894 -0.0434  0.2321 -0.0280
 7131SOL    HW132855   1.192   0.479   1.904  0.6991  0.2571  1.4026
 7131SOL    HW232856   1.296   0.397   1.843 -0.5618  0.5893 -0.7781
 7132SOL     OW32857   0.260   3.296   6.221 -0.3485 -0.1493  0.8416
 7132SOL    HW132858   0.328   3.358   6.194 -1.5320  0.3452 -0.9874
 7132SOL    HW232859   0.245   3.246   6.141 -0.4560  0.6921  0.3361
 7133SOL     OW32860   2.046   2.016   8.578  0.1033  0.1438  0.2369
 7133SOL    HW132861   2.119   2.024   8.640  0.9915  0.4700 -0.8454
 7133SOL    HW232862   1.982   1.958   8.619 -0.0164 -0.0410 -0.2122
 7134SOL     OW32863   3.355   3.475   7.552 -0.1421  0.5851 -0.3682
 7134SOL    HW132864   3.433   3.480   7.496  0.0259  0.4429 -0.1469
 7134SOL    HW232865   3.341   3.566   7.575 -1.9584 -0.5101  2.8320
 7135SOL     OW32866   0.554   3.054   6.702  0.1184  0.7301  0.2462
 7135SOL    HW132867   0.624   3.062   6.638 -1.6523 -1.9584 -2.0637
 7135SOL    HW232868   0.521   2.965   6.687  0.9407  0.8642 -2.3790
 7136SOL     OW32869   0.912   0.815  10.237  0.0164  0.2795 -0.3061
 7136SOL    HW132870   0.909   0.722  10.216 -2.4352  0.3814 -0.4058
 7136SOL    HW232871   0.877   0.825  10.325  0.3438  1.6976 -0.3353
 7137SOL     OW32872   2.689   3.914   8.268 -0.4065  0.3408  0.2834
 7137SOL    HW132873   2.733   3.854   8.208  0.0280 -0.3068  1.2500
 7137SOL    HW232874   2.628   3.954   8.205  1.0975 -0.4240 -1.6684
 7138SOL     OW32875   2.821   0.240   1.537 -0.8790 -0.1833 -0.0389
 7138SOL    HW132876   2.769   0.199   1.468  1.3352 -2.0795 -0.5737
 7138SOL    HW232877   2.900   0.238   1.483 -0.9343  0.3055 -0.1435
 7139SOL     OW32878   2.980   0.753  17.147  0.1111  0.4765  0.1611
 7139SOL    HW132879   2.973   0.672  17.096 -2.1200  1.2642 -0.7892
 7139SOL    HW232880   2.925   0.809  17.092 -1.0209 -1.6163 -0.7978
 7140SOL     OW32881   3.278   1.142  13.678 -0.2106  0.2175  0.1795
 7140SOL    HW132882   3.235   1.163  13.595  2.0271  0.7978 -0.8438
 7140SOL    HW232883   3.258   1.049  13.667  0.0830 -0.0239  1.8018
 7141SOL     OW32884   4.105   2.427   4.014 -0.9060  0.4039 -0.2403
 7141SOL    HW132885   4.115   2.439   3.920 -1.9463  0.4617 -0.3407
 7141SOL    HW232886   4.172   2.490   4.042  0.3133 -1.4957  1.0555
 7142SOL     OW32887   1.263   2.161   8.448 -0.6639 -0.3885 -0.0615
 7142SOL    HW132888   1.168   2.155   8.463 -0.9029 -0.7139 -1.7449
 7142SOL    HW232889   1.296   2.094   8.508 -1.1832  0.1200  0.8048
 7143SOL     OW32890   3.222   4.603  16.827  1.1630  1.0085  0.0842
 7143SOL    HW132891   3.165   4.580  16.753  2.9987 -1.0314 -0.6909
 7143SOL    HW232892   3.272   4.523  16.842 -2.0148 -1.1717 -0.9187
 7144SOL     OW32893   3.823   4.044   7.817  0.1357  0.6210  0.0393
 7144SOL    HW132894   3.779   3.974   7.865  0.1397  1.0995  0.7379
 7144SOL    HW232895   3.797   4.119   7.871  0.2602 -0.5112  1.6424
 7145SOL     OW32896   1.134   4.198  15.327 -0.2225  0.1848 -0.5349
 7145SOL    HW132897   1.168   4.186  15.238 -0.4002  1.2655 -0.7503
 7145SOL    HW232898   1.051   4.227  15.289 -0.7264 -1.2354 -0.5380
 7146SOL     OW32899   1.254   1.722  10.303 -0.3833 -0.2291 -0.2169
 7146SOL    HW132900   1.271   1.771  10.383 -1.1074  1.3069 -1.0092
 7146SOL    HW232901   1.281   1.794  10.245 -1.7001 -0.3620 -0.9778
 7147SOL     OW32902   1.441   3.582  13.128  0.0541  0.6943 -0.1648
 7147SOL    HW132903   1.451   3.630  13.210  0.1094  0.7965 -0.2315
 7147SOL    HW232904   1.427   3.657  13.070 -0.6342 -1.8183 -3.2461
 7148SOL     OW32905   3.042   2.642   4.283 -0.4150  0.7096  0.5812
 7148SOL    HW132906   3.110   2.709   4.290  2.5871 -2.3538  0.7482
 7148SOL    HW232907   2.998   2.641   4.198  1.9759  0.7670 -0.6668
 7149SOL     OW32908   4.519   1.630   8.128  0.2891  0.5643  0.3209
 7149SOL    HW132909   4.507   1.541   8.162 -1.9133  0.6842 -0.1410
 7149SOL    HW232910   4.447   1.642   8.066  0.6614  2.2941  0.2240
 7150SOL     OW32911   0.376   0.462   3.072  0.0383  0.1247 -0.2031
 7150SOL    HW132912   0.466   0.468   3.106 -0.6352 -0.4411  1.6323
 7150SOL    HW232913   0.357   0.368   3.079  1.1482 -0.1267 -0.5081
 7151SOL     OW32914   2.972   0.484  16.988 -0.6431  0.2855  0.4844
 7151SOL    HW132915   2.919   0.441  17.055 -0.1066  1.3587  1.6214
 7151SOL    HW232916   3.011   0.412  16.940 -1.2871  0.3927 -0.1900
 7152SOL     OW32917   4.538   0.040  12.594 -0.5673 -0.5093 -0.5834
 7152SOL    HW132918   4.517   0.134  12.587 -2.9773 -1.0036 -0.1852
 7152SOL    HW232919   4.514   0.005  12.509  1.7452 -3.0719 -0.1595
 7153SOL     OW32920   1.941   3.562  14.655  0.4053  0.0258  0.1856
 7153SOL    HW132921   1.984   3.568  14.570 -0.7534 -0.2501 -0.4136
 7153SOL    HW232922   1.967   3.473  14.677  0.4267 -0.0175 -0.0123
 7154SOL     OW32923   0.760   4.015   5.274  0.5188 -0.7828  0.9093
 7154SOL    HW132924   0.756   4.110   5.267  1.5092 -0.6511  2.0424
 7154SOL    HW232925   0.673   3.997   5.309 -0.7710 -2.8472 -3.3646
 7155SOL     OW32926   1.908   3.951   3.445 -0.2292  0.0224 -0.2572
 7155SOL    HW132927   1.986   3.918   3.400 -0.7565 -0.7922 -0.5611
 7155SOL    HW232928   1.898   3.886   3.515  0.1782 -0.7060 -0.8785
 7156SOL     OW32929   1.173   4.009   3.203  0.2204 -0.2375  0.0311
 7156SOL    HW132930   1.177   4.087   3.148 -0.4058 -0.2702 -0.0607
 7156SOL    HW232931   1.097   3.964   3.167  1.7195 -0.9701 -2.2456
 7157SOL     OW32932   3.961   2.732   4.989 -0.0012  0.7103 -0.2957
 7157SOL    HW132933   3.931   2.643   4.972  2.6106 -0.0604 -0.8499
 7157SOL    HW232934   4.049   2.735   4.951  0.5341 -0.6697  0.8402
 7158SOL     OW32935   4.565   2.371   0.118 -0.3262 -0.0220 -0.1095
 7158SOL    HW132936   4.555   2.386   0.212  2.2162 -1.3777  0.3790
 7158SOL    HW232937   4.649   2.325   0.108 -0.2836  0.4317 -1.7790
 7159SOL     OW32938   4.601   3.287   4.067 -0.5457 -0.1735  0.2816
 7159SOL    HW132939   4.528   3.315   4.123 -0.5632 -1.9809  1.1686
 7159SOL    HW232940   4.598   3.362   4.008 -2.5801 -0.0555  0.5272
 7160SOL     OW32941   0.522   4.628  12.434 -0.5471  0.1260 -0.2439
 7160SOL    HW132942   0.577   4.550  12.445 -2.8941 -1.7506 -1.9293
 7160SOL    HW232943   0.432   4.600  12.452  0.0783 -0.7718  1.5451
 7161SOL     OW32944   4.627   3.074   3.264  0.0561  0.5617  0.0467
 7161SOL    HW132945   4.543   3.121   3.271  0.3803  0.7220  3.1394
 7161SOL    HW232946   4.695   3.142   3.263  1.7488 -1.1673 -0.4369
 7162SOL     OW32947   1.258   2.844   2.389  0.5939 -0.1934  0.0337
 7162SOL    HW132948   1.315   2.766   2.388  1.6905  0.6057  0.0700
 7162SOL    HW232949   1.237   2.845   2.483  3.0399 -2.0659  0.5998
 7163SOL     OW32950   1.426   2.445  17.417  0.2513 -0.4217 -0.1322
 7163SOL    HW132951   1.404   2.527  17.373  0.9420  0.7041  1.5874
 7163SOL    HW232952   1.477   2.398  17.351  1.6985  1.3889 -0.3147
 7164SOL     OW32953   1.418   3.273  12.806 -0.4645  0.3676  1.1353
 7164SOL    HW132954   1.362   3.347  12.785 -0.7587 -0.1137  0.2561
 7164SOL    HW232955   1.432   3.230  12.722 -0.5974  0.6911  0.9483
 7165SOL     OW32956   3.451   1.467  10.208  0.1862 -0.7771  0.0190
 7165SOL    HW132957   3.402   1.549  10.208  0.4432 -0.6269 -1.3462
 7165SOL    HW232958   3.538   1.502  10.230 -1.2179  2.4413  0.4273
 7166SOL     OW32959   1.331   4.554   6.107 -0.4368 -0.5946 -0.2160
 7166SOL    HW132960   1.382   4.527   6.184  0.1609 -3.7756 -1.7133
 7166SOL    HW232961   1.353   4.474   6.058  0.2272 -0.0832 -0.7538
 7167SOL     OW32962   0.025   0.104  16.941 -0.1600  0.6968  0.6586
 7167SOL    HW132963   0.015   0.097  17.035 -1.5699  0.0071  0.4539
 7167SOL    HW232964   4.660   0.135  16.920  0.5693 -0.5629 -4.3042
 7168SOL     OW32965   4.579   3.549   5.114  0.1050 -0.0529 -0.4127
 7168SOL    HW132966   4.502   3.532   5.167  0.6256  0.1984  0.4276
 7168SOL    HW232967   4.592   3.464   5.071 -1.0050 -0.7430  0.6150
 7169SOL     OW32968   2.250   3.940   9.439 -0.2541  0.4631 -0.0641
 7169SOL    HW132969   2.165   3.981   9.452 -0.2140  0.7418 -0.6620
 7169SOL    HW232970   2.281   3.911   9.525  1.6676 -1.1732 -1.2793
 7170SOL     OW32971   1.934   1.221   3.728  0.1407 -0.2868 -0.3994
 7170SOL    HW132972   2.016   1.229   3.777  0.4230  0.4848 -0.9903
 7170SOL    HW232973   1.891   1.179   3.802 -0.5614  0.8979 -0.1331
 7171SOL     OW32974   3.862   2.913   9.058  0.0712  0.4139  0.2259
 7171SOL    HW132975   3.796   2.882   9.120  0.0808 -2.7745 -1.3574
 7171SOL    HW232976   3.798   2.964   9.007  0.2217 -1.3816 -1.7465
 7172SOL     OW32977   4.621   3.271   5.137  0.1314 -0.4813 -0.1321
 7172SOL    HW132978   4.685   3.299   5.071 -1.7542  0.6000 -1.4867
 7172SOL    HW232979   4.628   3.177   5.119 -0.1291 -0.5346  0.0393
 7173SOL     OW32980   0.372   2.878  17.228  0.7145 -0.5202 -0.2610
 7173SOL    HW132981   0.394   2.785  17.222  0.0339 -0.7690  1.0246
 7173SOL    HW232982   0.300   2.895  17.167  1.1134  0.4291 -0.4549
 7174SOL     OW32983   2.077   1.052   6.918  0.1761 -0.2416 -0.3522
 7174SOL    HW132984   2.123   1.049   7.002 -1.6911 -0.3394  0.6565
 7174SOL    HW232985   2.135   0.989   6.875  0.9833  0.6412 -0.5665
 7175SOL     OW32986   0.729   2.873   5.706  0.5571  0.9147 -0.3645
 7175SOL    HW132987   0.662   2.806   5.697  1.1038  0.1544  1.1325
 7175SOL    HW232988   0.776   2.838   5.782  0.1229  1.2471  0.0596
 7176SOL     OW32989   4.087   1.784  17.529 -0.5903 -0.4345 -0.2907
 7176SOL    HW132990   4.041   1.700  17.529 -2.7010  0.7234  0.8656
 7176SOL    HW232991   4.148   1.770  17.456 -0.9762  2.2212 -1.1048
 7177SOL     OW32992   3.234   3.108   7.104  0.6528  0.2876  0.1926
 7177SOL    HW132993   3.203   3.162   7.176  1.7760  0.0159  0.8882
 7177SOL    HW232994   3.327   3.129   7.109  0.4223  1.0375  1.2671
 7178SOL     OW32995   4.428   4.255   8.667 -0.0496  0.5350 -0.3978
 7178SOL    HW132996   4.377   4.265   8.747 -0.1192 -1.5195 -0.1929
 7178SOL    HW232997   4.369   4.215   8.603  1.1907  0.3320 -1.4208
 7179SOL     OW32998   1.047   4.337  11.179 -0.1020 -0.0419  0.3797
 7179SOL    HW132999   1.088   4.311  11.096 -0.8860 -0.1474  0.0243
 7179SOL    HW233000   1.077   4.427  11.188 -2.2254  0.7698 -0.9191
 7180SOL     OW33001   2.441   2.679   2.580  0.0816 -0.3309 -0.2781
 7180SOL    HW133002   2.525   2.706   2.618  0.0433  0.9875 -1.1138
 7180SOL    HW233003   2.402   2.611   2.634 -1.1289  0.4668 -0.1627
 7181SOL     OW33004   4.520   1.092   1.848  0.3109  0.1336  0.4344
 7181SOL    HW133005   4.446   1.041   1.816  0.7181 -0.4386  0.4124
 7181SOL    HW233006   4.523   1.064   1.939 -0.9525 -0.7319  0.2201
 7182SOL     OW33007   3.835   2.925   8.610 -0.4382 -0.0270 -0.0684
 7182SOL    HW133008   3.872   2.838   8.599 -0.0435  0.3864 -1.9684
 7182SOL    HW233009   3.751   2.904   8.571 -1.1555 -0.0063  1.4597
 7183SOL     OW33010   0.357   2.702   7.668 -0.5233 -0.3645  0.2460
 7183SOL    HW133011   0.354   2.751   7.586 -0.2957  0.5201  0.7681
 7183SOL    HW233012   0.432   2.745   7.709 -0.8267 -1.4550  1.8959
 7184SOL     OW33013   2.877   2.249   2.060 -0.0635  0.1677  0.3810
 7184SOL    HW133014   2.853   2.285   1.974  0.8137  0.0463  0.0844
 7184SOL    HW233015   2.801   2.274   2.111 -0.4772 -1.8383  0.7147
 7185SOL     OW33016   3.754   1.139   5.494  0.0743 -0.5502 -0.0103
 7185SOL    HW133017   3.840   1.126   5.455  0.2165 -1.5613  0.6365
 7185SOL    HW233018   3.752   1.072   5.563  0.4134  0.4447  0.9631
 7186SOL     OW33019   0.005   1.448   5.745  0.2772 -0.0634 -0.2454
 7186SOL    HW133020   0.081   1.506   5.744 -1.5564  2.3275 -0.5534
 7186SOL    HW233021   0.020   1.416   5.834  1.9422  0.6363 -0.2702
 7187SOL     OW33022   2.926   3.713   2.610  0.0174 -0.0675 -0.1298
 7187SOL    HW133023   2.978   3.785   2.574 -0.6300 -0.0906 -1.1140
 7187SOL    HW233024   2.983   3.642   2.582 -0.9353 -1.6935  2.0984
 7188SOL     OW33025   3.658   1.385  12.482  0.3279 -0.1621 -0.2636
 7188SOL    HW133026   3.608   1.438  12.545 -2.3458 -1.1120 -1.6111
 7188SOL    HW233027   3.617   1.421  12.403 -1.1780  0.0576  0.6152
 7189SOL     OW33028   3.358   2.434   1.315  0.4995  0.5588 -0.4361
 7189SOL    HW133029   3.373   2.383   1.235  2.5698  1.0529 -0.3538
 7189SOL    HW233030   3.436   2.407   1.362  0.2848  2.2745  0.8799
 7190SOL     OW33031   0.118   1.477   5.066  0.3183 -0.4638  0.2298
 7190SOL    HW133032   0.043   1.534   5.052  1.1964  0.5618 -0.3466
 7190SOL    HW233033   0.081   1.401   5.111 -0.9267  0.6849  1.1452
 7191SOL     OW33034   0.245   3.518   8.192 -0.0985 -0.2791 -0.1068
 7191SOL    HW133035   0.197   3.544   8.271  4.0889  0.8101  2.0591
 7191SOL    HW233036   0.332   3.550   8.213 -0.7302  0.9265  0.6688
 7192SOL     OW33037   2.316   0.051  10.591 -0.7349  0.3701  0.1533
 7192SOL    HW133038   2.409   0.027  10.586 -0.2839  1.9858  0.8904
 7192SOL    HW233039   2.316   0.110  10.666 -1.1523 -0.4074  0.7601
 7193SOL     OW33040   2.152   4.486   6.716  0.1358  0.2840  0.6829
 7193SOL    HW133041   2.204   4.551   6.764 -0.5781  0.5817  1.0585
 7193SOL    HW233042   2.086   4.464   6.782 -1.2620  2.9266  0.1373
 7194SOL     OW33043   2.738   3.991   1.060 -0.0595  0.4858  0.3435
 7194SOL    HW133044   2.723   4.084   1.042  0.7170  0.4809 -0.2921
 7194SOL    HW233045   2.665   3.978   1.121  1.6339  1.4721  2.6139
 7195SOL     OW33046   3.034   4.374   2.616 -0.0020  0.2553  0.1670
 7195SOL    HW133047   2.995   4.288   2.628  1.0956 -0.3705 -0.7003
 7195SOL    HW233048   3.080   4.381   2.699  1.2567  1.8558 -0.6539
 7196SOL     OW33049   4.101   3.666  11.705 -0.3338 -0.5710  0.0039
 7196SOL    HW133050   4.070   3.721  11.777 -0.9743 -0.0975 -0.6381
 7196SOL    HW233051   4.025   3.621  11.670  1.0104 -0.4074 -3.1571
 7197SOL     OW33052   0.430   4.332   1.321  0.3098  0.0116 -0.2720
 7197SOL    HW133053   0.361   4.368   1.265 -0.7489 -0.2766  0.8500
 7197SOL    HW233054   0.385   4.325   1.405  0.0660 -1.3151 -0.5211
 7198SOL     OW33055   4.623   4.436  10.663  0.5646 -0.0741 -0.2791
 7198SOL    HW133056   4.589   4.431  10.752 -0.0174 -0.6053 -0.5282
 7198SOL    HW233057   4.541   4.448  10.615 -0.2206  1.5537  1.4959
 7199SOL     OW33058   4.112   4.328   8.447  0.1584  0.3905  0.2873
 7199SOL    HW133059   4.030   4.327   8.397 -1.2833  1.8443  2.5929
 7199SOL    HW233060   4.085   4.311   8.537 -2.4827  0.0059 -0.5772
 7200SOL     OW33061   0.563   1.479   8.034 -0.0500  0.4718 -0.5785
 7200SOL    HW133062   0.515   1.402   8.003 -0.7267  1.7105 -2.5823
 7200SOL    HW233063   0.522   1.494   8.119  1.2049  1.4827 -0.1675
 7201SOL     OW33064   0.747   1.728   2.790  0.5382 -0.2304 -0.6687
 7201SOL    HW133065   0.814   1.770   2.737  1.1353 -0.4761 -0.1020
 7201SOL    HW233066   0.725   1.648   2.741  1.7954 -1.0029  0.0370
 7202SOL     OW33067   4.175   4.682  15.347  0.1483 -0.2364  0.2056
 7202SOL    HW133068   4.264   4.678  15.382  1.0027  2.1070 -1.6946
 7202SOL    HW233069   4.193   4.684  15.253 -0.0778 -2.2065  0.1236
 7203SOL     OW33070   3.509   2.148   7.146  0.2187  0.3107  0.2740
 7203SOL    HW133071   3.498   2.067   7.196  2.1385  0.7610  1.4399
 7203SOL    HW233072   3.447   2.203   7.195  1.6456  0.0854  2.3341
 7204SOL     OW33073   2.060   0.435   8.513  0.3659  0.1052  0.5053
 7204SOL    HW133074   2.055   0.413   8.420 -0.7401 -1.1203  0.8503
 7204SOL    HW233075   2.150   0.466   8.520  0.4546  0.4232 -2.0997
 7205SOL     OW33076   4.283   0.661   2.307 -0.0444  0.4608 -0.0173
 7205SOL    HW133077   4.326   0.583   2.272  0.0098  0.4795  0.0071
 7205SOL    HW233078   4.276   0.634   2.399 -0.2481  1.2625  0.1996
 7206SOL     OW33079   1.447   3.793  17.627  0.2486 -0.6000 -0.3283
 7206SOL    HW133080   1.463   3.792   0.027 -0.8282  1.7046 -0.1279
 7206SOL    HW233081   1.469   3.883  17.602  0.3878 -0.0717  1.6761
 7207SOL     OW33082   3.573   0.739   7.660 -0.1853  0.2190  0.2645
 7207SOL    HW133083   3.647   0.799   7.663  3.0093 -3.6312 -0.9782
 7207SOL    HW233084   3.540   0.739   7.570 -0.2904 -0.1366  0.3016
 7208SOL     OW33085   2.351   2.846   4.204  0.2780 -0.1134  0.1798
 7208SOL    HW133086   2.271   2.793   4.202 -0.4813  0.9827  1.8437
 7208SOL    HW233087   2.317   2.934   4.189  1.2300  0.6458  2.4462
 7209SOL     OW33088   1.256   1.616  11.752 -0.0925 -0.4893  0.4430
 7209SOL    HW133089   1.177   1.564  11.738 -0.6987  0.9267 -1.3133
 7209SOL    HW233090   1.280   1.635  11.662 -2.4309  0.7469  0.0777
 7210SOL     OW33091   4.176   3.929   3.447  0.1835 -0.3131  0.7170
 7210SOL    HW133092   4.084   3.927   3.471  0.1382  2.3906  0.8242
 7210SOL    HW233093   4.207   3.978   3.523  0.0934  2.8104 -1.2355
 7211SOL     OW33094   2.309   2.558   4.906 -0.0121 -0.0478  0.3176
 7211SOL    HW133095   2.280   2.589   4.992  1.3392  0.2443  0.6600
 7211SOL    HW233096   2.316   2.644   4.864 -2.6965  0.6624  1.3324
 7212SOL     OW33097   1.697   3.558   8.994  0.8046  0.2970 -0.2172
 7212SOL    HW133098   1.740   3.579   8.911 -0.9741  1.2248 -0.8915
 7212SOL    HW233099   1.723   3.626   9.056 -2.4048 -0.7112  2.2356
 7213SOL     OW33100   1.993   4.204   4.651  0.6424 -0.5550  0.4885
 7213SOL    HW133101   1.946   4.219   4.733  0.2937 -0.7668  0.3261
 7213SOL    HW233102   2.084   4.218   4.678  0.2332 -0.5357  1.8410
 7214SOL     OW33103   2.261   4.304   3.630  0.1494  0.4353 -0.4173
 7214SOL    HW133104   2.186   4.336   3.579 -1.5566  0.5208  2.1440
 7214SOL    HW233105   2.288   4.390   3.660 -1.8825  0.9315  0.0042
 7215SOL     OW33106   4.063   4.445   2.445 -0.2613 -0.1909  0.2665
 7215SOL    HW133107   4.034   4.459   2.535 -0.1817  0.2004  0.2309
 7215SOL    HW233108   4.066   4.350   2.449  1.8522 -0.1731 -1.0721
 7216SOL     OW33109   1.539   4.123   1.856 -0.1881  0.0384  0.2925
 7216SOL    HW133110   1.621   4.118   1.906 -0.3138 -2.7110  0.2645
 7216SOL    HW233111   1.497   4.193   1.906 -1.5729 -2.1913  2.2748
 7217SOL     OW33112   3.918   3.142   5.527  0.0007 -0.5382  0.1366
 7217SOL    HW133113   3.989   3.078   5.522 -0.9012 -1.4347 -1.0993
 7217SOL    HW233114   3.940   3.176   5.614 -3.4615 -1.6577  1.4289
 7218SOL     OW33115   1.686   1.438   6.478 -0.1198 -0.1316  0.2670
 7218SOL    HW133116   1.716   1.504   6.540 -1.6348  1.4559 -0.7170
 7218SOL    HW233117   1.760   1.421   6.419 -0.0653 -0.1485  0.3394
 7219SOL     OW33118   1.594   1.563   6.059 -0.0489  0.5294 -0.0577
 7219SOL    HW133119   1.686   1.571   6.087  0.7445 -0.0917 -2.5064
 7219SOL    HW233120   1.566   1.505   6.130  0.7669  1.5328  1.0991
 7220SOL     OW33121   1.715   4.424   4.494  0.1229 -0.1156  0.3491
 7220SOL    HW133122   1.776   4.350   4.497  1.7515  1.1945 -0.5725
 7220SOL    HW233123   1.760   4.478   4.428 -0.3256  1.6948  1.5162
 7221SOL     OW33124   1.918   1.249  14.203  0.5279  0.5887 -0.4887
 7221SOL    HW133125   1.909   1.221  14.294  0.9437  1.7438 -0.0983
 7221SOL    HW233126   1.863   1.183  14.160  0.7846 -0.4322  0.7451
 7222SOL     OW33127   2.366   3.701   3.987 -0.1647 -0.1946  0.1201
 7222SOL    HW133128   2.337   3.791   3.995 -3.2280 -1.0646 -1.3487
 7222SOL    HW233129   2.435   3.713   3.921  0.6824 -0.1725  1.0083
 7223SOL     OW33130   3.553   2.296   2.112  0.0182  0.3541 -0.3003
 7223SOL    HW133131   3.647   2.313   2.118  0.3059 -0.7343 -1.5750
 7223SOL    HW233132   3.547   2.231   2.041 -0.4653 -0.4134  0.4395
 7224SOL     OW33133   0.424   4.502   2.085 -0.7107  0.4720 -0.0074
 7224SOL    HW133134   0.449   4.444   2.013 -0.0515  1.2850 -0.4252
 7224SOL    HW233135   0.378   4.574   2.042  1.8860 -0.5146 -4.4919
 7225SOL     OW33136   3.691   4.005  10.875 -0.2133 -0.2495  0.2919
 7225SOL    HW133137   3.776   4.004  10.920  0.4333 -1.0981 -0.9711
 7225SOL    HW233138   3.632   4.062  10.925 -0.8998 -1.1282  0.4853
 7226SOL     OW33139   2.154   0.081  15.176  0.0604 -0.1283 -0.2426
 7226SOL    HW133140   2.125   0.118  15.093  1.3090  1.1594 -0.1272
 7226SOL    HW233141   2.173   0.163  15.222 -3.2512 -0.7476  2.2039
 7227SOL     OW33142   2.451   0.319   7.271  0.4291  0.1671 -0.5732
 7227SOL    HW133143   2.520   0.363   7.321  0.1878 -0.7963  0.5885
 7227SOL    HW233144   2.495   0.267   7.204 -0.6827 -3.0248  1.1967
 7228SOL     OW33145   1.251   0.681   1.988 -0.6434  0.3606 -0.6063
 7228SOL    HW133146   1.322   0.728   1.944 -0.3562  2.5011  2.1001
 7228SOL    HW233147   1.300   0.611   2.031  1.6266  1.1999 -1.8672
 7229SOL     OW33148   1.824   0.991   2.844  0.5446 -0.1148  0.2120
 7229SOL    HW133149   1.753   1.005   2.781  1.1849 -0.5061 -0.5944
 7229SOL    HW233150   1.865   0.921   2.793 -1.7683  0.9242 -3.1079
 7230SOL     OW33151   1.043   0.690   3.677  0.1405 -0.0704  0.1839
 7230SOL    HW133152   0.975   0.750   3.707 -1.0954 -0.5175 -1.7622
 7230SOL    HW233153   1.117   0.742   3.708  0.6552 -1.3613  1.1648
 7231SOL     OW33154   3.620   0.782  14.976 -0.2150 -0.1976 -0.0858
 7231SOL    HW133155   3.691   0.809  15.034  1.0348 -1.7211 -0.8936
 7231SOL    HW233156   3.663   0.798  14.892  0.0227 -1.9999 -0.3181
 7232SOL     OW33157   2.648   0.973   5.407  0.2875 -0.3726 -0.0597
 7232SOL    HW133158   2.742   0.993   5.412 -0.0889  1.3210  0.4945
 7232SOL    HW233159   2.643   0.902   5.344 -0.0510 -0.4772  0.0880
 7233SOL     OW33160   1.553   1.044   6.448 -0.1419 -0.4994 -0.0734
 7233SOL    HW133161   1.479   1.104   6.464 -1.5530 -2.1136 -0.5409
 7233SOL    HW233162   1.532   1.019   6.358  4.1675 -2.3149 -0.5767
 7234SOL     OW33163   3.211   1.611   3.664 -0.0749 -0.1178  0.3536
 7234SOL    HW133164   3.210   1.625   3.570  3.2313  2.5809  0.7184
 7234SOL    HW233165   3.300   1.583   3.686 -0.1671  1.0571  2.2216
 7235SOL     OW33166   1.575   1.788   8.126  0.0990 -0.4520  0.0980
 7235SOL    HW133167   1.583   1.693   8.133  0.3687 -0.4709 -0.4299
 7235SOL    HW233168   1.637   1.807   8.056  0.0954 -0.1636  0.1723
 7236SOL     OW33169   4.627   4.085  10.047 -0.1867  0.2388  0.0154
 7236SOL    HW133170   4.668   4.040  10.121  0.3980  0.2806 -0.2832
 7236SOL    HW233171   4.641   4.031   9.969  0.0191 -0.1928  0.3511
 7237SOL     OW33172   0.485   2.202   5.036  0.2973 -0.0936 -0.0707
 7237SOL    HW133173   0.580   2.218   5.036  0.3792 -0.5620  1.0442
 7237SOL    HW233174   0.485   2.116   5.079  0.3473  0.7394  1.5866
 7238SOL     OW33175   0.186   2.472   8.868 -0.5525 -0.2844  0.5820
 7238SOL    HW133176   0.167   2.565   8.881 -0.7769 -0.4017  1.1057
 7238SOL    HW233177   0.130   2.439   8.798 -1.1451  1.6579  0.1295
 7239SOL     OW33178   2.120   0.021  16.740 -0.0341 -0.1136 -0.8948
 7239SOL    HW133179   2.084   4.660  16.766 -1.5011  0.8764  0.2341
 7239SOL    HW233180   2.057   0.061  16.680 -1.0624  0.0213  0.2842
 7240SOL     OW33181   0.626   3.912  12.615 -0.1669 -0.6875 -0.2057
 7240SOL    HW133182   0.685   3.840  12.595  1.2707  0.2517  0.6139
 7240SOL    HW233183   0.608   3.895  12.707 -0.0410  1.3939  0.2112
 7241SOL     OW33184   0.834   0.481   3.821  0.0039  0.3824 -0.5670
 7241SOL    HW133185   0.844   0.389   3.796  4.2625  0.5489  0.5246
 7241SOL    HW233186   0.916   0.498   3.867 -0.4190  1.5698 -0.2631
 7242SOL     OW33187   2.363   1.096   8.343  0.1881 -0.0915 -0.2974
 7242SOL    HW133188   2.306   1.114   8.418  0.9611  0.2745  0.2079
 7242SOL    HW233189   2.332   1.166   8.286  2.4944  0.1495 -1.2520
 7243SOL     OW33190   2.820   1.863   4.922 -0.4356  0.1120  0.6084
 7243SOL    HW133191   2.784   1.861   4.834 -1.4697 -1.5893  1.0724
 7243SOL    HW233192   2.914   1.874   4.906 -0.5843 -0.8566 -0.9329
 7244SOL     OW33193   2.998   4.708   8.004 -0.1993  0.4184 -0.0531
 7244SOL    HW133194   2.984   0.079   7.989 -0.2690  0.7529  2.0268
 7244SOL    HW233195   3.022   4.713   8.096 -0.7933  0.4074  0.1049
 7245SOL     OW33196   4.139   1.525   5.528 -0.1028  0.1731  0.4106
 7245SOL    HW133197   4.169   1.600   5.580  1.1667 -0.6516  0.8874
 7245SOL    HW233198   4.127   1.464   5.602  1.2512  0.0587  0.5421
 7246SOL     OW33199   3.736   0.989  17.453  0.1849 -0.1534 -0.5860
 7246SOL    HW133200   3.798   1.051  17.414 -1.7928  2.1862  0.0265
 7246SOL    HW233201   3.649   1.006  17.415 -1.0135 -2.4036  1.1843
 7247SOL     OW33202   4.157   0.924  12.047 -0.0697 -0.0746 -0.4115
 7247SOL    HW133203   4.227   0.865  12.019  0.0743 -0.1848  0.1810
 7247SOL    HW233204   4.139   0.965  11.962 -0.4995 -0.9113 -0.7357
 7248SOL     OW33205   1.943   1.358   4.877  0.0138 -0.7849  0.1999
 7248SOL    HW133206   1.915   1.417   4.947  1.4174 -1.4734  1.3513
 7248SOL    HW233207   1.998   1.299   4.929  1.4059  0.9170  0.6749
 7249SOL     OW33208   1.855   0.281   6.930 -0.0425 -0.4973 -0.5990
 7249SOL    HW133209   1.819   0.365   6.901  0.7440  0.4689  1.2003
 7249SOL    HW233210   1.904   0.244   6.857 -1.8462 -0.9970 -1.5458
 7250SOL     OW33211   1.135   0.629   4.141 -0.0528 -0.1060 -0.3700
 7250SOL    HW133212   1.125   0.717   4.107  0.1647 -1.3175 -3.5844
 7250SOL    HW233213   1.043   0.607   4.127  0.1764 -0.4450 -1.4143
 7251SOL     OW33214   4.685   3.474   6.274 -0.5062 -0.1876 -0.2222
 7251SOL    HW133215   0.053   3.453   6.290 -0.0615  0.2431 -2.2377
 7251SOL    HW233216   4.685   3.547   6.335 -0.7487  1.0400 -1.6885
 7252SOL     OW33217   0.376   2.727  12.540 -0.1968 -0.1266 -0.3882
 7252SOL    HW133218   0.432   2.746  12.464 -0.8636 -2.7969 -1.5400
 7252SOL    HW233219   0.318   2.803  12.544 -0.2823 -0.1266 -1.4721
 7253SOL     OW33220   2.383   3.986   3.008  0.0825  0.0172 -0.2983
 7253SOL    HW133221   2.292   3.998   2.980  0.0856  0.8997  0.0843
 7253SOL    HW233222   2.423   3.954   2.927 -0.2511  0.7403 -0.7406
 7254SOL     OW33223   4.234   2.561  11.050 -0.5901 -0.3827  0.5942
 7254SOL    HW133224   4.192   2.527  10.970 -1.7202  1.8986  0.1996
 7254SOL    HW233225   4.231   2.482  11.103 -1.3522  0.5076  1.8743
 7255SOL     OW33226   1.942   4.107   9.529 -0.5784 -0.5039  0.8438
 7255SOL    HW133227   1.912   4.077   9.614 -0.4292  2.1996  1.8197
 7255SOL    HW233228   1.985   4.190   9.545 -0.1625 -0.6082  0.2651
 7256SOL     OW33229   3.244   0.744   8.140  0.4221 -0.4693  0.3939
 7256SOL    HW133230   3.198   0.748   8.224  0.1830  0.4059  0.2260
 7256SOL    HW233231   3.323   0.701   8.174  1.1040  0.4545 -0.0199
 7257SOL     OW33232   1.639   2.557   5.875 -0.6078 -0.0386  0.0884
 7257SOL    HW133233   1.578   2.543   5.802 -1.1196 -0.5132  0.6081
 7257SOL    HW233234   1.589   2.591   5.949 -0.9978  3.6269 -1.8263
 7258SOL     OW33235   4.407   1.892   3.337 -0.0820  0.0367 -0.7329
 7258SOL    HW133236   4.445   1.870   3.422  1.4302  2.7263 -0.7152
 7258SOL    HW233237   4.401   1.988   3.344  0.9658 -0.0288  1.0823
 7259SOL     OW33238   2.872   2.158   9.274  0.2898 -0.6251  0.1981
 7259SOL    HW133239   2.919   2.181   9.354 -1.1613  0.9911  0.5875
 7259SOL    HW233240   2.868   2.065   9.295 -2.1572 -0.3180  1.1072
 7260SOL     OW33241   2.740   3.990   2.341 -0.4198  0.1171 -0.1080
 7260SOL    HW133242   2.760   4.025   2.254  0.4388 -3.3609 -1.3249
 7260SOL    HW233243   2.646   4.001   2.359 -0.4261  1.2145 -0.8018
 7261SOL     OW33244   4.657   0.886   9.229 -0.2205 -0.4503 -1.6344
 7261SOL    HW133245   4.679   0.798   9.259  1.6286  0.2230 -1.0071
 7261SOL    HW233246   4.565   0.870   9.206 -0.4845  0.3106 -1.0794
 7262SOL     OW33247   0.841   1.640   4.045 -0.3018 -0.6300  0.4345
 7262SOL    HW133248   0.928   1.610   4.071 -0.3063 -1.7294 -0.8512
 7262SOL    HW233249   0.829   1.710   4.110  1.4168  0.8441 -0.8249
 7263SOL     OW33250   1.914   3.374   7.671  0.5812 -0.4978 -0.4148
 7263SOL    HW133251   1.824   3.399   7.653  0.7903  2.1402  2.3433
 7263SOL    HW233252   1.962   3.427   7.607 -1.5029  2.2760  0.3708
 7264SOL     OW33253   0.530   2.600   7.271  1.2790  0.3043 -0.1840
 7264SOL    HW133254   0.626   2.593   7.272  1.4021  2.4550  3.1893
 7264SOL    HW233255   0.515   2.689   7.302  3.5171  0.4718  0.4458
 7265SOL     OW33256   0.908   2.654  15.896  0.3505  0.8877 -0.2986
 7265SOL    HW133257   0.931   2.562  15.909  1.1046  0.5566 -3.9401
 7265SOL    HW233258   0.919   2.690  15.984 -1.3827  2.2339 -0.6324
 7266SOL     OW33259   3.891   1.793   1.640 -0.2421  0.3364 -0.7607
 7266SOL    HW133260   3.849   1.869   1.600  1.2422  0.7031 -1.5916
 7266SOL    HW233261   3.818   1.734   1.622 -0.6394  1.0925 -1.5992
 7267SOL     OW33262   1.054   2.403   5.254  0.2787  0.0163  0.2173
 7267SOL    HW133263   1.038   2.326   5.199  3.5872  1.1362 -2.3483
 7267SOL    HW233264   0.977   2.459   5.249 -1.1668 -1.7742  2.8567
 7268SOL     OW33265   3.133   4.103   3.716 -0.0418 -0.0975 -0.0148
 7268SOL    HW133266   3.066   4.074   3.654 -0.2972  1.0916 -0.3092
 7268SOL    HW233267   3.208   4.131   3.663  0.5603 -2.1613 -0.2448
 7269SOL     OW33268   1.215   4.162   2.601 -0.1928 -0.6059  0.8148
 7269SOL    HW133269   1.195   4.083   2.551  0.4604  1.2312 -2.3024
 7269SOL    HW233270   1.253   4.216   2.532  0.3424 -2.5631 -0.3949
 7270SOL     OW33271   1.910   3.887   8.314 -0.4996  0.0469  0.6452
 7270SOL    HW133272   1.948   3.822   8.373  0.4732 -1.8168 -2.0088
 7270SOL    HW233273   1.817   3.868   8.325 -0.9523  2.4054  0.7800
 7271SOL     OW33274   1.796   1.776   5.557 -0.0784 -0.0138  0.5781
 7271SOL    HW133275   1.812   1.823   5.639  1.2456  1.3865 -0.5012
 7271SOL    HW233276   1.809   1.841   5.489 -2.7449  1.3504  1.3826
 7272SOL     OW33277   2.174   4.568  17.043 -0.0328 -0.1077 -0.0631
 7272SOL    HW133278   2.117   4.544  16.970  1.4974 -2.3094 -0.5375
 7272SOL    HW233279   2.108   4.614  17.095 -0.0992  1.7163 -1.7902
 7273SOL     OW33280   2.656   4.473   5.615 -0.1422 -0.8069 -0.0037
 7273SOL    HW133281   2.724   4.413   5.584  2.6158  2.2827  0.0972
 7273SOL    HW233282   2.710   4.549   5.634  1.8095 -1.6979 -1.9797
 7274SOL     OW33283   4.223   0.667   6.966 -0.0316  0.0626 -0.1770
 7274SOL    HW133284   4.251   0.577   6.982 -0.4121 -0.1952 -0.9905
 7274SOL    HW233285   4.197   0.661   6.874 -0.3080  1.2084 -0.1715
 7275SOL     OW33286   1.924   2.552   0.946 -0.0522 -0.0461 -0.7407
 7275SOL    HW133287   1.927   2.521   1.037  0.6358 -0.9914 -1.0807
 7275SOL    HW233288   1.930   2.646   0.962 -0.5955  0.0016 -0.7993
 7276SOL     OW33289   0.774   4.348  11.088  0.2737 -0.1793 -0.4685
 7276SOL    HW133290   0.860   4.310  11.104 -0.0656  0.0622  1.8841
 7276SOL    HW233291   0.767   4.431  11.135 -1.2616  0.6157 -2.1008
 7277SOL     OW33292   2.265   0.725   8.837 -0.3593 -0.2809 -0.3358
 7277SOL    HW133293   2.230   0.730   8.747 -0.2171 -0.6378 -0.4087
 7277SOL    HW233294   2.188   0.706   8.891 -0.5208 -1.2486 -0.9140
 7278SOL     OW33295   4.044   0.497   0.018 -0.6785  0.4226  0.6364
 7278SOL    HW133296   4.077   0.407   0.015  0.9939  1.0611 -0.0763
 7278SOL    HW233297   3.964   0.486  17.662 -0.4461  0.8541  0.1782
 7279SOL     OW33298   2.823   0.863   0.910  0.5701  0.1525 -0.9099
 7279SOL    HW133299   2.860   0.893   0.827 -1.9619  2.1261 -1.3261
 7279SOL    HW233300   2.743   0.814   0.891  1.4431 -2.1139  1.2655
 7280SOL     OW33301   2.353   0.239   8.359  0.1510  0.0541 -0.0971
 7280SOL    HW133302   2.271   0.271   8.321  0.4935 -1.0135 -1.7488
 7280SOL    HW233303   2.367   0.158   8.310 -2.1457 -1.2880  1.4747
 7281SOL     OW33304   1.832   3.650   3.904 -0.4290 -0.4657 -0.0755
 7281SOL    HW133305   1.907   3.592   3.910  1.9857  2.8489  1.9572
 7281SOL    HW233306   1.822   3.672   3.997 -0.1133 -0.8768  0.0543
 7282SOL     OW33307   1.316   0.488   8.372  0.5389  0.0958 -0.4665
 7282SOL    HW133308   1.284   0.461   8.458  1.7706  0.8163  0.2193
 7282SOL    HW233309   1.252   0.450   8.312 -0.4181  4.3287 -2.1740
 7283SOL     OW33310   0.912   4.689   8.850  0.5349 -0.0302 -0.4795
 7283SOL    HW133311   0.902   4.594   8.854  0.8218 -0.1354 -2.3024
 7283SOL    HW233312   0.940   4.717   8.937 -1.4591 -2.1923  0.8445
 7284SOL     OW33313   4.604   3.379  13.785  0.0057 -0.8193  0.0165
 7284SOL    HW133314   4.519   3.336  13.781 -0.2149 -0.5500  1.5570
 7284SOL    HW233315   4.595   3.455  13.728  0.0852  0.1077  1.2375
 7285SOL     OW33316   3.577   1.448   3.532 -0.3111 -0.0116 -0.4017
 7285SOL    HW133317   3.550   1.489   3.614  1.3639  0.8243 -0.2767
 7285SOL    HW233318   3.668   1.431   3.556 -0.7268 -0.6475  0.6847
 7286SOL     OW33319   0.440   1.817   5.290 -0.6178 -0.3387 -0.5758
 7286SOL    HW133320   0.494   1.839   5.365 -0.9115 -1.9439  0.1150
 7286SOL    HW233321   0.490   1.848   5.215  1.7837 -0.8597  0.8203
 7287SOL     OW33322   0.914   4.330   8.346 -0.0795 -0.2475  0.3924
 7287SOL    HW133323   0.973   4.293   8.281 -0.2526 -2.1915  1.3198
 7287SOL    HW233324   0.899   4.423   8.332  1.7474 -0.0823 -0.4558
 7288SOL     OW33325   0.782   4.304   5.288 -0.2102  0.0341  0.1059
 7288SOL    HW133326   0.827   4.343   5.213 -1.6051 -0.9048 -1.2157
 7288SOL    HW233327   0.833   4.342   5.360  0.3179 -0.2773 -0.0961
 7289SOL     OW33328   3.876   1.338  13.175  0.3082  0.0738 -0.6386
 7289SOL    HW133329   3.842   1.323  13.087 -1.4273  1.3574 -0.1764
 7289SOL    HW233330   3.844   1.263  13.226  2.3677 -0.5693 -0.2684
 7290SOL     OW33331   4.230   3.473   3.760 -0.5665  0.6332  0.3469
 7290SOL    HW133332   4.163   3.535   3.734  1.3239  1.7004 -2.0211
 7290SOL    HW233333   4.213   3.467   3.854 -0.3640  2.2066  0.4788
 7291SOL     OW33334   4.496   1.025   2.105 -0.0055 -0.6165  0.2993
 7291SOL    HW133335   4.551   0.955   2.142 -2.0397 -2.3294  0.1215
 7291SOL    HW233336   4.510   1.096   2.167 -0.9096 -2.5336  2.7339
 7292SOL     OW33337   0.332   3.748  17.508  0.7208 -0.2389  0.3900
 7292SOL    HW133338   0.384   3.816  17.464  3.3750 -0.6743  2.8773
 7292SOL    HW233339   0.400   3.682  17.513 -0.3405 -1.2159  1.9714
 7293SOL     OW33340   2.104   2.640   1.653 -0.2158 -0.0412 -0.5212
 7293SOL    HW133341   2.160   2.652   1.730 -1.6032 -1.3641  0.6911
 7293SOL    HW233342   2.116   2.547   1.633  2.7042 -0.3493  2.6850
 7294SOL     OW33343   2.760   4.222   4.209 -0.6036  0.3933  0.2125
 7294SOL    HW133344   2.799   4.233   4.122  1.5036  0.4010  1.1487
 7294SOL    HW233345   2.733   4.310   4.235  1.5056  0.7912  1.0508
 7295SOL     OW33346   0.107   4.720   8.662 -0.0707  0.4052  0.2400
 7295SOL    HW133347   0.142   0.077   8.622 -2.1158  0.6374 -1.0385
 7295SOL    HW233348   0.084   0.014   8.754  0.3903  1.8275  0.1013
 7296SOL     OW33349   3.634   3.708  13.462 -0.0945 -0.4618 -0.1018
 7296SOL    HW133350   3.711   3.698  13.406 -0.6256 -0.3824 -0.8448
 7296SOL    HW233351   3.667   3.679  13.547 -2.0172  0.8052  1.0549
 7297SOL     OW33352   4.304   3.628  16.575 -0.2190  0.0936 -0.2929
 7297SOL    HW133353   4.216   3.641  16.541 -1.3276 -2.9134  1.4427
 7297SOL    HW233354   4.337   3.596  16.492 -1.0105 -0.2289 -0.4836
 7298SOL     OW33355   3.573   3.986   5.746  0.1931  0.2286 -0.6451
 7298SOL    HW133356   3.556   4.007   5.654  0.0247  0.6640 -0.5125
 7298SOL    HW233357   3.606   4.069   5.781 -0.0050 -0.1365  0.3953
 7299SOL     OW33358   0.160   2.006   2.602 -0.4780  0.8534 -0.3034
 7299SOL    HW133359   0.226   2.067   2.636 -0.3852  0.0863  0.8832
 7299SOL    HW233360   0.195   2.019   2.514  2.6033 -1.6082  0.5490
 7300SOL     OW33361   1.751   1.345  16.662 -0.2879  0.1736  0.4264
 7300SOL    HW133362   1.665   1.387  16.668 -0.8955 -1.0671  0.3521
 7300SOL    HW233363   1.739   1.253  16.685 -2.1528  0.3008 -0.0942
 7301SOL     OW33364   1.099   4.561  12.959  0.1533  0.2115 -0.1972
 7301SOL    HW133365   1.129   4.631  13.018 -0.2528 -0.2168  0.5147
 7301SOL    HW233366   1.178   4.527  12.917 -0.7975 -4.3567  1.7633
 7302SOL     OW33367   2.682   4.281   8.345 -0.1633  0.1200 -0.0149
 7302SOL    HW133368   2.591   4.276   8.372  0.4589  1.4784  2.3457
 7302SOL    HW233369   2.660   4.295   8.253  0.9681 -0.3415 -0.3657
 7303SOL     OW33370   0.391   2.554   4.244 -0.5490 -0.6077  0.0675
 7303SOL    HW133371   0.305   2.597   4.249 -0.1276  0.6109 -3.1881
 7303SOL    HW233372   0.369   2.467   4.277 -1.0885 -0.2151  0.7600
 7304SOL     OW33373   3.640   3.134  15.667 -0.1455  0.4261  0.0728
 7304SOL    HW133374   3.671   3.198  15.604  0.3472  1.7750  1.6761
 7304SOL    HW233375   3.639   3.186  15.748 -3.0968 -2.9780  2.2295
 7305SOL     OW33376   2.048   0.960   9.096 -0.4248 -0.2960 -0.1056
 7305SOL    HW133377   1.990   1.032   9.118 -0.0710 -0.0345 -0.0441
 7305SOL    HW233378   2.084   0.979   9.009 -0.5554 -1.1434 -0.3460
 7306SOL     OW33379   1.306   2.466   0.493 -0.0010  0.2930 -0.0339
 7306SOL    HW133380   1.395   2.483   0.524 -0.4320  1.1283  0.7394
 7306SOL    HW233381   1.315   2.391   0.433  1.8713 -1.4644  2.4202
 7307SOL     OW33382   0.844   1.524  12.955 -0.0961 -1.2665 -0.0857
 7307SOL    HW133383   0.881   1.520  13.043 -0.6773 -0.7188  0.1731
 7307SOL    HW233384   0.760   1.482  12.971 -0.4465 -0.1855  0.8706
 7308SOL     OW33385   3.910   0.806   1.329  0.2874  0.0776  0.3816
 7308SOL    HW133386   3.906   0.711   1.336 -0.5539  0.1618  1.0360
 7308SOL    HW233387   4.003   0.827   1.320  0.0812  0.3515 -1.1729
 7309SOL     OW33388   0.860   1.717   6.988 -0.8897 -0.1781 -0.2287
 7309SOL    HW133389   0.935   1.665   6.957 -0.2810  1.1988 -1.0808
 7309SOL    HW233390   0.789   1.703   6.925  0.7185 -0.8497 -1.9084
 7310SOL     OW33391   2.812   3.305   2.569  0.7812  0.8817  0.0741
 7310SOL    HW133392   2.893   3.351   2.593 -0.3380  1.7341  2.2078
 7310SOL    HW233393   2.784   3.345   2.487  2.2801 -1.9484 -1.8138
 7311SOL     OW33394   2.788   2.974  15.018 -0.5595  0.3097 -0.3317
 7311SOL    HW133395   2.750   2.945  14.935 -2.8336 -2.9444  1.8917
 7311SOL    HW233396   2.868   3.016  14.985 -1.2876  0.6981 -1.6279
 7312SOL     OW33397   2.621   4.289   1.378  0.5592  0.1041 -0.2821
 7312SOL    HW133398   2.618   4.342   1.298  2.1014  0.1135 -0.3416
 7312SOL    HW233399   2.695   4.327   1.425 -0.2964  1.2393  0.1582
 7313SOL     OW33400   3.695   0.078   6.726 -0.2527 -0.3825 -0.3714
 7313SOL    HW133401   3.647   0.004   6.690  0.2561 -0.4883 -0.8277
 7313SOL    HW233402   3.781   0.039   6.743 -1.2535 -3.6236 -2.6887
 7314SOL     OW33403   4.354   1.074   3.308  0.0896  0.0943 -0.1550
 7314SOL    HW133404   4.432   1.020   3.319  1.3356  2.0025  0.4151
 7314SOL    HW233405   4.335   1.088   3.400  0.7800  0.8556 -0.1227
 7315SOL     OW33406   1.433   0.837   7.780  0.3082  0.0190  0.3155
 7315SOL    HW133407   1.416   0.883   7.698 -0.5347  0.7463  0.9066
 7315SOL    HW233408   1.474   0.909   7.829 -1.2066  1.2069 -0.1660
 7316SOL     OW33409   0.409   4.541   2.890 -0.1087 -0.5251 -0.1993
 7316SOL    HW133410   0.356   4.523   2.812 -0.9320  3.1450 -0.4728
 7316SOL    HW233411   0.423   4.636   2.888  0.9075 -0.6684  0.3501
 7317SOL     OW33412   2.582   1.497   4.808  0.3958  0.3114 -0.4260
 7317SOL    HW133413   2.652   1.437   4.834  0.1512 -0.6005 -1.8972
 7317SOL    HW233414   2.600   1.570   4.868 -0.1815  0.2253 -0.1451
 7318SOL     OW33415   0.834   3.122  11.441  0.1111  0.0389 -0.2557
 7318SOL    HW133416   0.846   3.199  11.496  2.2060 -1.0674  0.8050
 7318SOL    HW233417   0.873   3.058  11.500  0.7407 -2.4754 -3.3685
 7319SOL     OW33418   0.258   4.280   4.503  0.1334 -0.3101  0.0634
 7319SOL    HW133419   0.186   4.332   4.538 -1.8771 -2.0866 -1.4259
 7319SOL    HW233420   0.217   4.200   4.470 -1.4271  0.3907  0.2967
 7320SOL     OW33421   0.421   0.260   5.435 -0.6186 -0.1317  0.1369
 7320SOL    HW133422   0.358   0.318   5.393  1.4683  1.7733 -0.3639
 7320SOL    HW233423   0.390   0.173   5.412  1.0809 -1.6981  3.8189
 7321SOL     OW33424   0.340   2.490   2.590 -0.6988 -0.0528  0.8813
 7321SOL    HW133425   0.386   2.464   2.669  0.6967 -2.4477 -0.7304
 7321SOL    HW233426   0.397   2.556   2.549 -0.4344 -2.0329 -1.9060
 7322SOL     OW33427   4.563   4.256   0.070 -0.1647 -0.1590  0.3919
 7322SOL    HW133428   4.612   4.184   0.032  1.3637  1.1266 -0.0535
 7322SOL    HW233429   4.621   4.289   0.139 -0.1926  1.5223 -0.3724
 7323SOL     OW33430   0.696   3.409   0.862 -0.0468 -0.1340 -0.4917
 7323SOL    HW133431   0.657   3.343   0.803 -0.5637  0.1798 -0.4981
 7323SOL    HW233432   0.788   3.404   0.836 -0.1330  1.0755 -1.0283
 7324SOL     OW33433   2.492   4.553   0.927  0.2683 -0.1711 -0.0916
 7324SOL    HW133434   2.520   4.573   0.837  1.4599 -0.1554  0.2844
 7324SOL    HW233435   2.398   4.536   0.919  0.1127  0.9587 -0.6203
 7325SOL     OW33436   4.132   2.395   3.734 -0.0994  0.3045 -0.3471
 7325SOL    HW133437   4.226   2.383   3.722  0.1245  0.0098  1.6229
 7325SOL    HW233438   4.106   2.463   3.672 -2.1405  1.8344  2.1844
 7326SOL     OW33439   1.737   4.700  12.381 -0.0717  0.5891 -0.0932
 7326SOL    HW133440   1.744   4.607  12.357  1.7949  1.1793 -1.8044
 7326SOL    HW233441   1.831   4.720  12.383 -0.5383  2.8578 -2.1163
 7327SOL     OW33442   3.054   3.242   6.025 -0.0439 -0.0778  0.0027
 7327SOL    HW133443   3.100   3.168   5.986  0.9534  0.2190  0.5877
 7327SOL    HW233444   2.964   3.214   6.014 -0.5409  0.9242  1.4669
 7328SOL     OW33445   4.510   1.376   8.201 -0.3044 -0.1331 -0.3152
 7328SOL    HW133446   4.465   1.335   8.275 -0.9645 -0.3319 -0.8292
 7328SOL    HW233447   4.571   1.307   8.176  0.7304  0.8981 -0.6380
 7329SOL     OW33448   4.368   1.051   0.832  0.0183 -0.1647  0.3162
 7329SOL    HW133449   4.309   1.124   0.812  1.4867  0.9234 -0.0533
 7329SOL    HW233450   4.326   0.975   0.792  0.1943  0.0571 -0.2921
 7330SOL     OW33451   0.194   3.524   7.298 -0.2000  0.1798 -0.1448
 7330SOL    HW133452   0.169   3.609   7.264  1.0458  0.6297  0.0551
 7330SOL    HW233453   0.266   3.504   7.238 -0.4430 -3.5894  0.7665
 7331SOL     OW33454   0.523   2.827  17.525  0.4298 -0.1291 -0.1250
 7331SOL    HW133455   0.457   2.855  17.587  1.2826 -1.1465  1.2628
 7331SOL    HW233456   0.593   2.805  17.587  2.3738  1.2058 -1.8385
 7332SOL     OW33457   1.386   2.342   3.137  0.3815  0.2004  0.8343
 7332SOL    HW133458   1.366   2.259   3.179 -0.0642 -0.0527  0.1204
 7332SOL    HW233459   1.374   2.319   3.045  0.4026  1.7185  0.4400
 7333SOL     OW33460   1.150   1.021   8.004 -0.2663 -0.3853  0.3751
 7333SOL    HW133461   1.209   1.035   7.930  0.6691 -0.5466  1.0900
 7333SOL    HW233462   1.206   0.969   8.062 -1.3761  0.9326  2.6202
 7334SOL     OW33463   2.669   2.661   0.903  0.2125 -0.1941 -0.5844
 7334SOL    HW133464   2.721   2.741   0.890  0.7373 -0.3291  0.6901
 7334SOL    HW233465   2.583   2.677   0.864  0.2936 -1.5677 -1.3106
 7335SOL     OW33466   3.233   1.033   6.241  0.5257  0.4917  0.0044
 7335SOL    HW133467   3.267   1.037   6.330 -1.3813 -0.1412  0.7604
 7335SOL    HW233468   3.315   1.028   6.192 -0.3307 -1.9815 -1.1554
 7336SOL     OW33469   0.950   1.743   8.986 -0.0815 -0.3635  0.1865
 7336SOL    HW133470   1.027   1.686   8.989  0.6642  0.7403  2.1357
 7336SOL    HW233471   0.971   1.797   9.062 -0.8129  0.4990 -0.2123
 7337SOL     OW33472   2.000   1.145   8.503  0.2141 -0.2516 -0.0426
 7337SOL    HW133473   2.069   1.092   8.544  0.3510  2.2317  2.9731
 7337SOL    HW233474   2.040   1.232   8.501  0.3984 -0.3786 -1.4137
 7338SOL     OW33475   0.428   2.938   3.151 -0.4917 -0.6855 -0.6538
 7338SOL    HW133476   0.430   2.843   3.162 -2.2161 -0.5249  1.1383
 7338SOL    HW233477   0.413   2.964   3.061  0.2760 -1.1443 -0.9103
 7339SOL     OW33478   3.778   0.178   4.225  0.5673 -1.2418  0.5755
 7339SOL    HW133479   3.694   0.135   4.239 -0.0353  0.1389  1.1807
 7339SOL    HW233480   3.809   0.189   4.315  0.0428  2.7793  0.2688
 7340SOL     OW33481   4.278   4.176   0.457  0.6431  0.3750 -0.1734
 7340SOL    HW133482   4.321   4.226   0.526  0.4893 -1.5059  1.2470
 7340SOL    HW233483   4.361   4.134   0.437  0.9545 -0.0334  1.9926
 7341SOL     OW33484   2.289   3.590   2.347 -0.1129  0.1787  0.1172
 7341SOL    HW133485   2.230   3.629   2.282  2.1964 -0.8948 -2.6165
 7341SOL    HW233486   2.372   3.625   2.315 -0.7079  0.3330 -1.2749
 7342SOL     OW33487   1.448   4.198   2.902 -0.0838  0.4831 -0.7471
 7342SOL    HW133488   1.523   4.203   2.843 -1.0997 -0.1823 -2.0925
 7342SOL    HW233489   1.389   4.133   2.863  0.3070  0.0610 -0.6310
 7343SOL     OW33490   3.760   4.093   3.203  0.2652 -0.3622  0.1635
 7343SOL    HW133491   3.747   4.155   3.275 -0.1430 -2.6721  2.0905
 7343SOL    HW233492   3.670   4.063   3.198 -0.1486  0.9470 -0.3653
 7344SOL     OW33493   1.594   2.367  17.210 -0.0104  0.1624 -0.0962
 7344SOL    HW133494   1.595   2.385  17.116  0.1996  0.2774 -0.0717
 7344SOL    HW233495   1.618   2.274  17.209 -0.6690  0.0260 -3.7669
 7345SOL     OW33496   2.266   2.676   1.852 -0.6031  0.1700 -0.1924
 7345SOL    HW133497   2.280   2.770   1.865  1.3800 -0.0864 -0.4408
 7345SOL    HW233498   2.252   2.642   1.941 -0.3538  0.5320 -0.0115
 7346SOL     OW33499   3.105   0.137   4.965  0.1772  0.3800 -0.2599
 7346SOL    HW133500   3.031   0.159   5.022  2.3362  1.3834  2.1520
 7346SOL    HW233501   3.058   0.095   4.894 -0.2168 -0.0902  0.2792
 7347SOL     OW33502   1.282   2.228   7.494  0.2807  0.1678  0.1225
 7347SOL    HW133503   1.347   2.296   7.475  0.4858  0.1113  0.6010
 7347SOL    HW233504   1.205   2.266   7.451  1.1537 -0.2918 -1.8391
 7348SOL     OW33505   2.960   1.247   8.064  0.2531  0.0483  0.2371
 7348SOL    HW133506   2.870   1.233   8.034  0.5519  1.6043 -1.3945
 7348SOL    HW233507   2.953   1.235   8.158  1.6294 -0.5527  0.2728
 7349SOL     OW33508   4.432   2.454   3.982 -0.4261 -0.2095 -0.1520
 7349SOL    HW133509   4.415   2.491   3.896  0.9648  0.1608 -0.2663
 7349SOL    HW233510   4.380   2.505   4.044 -1.1751  0.3520 -1.2339
 7350SOL     OW33511   3.107   4.323  16.042  0.6555  0.4369 -0.0645
 7350SOL    HW133512   3.028   4.358  15.999  1.2272  1.0899 -0.5827
 7350SOL    HW233513   3.137   4.400  16.091 -1.1737  0.8776  0.3786
 7351SOL     OW33514   3.929   1.225   0.033 -0.6081 -0.3578  0.1117
 7351SOL    HW133515   3.843   1.189   0.059 -0.2725  0.9746  3.0074
 7351SOL    HW233516   3.949   1.186  17.642  0.2786 -0.8135  0.5306
 7352SOL     OW33517   1.843   2.989   5.035  0.3695 -0.5703 -0.6334
 7352SOL    HW133518   1.918   3.041   5.063 -0.6799  0.1611  0.7997
 7352SOL    HW233519   1.763   3.038   5.056  0.5809 -0.5253  0.0630
 7353SOL     OW33520   4.568   0.324  11.880  0.3360  0.0757  0.2631
 7353SOL    HW133521   4.513   0.330  11.802 -2.6087 -0.5876  2.3010
 7353SOL    HW233522   4.505   0.324  11.952 -1.9763  3.7755 -1.7938
 7354SOL     OW33523   2.451   0.483  17.582 -0.2876 -0.0081 -0.7792
 7354SOL    HW133524   2.363   0.484  17.543 -0.3195 -0.9459 -0.7206
 7354SOL    HW233525   2.502   0.485  17.501 -0.3642  2.4016 -0.7585
 7355SOL     OW33526   1.623   1.078  14.519 -0.4898  0.2304 -0.1559
 7355SOL    HW133527   1.713   1.095  14.544 -0.4309  0.6020 -0.6188
 7355SOL    HW233528   1.643   1.025  14.442 -0.1705  0.1745 -0.0330
 7356SOL     OW33529   0.912   1.788   5.678 -0.5061  0.1067  0.1343
 7356SOL    HW133530   0.969   1.841   5.623 -0.2546  0.1371  0.4238
 7356SOL    HW233531   0.914   1.709   5.624  0.7856  0.1114  0.1720
 7357SOL     OW33532   2.543   3.413   8.034  0.2161 -0.0905  0.0688
 7357SOL    HW133533   2.454   3.444   8.017 -0.1269 -0.7546  0.6730
 7357SOL    HW233534   2.539   3.398   8.128 -2.8123  1.1919  0.1586
 7358SOL     OW33535   4.594   3.096  13.686 -0.2313 -0.3664  0.0117
 7358SOL    HW133536   4.527   3.165  13.686 -0.7626 -0.8919 -3.8422
 7358SOL    HW233537   4.582   3.066  13.776 -2.9208 -1.4096 -0.6919
 7359SOL     OW33538   0.796   4.562   4.097  0.0294  0.3508  0.2873
 7359SOL    HW133539   0.788   4.631   4.162 -1.2984  1.2907 -0.8685
 7359SOL    HW233540   0.861   4.503   4.136  0.9399  0.6730 -0.7238
 7360SOL     OW33541   2.531   0.642   1.126 -0.1670 -0.3841  0.4017
 7360SOL    HW133542   2.613   0.598   1.103  0.1525  0.8639 -0.8211
 7360SOL    HW233543   2.548   0.667   1.217  0.8805 -0.1586  0.1356
 7361SOL     OW33544   0.619   1.052  16.716 -0.1039  0.4149 -0.6042
 7361SOL    HW133545   0.526   1.033  16.708 -0.5858  1.8631  1.3932
 7361SOL    HW233546   0.635   1.044  16.810 -0.3677 -2.4773 -0.8200
 7362SOL     OW33547   4.396   1.207   1.253 -0.2386  0.3581  0.6542
 7362SOL    HW133548   4.440   1.158   1.322 -1.0961 -0.4562  0.6244
 7362SOL    HW233549   4.441   1.289   1.273  0.5374  0.2424 -0.6878
 7363SOL     OW33550   0.288   4.360   7.552 -0.4154 -0.1738 -0.3364
 7363SOL    HW133551   0.342   4.325   7.482  0.4873 -0.0007  0.2755
 7363SOL    HW233552   0.219   4.396   7.497  1.0425  2.5022 -0.3886
 7364SOL     OW33553   3.281   1.953  11.159 -0.0870  0.0755  0.3939
 7364SOL    HW133554   3.301   1.987  11.072 -1.0713 -0.1175  0.0865
 7364SOL    HW233555   3.345   1.882  11.162  1.4319  1.4270  0.2417
 7365SOL     OW33556   3.504   3.773   6.382 -0.0675  0.3229  0.3512
 7365SOL    HW133557   3.592   3.794   6.416  0.2624  1.0033 -0.9268
 7365SOL    HW233558   3.451   3.836   6.432  1.6229  2.1443 -0.1218
 7366SOL     OW33559   2.797   3.578   4.295 -0.1541  0.7256  0.1016
 7366SOL    HW133560   2.795   3.539   4.383 -0.3215 -1.7403 -1.0282
 7366SOL    HW233561   2.727   3.530   4.251 -0.0604 -0.0207  0.7605
 7367SOL     OW33562   1.523   1.010   3.203 -0.6668 -0.2997  0.2893
 7367SOL    HW133563   1.583   0.966   3.142 -1.9940 -1.1728 -0.4070
 7367SOL    HW233564   1.572   1.088   3.229  0.0769 -1.2745  1.8002
 7368SOL     OW33565   4.710   4.045   6.959  0.4259  0.1147  0.3591
 7368SOL    HW133566   0.030   4.055   7.043  2.8484  0.9881 -0.9810
 7368SOL    HW233567   4.633   4.101   6.971 -0.5904 -0.9693 -1.0687
 7369SOL     OW33568   1.446   3.525  15.864  0.1590 -0.3737  0.8117
 7369SOL    HW133569   1.362   3.533  15.910 -0.7314  2.5967 -1.3343
 7369SOL    HW233570   1.477   3.616  15.859 -2.0990  0.3911  0.6654
 7370SOL     OW33571   2.145   2.663   5.916  0.4499 -0.2727 -0.0612
 7370SOL    HW133572   2.114   2.606   5.846 -0.2641 -2.4597  2.0451
 7370SOL    HW233573   2.087   2.642   5.989 -1.1063  3.1258 -0.3089
 7371SOL     OW33574   4.430   3.974   1.878 -0.9843  0.8477 -0.3812
 7371SOL    HW133575   4.419   4.012   1.965  0.7259  0.9457 -0.2045
 7371SOL    HW233576   4.402   3.887   1.906 -2.1775  1.5660  0.6143
 7372SOL     OW33577   4.720   3.664   1.415 -0.0221 -0.5781 -0.2488
 7372SOL    HW133578   4.686   3.679   1.327  1.2728 -0.8448 -0.7905
 7372SOL    HW233579   4.673   3.583   1.430  2.4887 -1.5429  2.4962
 7373SOL     OW33580   2.726   4.391   0.483  0.0532 -0.0196 -0.8169
 7373SOL    HW133581   2.706   4.419   0.393 -0.2641 -0.5560 -0.9172
 7373SOL    HW233582   2.652   4.332   0.494  0.0171  0.4254  1.3151
 7374SOL     OW33583   4.085   4.042   5.063  0.4163 -0.4225  0.1236
 7374SOL    HW133584   4.080   4.081   5.150 -1.5960 -0.7493  0.1469
 7374SOL    HW233585   4.101   4.110   4.997  0.0333  0.6214  1.1185
 7375SOL     OW33586   4.160   4.073   2.917  0.6344  0.2484 -0.6458
 7375SOL    HW133587   4.108   4.040   2.990 -0.5747  0.1096 -1.5658
 7375SOL    HW233588   4.246   4.060   2.957 -0.5907 -1.5666  1.3953
 7376SOL     OW33589   4.278   3.980   2.637 -0.4209 -0.2073 -0.6606
 7376SOL    HW133590   4.224   4.029   2.699 -0.0633 -1.0763  0.3344
 7376SOL    HW233591   4.292   3.897   2.683  0.0336 -0.5342 -1.3915
 7377SOL     OW33592   3.977   2.775   1.275 -0.1152 -0.0893  0.1330
 7377SOL    HW133593   4.006   2.698   1.226 -1.0029 -1.8418  2.3738
 7377SOL    HW233594   4.044   2.788   1.341 -2.8355  1.1927  2.6092
 7378SOL     OW33595   0.876   4.596   6.616  0.6042  0.1831 -0.0992
 7378SOL    HW133596   0.834   4.532   6.559  0.3774  0.3915 -0.1655
 7378SOL    HW233597   0.914   4.536   6.680  0.4232 -0.8649 -0.9763
 7379SOL     OW33598   0.910   4.697   3.891 -0.2848  0.3949  0.5757
 7379SOL    HW133599   0.983   0.026   3.924 -0.0666 -0.7392  1.8712
 7379SOL    HW233600   0.862   4.658   3.963  0.3617 -1.0328  0.2347
 7380SOL     OW33601   0.494   1.906  13.679  0.2843 -0.2365 -0.2209
 7380SOL    HW133602   0.401   1.920  13.657  0.3921 -1.2588 -1.3432
 7380SOL    HW233603   0.531   1.984  13.637  0.3185 -0.5174 -0.7150
 7381SOL     OW33604   3.703   2.917   1.113  0.1971 -0.1331 -0.0149
 7381SOL    HW133605   3.664   3.003   1.128  0.6645 -0.4193  2.9897
 7381SOL    HW233606   3.659   2.901   1.030 -1.3492 -1.1568  0.9879
 7382SOL     OW33607   1.865   0.736   5.098  0.5457 -0.2918 -0.7102
 7382SOL    HW133608   1.884   0.735   5.192 -1.3552  1.1838 -0.3281
 7382SOL    HW233609   1.875   0.830   5.086 -1.6612 -0.0895 -0.9307
 7383SOL     OW33610   2.464   1.205   7.756  0.2866 -0.4881 -0.1121
 7383SOL    HW133611   2.560   1.207   7.762  0.2323 -1.5551  1.1789
 7383SOL    HW233612   2.450   1.111   7.752  1.9204 -0.7232 -0.2826
 7384SOL     OW33613   4.697   3.303  13.441  0.5575 -0.3165 -0.8745
 7384SOL    HW133614   4.670   3.212  13.450 -0.1694  0.0298  0.5171
 7384SOL    HW233615   4.616   3.349  13.420  0.6088  0.0737 -0.2145
 7385SOL     OW33616   3.173   0.313  15.864 -0.5914  0.5029 -0.1069
 7385SOL    HW133617   3.154   0.395  15.910  0.2249  0.1517  0.8492
 7385SOL    HW233618   3.148   0.240  15.921  3.2943  0.4998  1.5813
 7386SOL     OW33619   2.588   2.517  11.766 -0.0408  0.3513  0.1475
 7386SOL    HW133620   2.588   2.578  11.692 -0.1766  1.1660  0.8163
 7386SOL    HW233621   2.498   2.484  11.762  0.9446 -2.7789  3.6033
 7387SOL     OW33622   2.111   4.070   2.469  0.1767 -0.9547  0.3370
 7387SOL    HW133623   2.172   4.133   2.431 -0.3455 -1.2592 -0.9954
 7387SOL    HW233624   2.127   4.075   2.564  0.6129  2.3634  0.0643
 7388SOL     OW33625   0.907   1.356   2.749  0.1456 -0.4614 -0.8396
 7388SOL    HW133626   0.853   1.279   2.765  0.6772 -0.5367  0.5655
 7388SOL    HW233627   0.835   1.415   2.727  0.1872 -0.3234 -0.6008
 7389SOL     OW33628   2.172   2.343   4.133  0.0324 -0.5061  0.5473
 7389SOL    HW133629   2.144   2.326   4.223 -0.9136  0.2498  0.3899
 7389SOL    HW233630   2.257   2.299   4.129 -0.3393 -1.0919 -1.0692
 7390SOL     OW33631   2.722   3.367   4.902  0.8018  0.2204  0.0081
 7390SOL    HW133632   2.814   3.392   4.892  0.8493  0.6563  1.4976
 7390SOL    HW233633   2.707   3.385   4.995  0.0570 -0.6401  0.0477
 7391SOL     OW33634   0.893   2.322  16.288  0.4625 -0.1657  0.4406
 7391SOL    HW133635   0.889   2.251  16.224  0.4697  2.4802 -2.5204
 7391SOL    HW233636   0.951   2.295  16.359  0.5414  0.8050  0.7509
 7392SOL     OW33637   4.248   0.498   1.437 -0.6818  0.3250 -0.6009
 7392SOL    HW133638   4.224   0.409   1.411 -2.0364  0.5484 -0.1224
 7392SOL    HW233639   4.321   0.485   1.497  0.7081  2.0212 -1.9290
 7393SOL     OW33640   1.346   3.161   0.445  0.0897  0.5558  0.2496
 7393SOL    HW133641   1.329   3.223   0.374  3.7690  0.2116 -0.9042
 7393SOL    HW233642   1.415   3.201   0.496 -1.0336  1.4541  1.0690
 7394SOL     OW33643   1.482   4.472   0.669  0.3752  0.4948 -0.1135
 7394SOL    HW133644   1.419   4.422   0.721 -1.2346  1.4044 -1.2146
 7394SOL    HW233645   1.440   4.465   0.584 -0.3131 -0.7985  0.3280
 7395SOL     OW33646   3.918   1.959   4.779 -0.4365 -0.0013  0.0882
 7395SOL    HW133647   3.838   2.008   4.797 -0.9650 -0.1448 -1.8515
 7395SOL    HW233648   3.935   1.911   4.860 -1.3330  0.3659  0.4958
 7396SOL     OW33649   1.071   4.670  12.115  0.2999  0.1106  0.3372
 7396SOL    HW133650   0.985   4.663  12.074 -0.9047 -0.2973  2.9432
 7396SOL    HW233651   1.047   4.677  12.207 -0.4677  2.0213 -0.0185
 7397SOL     OW33652   0.169   2.493   7.675  0.1208 -0.1555 -0.6481
 7397SOL    HW133653   0.215   2.463   7.753  2.4695  0.5948 -1.7592
 7397SOL    HW233654   0.211   2.579   7.672  2.0180 -1.1285 -2.0769
 7398SOL     OW33655   1.329   2.686   7.550 -0.0127 -0.4888  0.8123
 7398SOL    HW133656   1.254   2.633   7.576  0.2097 -1.0882  0.2221
 7398SOL    HW233657   1.295   2.760   7.499 -0.2048 -1.8577 -0.9988
 7399SOL     OW33658   2.882   1.609   4.194 -0.0673 -0.0760 -1.0040
 7399SOL    HW133659   2.865   1.682   4.135  1.4388  2.9441  2.3316
 7399SOL    HW233660   2.791   1.587   4.211  0.0072  0.7979  0.4980
 7400SOL     OW33661   2.289   0.789   2.298  0.7558  0.1802  0.2710
 7400SOL    HW133662   2.302   0.883   2.282 -0.9082  0.4170  0.3078
 7400SOL    HW233663   2.379   0.755   2.302  0.3579 -0.5013  3.3907
 7401SOL     OW33664   1.299   4.168  13.652  0.5061 -0.1042  0.6495
 7401SOL    HW133665   1.218   4.145  13.697  0.6305  0.8000  1.3467
 7401SOL    HW233666   1.360   4.147  13.723 -0.2355  1.7376  1.8373
 7402SOL     OW33667   3.632   2.868   4.533  0.2992  0.0491  0.1473
 7402SOL    HW133668   3.671   2.812   4.600 -1.5161 -0.3000  0.9184
 7402SOL    HW233669   3.653   2.810   4.460 -1.4001 -1.9452  1.2383
 7403SOL     OW33670   3.891   1.858  17.289  0.0688 -0.2597  0.0728
 7403SOL    HW133671   3.965   1.888  17.236  0.1673  1.4867  1.2153
 7403SOL    HW233672   3.935   1.829  17.369  0.2088 -0.9521 -0.2542
 7404SOL     OW33673   1.622   3.162   8.449  0.1145  0.0424  0.4121
 7404SOL    HW133674   1.623   3.152   8.354 -0.7215 -1.8550  0.5942
 7404SOL    HW233675   1.714   3.152   8.472 -0.3487 -5.2173  0.1118
 7405SOL     OW33676   4.219   1.216  16.357 -0.4642  0.0669 -0.5096
 7405SOL    HW133677   4.177   1.287  16.308  0.6392  0.9782 -0.1348
 7405SOL    HW233678   4.142   1.160  16.369 -0.5324  0.5073  1.1961
 7406SOL     OW33679   0.850   1.628   7.240 -0.3942 -0.1859  0.6065
 7406SOL    HW133680   0.830   1.674   7.159  2.1233  1.2575  0.7893
 7406SOL    HW233681   0.941   1.651   7.259  0.3133 -1.4433 -1.2403
 7407SOL     OW33682   0.746   3.173  13.183  0.6359 -0.3890 -0.1635
 7407SOL    HW133683   0.739   3.170  13.279 -1.4968 -0.3864 -0.3080
 7407SOL    HW233684   0.660   3.143  13.154  0.6359 -0.6250  0.0754
 7408SOL     OW33685   1.447   1.778   5.994  0.7299  0.1976  0.1959
 7408SOL    HW133686   1.370   1.785   6.051  1.8213  1.3141  1.5539
 7408SOL    HW233687   1.487   1.702   6.036  1.0427 -0.7910 -1.8833
 7409SOL     OW33688   2.991   1.963  15.682  0.6534 -0.2904  0.3695
 7409SOL    HW133689   2.944   2.043  15.659  2.6895  0.5634 -0.7995
 7409SOL    HW233690   2.962   1.904  15.613 -0.2496 -0.1169  0.6061
 7410SOL     OW33691   0.355   4.560  10.666 -0.2428  0.2430 -0.9176
 7410SOL    HW133692   0.416   4.614  10.717 -0.4114 -0.7852  0.3764
 7410SOL    HW233693   0.394   4.561  10.579  0.8282  2.6601 -0.4101
 7411SOL     OW33694   4.179   0.487   3.494  0.5306 -0.0766  0.4675
 7411SOL    HW133695   4.138   0.505   3.410  0.5090 -1.4614  0.1835
 7411SOL    HW233696   4.244   0.555   3.512 -2.6516  3.2390 -0.7598
 7412SOL     OW33697   0.812   0.095   4.257  0.5472  0.0413 -0.2998
 7412SOL    HW133698   0.718   0.082   4.272  0.5522  1.1080  0.6489
 7412SOL    HW233699   0.804   0.158   4.186 -1.3419 -0.1421 -0.2633
 7413SOL     OW33700   2.627   2.999  15.666  0.3130 -0.0142  0.2397
 7413SOL    HW133701   2.649   3.026  15.755  1.0920 -1.5403  0.5142
 7413SOL    HW233702   2.538   2.977  15.693  0.1969 -0.5951 -0.6279
 7414SOL     OW33703   2.567   3.275   9.074  0.4356 -0.0123 -0.1790
 7414SOL    HW133704   2.553   3.220   8.997  1.3285 -1.4793  0.6859
 7414SOL    HW233705   2.576   3.359   9.029 -0.7398  1.1144  1.6768
 7415SOL     OW33706   1.318   3.510   2.616 -0.0248  0.2217  0.2694
 7415SOL    HW133707   1.348   3.571   2.683 -0.1074  0.7341 -0.1668
 7415SOL    HW233708   1.382   3.439   2.626 -0.0952  0.1282  0.0488
 7416SOL     OW33709   0.157   4.268   5.153  0.1669  0.0343  0.8340
 7416SOL    HW133710   0.107   4.207   5.098 -0.8314  2.1385 -0.6028
 7416SOL    HW233711   0.189   4.218   5.228 -1.8480 -1.0190  1.0154
 7417SOL     OW33712   2.849   1.459   2.034 -0.2988  0.2249  0.5193
 7417SOL    HW133713   2.801   1.463   1.952 -0.1617 -0.7782  0.3900
 7417SOL    HW233714   2.798   1.389   2.075 -1.8050  0.7405 -0.4862
 7418SOL     OW33715   0.794   0.714  15.681  0.2919  0.0189  0.0489
 7418SOL    HW133716   0.734   0.752  15.745 -0.3137 -2.1372  0.7566
 7418SOL    HW233717   0.868   0.770  15.701  1.0972 -0.9643 -0.1759
 7419SOL     OW33718   2.192   1.401   6.970  0.6721 -0.1276  0.1895
 7419SOL    HW133719   2.161   1.353   6.893 -2.1851  0.4759  0.9614
 7419SOL    HW233720   2.204   1.486   6.927 -1.4467  0.1352  0.0817
 7420SOL     OW33721   1.563   1.210  15.309  0.2128 -0.1840 -0.3347
 7420SOL    HW133722   1.577   1.147  15.380 -0.9831  0.5847  0.5879
 7420SOL    HW233723   1.484   1.172  15.271  0.4311  1.4801 -2.4029
 7421SOL     OW33724   3.676   2.267  10.218 -0.0357 -0.6545 -0.2003
 7421SOL    HW133725   3.693   2.268  10.313 -0.4241  0.9860 -0.1479
 7421SOL    HW233726   3.668   2.171  10.216  1.7133 -0.8223 -0.0160
 7422SOL     OW33727   0.177   3.381   0.703  0.4654 -0.2680 -0.2783
 7422SOL    HW133728   0.192   3.451   0.767  0.5449  0.9522 -1.6309
 7422SOL    HW233729   0.264   3.341   0.702  1.2362  1.4576 -1.3613
 7423SOL     OW33730   0.658   1.152   3.491 -0.1142 -0.0754 -0.8042
 7423SOL    HW133731   0.574   1.134   3.450 -0.1132  1.8223 -1.6467
 7423SOL    HW233732   0.668   1.076   3.547  2.0490  1.7421  1.2657
 7424SOL     OW33733   1.152   1.001   4.651  0.7924 -0.2269 -0.2818
 7424SOL    HW133734   1.098   0.998   4.730 -1.1986 -1.0782 -1.6742
 7424SOL    HW233735   1.237   0.975   4.688  1.3491  1.2034 -0.5553
 7425SOL     OW33736   0.652   0.862  15.864 -0.1592 -0.2528 -0.2273
 7425SOL    HW133737   0.571   0.845  15.914 -0.1158 -1.1852 -0.4785
 7425SOL    HW233738   0.641   0.955  15.843  0.9284 -0.4641 -1.6672
 7426SOL     OW33739   1.005   3.101  11.236 -0.5549  0.3438  0.1294
 7426SOL    HW133740   0.954   3.107  11.316  0.3068  2.4887  0.5010
 7426SOL    HW233741   1.035   3.010  11.242 -1.6444  0.1519  2.4133
 7427SOL     OW33742   4.574   3.888  10.467  0.8352 -0.1432 -0.4266
 7427SOL    HW133743   4.631   3.935  10.406  1.1368  0.9951  0.7124
 7427SOL    HW233744   4.644   3.844  10.514 -0.3957 -1.4765  0.1392
 7428SOL     OW33745   2.597   1.776  14.575 -0.1620 -0.0111 -0.8163
 7428SOL    HW133746   2.598   1.860  14.621 -2.6957 -0.5731  0.3243
 7428SOL    HW233747   2.683   1.739  14.592 -0.6923 -0.4726  0.9022
 7429SOL     OW33748   1.273   1.193   3.216  0.6192 -0.1846 -0.1342
 7429SOL    HW133749   1.359   1.192   3.257  0.5066  0.5589  0.1269
 7429SOL    HW233750   1.242   1.126   3.277 -0.6061  1.0109  0.5664
 7430SOL     OW33751   1.003   0.600   2.611 -0.3686 -0.2355  0.4078
 7430SOL    HW133752   0.943   0.674   2.599 -1.0841 -0.9615 -0.3991
 7430SOL    HW233753   1.017   0.585   2.518  2.4337  0.1660  0.7517
 7431SOL     OW33754   2.488   2.089  12.629  0.0836 -0.3985  0.4068
 7431SOL    HW133755   2.522   2.011  12.674 -0.0027  0.1095  1.3524
 7431SOL    HW233756   2.534   2.082  12.546  0.0642 -1.0889  0.4566
 7432SOL     OW33757   3.752   2.366  14.788 -0.2608 -0.0943  0.4680
 7432SOL    HW133758   3.686   2.436  14.794 -1.0811 -0.9790  1.7485
 7432SOL    HW233759   3.787   2.359  14.877  0.5825 -0.3913  0.1018
 7433SOL     OW33760   3.591   3.803   3.968  0.3286 -0.1389  0.0347
 7433SOL    HW133761   3.512   3.849   3.998 -0.9414 -1.6483 -0.9549
 7433SOL    HW233762   3.659   3.853   4.012  0.9774 -0.2699 -0.8101
 7434SOL     OW33763   0.229   4.159   2.927  0.0075 -0.3656 -0.2943
 7434SOL    HW133764   0.316   4.162   2.967  0.3188 -0.4609 -0.9813
 7434SOL    HW233765   0.206   4.252   2.934  0.0095 -0.3535 -0.4706
 7435SOL     OW33766   4.158   2.139   3.970  0.4135 -0.0181  0.0572
 7435SOL    HW133767   4.220   2.101   3.907  0.9416 -1.6939  1.5608
 7435SOL    HW233768   4.174   2.233   3.970 -0.0760  0.0592  2.5799
 7436SOL     OW33769   3.379   2.969   5.179  0.0305 -0.8618  0.4172
 7436SOL    HW133770   3.444   2.904   5.204  0.6198 -0.8510 -1.0417
 7436SOL    HW233771   3.432   3.026   5.122  1.1635 -1.2874  1.0507
 7437SOL     OW33772   3.168   0.578   6.005 -0.5938 -0.1733  0.2529
 7437SOL    HW133773   3.182   0.504   6.064 -0.2435 -0.8821 -0.7183
 7437SOL    HW233774   3.199   0.640   6.072  1.6993 -2.0894  0.9388
 7438SOL     OW33775   2.575   4.635   8.112 -0.8303  0.2190  0.0644
 7438SOL    HW133776   2.651   4.645   8.170 -3.3285 -0.7191  3.4992
 7438SOL    HW233777   2.519   4.709   8.135 -1.6848  0.0057 -1.3303
 7439SOL     OW33778   0.783   2.520   4.222 -0.1163  0.6553 -0.1744
 7439SOL    HW133779   0.735   2.601   4.205  0.5133  0.9595 -0.5276
 7439SOL    HW233780   0.763   2.467   4.145  1.7266  0.2857 -0.3992
 7440SOL     OW33781   0.772   0.013   4.668  0.6397  0.1028 -0.2554
 7440SOL    HW133782   0.820   4.680   4.607 -0.1648 -1.7429  0.8041
 7440SOL    HW233783   0.839   0.054   4.722 -0.4102  0.6505  0.6400
 7441SOL     OW33784   2.556   2.301   5.333  0.1736  0.1631  0.8437
 7441SOL    HW133785   2.631   2.336   5.380  1.9136 -3.1034  0.5377
 7441SOL    HW233786   2.569   2.338   5.245 -1.7154 -1.3427 -0.0718
 7442SOL     OW33787   2.067   1.339   5.714  0.2967  0.0864 -1.1664
 7442SOL    HW133788   2.050   1.399   5.643  0.9846  1.3077 -0.2970
 7442SOL    HW233789   2.028   1.399   5.777 -1.0271  0.0300 -1.9522
 7443SOL     OW33790   3.610   0.365  13.579  0.7654  0.1585  0.0742
 7443SOL    HW133791   3.586   0.306  13.650 -1.5188  1.9262  0.7771
 7443SOL    HW233792   3.520   0.380  13.550  0.3858 -0.9668  0.6822
 7444SOL     OW33793   3.774   1.806   5.676 -0.3436  0.4561 -0.4329
 7444SOL    HW133794   3.748   1.754   5.601 -2.5142 -0.6590  1.1033
 7444SOL    HW233795   3.686   1.836   5.697 -0.2642  1.2972 -1.3128
 7445SOL     OW33796   3.020   4.041   3.255 -0.1041  0.4581 -0.1765
 7445SOL    HW133797   3.054   4.131   3.260 -0.6017  0.7685 -2.2764
 7445SOL    HW233798   2.979   4.022   3.339 -0.1842 -0.2311 -0.3725
 7446SOL     OW33799   1.386   1.553   6.765  0.3988  0.1063 -0.3067
 7446SOL    HW133800   1.374   1.598   6.682 -0.5707 -1.9485 -1.2769
 7446SOL    HW233801   1.406   1.463   6.739 -0.6879  0.0580 -0.9679
 7447SOL     OW33802   3.838   3.677   4.436  0.3177 -0.3564  0.0049
 7447SOL    HW133803   3.756   3.725   4.449  1.0674  0.9275 -0.0144
 7447SOL    HW233804   3.855   3.674   4.342  0.5737 -0.4073  0.0549
 7448SOL     OW33805   4.220   2.574   2.988  0.5945 -0.7791 -0.2687
 7448SOL    HW133806   4.172   2.597   2.908 -1.7306 -0.0017  1.3507
 7448SOL    HW233807   4.264   2.496   2.955 -0.3926 -2.0559  1.4653
 7449SOL     OW33808   3.919   1.524   5.063  0.3843  0.5051  0.0752
 7449SOL    HW133809   3.937   1.508   5.156 -1.3289 -1.9783 -0.0328
 7449SOL    HW233810   3.953   1.441   5.028  2.9625  0.2821  3.0619
 7450SOL     OW33811   4.306   2.313   3.420 -0.2641  1.1457 -0.4882
 7450SOL    HW133812   4.317   2.408   3.417  0.7877  0.9788 -1.7107
 7450SOL    HW233813   4.356   2.288   3.498 -0.6503 -2.2579 -1.3542
 7451SOL     OW33814   1.296   3.188   0.773 -0.9536  0.1809 -0.0608
 7451SOL    HW133815   1.305   3.279   0.803 -0.2371 -0.0461  0.4205
 7451SOL    HW233816   1.296   3.199   0.678 -1.0607 -0.1000 -0.0932
 7452SOL     OW33817   3.519   0.101   2.800  0.1320  0.0524 -0.6092
 7452SOL    HW133818   3.442   0.109   2.744 -1.0835  0.2151  1.1087
 7452SOL    HW233819   3.524   0.194   2.822 -0.5047  0.2070 -1.1138
 7453SOL     OW33820   3.338   1.763   9.451  0.4250  0.1259  0.1951
 7453SOL    HW133821   3.350   1.669   9.464 -0.7843 -0.1677 -0.8750
 7453SOL    HW233822   3.285   1.772   9.373  1.3321  0.4635 -0.3872
 7454SOL     OW33823   2.174   4.631   5.083  0.1003 -0.1471  0.6906
 7454SOL    HW133824   2.194   4.569   5.154  1.2405 -0.7239 -0.1498
 7454SOL    HW233825   2.258   4.622   5.039  0.4474  3.3205  0.6832
 7455SOL     OW33826   3.673   1.317   1.121 -0.1623  0.2413  0.2876
 7455SOL    HW133827   3.661   1.319   1.026 -1.1359  0.3227  0.4089
 7455SOL    HW233828   3.755   1.268   1.123 -0.7623 -0.7635  0.4680
 7456SOL     OW33829   2.780   4.081   6.729  0.3363  0.1469 -0.0929
 7456SOL    HW133830   2.691   4.106   6.707  0.1608 -0.3523  0.0378
 7456SOL    HW233831   2.826   4.159   6.761  2.5306 -0.8350 -0.7972
 7457SOL     OW33832   4.497   3.757   5.683  0.3123 -0.1086  0.4449
 7457SOL    HW133833   4.509   3.664   5.662 -1.6725 -0.3449  0.3082
 7457SOL    HW233834   4.506   3.803   5.600 -1.2570  0.6451  0.6947
 7458SOL     OW33835   0.262   0.521   6.140  0.1808 -0.1017 -0.1693
 7458SOL    HW133836   0.267   0.458   6.068 -0.1959  0.6244 -0.8280
 7458SOL    HW233837   0.212   0.473   6.206  1.3640  1.0918  1.6037
 7459SOL     OW33838   4.076   4.307  10.177  0.2609 -0.2386 -0.7841
 7459SOL    HW133839   4.088   4.310  10.272 -0.6283  1.4697 -0.7299
 7459SOL    HW233840   3.983   4.285  10.176  0.4420 -0.9172 -1.7901
 7460SOL     OW33841   2.496   0.856   8.110 -0.1226  0.0506  0.3417
 7460SOL    HW133842   2.495   0.947   8.081 -1.2388 -0.3999 -1.0235
 7460SOL    HW233843   2.573   0.816   8.069 -0.9741  0.4337 -1.6099
 7461SOL     OW33844   1.609   2.880   4.836 -0.2081 -0.2873  0.0205
 7461SOL    HW133845   1.699   2.901   4.860 -0.1985 -0.2082 -0.0837
 7461SOL    HW233846   1.612   2.788   4.812  1.8389 -0.8802  2.6139
 7462SOL     OW33847   4.334   4.163  14.077  0.1343  0.4099  0.6784
 7462SOL    HW133848   4.277   4.105  14.027  0.3072  1.8869 -1.2129
 7462SOL    HW233849   4.417   4.117  14.063  0.0819  1.5039 -3.0692
 7463SOL     OW33850   2.200   2.304   6.376 -0.3021 -0.2173 -0.3087
 7463SOL    HW133851   2.191   2.270   6.466 -1.1550 -0.5397 -0.5191
 7463SOL    HW233852   2.278   2.255   6.351 -0.0346 -0.5866  1.2478
 7464SOL     OW33853   1.693   0.849   9.356 -0.4831  0.2516 -0.2481
 7464SOL    HW133854   1.668   0.939   9.337 -1.1434  0.6126  2.3856
 7464SOL    HW233855   1.788   0.854   9.361 -0.5016 -0.4385  0.9458
 7465SOL     OW33856   2.745   2.515   2.752  0.1457 -1.1036  1.0850
 7465SOL    HW133857   2.821   2.464   2.725  1.4422  1.4482 -0.1236
 7465SOL    HW233858   2.773   2.603   2.725 -1.4092 -0.7627  0.5408
 7466SOL     OW33859   1.004   0.082   4.767 -0.1501  0.3330  0.3853
 7466SOL    HW133860   1.067   0.094   4.696 -0.9189 -2.5855 -0.7865
 7466SOL    HW233861   1.060   0.042   4.834  1.1934  1.5944  0.0159
 7467SOL     OW33862   2.387   2.808  11.303 -0.6928 -0.2693  0.3216
 7467SOL    HW133863   2.396   2.885  11.247 -0.5321  1.1403  2.2888
 7467SOL    HW233864   2.350   2.743  11.243 -1.4937  1.4795 -1.1029
 7468SOL     OW33865   1.572   4.298   8.959  0.0281  0.1225 -0.5221
 7468SOL    HW133866   1.642   4.363   8.959  1.4229 -1.3885  2.4523
 7468SOL    HW233867   1.585   4.260   8.872  0.6496  0.7877 -0.7186
 7469SOL     OW33868   2.897   4.426   8.094  0.2798  0.2907 -0.6908
 7469SOL    HW133869   2.873   4.478   8.017 -3.3676 -0.3753  0.0201
 7469SOL    HW233870   2.859   4.474   8.167 -0.4559 -1.2262 -0.0590
 7470SOL     OW33871   2.942   1.547  15.550  0.2628 -0.1469  0.5488
 7470SOL    HW133872   2.859   1.500  15.552 -0.4327  1.0184 -0.4701
 7470SOL    HW233873   2.922   1.641  15.542 -0.1297 -0.1402  1.6690
 7471SOL     OW33874   2.889   1.030   5.260 -0.3940  0.0101 -0.6071
 7471SOL    HW133875   2.962   1.042   5.200  0.7986 -1.4299  0.5708
 7471SOL    HW233876   2.819   1.092   5.238  0.2807  1.0891  0.3000
 7472SOL     OW33877   2.925   1.403   3.473  0.3986 -0.1541 -0.0573
 7472SOL    HW133878   2.869   1.366   3.406 -0.5844  3.2471 -1.0847
 7472SOL    HW233879   2.987   1.329   3.477  0.4901  0.0148  1.8857
 7473SOL     OW33880   3.564   1.970   6.722  0.2927  0.1375 -0.1600
 7473SOL    HW133881   3.535   2.056   6.752  0.7436  0.1559  0.2180
 7473SOL    HW233882   3.578   1.971   6.627  1.5543 -3.1826 -0.0117
 7474SOL     OW33883   2.972   4.401  13.754 -0.0704  0.2887  0.1576
 7474SOL    HW133884   2.900   4.438  13.702  0.7956  0.5659 -0.8558
 7474SOL    HW233885   2.940   4.311  13.749  1.4267 -0.3532  2.0709
 7475SOL     OW33886   4.628   2.189   8.308  0.1967  0.3507 -0.1474
 7475SOL    HW133887   4.542   2.171   8.270  1.2590 -2.6446 -1.1199
 7475SOL    HW233888   4.615   2.279   8.337 -0.2521 -0.0155  0.7997
 7476SOL     OW33889   2.953   4.043  13.070  0.0459 -0.0073 -0.2522
 7476SOL    HW133890   2.965   4.094  12.991  0.9644  1.6598  0.9633
 7476SOL    HW233891   2.935   4.122  13.121 -1.1817 -1.0580  0.9734
 7477SOL     OW33892   1.833   1.078   7.057  0.4267 -0.3127  0.1712
 7477SOL    HW133893   1.839   0.983   7.066 -1.7765 -0.6701 -2.4311
 7477SOL    HW233894   1.914   1.089   7.008 -0.7058 -3.3296 -2.3538
 7478SOL     OW33895   1.622   4.350  13.637 -0.2598  0.5387  0.2884
 7478SOL    HW133896   1.605   4.411  13.708 -1.1570  1.4610 -0.7105
 7478SOL    HW233897   1.596   4.399  13.559 -1.0907  0.5130  0.5526
 7479SOL     OW33898   1.553   0.393   0.749 -0.3172  0.6880 -0.2334
 7479SOL    HW133899   1.589   0.385   0.661 -0.1900  0.0125 -0.1166
 7479SOL    HW233900   1.461   0.405   0.723 -0.0840  1.7319 -0.5621
 7480SOL     OW33901   4.388   0.128   7.041 -0.3234  0.0494  0.5903
 7480SOL    HW133902   4.481   0.136   7.018 -0.3544  0.1826  0.5137
 7480SOL    HW233903   4.381   0.206   7.096  0.8477 -1.9926  3.6435
 7481SOL     OW33904   4.056   1.447   7.632 -0.2803  0.3470  0.0935
 7481SOL    HW133905   4.034   1.358   7.603 -0.3520  0.0187  1.1754
 7481SOL    HW233906   3.982   1.474   7.686 -1.3208  0.0288 -1.1727
 7482SOL     OW33907   0.932   4.638   4.442  0.0876 -0.2797 -0.3644
 7482SOL    HW133908   0.913   4.720   4.397 -0.6348 -0.6603 -0.7639
 7482SOL    HW233909   0.859   4.587   4.405 -1.4458 -0.5210  3.0059
 7483SOL     OW33910   1.549   0.610   4.757  0.5445  0.1449  0.2987
 7483SOL    HW133911   1.464   0.588   4.717  1.0861  0.3775 -0.9858
 7483SOL    HW233912   1.569   0.686   4.703  0.2598 -0.1842 -0.2750
 7484SOL     OW33913   2.105   2.513  10.451 -0.5730  0.1132 -0.5256
 7484SOL    HW133914   2.156   2.594  10.455  1.8611 -1.5471  1.9245
 7484SOL    HW233915   2.055   2.517  10.369  0.0650  1.8425 -0.8359
 7485SOL     OW33916   0.975   4.376   4.211 -0.6333 -0.3556  0.4910
 7485SOL    HW133917   1.062   4.342   4.188  0.2602  1.2352  1.5382
 7485SOL    HW233918   0.958   4.312   4.280 -2.3123 -1.1692 -0.6903
 7486SOL     OW33919   2.385   1.898   3.006 -0.3238  0.7804 -0.0473
 7486SOL    HW133920   2.308   1.930   3.054  0.0267 -0.3607  1.2821
 7486SOL    HW233921   2.349   1.814   2.977 -1.7404  0.5327  2.4366
 7487SOL     OW33922   1.833   2.500   2.518 -0.0841 -0.0444 -0.1528
 7487SOL    HW133923   1.890   2.575   2.498 -1.1052  0.5683 -0.7811
 7487SOL    HW233924   1.744   2.533   2.507  0.8916  2.4134 -0.6537
 7488SOL     OW33925   0.035   0.846  10.625  0.2304 -0.5653 -0.2382
 7488SOL    HW133926   0.092   0.923  10.620 -1.7532  1.0380  1.7340
 7488SOL    HW233927   0.059   0.825  10.715  1.3404 -1.2702 -0.7065
 7489SOL     OW33928   0.891   0.056  10.830  0.4258  0.1482 -0.2622
 7489SOL    HW133929   0.806   0.022  10.800 -0.6529  3.2764 -0.7086
 7489SOL    HW233930   0.881   0.050  10.925 -0.7246 -0.6308 -0.4242
 7490SOL     OW33931   2.478   2.995   6.329 -0.0701  0.0309  0.0020
 7490SOL    HW133932   2.416   2.929   6.296 -0.5433  0.7193 -0.4825
 7490SOL    HW233933   2.548   2.989   6.263 -0.7903 -0.7469 -0.6934
 7491SOL     OW33934   3.512   0.638   7.052 -0.1883 -0.2772  0.4781
 7491SOL    HW133935   3.453   0.628   7.127  0.8916  1.9887  1.5943
 7491SOL    HW233936   3.592   0.594   7.081 -0.5460 -1.4026 -0.2301
 7492SOL     OW33937   0.019   4.176   0.257 -0.0862  0.0083 -0.4201
 7492SOL    HW133938   0.029   4.256   0.309 -1.8703  0.4595 -0.7610
 7492SOL    HW233939   0.061   4.193   0.173 -1.0836  1.3352 -0.6402
 7493SOL     OW33940   3.082   2.480   5.080 -0.2438  0.3749 -0.1070
 7493SOL    HW133941   3.018   2.428   5.030 -2.6215  2.3258  0.9050
 7493SOL    HW233942   3.085   2.560   5.028  1.3477  1.2869  1.4300
 7494SOL     OW33943   2.033   2.414  12.662 -0.5648  0.0702 -0.7065
 7494SOL    HW133944   1.981   2.491  12.639 -1.3159 -0.0953  0.4167
 7494SOL    HW233945   2.119   2.450  12.642 -0.6382  0.2664 -0.6709
 7495SOL     OW33946   1.699   2.302  12.105 -0.1425 -0.0958 -0.1047
 7495SOL    HW133947   1.699   2.236  12.037 -3.2750 -1.6687  1.4125
 7495SOL    HW233948   1.613   2.274  12.138 -0.1096  3.1711  2.8284
 7496SOL     OW33949   2.827   0.649   3.445  0.2150 -0.1362 -0.4638
 7496SOL    HW133950   2.841   0.554   3.447  1.1749 -0.0267 -2.4376
 7496SOL    HW233951   2.913   0.673   3.412  1.6413 -0.2962  3.2204
 7497SOL     OW33952   3.529   3.328   2.362  0.4153  0.2029  0.1597
 7497SOL    HW133953   3.528   3.288   2.449  2.5653 -0.0117  0.0833
 7497SOL    HW233954   3.618   3.361   2.353  0.4861 -0.4371 -1.6444
 7498SOL     OW33955   3.042   0.529  12.917 -0.4339  0.1027 -0.2915
 7498SOL    HW133956   2.954   0.490  12.916 -0.2487 -0.3504  1.0533
 7498SOL    HW233957   3.026   0.594  12.849 -2.1305 -0.8109 -0.7787
 7499SOL     OW33958   3.804   3.959   6.086 -0.7192  0.0884 -0.0206
 7499SOL    HW133959   3.845   4.044   6.070  2.5236 -1.3501  0.5211
 7499SOL    HW233960   3.870   3.918   6.143 -2.0221  0.6103  1.8902
 7500SOL     OW33961   4.053   1.241   7.907  0.0604 -0.6734 -0.1588
 7500SOL    HW133962   4.027   1.155   7.940  2.9843 -1.5598 -0.1859
 7500SOL    HW233963   3.971   1.290   7.903  0.9521  0.8859  1.0515
 7501SOL     OW33964   3.107   0.328   6.912  0.2172  0.3119 -0.2741
 7501SOL    HW133965   3.101   0.320   6.817  0.9429 -0.7821 -0.2331
 7501SOL    HW233966   3.151   0.413   6.913 -1.1856  1.0279  0.6915
 7502SOL     OW33967   3.202   3.896   5.218  0.2385 -0.6126 -0.1846
 7502SOL    HW133968   3.262   3.834   5.258 -0.6384 -1.5527 -0.3124
 7502SOL    HW233969   3.207   3.974   5.274  1.0866 -0.6379 -0.2311
 7503SOL     OW33970   4.456   2.072  12.599  0.1160  0.1617  0.5723
 7503SOL    HW133971   4.403   2.117  12.533  0.1300 -2.2459 -1.0912
 7503SOL    HW233972   4.456   2.136  12.670  0.9050  0.3479  0.4056
 7504SOL     OW33973   4.021   3.966   2.261  0.2329  0.4069 -0.4582
 7504SOL    HW133974   4.096   4.008   2.303 -0.3552  1.1540 -0.1383
 7504SOL    HW233975   3.958   4.037   2.248 -2.3665 -1.6685  0.6097
 7505SOL     OW33976   3.864   3.545  11.630 -0.1035 -0.0468 -0.2133
 7505SOL    HW133977   3.784   3.591  11.653 -0.8137 -0.7578 -1.2917
 7505SOL    HW233978   3.833   3.516  11.545 -1.1596  0.0947  0.1297
 7506SOL     OW33979   3.251   0.205  13.881  1.2183 -0.3387 -0.1134
 7506SOL    HW133980   3.326   0.254  13.850 -0.8640  2.3538 -0.9155
 7506SOL    HW233981   3.297   0.140  13.934  1.6996 -0.1345 -0.2870
 7507SOL     OW33982   3.005   3.519   4.115  0.0171  0.0635 -0.3945
 7507SOL    HW133983   2.942   3.542   4.184  0.0217  0.1256 -0.4103
 7507SOL    HW233984   3.049   3.437   4.135 -0.3352  0.1847  0.9414
 7508SOL     OW33985   3.674   0.223   5.011 -0.3307  0.7390 -0.1253
 7508SOL    HW133986   3.682   0.200   4.918  0.0838 -1.2888  0.4169
 7508SOL    HW233987   3.579   0.217   5.023 -0.2594  0.5210  0.3159
 7509SOL     OW33988   2.484   3.617   6.298 -0.6183  0.0329 -0.4023
 7509SOL    HW133989   2.526   3.547   6.348 -0.1682  0.2202 -0.5181
 7509SOL    HW233990   2.550   3.615   6.229 -1.1540  1.4618 -0.9496
 7510SOL     OW33991   2.426   4.001   3.666  0.3509  0.2103 -0.5388
 7510SOL    HW133992   2.394   4.055   3.593 -0.7606 -0.4280 -0.5217
 7510SOL    HW233993   2.486   3.947   3.615 -0.4581 -0.7826 -0.4344
 7511SOL     OW33994   1.495   3.922  12.758 -0.1391  0.5747  0.2699
 7511SOL    HW133995   1.579   3.941  12.716  0.0251 -0.4522  0.1498
 7511SOL    HW233996   1.459   4.008  12.780 -0.7115  0.8880 -1.8957
 7512SOL     OW33997   4.646   3.302   7.993 -0.1699  0.3479  0.6292
 7512SOL    HW133998   4.641   3.265   8.081  0.1092 -3.2719 -0.9092
 7512SOL    HW233999   4.557   3.304   7.958  0.3933  2.5654 -0.7380
 7513SOL     OW34000   2.496   2.921  14.927  0.0036  0.0421  0.0577
 7513SOL    HW134001   2.433   2.849  14.929  1.6337 -1.3208  1.6567
 7513SOL    HW234002   2.502   2.959  15.015  4.2180  0.4656 -0.3985
 7514SOL     OW34003   4.540   0.617   8.603  0.0958  0.0691  0.4591
 7514SOL    HW134004   4.565   0.620   8.510  1.6246 -0.7169  0.8528
 7514SOL    HW234005   4.567   0.527   8.620 -0.2639 -0.2151 -0.4812
 7515SOL     OW34006   3.267   4.395   3.939  0.1356  0.5286  0.0864
 7515SOL    HW134007   3.351   4.429   3.968 -0.2747 -0.4487  2.4675
 7515SOL    HW234008   3.242   4.345   4.017 -0.4485  3.5679  1.8152
 7516SOL     OW34009   3.987   1.174   2.549  0.0169 -0.2688 -0.3663
 7516SOL    HW134010   4.000   1.102   2.611  0.7992  1.2260  1.2171
 7516SOL    HW234011   3.892   1.169   2.545 -0.1087  0.6567  1.4036
 7517SOL     OW34012   0.744   1.563  10.745  0.2981  0.5605 -0.0973
 7517SOL    HW134013   0.724   1.654  10.767 -2.6939 -0.3513  1.0246
 7517SOL    HW234014   0.826   1.549  10.792  0.2474  0.5545 -0.0102
 7518SOL     OW34015   0.601   2.644   3.795  0.7037 -0.0237  0.1693
 7518SOL    HW134016   0.514   2.663   3.832  0.9825  1.7954 -0.1127
 7518SOL    HW234017   0.615   2.716   3.733  1.4723  2.3057  3.0124
 7519SOL     OW34018   1.859   4.394   6.514 -0.3059 -0.3260  0.7177
 7519SOL    HW134019   1.886   4.460   6.451  2.4501 -0.4831  1.7363
 7519SOL    HW234020   1.793   4.433   6.572 -1.1983  0.9378 -1.1581
 7520SOL     OW34021   1.852   4.026   7.941  0.0741  0.0782 -0.0929
 7520SOL    HW134022   1.794   4.069   8.003  1.0937  3.3011 -1.3641
 7520SOL    HW234023   1.834   3.934   7.957  0.6464  0.1126  0.7403
 7521SOL     OW34024   1.565   4.394   1.499  0.4157 -0.3920 -0.0134
 7521SOL    HW134025   1.490   4.452   1.486 -0.6241 -2.3173 -2.4614
 7521SOL    HW234026   1.564   4.380   1.594  0.1234  2.3722  0.3854
 7522SOL     OW34027   0.295   4.524   4.317 -0.8201 -0.4259 -0.2771
 7522SOL    HW134028   0.284   4.509   4.411 -1.1868  0.8517 -0.1294
 7522SOL    HW234029   0.247   4.606   4.309  2.3053  1.3101 -1.3503
 7523SOL     OW34030   3.509   0.719   4.009  0.0173 -0.3079 -0.2775
 7523SOL    HW134031   3.469   0.632   4.015 -0.3303 -0.1115  0.2838
 7523SOL    HW234032   3.440   0.772   3.968 -0.4829  0.2135  1.2523
 7524SOL     OW34033   1.802   3.376   2.503  0.0247  0.9887 -0.2225
 7524SOL    HW134034   1.828   3.291   2.469  1.5357 -0.2303  3.8892
 7524SOL    HW234035   1.804   3.434   2.427 -0.9384  0.6664 -0.4899
 7525SOL     OW34036   0.921   3.690  14.860 -0.0114 -0.4419 -0.4058
 7525SOL    HW134037   0.884   3.632  14.793 -0.0816 -0.4540 -0.3568
 7525SOL    HW234038   0.989   3.636  14.901 -1.7357 -2.9551 -0.8549
 7526SOL     OW34039   3.629   3.165   9.196  0.3218  0.0105 -0.0407
 7526SOL    HW134040   3.658   3.152   9.106 -0.4434  1.1928 -0.4604
 7526SOL    HW234041   3.546   3.212   9.186  0.1517 -0.8054 -2.4283
 7527SOL     OW34042   3.951   2.609   6.071 -0.1966  0.0287 -0.2690
 7527SOL    HW134043   4.041   2.577   6.062  0.4143  1.2206  1.6051
 7527SOL    HW234044   3.948   2.633   5.979  1.9255  2.0164  0.1712
 7528SOL     OW34045   1.319   1.810   8.759  0.0528 -0.1663 -0.2696
 7528SOL    HW134046   1.229   1.841   8.771  0.1350  0.2304 -0.6758
 7528SOL    HW234047   1.341   1.867   8.685  0.9715  0.0584  0.1810
 7529SOL     OW34048   2.073   2.674   1.266  0.3965  0.4399  0.0665
 7529SOL    HW134049   2.149   2.704   1.314  1.1111 -1.3222  0.0530
 7529SOL    HW234050   2.097   2.592   1.221  1.0462  1.2800 -1.1339
 7530SOL     OW34051   3.620   2.848   1.876  0.2695 -0.0638 -0.1657
 7530SOL    HW134052   3.700   2.812   1.913 -0.2501 -0.4345  0.6115
 7530SOL    HW234053   3.591   2.914   1.939  2.3869 -0.4654  1.1971
 7531SOL     OW34054   1.128   0.976  13.090  0.2320 -0.7051 -0.0779
 7531SOL    HW134055   1.134   1.063  13.051 -0.5246 -0.4969  0.2728
 7531SOL    HW234056   1.056   0.933  13.045 -0.6042  0.0744  0.5076
 7532SOL     OW34057   2.771   0.996  17.555  0.0525  0.4161  0.1879
 7532SOL    HW134058   2.701   0.938  17.585 -2.0070  2.8163  0.0273
 7532SOL    HW234059   2.842   0.938  17.526 -1.6344  0.2109 -3.5177
 7533SOL     OW34060   4.285   3.749   5.199  0.5945 -0.7287  0.0365
 7533SOL    HW134061   4.210   3.785   5.247  0.6017  1.7179 -1.8100
 7533SOL    HW234062   4.248   3.755   5.111  2.9367 -1.1976 -0.9597
 7534SOL     OW34063   0.688   1.452   0.421 -0.5247  0.3611  0.3527
 7534SOL    HW134064   0.637   1.532   0.434 -0.2234  0.6270 -0.0843
 7534SOL    HW234065   0.742   1.454   0.500  0.6398  2.7335 -0.5014
 7535SOL     OW34066   0.833   0.314   5.715  0.0908  0.0669 -0.1669
 7535SOL    HW134067   0.763   0.380   5.719  2.1336  2.3323 -2.0288
 7535SOL    HW234068   0.775   0.241   5.693 -1.1482  0.7063  0.9422
 7536SOL     OW34069   1.300   1.290   4.357 -0.4350 -0.0304 -0.2447
 7536SOL    HW134070   1.371   1.344   4.392  0.9418 -1.1340 -1.3541
 7536SOL    HW234071   1.328   1.291   4.266 -0.6428  0.6867 -0.3014
 7537SOL     OW34072   0.318   2.113   5.265  0.2494 -0.0410 -0.4969
 7537SOL    HW134073   0.293   2.151   5.349 -2.3881 -0.3653 -1.1497
 7537SOL    HW234074   0.375   2.043   5.298  0.5991  0.2716 -0.4409
 7538SOL     OW34075   3.686   0.409  14.884  0.2082  0.1376 -0.4726
 7538SOL    HW134076   3.622   0.365  14.828 -1.1590  0.4352  0.8402
 7538SOL    HW234077   3.642   0.422  14.968 -0.2660 -0.2960 -0.6547
 7539SOL     OW34078   3.106   1.668   4.659  0.2105 -0.3603 -0.1997
 7539SOL    HW134079   3.064   1.707   4.582  1.6931  2.2050  0.2716
 7539SOL    HW234080   3.195   1.660   4.627 -0.1040 -1.2581 -0.8537
 7540SOL     OW34081   0.863   3.491   5.002 -0.3037 -0.1373  0.9133
 7540SOL    HW134082   0.843   3.579   4.967 -0.4913 -0.0329  1.2839
 7540SOL    HW234083   0.927   3.498   5.072 -0.4775  1.4017  0.9317
 7541SOL     OW34084   3.079   3.928   8.200  0.0225  0.1544  0.5325
 7541SOL    HW134085   3.084   3.873   8.122 -1.0419 -1.5704  1.6933
 7541SOL    HW234086   3.042   4.009   8.163  0.4643 -0.7911 -1.9806
 7542SOL     OW34087   0.906   0.624   4.855  0.2621 -0.3919  0.2965
 7542SOL    HW134088   0.887   0.559   4.787  0.1966 -0.0465 -0.0160
 7542SOL    HW234089   0.818   0.646   4.884  0.0071  0.7849 -1.3721
 7543SOL     OW34090   3.509   1.539   2.224  0.4698  0.5443  0.1458
 7543SOL    HW134091   3.415   1.541   2.208  0.0575 -2.0230  2.3052
 7543SOL    HW234092   3.510   1.600   2.298 -2.3264  0.5239  0.2152
 7544SOL     OW34093   2.866   4.351   6.810  0.6393  0.5742  0.0383
 7544SOL    HW134094   2.941   4.409   6.814  1.0118  0.1281 -0.4582
 7544SOL    HW234095   2.814   4.406   6.750  1.3129 -0.0968 -1.1719
 7545SOL     OW34096   3.112   2.216  12.045 -0.2369 -0.5053  0.0458
 7545SOL    HW134097   3.174   2.243  11.977 -0.4832  1.1232  0.4473
 7545SOL    HW234098   3.146   2.268  12.118  0.1567  0.2104 -0.6405
 7546SOL     OW34099   0.543   2.932   1.355 -0.2695 -0.0115 -0.2196
 7546SOL    HW134100   0.480   2.939   1.283 -1.3502 -0.8089  0.6411
 7546SOL    HW234101   0.587   3.016   1.354  0.9532 -0.6382  1.6000
 7547SOL     OW34102   3.401   4.582  13.934 -0.0413  0.3353  0.4460
 7547SOL    HW134103   3.459   4.601  13.860  0.9643  1.6553  1.5977
 7547SOL    HW234104   3.404   4.666  13.980 -0.9160 -0.0952  1.2997
 7548SOL     OW34105   2.390   0.902   6.078  0.3171 -0.2512  0.4700
 7548SOL    HW134106   2.477   0.926   6.046  0.6489 -1.2284  0.6565
 7548SOL    HW234107   2.384   0.808   6.063  2.1286 -0.0676 -1.4195
 7549SOL     OW34108   2.550   4.024   3.256 -0.5313 -0.2773 -0.2867
 7549SOL    HW134109   2.604   4.103   3.257 -1.7372  0.5226  2.1839
 7549SOL    HW234110   2.481   4.061   3.200 -0.0184  0.3212 -0.5201
 7550SOL     OW34111   1.285   1.157  12.510  1.0831 -0.2193 -0.1308
 7550SOL    HW134112   1.206   1.209  12.494  0.3449 -0.8167  1.4786
 7550SOL    HW234113   1.332   1.178  12.430  1.0063  0.8967  0.1183
 7551SOL     OW34114   2.571   2.544  15.220 -0.4432  0.3450  0.6980
 7551SOL    HW134115   2.624   2.492  15.160 -0.9621  1.3122 -0.6195
 7551SOL    HW234116   2.484   2.505  15.214 -0.3221 -0.1380  2.2412
 7552SOL     OW34117   1.386   0.820   2.522 -0.4743  0.3259  0.6034
 7552SOL    HW134118   1.480   0.830   2.536 -0.5521 -0.2184  1.4405
 7552SOL    HW234119   1.347   0.902   2.554  0.6148  1.5976 -1.3379
 7553SOL     OW34120   0.465   2.691  12.792  0.6799 -0.2792 -0.3864
 7553SOL    HW134121   0.433   2.714  12.704 -0.7379 -0.4602  0.0749
 7553SOL    HW234122   0.495   2.601  12.778 -1.1440 -0.9737  0.0719
 7554SOL     OW34123   4.269   3.505   1.461  0.5919 -0.3838 -0.0297
 7554SOL    HW134124   4.251   3.418   1.426  0.4410 -0.0516 -0.7839
 7554SOL    HW234125   4.364   3.496   1.469  0.3403 -2.0898  1.0674
 7555SOL     OW34126   0.231   2.893   3.719  0.2007  0.2138  0.8382
 7555SOL    HW134127   0.224   2.988   3.728  0.6711  0.1408  1.9917
 7555SOL    HW234128   0.235   2.869   3.812 -1.7696 -0.2529  0.8057
 7556SOL     OW34129   2.901   1.589   2.296  0.0924 -0.5856 -0.3367
 7556SOL    HW134130   2.895   1.562   2.204 -1.4866 -2.0219  0.1938
 7556SOL    HW234131   2.864   1.510   2.335 -2.4902  1.8163  2.0705
 7557SOL     OW34132   0.794   1.872   4.204  0.5685  0.2722 -0.0441
 7557SOL    HW134133   0.883   1.873   4.239 -0.2839 -2.2424  2.2815
 7557SOL    HW234134   0.785   1.955   4.157 -0.4074 -0.2496 -0.7848
 7558SOL     OW34135   4.170   0.876   2.543  0.0221 -0.6049 -0.2579
 7558SOL    HW134136   4.129   0.926   2.471  0.3300 -3.3000 -2.3123
 7558SOL    HW234137   4.093   0.869   2.598 -0.2756  0.4805 -0.5233
 7559SOL     OW34138   1.124   0.571   4.992  0.8689 -0.1691 -0.7295
 7559SOL    HW134139   1.148   0.487   4.953  1.0499 -0.5676  0.2335
 7559SOL    HW234140   1.042   0.583   4.945  1.5003 -1.6178 -2.2015
 7560SOL     OW34141   3.965   1.079   7.261  0.4345  0.9924  0.1551
 7560SOL    HW134142   3.880   1.085   7.218 -0.3490  1.9033  1.8055
 7560SOL    HW234143   4.018   1.112   7.189 -1.1485  0.5189 -1.2190
 7561SOL     OW34144   4.561   4.044   2.621  0.3814  0.3950  0.4433
 7561SOL    HW134145   4.617   3.997   2.560 -1.0393 -1.2043  0.3475
 7561SOL    HW234146   4.479   3.994   2.623  0.3829  0.2915 -2.2586
 7562SOL     OW34147   2.587   0.092  12.014 -0.6705 -0.1694 -0.3174
 7562SOL    HW134148   2.616   0.029  11.948  2.0677  0.0387  0.6932
 7562SOL    HW234149   2.552   0.043  12.087  3.8945 -1.2580  1.1285
 7563SOL     OW34150   0.841   3.109   5.761 -0.0373 -0.1796  0.4480
 7563SOL    HW134151   0.754   3.150   5.760 -0.6440 -1.5183 -0.8881
 7563SOL    HW234152   0.823   3.028   5.715  3.4296  0.3521 -1.8504
 7564SOL     OW34153   4.263   1.782  17.325  0.0605 -0.1147  0.0931
 7564SOL    HW134154   4.277   1.714  17.258  0.1818  1.5369 -1.5654
 7564SOL    HW234155   4.306   1.850  17.272  1.4127 -0.1531  1.1323
 7565SOL     OW34156   0.156   4.555   1.750  0.5707 -0.2489  0.4166
 7565SOL    HW134157   0.072   4.600   1.748  0.6417 -0.1018  0.6231
 7565SOL    HW234158   0.142   4.485   1.814  1.7338  0.1652  1.1391
 7566SOL     OW34159   0.515   2.401   9.397 -0.0881 -0.3131 -0.0411
 7566SOL    HW134160   0.425   2.413   9.429  0.5748 -0.8188  1.9910
 7566SOL    HW234161   0.553   2.489   9.398  0.4282 -0.5475  1.4694
 7567SOL     OW34162   0.043   0.826  14.955  0.1742 -0.6326 -0.0907
 7567SOL    HW134163   4.698   0.882  14.918  0.0148  0.3594  1.6687
 7567SOL    HW234164   0.047   0.862  15.044  0.1813  1.0699 -0.7944
 7568SOL     OW34165   1.818   4.313  11.260 -0.1811  0.2477 -0.0296
 7568SOL    HW134166   1.823   4.398  11.217  1.6654  0.1191 -0.0780
 7568SOL    HW234167   1.905   4.313  11.301 -0.3451 -0.5740  0.3365
 7569SOL     OW34168   3.885   0.387   1.128  0.9607  0.0356  0.1281
 7569SOL    HW134169   3.794   0.402   1.152  1.8215  1.3684  2.6160
 7569SOL    HW234170   3.888   0.292   1.140 -0.3296 -0.1925 -1.4423
 7570SOL     OW34171   2.273   3.717   7.633 -0.2874 -0.2506  0.2884
 7570SOL    HW134172   2.279   3.786   7.568  0.3862 -0.5101  0.0732
 7570SOL    HW234173   2.184   3.726   7.667 -0.2571 -0.5237  0.4464
 7571SOL     OW34174   0.544   3.043  17.340  0.3228 -0.0727  0.0134
 7571SOL    HW134175   0.492   2.987  17.283  1.4925 -0.7287 -0.4016
 7571SOL    HW234176   0.558   2.972  17.402 -3.0149 -3.1563 -2.7847
 7572SOL     OW34177   1.662   2.756   2.978  0.3665  0.0543 -0.0870
 7572SOL    HW134178   1.646   2.670   2.940 -1.5113  1.5848 -2.7280
 7572SOL    HW234179   1.757   2.750   2.991  0.3296 -0.1703  0.0916
 7573SOL     OW34180   4.697   2.342  14.263  0.0842  0.2006  0.5151
 7573SOL    HW134181   0.065   2.321  14.241 -0.4842 -1.8590  0.1489
 7573SOL    HW234182   4.705   2.416  14.323 -0.0731 -1.1477  2.2049
 7574SOL     OW34183   4.723   0.075   3.716  0.3723  0.7327 -0.8581
 7574SOL    HW134184   0.001   4.708   3.683  2.3017 -0.6055  2.8012
 7574SOL    HW234185   4.706   0.122   3.635  1.6832  1.6715 -0.5882
 7575SOL     OW34186   4.038   4.027   1.271 -0.2819  0.0033 -0.2212
 7575SOL    HW134187   3.969   3.966   1.295 -0.3175  0.5013  0.9779
 7575SOL    HW234188   3.992   4.080   1.205 -1.4610 -0.6058  0.1086
 7576SOL     OW34189   2.700   2.931  16.973  0.0993 -0.0394  0.1003
 7576SOL    HW134190   2.696   2.836  16.961  0.1110  0.1386 -1.3489
 7576SOL    HW234191   2.793   2.946  16.954 -0.4783  3.4091  0.0828
 7577SOL     OW34192   4.474   2.581   1.814  0.3710  0.3208  0.4081
 7577SOL    HW134193   4.481   2.511   1.879 -0.2536 -0.8863 -0.8225
 7577SOL    HW234194   4.395   2.555   1.765 -0.1402 -0.3168  1.5651
 7578SOL     OW34195   1.268   3.019   7.179 -0.0309 -0.0125  0.4205
 7578SOL    HW134196   1.200   3.064   7.128  2.2109  1.3318 -1.3862
 7578SOL    HW234197   1.317   2.977   7.108 -1.1091  1.2702 -1.0932
 7579SOL     OW34198   3.155   0.697   7.879  0.5625  0.0824  0.3355
 7579SOL    HW134199   3.172   0.739   7.963 -3.6852  0.2072  1.1136
 7579SOL    HW234200   3.205   0.767   7.837  1.6285 -0.6345  0.4084
 7580SOL     OW34201   2.915   3.516  13.120  0.3116  0.5811 -0.5501
 7580SOL    HW134202   2.848   3.579  13.093 -0.3387  0.9650  1.9574
 7580SOL    HW234203   2.962   3.522  13.037 -1.5880  1.3099 -1.5906
 7581SOL     OW34204   2.039   2.328  10.645  0.0858  0.1421 -0.4465
 7581SOL    HW134205   2.031   2.396  10.578  0.4035  0.3494 -0.2733
 7581SOL    HW234206   1.974   2.276  10.598 -0.3047  0.9537 -0.8100
 7582SOL     OW34207   1.888   2.843   9.559  0.0881 -0.0213  0.1007
 7582SOL    HW134208   1.937   2.867   9.637  1.0985 -0.2046 -0.4744
 7582SOL    HW234209   1.901   2.748   9.563 -0.7534 -0.1518 -0.2632
 7583SOL     OW34210   1.544   2.946   4.010  0.4831  0.6504 -0.1455
 7583SOL    HW134211   1.493   3.007   4.063 -2.0923 -0.7739 -0.9874
 7583SOL    HW234212   1.576   2.884   4.075  0.7483 -0.8176 -1.6693
 7584SOL     OW34213   3.609   3.071   2.057 -0.1402 -0.0758  0.6731
 7584SOL    HW134214   3.686   3.127   2.071 -0.8039  1.8517 -3.2636
 7584SOL    HW234215   3.542   3.139   2.064  0.7608  0.8112  0.8215
 7585SOL     OW34216   2.943   2.959   6.408 -0.2767 -0.2765 -0.2571
 7585SOL    HW134217   3.011   3.025   6.390  0.9138 -0.9467  1.8316
 7585SOL    HW234218   2.890   3.009   6.470  1.2392  1.0974 -0.0667
 7586SOL     OW34219   2.068   3.850   5.995 -0.5756 -0.2998 -0.6482
 7586SOL    HW134220   2.051   3.902   6.073  0.1288  0.5470 -1.0594
 7586SOL    HW234221   1.988   3.860   5.942 -1.5203 -0.5310  0.7274
 7587SOL     OW34222   0.575   3.024   5.157  0.2449 -0.4869 -0.0868
 7587SOL    HW134223   0.585   2.941   5.204 -1.2092 -0.9941 -0.6782
 7587SOL    HW234224   0.625   3.021   5.076 -1.3788  0.6230 -1.1202
 7588SOL     OW34225   0.605   0.478   6.983 -0.3737  0.1762 -0.1603
 7588SOL    HW134226   0.572   0.516   6.901 -0.0523 -0.1493 -0.4415
 7588SOL    HW234227   0.648   0.398   6.953  1.1923  1.1164 -0.4151
 7589SOL     OW34228   0.225   4.439   8.279 -0.2803 -0.1491  0.3531
 7589SOL    HW134229   0.137   4.403   8.272  0.2012 -1.0796 -0.9077
 7589SOL    HW234230   0.235   4.465   8.371  0.4046  0.3543  0.1376
 7590SOL     OW34231   3.854   3.336  14.696  0.4355  0.3412  0.2910
 7590SOL    HW134232   3.782   3.307  14.751 -0.5847 -0.1998 -1.3440
 7590SOL    HW234233   3.896   3.255  14.670  0.7494  0.8727 -0.8698
 7591SOL     OW34234   4.009   0.380   4.705 -0.0070 -0.5218  0.4823
 7591SOL    HW134235   3.920   0.390   4.738 -0.3234  1.2783 -0.9817
 7591SOL    HW234236   4.066   0.429   4.765 -2.5493  1.3466  1.3353
 7592SOL     OW34237   2.414   1.347  13.675  0.3323  0.0973 -0.2624
 7592SOL    HW134238   2.424   1.258  13.710  1.6666  0.3312 -0.0364
 7592SOL    HW234239   2.469   1.392  13.739 -2.0274  1.2213  0.9698
 7593SOL     OW34240   1.551   1.846   2.317  0.5121  0.2848 -0.2114
 7593SOL    HW134241   1.586   1.771   2.365  0.8684 -0.6213 -1.8729
 7593SOL    HW234242   1.573   1.827   2.226 -1.7077  2.0621 -1.1186
 7594SOL     OW34243   3.349   3.753   6.873  0.4220 -0.3094  0.0381
 7594SOL    HW134244   3.256   3.743   6.856  0.7513 -1.3700 -1.2157
 7594SOL    HW234245   3.375   3.667   6.839  1.2751  0.4164 -1.1699
 7595SOL     OW34246   1.920   4.681   6.874 -0.1518 -0.3789  0.0450
 7595SOL    HW134247   1.953   4.711   6.958 -1.1325  2.4226 -0.5661
 7595SOL    HW234248   1.926   0.039   6.824  0.4214  0.1361  0.9676
 7596SOL     OW34249   0.064   0.554   3.557 -0.3340  0.0250 -0.1670
 7596SOL    HW134250   0.148   0.563   3.511  0.3732 -2.5816  0.5978
 7596SOL    HW234251   0.007   0.611   3.506 -0.3159 -1.5260 -1.9364
 7597SOL     OW34252   0.692   3.606   5.962 -0.4325 -0.1433  0.3524
 7597SOL    HW134253   0.784   3.582   5.967 -0.7187 -1.8274 -2.4425
 7597SOL    HW234254   0.695   3.689   5.916 -0.2182 -0.7582 -0.7460
 7598SOL     OW34255   3.817   4.442   4.941  0.0667 -0.1874 -0.0980
 7598SOL    HW134256   3.902   4.471   4.908 -0.8594  0.4117 -1.9566
 7598SOL    HW234257   3.801   4.490   5.022 -0.9173  0.1926 -0.5145
 7599SOL     OW34258   1.724   3.319   4.480  0.0394 -0.0382 -0.2279
 7599SOL    HW134259   1.647   3.371   4.501  0.0953  1.0357 -2.6644
 7599SOL    HW234260   1.713   3.240   4.534 -1.4793  0.7003  0.5407
 7600SOL     OW34261   3.083   0.661  10.144  0.1452 -0.8350 -0.1035
 7600SOL    HW134262   3.136   0.741  10.139 -1.3854  0.1186 -1.1196
 7600SOL    HW234263   3.117   0.613  10.069 -1.4598 -1.6565 -0.2890
 7601SOL     OW34264   0.628   3.979   2.478  0.6649  0.4051 -0.3602
 7601SOL    HW134265   0.636   4.051   2.415 -3.9329 -0.0097 -1.4506
 7601SOL    HW234266   0.535   3.985   2.499  1.0329  0.8950  1.1036
 7602SOL     OW34267   3.150   0.401   1.690  0.4856 -0.3897 -0.0447
 7602SOL    HW134268   3.234   0.365   1.721  0.1141  0.0389  1.4184
 7602SOL    HW234269   3.172   0.407   1.596 -0.5112  0.8449 -0.1889
 7603SOL     OW34270   3.125   2.014   6.123  0.3709 -0.1583  0.2778
 7603SOL    HW134271   3.157   1.950   6.059 -0.5308 -0.9777  0.6573
 7603SOL    HW234272   3.203   2.028   6.176  0.1671 -0.2508  0.6038
 7604SOL     OW34273   0.617   4.418   8.689 -0.2549 -0.2149 -0.1796
 7604SOL    HW134274   0.695   4.431   8.743  0.1438 -1.2047 -0.5293
 7604SOL    HW234275   0.647   4.354   8.624  1.7688 -0.1925  0.7206
 7605SOL     OW34276   0.883   1.309   2.051 -0.2103  0.6058 -0.1759
 7605SOL    HW134277   0.911   1.230   2.004  0.3303  1.8609 -1.9632
 7605SOL    HW234278   0.792   1.284   2.063 -0.1533  0.3921 -0.1879
 7606SOL     OW34279   1.484   2.856   4.410 -0.1608 -0.5470  0.2751
 7606SOL    HW134280   1.458   2.914   4.482 -0.0785 -0.5386  0.2975
 7606SOL    HW234281   1.578   2.852   4.425 -0.1264  2.8290  0.9887
 7607SOL     OW34282   3.563   2.006   3.956 -0.0802  0.8340 -0.1086
 7607SOL    HW134283   3.487   2.038   3.906 -0.4003 -1.8331 -1.3196
 7607SOL    HW234284   3.553   2.056   4.037  1.8961 -0.7160  1.0886
 7608SOL     OW34285   1.288   4.516   2.138  0.2980 -0.4306  0.5061
 7608SOL    HW134286   1.307   4.593   2.084 -0.0689  1.4211  3.0241
 7608SOL    HW234287   1.256   4.559   2.217  1.0750 -2.9008  2.1420
 7609SOL     OW34288   4.297   1.796   6.920 -0.7172 -0.0849  0.0928
 7609SOL    HW134289   4.359   1.811   6.990 -0.5359  0.8471 -0.2563
 7609SOL    HW234290   4.280   1.706   6.948 -2.6042  0.0130 -0.7108
 7610SOL     OW34291   4.589   4.392   8.073 -0.8793  0.1780 -0.3564
 7610SOL    HW134292   4.504   4.414   8.112 -0.0774  1.7047  0.5447
 7610SOL    HW234293   4.643   4.366   8.147 -0.9508 -0.8089 -0.6503
 7611SOL     OW34294   3.526   1.297  17.419 -0.3909  0.5220 -0.0340
 7611SOL    HW134295   3.443   1.321  17.377 -0.8921 -1.7109 -0.3022
 7611SOL    HW234296   3.491   1.232  17.480  1.8264 -1.6039 -1.0170
 7612SOL     OW34297   1.243   3.838   1.773 -1.1623 -0.0320  0.2420
 7612SOL    HW134298   1.305   3.782   1.820  0.2539  0.6817 -0.7821
 7612SOL    HW234299   1.167   3.782   1.760  0.0288 -1.1346 -1.8594
 7613SOL     OW34300   0.109   0.793  10.885  0.0444  0.3032  0.1929
 7613SOL    HW134301   0.059   0.713  10.905 -0.3905  1.0048  1.9886
 7613SOL    HW234302   0.088   0.848  10.960  1.5464  0.2498  0.6548
 7614SOL     OW34303   1.633   3.811   5.775  0.1853  0.2083 -0.3957
 7614SOL    HW134304   1.591   3.896   5.759  0.6985  0.2010 -1.7552
 7614SOL    HW234305   1.717   3.845   5.807  0.6114  0.6224 -1.9813
 7615SOL     OW34306   2.365   4.260  10.498 -0.3407  1.0253  0.0706
 7615SOL    HW134307   2.312   4.324  10.451  0.9424  1.0346 -1.3731
 7615SOL    HW234308   2.431   4.235  10.433 -0.2695  1.2156  0.0714
 7616SOL     OW34309   0.729   3.048   8.451  0.0880 -0.1532  0.1727
 7616SOL    HW134310   0.777   2.989   8.510 -2.1790 -1.6728  0.4863
 7616SOL    HW234311   0.664   3.083   8.513  2.5091  0.3484  2.4525
 7617SOL     OW34312   2.723   1.122   8.518  0.1270 -1.2819  0.7809
 7617SOL    HW134313   2.721   1.095   8.610  1.2038 -0.4826  1.0369
 7617SOL    HW234314   2.634   1.156   8.517  1.0068  0.9778  1.0343
 7618SOL     OW34315   3.949   0.604   7.731 -0.5401  0.0439  0.3275
 7618SOL    HW134316   4.043   0.599   7.713 -0.7475  0.4420 -0.9031
 7618SOL    HW234317   3.944   0.587   7.825 -0.3379 -2.1985 -0.0698
 7619SOL     OW34318   0.532   2.389   2.790  0.0819  0.0146 -0.1509
 7619SOL    HW134319   0.590   2.440   2.847  1.4091 -0.0162 -1.4661
 7619SOL    HW234320   0.593   2.326   2.751  1.4273  0.4814  1.1632
 7620SOL     OW34321   2.610   0.211   0.195  0.2389  0.0491 -0.2588
 7620SOL    HW134322   2.521   0.195   0.228  0.0242  1.2736 -0.2561
 7620SOL    HW234323   2.663   0.186   0.270 -1.7650 -0.8885  0.8525
 7621SOL     OW34324   2.209   1.536   7.636 -0.0167 -0.0448 -0.4890
 7621SOL    HW134325   2.271   1.463   7.633 -0.3189 -0.3465  0.5563
 7621SOL    HW234326   2.133   1.491   7.599  0.3010 -1.1931  0.2598
 7622SOL     OW34327   4.012   1.760   4.249  0.0685 -0.0848 -0.2293
 7622SOL    HW134328   4.055   1.842   4.274 -1.3212  0.3032  0.8437
 7622SOL    HW234329   3.929   1.778   4.292  0.3082  2.8814 -1.0049
 7623SOL     OW34330   3.130   1.362   2.062  0.5986 -0.1054 -0.4512
 7623SOL    HW134331   3.137   1.292   1.997  1.3404 -0.2408 -0.2264
 7623SOL    HW234332   3.037   1.384   2.057  0.5240  0.1497  2.2783
 7624SOL     OW34333   1.911   2.068   9.198 -0.1060  0.2568  0.0767
 7624SOL    HW134334   1.991   2.017   9.210  1.7352  3.1924  0.2566
 7624SOL    HW234335   1.881   2.038   9.112 -0.5534  0.4671  0.1634
 7625SOL     OW34336   2.727   2.783   8.703 -0.3011 -0.4014  0.3131
 7625SOL    HW134337   2.790   2.712   8.686  1.1280  0.4149  2.1431
 7625SOL    HW234338   2.705   2.760   8.793  0.2254 -1.0226  0.2820
 7626SOL     OW34339   3.140   3.091   8.040  1.0259  0.1986 -0.7652
 7626SOL    HW134340   3.199   3.144   8.093  0.9480  0.0057 -0.4863
 7626SOL    HW234341   3.175   3.004   8.058 -0.2594  0.0208  0.8707
 7627SOL     OW34342   3.843   3.570  12.143  0.3502  0.7379 -0.2079
 7627SOL    HW134343   3.762   3.537  12.105  0.2785  1.4868 -0.7247
 7627SOL    HW234344   3.903   3.508  12.102 -1.0407 -1.9307  1.8194
 7628SOL     OW34345   4.386   1.849   2.392  0.2316  0.1422  0.2232
 7628SOL    HW134346   4.402   1.932   2.438 -0.6717 -0.4563  1.6316
 7628SOL    HW234347   4.397   1.885   2.304 -1.1781  0.5423  0.2077
 7629SOL     OW34348   0.004   0.234   1.291 -0.0412  0.2154  0.1420
 7629SOL    HW134349   0.012   0.151   1.245  2.0003  0.3241  0.3031
 7629SOL    HW234350   4.650   0.221   1.346  0.0144  0.8127  0.3652
 7630SOL     OW34351   0.106   1.786   4.895 -0.1056 -0.4627 -0.2307
 7630SOL    HW134352   0.182   1.779   4.953 -2.4748 -2.0446  2.6285
 7630SOL    HW234353   0.123   1.866   4.845  0.4607 -0.1783  0.4055
 7631SOL     OW34354   4.270   0.892   4.956  0.6538 -0.1722 -0.4056
 7631SOL    HW134355   4.318   0.913   4.876 -0.7814  1.0293 -0.9502
 7631SOL    HW234356   4.275   0.981   4.992 -0.3865  0.7638 -2.5865
 7632SOL     OW34357   2.774   2.093  17.489 -0.1342 -0.6656  0.3364
 7632SOL    HW134358   2.851   2.139  17.523 -1.4320  1.7958 -0.0138
 7632SOL    HW234359   2.818   2.042  17.420 -1.4899  1.2626 -1.9738
 7633SOL     OW34360   3.655   1.395  16.255  0.0205 -0.2360 -0.5078
 7633SOL    HW134361   3.571   1.399  16.301 -0.4101  0.4780 -1.3764
 7633SOL    HW234362   3.681   1.303  16.257 -2.3959 -0.9052  0.5805
 7634SOL     OW34363   2.565   1.074  14.642 -0.3496  0.4345 -0.0769
 7634SOL    HW134364   2.475   1.069  14.673 -0.2770  2.6237  0.4924
 7634SOL    HW234365   2.557   1.061  14.547 -0.6240  1.4403 -0.1877
 7635SOL     OW34366   1.580   2.040   6.520  0.2881 -0.1643  0.2575
 7635SOL    HW134367   1.674   2.047   6.504  0.4742 -4.0292 -0.3990
 7635SOL    HW234368   1.570   2.052   6.615 -4.4176 -3.8950  0.1930
 7636SOL     OW34369   3.718   1.162   7.110  0.0113 -0.2828 -0.2432
 7636SOL    HW134370   3.644   1.186   7.055 -1.0877  0.2521  1.4509
 7636SOL    HW234371   3.769   1.243   7.106 -2.5381  1.2494 -1.1195
 7637SOL     OW34372   3.850   0.073   3.203  0.3779  0.0510  0.0937
 7637SOL    HW134373   3.867   0.118   3.120 -2.0392 -1.7905 -1.4223
 7637SOL    HW234374   3.829   0.145   3.262 -0.7310 -0.0459 -0.1787
 7638SOL     OW34375   2.348   0.962   2.986 -0.0898  0.6263 -0.5045
 7638SOL    HW134376   2.276   1.025   2.977  0.8135  1.3821 -2.4835
 7638SOL    HW234377   2.363   0.956   3.080  0.1471 -1.4280 -0.6892
 7639SOL     OW34378   2.013   2.791   5.586 -0.2221  0.6208  0.2718
 7639SOL    HW134379   1.939   2.846   5.614 -1.2388 -1.0441  0.8676
 7639SOL    HW234380   2.088   2.849   5.581  0.7739 -0.7068 -0.2923
 7640SOL     OW34381   1.336   0.236   4.273 -0.1169 -0.2759  0.0063
 7640SOL    HW134382   1.352   0.293   4.349  1.1606  0.1120 -0.5600
 7640SOL    HW234383   1.342   0.154   4.321 -0.3882 -0.7553 -0.7873
 7641SOL     OW34384   2.898   1.483   4.615 -0.1391 -0.7117  0.1438
 7641SOL    HW134385   2.971   1.536   4.646 -0.4721 -0.0038 -0.2839
 7641SOL    HW234386   2.847   1.552   4.574  1.5446 -0.2112 -1.0856
 7642SOL     OW34387   1.601   3.367   8.634 -0.3455  0.0694  0.3748
 7642SOL    HW134388   1.606   3.297   8.568  1.3762  2.2310 -1.8281
 7642SOL    HW234389   1.693   3.372   8.662 -0.2263 -1.5802  0.2618
 7643SOL     OW34390   4.291   3.810  13.673  0.1135  0.3253 -0.1058
 7643SOL    HW134391   4.331   3.836  13.590 -0.0358  0.2293 -0.2077
 7643SOL    HW234392   4.326   3.722  13.684 -1.0960 -0.1220  0.1512
 7644SOL     OW34393   0.109   3.545   5.711  0.3702  0.1554 -0.1856
 7644SOL    HW134394   0.086   3.481   5.777 -0.5258 -0.9099 -1.5132
 7644SOL    HW234395   0.040   3.531   5.645  0.2037 -0.2342  0.0724
 7645SOL     OW34396   1.509   2.622   7.900  0.9591  0.3091 -0.4517
 7645SOL    HW134397   1.565   2.570   7.843  0.6492  0.6207 -1.0382
 7645SOL    HW234398   1.437   2.559   7.912 -0.0281  1.5749  0.2718
 7646SOL     OW34399   3.200   3.251   1.617  0.4339  0.1130  0.5073
 7646SOL    HW134400   3.235   3.221   1.701  0.0348  0.0440  0.6476
 7646SOL    HW234401   3.236   3.340   1.619  3.6377 -1.1559 -1.1381
 7647SOL     OW34402   3.210   0.867   3.591 -0.3740 -0.3702  0.2705
 7647SOL    HW134403   3.251   0.783   3.569 -2.8056 -1.1147 -1.4140
 7647SOL    HW234404   3.276   0.935   3.574 -2.0156  0.9557 -0.7474
 7648SOL     OW34405   0.217   3.242   8.228 -0.1415 -0.2058 -0.3893
 7648SOL    HW134406   0.265   3.322   8.209  0.8774 -0.9524 -0.9891
 7648SOL    HW234407   0.255   3.180   8.166  0.1629 -0.2655 -0.1427
 7649SOL     OW34408   4.277   3.091  11.165  0.0760 -0.8449  0.1707
 7649SOL    HW134409   4.341   3.043  11.111  1.5079  2.2120 -0.8345
 7649SOL    HW234410   4.198   3.068  11.117  1.4489 -1.7379 -1.6808
 7650SOL     OW34411   1.333   1.173  16.519  0.0610 -0.0049 -0.2036
 7650SOL    HW134412   1.294   1.216  16.595  2.2544 -1.0387  1.5371
 7650SOL    HW234413   1.265   1.173  16.452 -0.3354  2.3845  0.1877
 7651SOL     OW34414   4.563   0.421   5.241 -0.4281 -0.0623  0.8822
 7651SOL    HW134415   4.508   0.450   5.313  0.4043 -3.0252  2.7200
 7651SOL    HW234416   4.600   0.342   5.281  2.7105  1.7793  1.5172
 7652SOL     OW34417   3.482   1.193  10.181  0.2361  0.4020 -0.2224
 7652SOL    HW134418   3.476   1.288  10.188  0.6397  0.5701 -2.1023
 7652SOL    HW234419   3.573   1.183  10.209 -0.4902 -0.6031  1.7816
 7653SOL     OW34420   0.315   3.793   6.954  0.2367 -0.4558 -0.0615
 7653SOL    HW134421   0.242   3.773   7.013 -0.4949  1.1545 -0.4204
 7653SOL    HW234422   0.368   3.852   7.008 -0.5954 -0.2023  0.4868
 7654SOL     OW34423   3.430   4.421   4.193 -0.1389  0.3922  0.0042
 7654SOL    HW134424   3.489   4.475   4.140  2.4906  0.2179  2.7664
 7654SOL    HW234425   3.487   4.393   4.265 -0.3642  0.5214  0.2287
 7655SOL     OW34426   0.104   3.035  13.946 -0.2448  0.5990  0.1087
 7655SOL    HW134427   0.014   3.041  13.977 -0.9790  0.3645 -1.9993
 7655SOL    HW234428   0.104   3.118  13.900  0.7251  0.6825  0.2472
 7656SOL     OW34429   3.790   3.015   6.454 -0.3275  0.2540  0.4929
 7656SOL    HW134430   3.715   2.956   6.461  0.7152 -1.1248 -0.1010
 7656SOL    HW234431   3.786   3.051   6.365  2.1729 -0.0388  0.2725
 7657SOL     OW34432   3.457   1.168   8.567 -0.3657  0.6598  0.0861
 7657SOL    HW134433   3.371   1.135   8.593  1.1624 -2.5108  1.1580
 7657SOL    HW234434   3.467   1.127   8.481 -1.5075 -1.9771  1.2053
 7658SOL     OW34435   0.493   3.154   8.623  0.5724  0.0547  0.2603
 7658SOL    HW134436   0.466   3.095   8.694  0.3279  0.8343  0.8171
 7658SOL    HW234437   0.410   3.160   8.575  0.5224  0.9866  0.4548
 7659SOL     OW34438   2.683   0.827  14.728 -0.1194 -0.1285  0.3725
 7659SOL    HW134439   2.764   0.835  14.779 -1.1489  0.7534  1.8694
 7659SOL    HW234440   2.660   0.918  14.711 -1.3495 -1.2957 -4.2783
 7660SOL     OW34441   2.049   0.512   4.165 -0.1549 -0.4947 -0.0168
 7660SOL    HW134442   1.990   0.442   4.136  0.4373 -0.2972 -1.7486
 7660SOL    HW234443   2.081   0.483   4.250  0.5446 -0.7662 -0.3671
 7661SOL     OW34444   4.678   0.593   4.792  0.0311  0.4515  0.0128
 7661SOL    HW134445   0.039   0.548   4.776  0.3822  0.4857  1.8612
 7661SOL    HW234446   4.644   0.565   4.876  0.7146 -0.1254  0.0973
 7662SOL     OW34447   0.278   1.519  16.978  0.1825  0.4767  0.1384
 7662SOL    HW134448   0.226   1.557  16.907  0.5315  1.3750  0.3572
 7662SOL    HW234449   0.254   1.581  17.048 -0.6676 -0.5037  0.7111
 7663SOL     OW34450   0.853   0.158  14.926 -0.1104 -0.4323 -0.0301
 7663SOL    HW134451   0.811   0.121  15.004  2.3310 -1.9507  0.5864
 7663SOL    HW234452   0.845   0.250  14.948  0.9981 -0.9840  2.6886
 7664SOL     OW34453   1.070   3.551  11.967  0.5604 -0.0389 -0.3610
 7664SOL    HW134454   1.074   3.610  12.043  1.9694 -0.5543 -0.0287
 7664SOL    HW234455   0.979   3.566  11.942  0.8197  0.9720 -0.6998
 7665SOL     OW34456   1.108   3.027   8.597  0.4092 -0.3734  0.0802
 7665SOL    HW134457   1.080   2.997   8.683  2.3307 -2.2665  0.0500
 7665SOL    HW234458   1.040   3.092   8.577  1.4489  1.3340  2.1215
 7666SOL     OW34459   3.620   0.219  11.695 -0.0767  0.3343  0.0096
 7666SOL    HW134460   3.673   0.226  11.615 -0.1688  1.8246  0.0922
 7666SOL    HW234461   3.653   0.277  11.763 -1.2876  0.2012  0.7064
 7667SOL     OW34462   0.207   4.184   8.081  0.5117 -0.2701 -0.3431
 7667SOL    HW134463   0.231   4.160   8.171 -0.1465  0.4193  0.0184
 7667SOL    HW234464   0.231   4.108   8.028 -0.0907 -0.0131 -0.9846
 7668SOL     OW34465   3.982   3.314  11.706  0.3152  0.4441  0.0679
 7668SOL    HW134466   3.950   3.396  11.669 -0.8308 -0.8142 -1.7625
 7668SOL    HW234467   3.909   3.255  11.685 -0.9804  2.5197 -1.1908
 7669SOL     OW34468   1.692   0.644  17.371 -0.3058 -0.8873  0.1773
 7669SOL    HW134469   1.771   0.625  17.322  0.3789  1.0569  0.5530
 7669SOL    HW234470   1.636   0.597  17.309  1.4942 -1.1725 -1.2328
 7670SOL     OW34471   4.165   0.649   6.696  0.2310 -0.0799 -0.6544
 7670SOL    HW134472   4.090   0.610   6.652  0.6982 -2.6008  0.7933
 7670SOL    HW234473   4.176   0.724   6.637  1.9680 -0.3019 -0.6129
 7671SOL     OW34474   0.265   2.775  16.207 -0.2421 -0.1243  0.0441
 7671SOL    HW134475   0.326   2.736  16.270 -0.7299  1.7296  1.6775
 7671SOL    HW234476   0.190   2.736  16.251 -1.0532  1.8162  0.3714
 7672SOL     OW34477   2.053   4.322  11.366  0.7355  0.2860 -0.0980
 7672SOL    HW134478   2.130   4.287  11.320  1.1421 -0.3451  1.0493
 7672SOL    HW234479   2.088   4.392  11.422 -1.1823  1.6721 -0.6512
 7673SOL     OW34480   0.970   3.868   4.719  0.1672  0.0929 -0.4398
 7673SOL    HW134481   1.023   3.796   4.685 -2.0123 -1.3824 -0.7072
 7673SOL    HW234482   1.029   3.943   4.711  3.4811 -2.4179  0.7416
 7674SOL     OW34483   0.687   4.262   6.605 -0.0147 -0.0691  0.4450
 7674SOL    HW134484   0.600   4.297   6.588  0.8332  0.1942 -3.3064
 7674SOL    HW234485   0.744   4.325   6.562 -1.7953  1.3419  0.1588
 7675SOL     OW34486   2.230   0.764   0.259  0.3171  0.0306  0.6808
 7675SOL    HW134487   2.271   0.830   0.204  1.4762 -1.0637  0.2215
 7675SOL    HW234488   2.246   0.795   0.348  0.9299  0.4115  0.4373
 7676SOL     OW34489   0.762   1.907  12.120 -0.4736 -0.2483 -0.0682
 7676SOL    HW134490   0.673   1.931  12.146  0.6551  2.4870  1.2813
 7676SOL    HW234491   0.814   1.962  12.179  2.4882 -1.8112 -1.2286
 7677SOL     OW34492   3.185   3.430   7.770 -0.1239 -0.7596  0.0662
 7677SOL    HW134493   3.234   3.442   7.689 -1.0018 -0.0655 -0.3640
 7677SOL    HW234494   3.104   3.478   7.754  1.3887  1.6625 -0.3199
 7678SOL     OW34495   2.040   0.718  11.164 -0.2346 -0.2675 -0.2564
 7678SOL    HW134496   1.990   0.658  11.110 -0.2767 -0.4436 -0.0235
 7678SOL    HW234497   2.122   0.669  11.174  0.5632  1.3038  0.8511
 7679SOL     OW34498   0.311   2.227   2.759  0.1759 -0.1465  0.0727
 7679SOL    HW134499   0.358   2.227   2.676 -0.0083 -1.4061 -0.0367
 7679SOL    HW234500   0.354   2.295   2.811 -0.3848  0.4450 -0.2348
 7680SOL     OW34501   3.873   4.471   4.562 -0.7240  0.1158 -0.7128
 7680SOL    HW134502   3.967   4.485   4.570 -0.6729  1.1628 -3.2878
 7680SOL    HW234503   3.862   4.395   4.619  1.1870 -0.7378 -1.5068
 7681SOL     OW34504   0.321   4.106   0.970 -0.2724  0.5634 -0.0478
 7681SOL    HW134505   0.348   4.086   1.060 -1.9648  1.8312  0.7420
 7681SOL    HW234506   0.259   4.175   0.994 -0.8585 -0.8333  2.5166
 7682SOL     OW34507   3.648   2.842   8.450 -0.1160 -0.2377 -0.8576
 7682SOL    HW134508   3.568   2.808   8.491  0.1224 -0.6505 -0.7334
 7682SOL    HW234509   3.675   2.778   8.385  2.1278  0.9018 -1.0185
 7683SOL     OW34510   0.821   3.524   9.801  0.2348 -0.0029 -0.0196
 7683SOL    HW134511   0.824   3.620   9.799 -2.3733  0.1412  2.5366
 7683SOL    HW234512   0.764   3.518   9.878  0.1677  0.0690 -0.0631
 7684SOL     OW34513   4.481   3.084   1.632  0.5769 -0.6415  0.1317
 7684SOL    HW134514   4.439   3.005   1.597 -1.3639  0.9058 -1.0144
 7684SOL    HW234515   4.566   3.086   1.588  0.8150 -1.2393  0.5621
 7685SOL     OW34516   2.505   1.787   1.553  0.7645  0.0205 -0.4324
 7685SOL    HW134517   2.444   1.715   1.539  1.8114 -1.1484  1.0192
 7685SOL    HW234518   2.588   1.744   1.532  0.8273  0.1603 -0.4747
 7686SOL     OW34519   2.483   3.961   1.665 -0.4350  0.1655 -0.2245
 7686SOL    HW134520   2.419   3.973   1.594 -2.6600 -2.6024  1.2998
 7686SOL    HW234521   2.566   3.931   1.628 -1.5248 -2.2209 -0.7264
 7687SOL     OW34522   3.893   2.116  16.509  0.2344  0.5092  0.0799
 7687SOL    HW134523   3.895   2.053  16.580 -0.8032 -0.7293 -0.9976
 7687SOL    HW234524   3.971   2.094  16.458  0.1460  0.2326  0.0629
 7688SOL     OW34525   1.083   2.191   6.356 -0.0592 -0.3120  0.2518
 7688SOL    HW134526   1.158   2.175   6.413 -1.3009 -2.2661  1.3111
 7688SOL    HW234527   1.013   2.148   6.405 -0.9211  2.0658  1.1083
 7689SOL     OW34528   0.791   0.742   3.439  0.1531  0.1220 -0.6135
 7689SOL    HW134529   0.740   0.724   3.519  0.9415 -0.9063 -0.3480
 7689SOL    HW234530   0.859   0.676   3.444  1.1356  1.2053  0.4959
 7690SOL     OW34531   3.804   3.539   3.383 -0.1394  1.0495 -0.1764
 7690SOL    HW134532   3.793   3.484   3.305 -0.5662  0.3291  0.3934
 7690SOL    HW234533   3.719   3.534   3.426  0.5028  1.8117  1.1691
 7691SOL     OW34534   2.576   3.677   8.764 -0.3462  0.0569  0.2930
 7691SOL    HW134535   2.483   3.655   8.766 -0.8013  2.1278  1.3838
 7691SOL    HW234536   2.584   3.754   8.821 -0.6817 -0.2048  0.6898
 7692SOL     OW34537   0.014   0.568   8.855  0.2339  0.5253 -0.3016
 7692SOL    HW134538   4.701   0.488   8.816  0.5455  0.5099 -0.5546
 7692SOL    HW234539   0.088   0.596   8.801 -0.0728  2.2474  0.1642
 7693SOL     OW34540   1.467   2.433   7.473  0.4316  0.2356  0.3190
 7693SOL    HW134541   1.479   2.508   7.531 -0.6687  2.1186 -1.8491
 7693SOL    HW234542   1.468   2.471   7.385  0.6593  0.6505  0.5000
 7694SOL     OW34543   2.380   4.054   0.314  0.0544 -0.1467  0.5467
 7694SOL    HW134544   2.467   4.016   0.305 -0.7298 -1.6186 -0.7065
 7694SOL    HW234545   2.406   4.145   0.328  0.0692  0.0017 -0.4966
 7695SOL     OW34546   4.106   1.522  16.476 -0.0227 -0.2092 -0.0346
 7695SOL    HW134547   4.033   1.584  16.471  0.3693  0.3548  1.2367
 7695SOL    HW234548   4.054   1.444  16.494 -0.6169  0.2241  0.1381
 7696SOL     OW34549   1.198   3.683   5.859 -0.2204  0.3473 -0.3909
 7696SOL    HW134550   1.286   3.688   5.897 -0.7272  1.0834  0.7153
 7696SOL    HW234551   1.173   3.776   5.859  1.2864  0.7467 -0.8765
 7697SOL     OW34552   3.893   0.817   8.200  0.4255 -0.8172  0.3621
 7697SOL    HW134553   3.967   0.861   8.242  0.0691  0.5733 -0.4756
 7697SOL    HW234554   3.834   0.797   8.272 -1.3208  0.6588 -0.6674
 7698SOL     OW34555   1.200   1.019  14.487 -0.0395 -0.0583 -0.0089
 7698SOL    HW134556   1.135   0.952  14.469 -2.1624  1.3950  2.3149
 7698SOL    HW234557   1.184   1.079  14.415 -1.9983 -0.7158 -0.1133
 7699SOL     OW34558   2.654   0.280  11.495 -0.2964  0.3574 -0.4633
 7699SOL    HW134559   2.695   0.328  11.567 -1.1335  0.2913  0.0643
 7699SOL    HW234560   2.726   0.289  11.433 -0.1626  0.3982 -0.3021
 7700SOL     OW34561   4.370   4.590   7.218  0.7385 -0.9749  0.7902
 7700SOL    HW134562   4.286   4.633   7.235  1.2390  0.8107 -1.3779
 7700SOL    HW234563   4.420   4.607   7.298  0.4115 -3.6832  1.5804
 7701SOL     OW34564   4.057   0.089   0.697  0.5462  0.1134  0.2201
 7701SOL    HW134565   4.059   0.183   0.716  1.6038  0.1991 -0.3215
 7701SOL    HW234566   4.069   0.087   0.602  1.1534  0.4662  0.2882
 7702SOL     OW34567   0.406   1.280   2.284  0.7244  0.6198 -0.2599
 7702SOL    HW134568   0.373   1.235   2.361  0.5576 -0.7608 -1.1567
 7702SOL    HW234569   0.350   1.247   2.215 -0.5351 -0.6139  1.3795
 7703SOL     OW34570   1.804   2.524  17.279 -0.2745  0.2309 -0.3837
 7703SOL    HW134571   1.827   2.559  17.193 -2.9244  0.2885 -1.0509
 7703SOL    HW234572   1.727   2.472  17.258 -0.9173  0.3709  1.5967
 7704SOL     OW34573   2.743   2.623   6.114  0.3374  0.0798  0.1403
 7704SOL    HW134574   2.737   2.677   6.035 -1.9846 -1.2841 -0.6261
 7704SOL    HW234575   2.650   2.604   6.129  0.6387 -0.7454  0.9717
 7705SOL     OW34576   4.318   3.832   3.227 -0.1855 -0.4361  0.2433
 7705SOL    HW134577   4.289   3.895   3.162 -1.3567 -1.7981 -0.5466
 7705SOL    HW234578   4.268   3.866   3.301  0.6562  1.7625 -0.2066
 7706SOL     OW34579   3.645   2.732  16.534  0.2644 -0.2614 -0.1366
 7706SOL    HW134580   3.704   2.807  16.526  0.0083  0.2285  2.5139
 7706SOL    HW234581   3.696   2.660  16.497  1.1766  0.4408 -0.2570
 7707SOL     OW34582   0.024   0.028   7.719 -0.4363  0.3183 -0.1519
 7707SOL    HW134583   0.033   0.086   7.643 -0.0571  1.7038  0.9502
 7707SOL    HW234584   0.088   0.072   7.775  0.6772  0.8326 -1.8221
 7708SOL     OW34585   0.054   3.089   1.828  0.0523  0.2468  0.2359
 7708SOL    HW134586   0.043   3.082   1.733 -0.7929  0.2049  0.3330
 7708SOL    HW234587   0.115   3.020   1.854 -1.2228 -0.8982  0.2014
 7709SOL     OW34588   3.590   2.825   6.447 -0.4335 -0.5214  0.1055
 7709SOL    HW134589   3.527   2.753   6.455 -0.2791 -0.6095  0.5401
 7709SOL    HW234590   3.580   2.858   6.536 -0.1246  1.6728 -0.6744
 7710SOL     OW34591   0.986   0.297  12.130  0.8685 -0.2075 -0.7116
 7710SOL    HW134592   1.034   0.216  12.143  1.3084  0.3260  0.9545
 7710SOL    HW234593   0.924   0.264  12.064 -3.1518  1.5573  2.2018
 7711SOL     OW34594   4.066   0.037   2.636  0.1544 -0.4179  0.2301
 7711SOL    HW134595   4.145   4.719   2.601  0.8670 -1.0569  2.5800
 7711SOL    HW234596   4.013   4.684   2.663 -1.7515  0.6102 -0.5654
 7712SOL     OW34597   3.937   0.017   6.804  0.4820 -0.1035  0.7169
 7712SOL    HW134598   3.994   0.012   6.881  1.6288 -1.6335 -0.2296
 7712SOL    HW234599   3.995   4.710   6.733 -0.1436  2.4628 -0.8705
 7713SOL     OW34600   0.718   0.890   8.484 -0.0016 -0.0815 -0.0395
 7713SOL    HW134601   0.704   0.842   8.565  1.0746 -0.6561 -0.1985
 7713SOL    HW234602   0.660   0.844   8.424 -2.0524  1.1271  1.0121
 7714SOL     OW34603   3.404   4.245  14.687  0.3702 -0.5105  0.2890
 7714SOL    HW134604   3.444   4.167  14.650  0.8703  0.2127 -0.6991
 7714SOL    HW234605   3.474   4.309  14.672 -0.5996  0.6176  0.5886
 7715SOL     OW34606   2.160   0.765   7.298  0.0755  0.3169  1.2720
 7715SOL    HW134607   2.071   0.801   7.302  0.3397  1.0356  0.5479
 7715SOL    HW234608   2.212   0.836   7.337 -1.5639  1.3908  1.5006
 7716SOL     OW34609   0.286   3.033  13.389  0.5754  0.2362 -0.3493
 7716SOL    HW134610   0.243   3.041  13.474  0.1061 -0.2093 -0.5491
 7716SOL    HW234611   0.274   3.118  13.346 -3.2077  0.2667  0.7966
 7717SOL     OW34612   3.485   2.424   4.403 -0.0332 -0.5295 -0.4049
 7717SOL    HW134613   3.409   2.474   4.433  0.4231 -0.7752  1.1332
 7717SOL    HW234614   3.549   2.492   4.384 -0.9285  0.8412  1.5237
 7718SOL     OW34615   1.466   4.075   8.720 -0.1365  0.5117  0.2106
 7718SOL    HW134616   1.402   4.134   8.761  2.0080  1.6840  1.8836
 7718SOL    HW234617   1.536   4.137   8.698 -2.0598  2.4815 -0.3609
 7719SOL     OW34618   2.789   2.459   1.460  0.0782  0.3577  0.0093
 7719SOL    HW134619   2.735   2.533   1.487 -0.2128 -0.0289  0.5006
 7719SOL    HW234620   2.802   2.478   1.367  0.3592  0.8977  0.1618
 7720SOL     OW34621   3.232   4.644  11.168  0.1650 -0.1010 -0.0615
 7720SOL    HW134622   3.308   4.588  11.150 -1.4187 -2.0426 -0.7421
 7720SOL    HW234623   3.179   4.646  11.088  0.6583 -1.2230 -0.4215
 7721SOL     OW34624   2.843   2.559   7.413 -0.0159 -0.3133 -0.3421
 7721SOL    HW134625   2.876   2.555   7.503 -1.3234 -1.0537  0.1027
 7721SOL    HW234626   2.920   2.592   7.368  2.0624 -1.8295  2.0940
 7722SOL     OW34627   2.533   0.657   3.861 -0.5764 -0.1763  0.4735
 7722SOL    HW134628   2.512   0.744   3.893 -0.9517 -0.0130 -0.2114
 7722SOL    HW234629   2.529   0.607   3.943  0.9962 -0.5648  0.3122
 7723SOL     OW34630   2.142   2.368   1.616  0.0396  0.3346 -0.2612
 7723SOL    HW134631   2.137   2.351   1.710  0.5136  1.4852 -0.0273
 7723SOL    HW234632   2.202   2.296   1.593  0.0418  0.6556 -1.2632
 7724SOL     OW34633   1.514   1.643   8.869  0.1631  0.2179  0.0234
 7724SOL    HW134634   1.460   1.699   8.813 -1.2537 -0.6207  0.5491
 7724SOL    HW234635   1.543   1.716   8.923  0.1456 -0.1659  0.5566
 7725SOL     OW34636   2.763   3.457   2.313 -0.3224  0.4602 -0.5033
 7725SOL    HW134637   2.747   3.551   2.310  1.1786  0.7634  1.6000
 7725SOL    HW234638   2.848   3.457   2.270  0.4490 -0.8609  1.0405
 7726SOL     OW34639   2.107   2.783  11.847  0.0934  0.1181 -0.2827
 7726SOL    HW134640   2.198   2.799  11.873  1.4816 -2.9284 -3.2326
 7726SOL    HW234641   2.098   2.833  11.766 -0.6090  0.4498  0.0027
 7727SOL     OW34642   0.040   1.119  10.420 -0.2436  0.1336 -0.5900
 7727SOL    HW134643   0.101   1.106  10.492 -0.7624  0.1280 -0.1500
 7727SOL    HW234644   4.683   1.124  10.471  0.1373 -0.9395  0.1093
 7728SOL     OW34645   0.538   4.451  12.132 -0.3687 -0.1243 -0.2873
 7728SOL    HW134646   0.563   4.396  12.206  1.2199 -0.1819 -0.8590
 7728SOL    HW234647   0.539   4.387  12.060 -0.1633 -0.7889  0.3133
 7729SOL     OW34648   1.949   1.315   8.981  0.2156 -0.1089  0.2090
 7729SOL    HW134649   1.898   1.377   8.930 -0.8925 -1.4149 -0.2857
 7729SOL    HW234650   2.028   1.310   8.927 -0.1405  0.4317 -0.3460
 7730SOL     OW34651   4.628   1.933  17.422  0.1382  0.1437 -0.1877
 7730SOL    HW134652   4.587   1.853  17.455  2.0343 -1.4467 -1.7168
 7730SOL    HW234653   4.607   1.938  17.329 -1.9730  1.6561  0.3488
 7731SOL     OW34654   4.215   2.456   5.415  0.2776 -0.0690  0.2952
 7731SOL    HW134655   4.152   2.401   5.368 -2.0366  1.0871  2.0357
 7731SOL    HW234656   4.157   2.521   5.455  1.1960  0.5647  0.5986
 7732SOL     OW34657   2.967   4.413  14.019  0.0718 -0.0069 -0.0392
 7732SOL    HW134658   3.039   4.353  14.035  1.4340  1.7178  0.3146
 7732SOL    HW234659   2.955   4.403  13.925  2.7297 -2.5870 -0.1042
 7733SOL     OW34660   1.336   4.175  12.789 -0.1780 -0.0068 -0.1335
 7733SOL    HW134661   1.410   4.236  12.790 -0.7981  0.7547 -2.1876
 7733SOL    HW234662   1.282   4.218  12.723 -0.1982 -0.8345 -0.6594
 7734SOL     OW34663   3.470   2.721   7.877 -0.0384 -0.4445 -0.0744
 7734SOL    HW134664   3.551   2.739   7.829 -0.3081 -0.4170 -0.5198
 7734SOL    HW234665   3.441   2.802   7.919  0.4510  0.1947 -0.9723
 7735SOL     OW34666   1.162   4.034  12.921 -0.0482 -0.4985  0.0932
 7735SOL    HW134667   1.232   4.069  12.865 -0.7527 -0.7572 -0.9351
 7735SOL    HW234668   1.165   4.092  12.997  1.5458 -0.3020 -0.1193
 7736SOL     OW34669   1.180   3.142   5.302 -0.5951  0.1228  0.1447
 7736SOL    HW134670   1.266   3.179   5.322 -0.3042  0.2709 -1.3475
 7736SOL    HW234671   1.140   3.127   5.387  1.6727 -1.3195  0.9642
 7737SOL     OW34672   2.791   0.425   6.612 -0.3809  0.4629  0.4550
 7737SOL    HW134673   2.770   0.509   6.571 -1.1637  0.7406  1.4275
 7737SOL    HW234674   2.887   0.421   6.617 -0.3846 -0.3335 -0.1408
 7738SOL     OW34675   1.037   4.381   2.133  0.3697 -0.0385 -0.5652
 7738SOL    HW134676   0.999   4.440   2.198 -1.1610 -2.4359  0.7274
 7738SOL    HW234677   1.113   4.435   2.111 -0.8036  0.7227 -2.7131
 7739SOL     OW34678   4.661   3.101   6.163 -0.0439  0.3736  0.3100
 7739SOL    HW134679   0.012   3.159   6.179 -0.7121  1.5794 -0.9263
 7739SOL    HW234680   4.677   3.051   6.243  0.1966  2.3703  1.5158
 7740SOL     OW34681   3.891   2.182   6.679  0.7166 -0.0647  0.7028
 7740SOL    HW134682   3.963   2.222   6.631 -0.2393  1.4271  0.5084
 7740SOL    HW234683   3.817   2.165   6.619  0.7076  0.6740  0.5092
 7741SOL     OW34684   0.181   2.856  12.863 -0.2838 -0.1834  0.6322
 7741SOL    HW134685   0.260   2.858  12.917 -1.3203 -0.0932  2.1262
 7741SOL    HW234686   0.207   2.902  12.784 -0.3888 -1.2111 -0.0071
 7742SOL     OW34687   4.507   3.438   5.897 -0.1869  0.1866  0.5801
 7742SOL    HW134688   4.475   3.406   5.813  3.5062 -1.0442 -0.3327
 7742SOL    HW234689   4.602   3.443   5.884 -0.1795  1.3967  1.0555
 7743SOL     OW34690   1.206   4.332  15.551 -0.5370  0.2734 -0.4030
 7743SOL    HW134691   1.174   4.266  15.490  2.4759 -1.7060  0.1742
 7743SOL    HW234692   1.299   4.323  15.529 -0.5823 -0.2808 -0.3539
 7744SOL     OW34693   0.695   2.749   1.242  0.0629  0.2351  0.0886
 7744SOL    HW134694   0.632   2.805   1.286 -2.0377 -1.1751 -1.1309
 7744SOL    HW234695   0.670   2.756   1.150  1.9753  0.6108 -0.4127
 7745SOL     OW34696   1.081   3.604  12.234  0.3276  0.1637  0.4037
 7745SOL    HW134697   1.121   3.625  12.318 -2.2339 -0.4373  1.7626
 7745SOL    HW234698   1.054   3.513  12.245  1.4409 -0.3788 -1.3184
 7746SOL     OW34699   3.207   3.612  16.084  0.4738  0.0759 -0.1436
 7746SOL    HW134700   3.261   3.533  16.082 -0.3152 -0.4364 -1.0526
 7746SOL    HW234701   3.273   3.680  16.069 -1.2171  1.8659  0.3715
 7747SOL     OW34702   1.686   0.864   3.040  0.2010 -0.0368 -0.6279
 7747SOL    HW134703   1.742   0.802   3.086  1.2210  0.9162 -0.5955
 7747SOL    HW234704   1.743   0.894   2.969  0.1524 -1.4526 -1.2686
 7748SOL     OW34705   4.230   1.390   2.822 -0.1231 -0.2146  0.3149
 7748SOL    HW134706   4.200   1.413   2.734  0.6652 -1.2337 -0.2343
 7748SOL    HW234707   4.189   1.305   2.840  0.1870 -0.1722  1.2461
 7749SOL     OW34708   0.024   4.174   7.663 -0.5649  0.8837 -0.0653
 7749SOL    HW134709   4.662   4.209   7.638 -1.3453 -0.8141  0.1676
 7749SOL    HW234710   0.073   4.180   7.582  0.2509  0.6853  0.4140
 7750SOL     OW34711   0.586   0.081   3.565 -0.3765 -0.0506  0.2800
 7750SOL    HW134712   0.634   0.007   3.602 -0.7947  0.6410  2.1882
 7750SOL    HW234713   0.658   0.139   3.539 -0.8662 -0.9613 -3.2036
 7751SOL     OW34714   3.046   4.083  17.579 -0.1391 -0.2911 -0.2162
 7751SOL    HW134715   3.089   4.167  17.565  2.2047 -0.9944  2.6122
 7751SOL    HW234716   3.057   4.032  17.499  2.1452 -1.5760  0.9134
 7752SOL     OW34717   4.501   3.331   4.498 -0.1166  0.0717 -0.1391
 7752SOL    HW134718   4.580   3.378   4.470  1.1545 -0.2041  3.0633
 7752SOL    HW234719   4.454   3.322   4.415 -0.9819  0.8544  0.2639
 7753SOL     OW34720   2.303   3.080   9.320  0.2814  0.5824  0.6565
 7753SOL    HW134721   2.345   3.150   9.270  1.1328  1.6978  2.9628
 7753SOL    HW234722   2.283   3.130   9.399 -0.4430  1.2738  0.0475
 7754SOL     OW34723   4.335   0.648   5.066  0.7913 -0.0026  0.0766
 7754SOL    HW134724   4.295   0.720   5.017  0.4830  0.8199  1.5212
 7754SOL    HW234725   4.384   0.695   5.134 -0.7845  1.2451  0.3401
 7755SOL     OW34726   4.125   1.284   4.425 -0.7518 -0.0238  0.1145
 7755SOL    HW134727   4.100   1.222   4.356 -1.5414 -0.3557  0.6980
 7755SOL    HW234728   4.050   1.343   4.420 -0.6532  0.2471  1.9093
 7756SOL     OW34729   3.556   1.114  13.016 -0.2590  0.3016 -0.1355
 7756SOL    HW134730   3.567   1.027  12.978  1.0755  1.0023 -1.3648
 7756SOL    HW234731   3.464   1.114  13.044  0.5198 -0.1398  2.3982
 7757SOL     OW34732   2.346   0.116   8.611 -0.1161  0.2592 -0.0170
 7757SOL    HW134733   2.308   0.119   8.524 -0.6554  0.6913  0.2330
 7757SOL    HW234734   2.422   0.175   8.618  1.8584 -2.4409  1.2462
 7758SOL     OW34735   4.153   0.666   2.911 -0.1172 -0.0646 -0.0477
 7758SOL    HW134736   4.226   0.690   2.855 -1.3771 -1.0278 -2.0904
 7758SOL    HW234737   4.095   0.646   2.837  0.6963  0.8224 -0.9252
 7759SOL     OW34738   2.314   4.265   6.751 -0.0385 -0.2555  0.0681
 7759SOL    HW134739   2.288   4.244   6.841  1.0835 -1.3625  0.1335
 7759SOL    HW234740   2.262   4.343   6.735  0.5722 -0.4970 -3.0631
 7760SOL     OW34741   2.184   2.667   5.131  0.0909 -0.0613 -0.5183
 7760SOL    HW134742   2.182   2.622   5.215  0.1343  0.4630 -0.2391
 7760SOL    HW234743   2.100   2.714   5.131  0.3564  0.4114 -0.4713
 7761SOL     OW34744   2.383   0.191   5.054 -0.3153 -0.2546 -0.0887
 7761SOL    HW134745   2.394   0.099   5.030 -0.0111  0.0461 -1.1010
 7761SOL    HW234746   2.441   0.194   5.131  0.1998  2.5547 -0.5985
 7762SOL     OW34747   0.323   1.013  15.191  0.3994  0.1844 -0.0462
 7762SOL    HW134748   0.258   1.083  15.178  1.6803  1.5113  0.7418
 7762SOL    HW234749   0.362   1.016  15.104 -1.9909  1.4786 -1.0954
 7763SOL     OW34750   2.705   0.947   1.180  0.1162 -0.0701 -0.2504
 7763SOL    HW134751   2.678   0.860   1.208 -3.0219  1.4265  1.3363
 7763SOL    HW234752   2.753   0.925   1.100  1.5883  0.8545  0.3735
 7764SOL     OW34753   0.806   3.750   4.898 -0.3491 -0.7328  0.3987
 7764SOL    HW134754   0.870   3.774   4.831 -1.0849 -1.5386 -0.5905
 7764SOL    HW234755   0.837   3.805   4.971  0.9249  0.8286 -1.3298
 7765SOL     OW34756   0.165   0.616  11.739 -0.2174 -0.0753  0.5465
 7765SOL    HW134757   0.093   0.670  11.770 -0.7668  1.1225 -2.8079
 7765SOL    HW234758   0.227   0.685  11.719 -0.5828  0.2941  0.6938
 7766SOL     OW34759   0.245   4.183   5.402 -0.4476  0.1299 -0.4041
 7766SOL    HW134760   0.161   4.138   5.412  0.5267 -1.1306  1.9604
 7766SOL    HW234761   0.254   4.222   5.489 -0.2683  0.1528 -0.4335
 7767SOL     OW34762   0.793   3.356   6.518 -0.1517  0.1437 -0.5850
 7767SOL    HW134763   0.737   3.420   6.562 -0.0991  1.3319 -2.2306
 7767SOL    HW234764   0.736   3.350   6.440 -0.3853  2.4874 -0.6145
 7768SOL     OW34765   0.570   2.018   2.037 -0.0686 -0.0555 -0.1197
 7768SOL    HW134766   0.522   1.947   2.080  1.2941 -1.7351 -1.3784
 7768SOL    HW234767   0.659   1.986   2.043 -0.5788 -1.2976  0.8941
 7769SOL     OW34768   2.844   3.125   4.716  0.3606  0.4048  0.7348
 7769SOL    HW134769   2.751   3.107   4.711  0.3033  0.3999  1.8124
 7769SOL    HW234770   2.856   3.183   4.641  0.7138  2.2610  2.2194
 7770SOL     OW34771   1.283   0.708  13.061  0.0097  0.1061  0.2463
 7770SOL    HW134772   1.284   0.691  12.967 -1.2379 -1.1052  0.4496
 7770SOL    HW234773   1.255   0.799  13.063  0.1632  0.2119 -2.2102
 7771SOL     OW34774   2.546   1.081  13.732  0.1800  0.1392  0.3600
 7771SOL    HW134775   2.517   1.001  13.776  0.2612  0.2969  0.7059
 7771SOL    HW234776   2.631   1.096  13.774  0.6204  1.7139 -1.1223
 7772SOL     OW34777   2.259   4.473   6.459  0.1069 -0.5533  0.4165
 7772SOL    HW134778   2.215   4.431   6.533  1.6532  0.9329  2.1731
 7772SOL    HW234779   2.199   4.547   6.448  0.0036 -0.2865  2.8293
 7773SOL     OW34780   2.829   1.212   5.614 -0.3909 -0.1325 -0.2756
 7773SOL    HW134781   2.909   1.160   5.623 -0.8317 -0.7899 -0.1921
 7773SOL    HW234782   2.773   1.178   5.683  0.2354 -0.6119  0.0031
 7774SOL     OW34783   3.999   0.869   4.813  0.3664  0.3918  0.2856
 7774SOL    HW134784   3.975   0.777   4.830 -3.9132  1.4161 -0.2112
 7774SOL    HW234785   4.074   0.883   4.870  1.2443 -0.4111 -0.6847
 7775SOL     OW34786   0.055   0.911  16.662 -0.2436  0.0656  0.5923
 7775SOL    HW134787   4.703   0.943  16.613 -0.7029 -0.9522  0.6307
 7775SOL    HW234788   0.075   0.833  16.611  0.0748  0.2870  0.3779
 7776SOL     OW34789   2.381   0.186  14.986 -0.0315  0.4832 -0.3704
 7776SOL    HW134790   2.373   0.091  14.986 -0.2190  0.5066 -2.0280
 7776SOL    HW234791   2.319   0.214  15.053 -0.3986  2.0246 -1.3590
 7777SOL     OW34792   4.097   0.014   9.265 -0.5939 -0.5920  0.1362
 7777SOL    HW134793   4.150   0.072   9.320 -0.9807  1.5952 -1.7755
 7777SOL    HW234794   4.004   0.023   9.282 -0.3474 -0.5427  1.3978
 7778SOL     OW34795   1.966   0.347  13.246  0.0001  0.7856  0.2877
 7778SOL    HW134796   2.038   0.398  13.207 -1.6858  1.9200 -1.3245
 7778SOL    HW234797   1.883   0.383  13.215  0.1174  0.1896 -0.7230
 7779SOL     OW34798   1.336   1.763  14.899  0.5929 -0.2720 -0.3619
 7779SOL    HW134799   1.414   1.733  14.852  1.8894  0.6485  1.2218
 7779SOL    HW234800   1.274   1.756  14.826 -1.9132  1.4522  1.6091
 7780SOL     OW34801   3.872   2.289   8.146 -0.0651  0.5122  0.7171
 7780SOL    HW134802   3.777   2.290   8.157  0.0404 -0.5159  1.7197
 7780SOL    HW234803   3.881   2.297   8.051 -1.6190  0.1534  0.5485
 7781SOL     OW34804   3.130   0.242   3.764  0.1460  0.4719  0.6165
 7781SOL    HW134805   3.051   0.292   3.788  0.4988  1.4942 -0.3600
 7781SOL    HW234806   3.192   0.276   3.828  1.5943 -2.4115  0.7242
 7782SOL     OW34807   4.483   3.407   4.756 -0.6251 -0.1459  0.1032
 7782SOL    HW134808   4.566   3.443   4.787 -1.1680  0.7427  0.5469
 7782SOL    HW234809   4.493   3.396   4.662 -0.0799  0.6309  0.0703
 7783SOL     OW34810   2.151   4.485  10.080  0.1846 -0.3583  0.3846
 7783SOL    HW134811   2.138   4.476   9.986 -0.9136  0.6526  0.4429
 7783SOL    HW234812   2.078   4.430  10.110  1.6873 -1.2399  2.4668
 7784SOL     OW34813   1.547   2.885  12.731 -0.0186  0.1870  0.2250
 7784SOL    HW134814   1.474   2.907  12.674  0.0165  0.6606  0.3637
 7784SOL    HW234815   1.570   2.793  12.713  0.2748  0.4612 -0.7917
 7785SOL     OW34816   1.685   2.634  17.011  0.0533 -0.4219  0.3706
 7785SOL    HW134817   1.655   2.564  16.952 -0.2748 -0.4637  0.5885
 7785SOL    HW234818   1.779   2.621  16.996  0.2382  1.1816  0.2021
 7786SOL     OW34819   0.608   4.363  14.054 -0.0305  0.4222  0.1034
 7786SOL    HW134820   0.541   4.296  14.042  1.0271 -0.1587 -2.4720
 7786SOL    HW234821   0.564   4.446  14.036 -1.8976 -0.2003  1.7662
 7787SOL     OW34822   1.886   1.042   3.934  0.3846  0.4622  0.1443
 7787SOL    HW134823   1.968   0.992   3.939 -0.6739 -1.4305 -1.3724
 7787SOL    HW234824   1.837   0.967   3.901  0.6815 -0.0261  0.8080
 7788SOL     OW34825   0.634   2.670   9.355  0.4192  0.5123  0.0563
 7788SOL    HW134826   0.670   2.758   9.366  0.0872  0.8080 -1.1765
 7788SOL    HW234827   0.672   2.650   9.269 -0.2984  0.8717 -0.3430
 7789SOL     OW34828   3.461   3.232   7.760 -0.0569 -0.5920 -0.3173
 7789SOL    HW134829   3.426   3.246   7.848  1.9757 -0.6416  0.5010
 7789SOL    HW234830   3.439   3.315   7.718  0.3782 -1.8685 -3.0724
 7790SOL     OW34831   3.278   1.219   8.168 -0.4249 -0.6251 -0.5042
 7790SOL    HW134832   3.324   1.138   8.189  1.2685  0.1831 -1.0838
 7790SOL    HW234833   3.214   1.220   8.239  0.4838  1.2309  0.2900
 7791SOL     OW34834   3.375   0.598   2.208  0.2280  0.1558 -0.4701
 7791SOL    HW134835   3.413   0.661   2.270 -1.1561 -0.0695  0.6175
 7791SOL    HW234836   3.449   0.547   2.176  1.2508  2.2591 -1.4397
 7792SOL     OW34837   2.541   0.697  16.392  0.2823  0.1324  0.1376
 7792SOL    HW134838   2.491   0.774  16.367 -0.3778 -0.6134 -0.8685
 7792SOL    HW234839   2.580   0.681  16.306  2.7086  0.3937  1.2053
 7793SOL     OW34840   1.002   2.056  10.686 -0.2327  0.6795 -0.3816
 7793SOL    HW134841   0.955   2.139  10.703 -3.0438 -0.2224 -3.7109
 7793SOL    HW234842   0.973   2.048  10.596 -1.4414  0.9491 -0.0222
 7794SOL     OW34843   2.843   2.327   4.710 -0.3687 -0.5117  0.4503
 7794SOL    HW134844   2.767   2.295   4.661  0.4516 -1.3096 -0.3072
 7794SOL    HW234845   2.827   2.420   4.696  0.7090 -0.3555  0.2816
 7795SOL     OW34846   4.654   1.274   4.865 -0.6892 -0.1605 -0.4990
 7795SOL    HW134847   4.586   1.338   4.842 -1.0392 -1.1628 -2.2817
 7795SOL    HW234848   4.646   1.275   4.960  0.3175  0.0339 -0.4179
 7796SOL     OW34849   2.981   0.830   4.072 -0.5914 -0.2372  0.1957
 7796SOL    HW134850   3.050   0.891   4.098 -1.0128  0.4892 -0.4334
 7796SOL    HW234851   3.037   0.769   4.024 -0.8759 -2.2930  2.4832
 7797SOL     OW34852   0.044   4.253  14.953 -0.2259 -0.1087 -0.5411
 7797SOL    HW134853   0.058   4.164  14.921  0.2703  0.0320 -0.7200
 7797SOL    HW234854   0.129   4.289  14.929 -0.1439  0.7865  1.1262
 7798SOL     OW34855   0.430   1.482  12.660  0.4732  0.2736 -0.1314
 7798SOL    HW134856   0.349   1.532  12.665  1.3565  1.6164  0.6218
 7798SOL    HW234857   0.488   1.553  12.634 -1.6058  1.4543 -1.5618
 7799SOL     OW34858   0.162   3.098   3.484  0.7435 -0.3027 -0.3671
 7799SOL    HW134859   0.153   3.147   3.402  2.6104  1.1954  0.3263
 7799SOL    HW234860   0.252   3.121   3.506  1.2926 -1.1948 -1.6771
 7800SOL     OW34861   2.155   4.274   1.691 -0.1494 -0.3890 -0.4495
 7800SOL    HW134862   2.159   4.204   1.626  2.3844 -0.9635  0.3122
 7800SOL    HW234863   2.192   4.343   1.638 -0.6805  0.7712  0.6825
 7801SOL     OW34864   3.244   4.557  11.424 -0.2236 -0.3090  0.0617
 7801SOL    HW134865   3.218   4.602  11.343 -0.5331  0.1469  0.4134
 7801SOL    HW234866   3.322   4.514  11.389  0.4022  1.6768 -1.0007
 7802SOL     OW34867   1.348   0.001  16.326  0.2375  0.2769  0.1682
 7802SOL    HW134868   1.349   0.096  16.313  0.0907  0.5160  1.9159
 7802SOL    HW234869   1.335   4.721  16.421 -0.5568 -0.3632  0.0326
 7803SOL     OW34870   3.965   0.831  13.376 -0.0970  0.2016 -0.6492
 7803SOL    HW134871   3.995   0.902  13.432  1.2414  0.5875 -1.8621
 7803SOL    HW234872   3.923   0.775  13.441  0.5083  1.3080  0.6805
 7804SOL     OW34873   0.774   4.626  10.505  0.1544 -0.2850  0.2180
 7804SOL    HW134874   0.839   4.563  10.472  1.8423  1.2271  0.6250
 7804SOL    HW234875   0.751   4.597  10.594  0.0591  1.3839  0.7330
 7805SOL     OW34876   3.047   4.140  14.676 -0.5601 -0.9969 -0.2601
 7805SOL    HW134877   2.978   4.189  14.632  2.2864  4.1238  0.9218
 7805SOL    HW234878   3.111   4.108  14.613  1.3279  1.3822  0.4506
 7806SOL     OW34879   4.676   1.246   1.676  0.0106  0.1537  0.3824
 7806SOL    HW134880   4.617   1.321   1.686 -1.3857 -1.2734  2.8126
 7806SOL    HW234881   4.626   1.195   1.740 -0.5210  0.8380  0.5122
 7807SOL     OW34882   3.451   2.427   3.578  0.0167 -0.2398  0.1229
 7807SOL    HW134883   3.441   2.504   3.634 -1.8113 -1.2691  1.2256
 7807SOL    HW234884   3.481   2.460   3.494 -0.5157 -0.4165 -0.1388
 7808SOL     OW34885   4.660   4.194   4.642 -0.0234  0.2411 -0.5801
 7808SOL    HW134886   4.675   4.268   4.584  1.6298 -0.0068 -0.4596
 7808SOL    HW234887   4.576   4.222   4.680  0.1963  0.2179 -0.0733
 7809SOL     OW34888   3.586   3.301   6.599  0.7019  0.1091 -0.2886
 7809SOL    HW134889   3.516   3.235   6.596 -0.1191  1.0280 -2.1786
 7809SOL    HW234890   3.590   3.312   6.694 -1.7288 -1.3153 -0.0148
 7810SOL     OW34891   1.760   4.520   2.331  0.1015 -0.7527 -0.5700
 7810SOL    HW134892   1.735   4.522   2.239  0.0089  0.2298 -0.5268
 7810SOL    HW234893   1.737   4.428   2.343 -1.4621 -0.0942  1.5708
 7811SOL     OW34894   1.870   2.106   3.784  0.4352 -0.5076 -0.0131
 7811SOL    HW134895   1.895   2.159   3.859 -1.3981 -2.5778  2.0410
 7811SOL    HW234896   1.863   2.168   3.711  1.7062  0.6126  0.8174
 7812SOL     OW34897   0.977   0.606  15.130 -0.0844 -0.2484  1.0694
 7812SOL    HW134898   1.030   0.634  15.055 -0.0413 -4.1374 -0.3272
 7812SOL    HW234899   1.041   0.568  15.191 -0.4585 -2.0855  0.2970
 7813SOL     OW34900   1.797   1.557   7.646  0.3661 -0.2226  0.1685
 7813SOL    HW134901   1.807   1.525   7.556 -2.4877 -0.9307  0.1202
 7813SOL    HW234902   1.867   1.620   7.662  0.4800  0.3623 -2.6838
 7814SOL     OW34903   1.616   3.434  10.398  0.1101  0.2654  0.0874
 7814SOL    HW134904   1.661   3.485  10.331 -0.2041 -0.8168 -0.9468
 7814SOL    HW234905   1.594   3.359  10.343 -0.2482  0.1034  0.4513
 7815SOL     OW34906   0.065   2.247   0.072  0.0518 -0.7210 -0.1482
 7815SOL    HW134907   0.144   2.294   0.045  0.1346 -0.4026  0.6694
 7815SOL    HW234908   0.103   2.180   0.130  1.1474 -0.6031 -0.7198
 7816SOL     OW34909   2.701   2.635   4.995 -0.0446 -0.1793 -0.2437
 7816SOL    HW134910   2.640   2.692   4.949  0.1353  0.3154  0.1374
 7816SOL    HW234911   2.670   2.544   4.993 -2.1105  0.5475 -0.5742
 7817SOL     OW34912   0.421   3.787   0.707  0.7755 -0.3177  0.4761
 7817SOL    HW134913   0.444   3.795   0.614 -0.7954  1.3545  0.2151
 7817SOL    HW234914   0.442   3.695   0.720  0.1521 -0.5861 -0.4128
 7818SOL     OW34915   2.815   3.848   6.859  0.1888  0.7655  0.2855
 7818SOL    HW134916   2.806   3.931   6.812 -1.1885  1.2167  1.3690
 7818SOL    HW234917   2.750   3.850   6.928  1.8232  0.9375  1.8249
 7819SOL     OW34918   1.568   0.512  17.164  0.5523  0.2011  0.2030
 7819SOL    HW134919   1.563   0.586  17.104 -0.6689 -0.6106 -0.7132
 7819SOL    HW234920   1.538   0.444  17.104 -1.2154 -0.4475  1.8119
 7820SOL     OW34921   4.367   1.339   4.280 -0.4128  0.1688  0.4461
 7820SOL    HW134922   4.314   1.296   4.347 -1.2695 -2.0335 -1.6303
 7820SOL    HW234923   4.342   1.430   4.298  0.4400  0.5881 -0.5115
 7821SOL     OW34924   3.169   1.976   1.714  0.0603 -0.2308  0.2790
 7821SOL    HW134925   3.248   2.025   1.738  1.2535 -2.3061  0.5325
 7821SOL    HW234926   3.196   1.886   1.732 -1.1473 -0.8552 -1.0690
 7822SOL     OW34927   3.645   4.128   0.289  0.6164 -0.3384 -0.4371
 7822SOL    HW134928   3.646   4.199   0.353 -0.6971 -0.8121  0.1082
 7822SOL    HW234929   3.569   4.143   0.232 -0.7543  0.0156  1.4625
 7823SOL     OW34930   4.357   1.845   4.429 -0.4349 -0.4507  0.5650
 7823SOL    HW134931   4.419   1.776   4.454  1.2150  1.0817  0.6462
 7823SOL    HW234932   4.403   1.877   4.351  0.0613 -1.0275  0.6189
 7824SOL     OW34933   4.062   1.250  11.739  0.0502 -0.7509  0.0620
 7824SOL    HW134934   4.144   1.284  11.702 -1.6583  1.4621 -1.6847
 7824SOL    HW234935   4.042   1.317  11.804  1.4963 -1.1867  0.9525
 7825SOL     OW34936   3.719   0.667   6.658  0.0974 -0.3878 -0.1374
 7825SOL    HW134937   3.732   0.581   6.698  3.4762  1.2758  2.3535
 7825SOL    HW234938   3.806   0.706   6.667  0.2813 -1.4770  2.9650
 7826SOL     OW34939   4.538   0.846   8.370 -0.7138  0.1840 -0.4171
 7826SOL    HW134940   4.493   0.830   8.287 -2.9143 -0.7157  0.9443
 7826SOL    HW234941   4.465   0.850   8.433 -0.5638 -0.1126 -0.2206
 7827SOL     OW34942   4.184   2.976   8.818 -0.1905 -0.6901  0.3925
 7827SOL    HW134943   4.134   2.900   8.788 -0.4654 -0.1140 -0.6158
 7827SOL    HW234944   4.202   2.943   8.906  1.1590 -1.7258 -0.2640
 7828SOL     OW34945   4.040   0.158   2.393 -0.3047 -0.1343  0.3804
 7828SOL    HW134946   4.058   0.070   2.360  1.0072  0.3907 -0.2923
 7828SOL    HW234947   4.033   0.152   2.488  0.5346 -1.2502  0.3762
 7829SOL     OW34948   4.434   2.628   5.546 -0.0175  0.8661 -0.1949
 7829SOL    HW134949   4.424   2.682   5.467 -2.0222  0.3183 -0.3258
 7829SOL    HW234950   4.355   2.578   5.524  0.5747 -0.9158  1.7409
 7830SOL     OW34951   3.674   1.682   5.471  0.1145 -0.0050 -0.0936
 7830SOL    HW134952   3.698   1.589   5.462 -0.6886 -0.0135 -2.1376
 7830SOL    HW234953   3.581   1.666   5.482 -0.2548  0.1656 -3.0940
 7831SOL     OW34954   2.197   3.912   4.171 -0.0028  0.4369 -0.3023
 7831SOL    HW134955   2.104   3.901   4.151  0.2389  0.6106 -1.5477
 7831SOL    HW234956   2.192   3.877   4.259 -2.1898  0.8341 -0.2766
 7832SOL     OW34957   2.783   3.399   0.611  0.2786  0.2621 -0.2027
 7832SOL    HW134958   2.747   3.485   0.588 -1.8169 -0.2087  1.2958
 7832SOL    HW234959   2.855   3.385   0.551  0.1348 -1.0297 -0.0733
 7833SOL     OW34960   3.389   2.249   9.438 -0.2083  0.2787  0.1239
 7833SOL    HW134961   3.409   2.207   9.522 -2.3292 -0.9530  0.0029
 7833SOL    HW234962   3.429   2.181   9.383  0.1155  0.8649 -0.3702
 7834SOL     OW34963   0.489   2.703   2.046 -0.5245  0.6758 -0.1319
 7834SOL    HW134964   0.503   2.775   2.107 -1.5902  1.7588 -1.1556
 7834SOL    HW234965   0.558   2.719   1.981 -1.6307 -0.8578 -1.7022
 7835SOL     OW34966   3.919   3.578   0.505 -0.2851  0.0575  0.5193
 7835SOL    HW134967   3.959   3.546   0.423  1.5350 -0.1366  1.4882
 7835SOL    HW234968   3.960   3.664   0.503  0.3607 -0.2362  1.3157
 7836SOL     OW34969   2.553   0.915   2.809 -0.2737 -0.1039 -0.3126
 7836SOL    HW134970   2.501   0.951   2.881  1.5367 -1.2233  1.5395
 7836SOL    HW234971   2.501   0.951   2.737 -0.9062 -3.0885 -1.3688
 7837SOL     OW34972   1.914   4.634   2.005  0.2367 -0.0297 -0.0794
 7837SOL    HW134973   1.941   4.542   2.007 -0.6804 -0.3288 -1.5087
 7837SOL    HW234974   1.980   4.685   2.052 -0.4205  1.4635 -0.7796
 7838SOL     OW34975   4.032   4.084   0.394  0.0260 -0.5758 -0.1655
 7838SOL    HW134976   3.999   4.169   0.425 -0.1478 -0.8058  0.2776
 7838SOL    HW234977   4.121   4.118   0.382  0.3588 -1.2901  0.2974
 7839SOL     OW34978   3.130   0.182   5.523 -0.0191 -0.2685  0.6060
 7839SOL    HW134979   3.078   0.209   5.448  0.1252 -0.0300  0.5933
 7839SOL    HW234980   3.076   0.214   5.596  0.0702  0.7616  0.2170
 7840SOL     OW34981   4.338   2.628  17.560  0.4865  0.4124  0.2049
 7840SOL    HW134982   4.368   2.594  17.476  0.8562  1.2257  0.0054
 7840SOL    HW234983   4.319   2.547  17.607  1.5046  1.1144  1.8457
 7841SOL     OW34984   1.579   4.703   6.043  0.0903 -0.2888 -0.5950
 7841SOL    HW134985   1.658   0.028   6.017 -0.3281  0.4340 -0.5042
 7841SOL    HW234986   1.599   4.657   6.124  0.9071 -0.0103 -0.6315
 7842SOL     OW34987   2.640   4.003   0.305  0.5166  0.4836  0.1426
 7842SOL    HW134988   2.728   4.026   0.274  1.4792 -3.4809 -0.0077
 7842SOL    HW234989   2.659   3.988   0.398 -1.6500 -0.1065  0.4744
 7843SOL     OW34990   2.441   3.011  11.141 -0.3743 -0.5364  0.0525
 7843SOL    HW134991   2.475   3.004  11.053  1.4746 -1.3927  0.8365
 7843SOL    HW234992   2.428   3.105  11.151 -0.7060 -0.3610 -2.0582
 7844SOL     OW34993   2.985   4.495   3.561 -0.1068  0.6366 -0.2034
 7844SOL    HW134994   2.984   4.459   3.650  0.8541 -0.8402 -0.7824
 7844SOL    HW234995   3.079   4.503   3.546  0.2655  0.5963  2.1361
 7845SOL     OW34996   0.189   0.710   0.785 -0.2669  0.3312  0.4249
 7845SOL    HW134997   0.278   0.725   0.753 -0.3832  0.0231 -0.0329
 7845SOL    HW234998   0.161   0.801   0.775 -1.0725  0.0648  0.2885
 7846SOL     OW34999   4.173   2.607   8.372  0.1988  0.0763  0.4754
 7846SOL    HW135000   4.188   2.664   8.448 -3.9801  1.8482 -0.0498
 7846SOL    HW235001   4.096   2.556   8.396  1.1532 -1.2199  0.7539
 7847SOL     OW35002   1.306   1.686   2.912  0.1835 -0.5371 -0.2521
 7847SOL    HW135003   1.345   1.736   2.984 -1.5861 -0.1819  0.4642
 7847SOL    HW235004   1.364   1.610   2.914  0.2767 -0.4552  0.1688
 7848SOL     OW35005   4.132   0.927   8.345 -0.6729  0.2085 -0.8111
 7848SOL    HW135006   4.207   0.875   8.373 -1.6014  0.8588  2.8055
 7848SOL    HW235007   4.144   0.988   8.417  0.0836 -1.1236  0.1743
 7849SOL     OW35008   1.448   0.774  14.308 -0.3223 -0.4882 -0.3846
 7849SOL    HW135009   1.419   0.804  14.222  0.9036  0.7053 -0.3738
 7849SOL    HW235010   1.364   0.735  14.335 -0.4910 -0.5583 -1.0085
 7850SOL     OW35011   0.035   3.072   7.343 -0.2426  0.1780  0.1939
 7850SOL    HW135012   0.048   3.055   7.437  1.6936 -0.0072 -0.1192
 7850SOL    HW235013   4.684   3.019   7.315 -1.0429  0.1167  2.3830
 7851SOL     OW35014   2.596   4.343   7.365  0.0870 -0.7585  0.4019
 7851SOL    HW135015   2.668   4.331   7.427 -1.5115 -2.0239  2.0242
 7851SOL    HW235016   2.526   4.283   7.392 -0.8432  0.8129  1.4737
 7852SOL     OW35017   1.786   4.508  11.074 -0.1909 -0.0579 -0.4526
 7852SOL    HW135018   1.730   4.483  11.000  0.7916 -0.5671 -1.0291
 7852SOL    HW235019   1.772   4.603  11.080 -2.1693 -0.3293 -0.7584
 7853SOL     OW35020   4.110   3.714  16.399 -0.1286 -0.2114 -0.2835
 7853SOL    HW135021   4.053   3.767  16.454 -0.4610  0.8080 -1.6253
 7853SOL    HW235022   4.092   3.759  16.317 -2.1470 -0.9878 -0.2592
 7854SOL     OW35023   1.078   3.730  10.032 -0.2229  0.0557 -0.4794
 7854SOL    HW135024   1.105   3.704  10.120  0.2714  2.5224  0.1203
 7854SOL    HW235025   0.993   3.688  10.017  0.6213 -1.3594 -1.2481
 7855SOL     OW35026   3.411   1.990   8.411 -0.0620  0.4361  0.3919
 7855SOL    HW135027   3.494   1.944   8.428  1.2774  2.6732 -0.0618
 7855SOL    HW235028   3.342   1.938   8.451 -0.9908  0.4346 -1.2116
 7856SOL     OW35029   0.890   2.516   0.153 -0.7541  0.1611 -0.0498
 7856SOL    HW135030   0.975   2.531   0.194 -0.7652  0.3725 -0.1013
 7856SOL    HW235031   0.837   2.583   0.196  0.6660  2.5210 -1.9905
 7857SOL     OW35032   0.326   4.439   8.815  0.8397  0.3011 -0.2953
 7857SOL    HW135033   0.411   4.444   8.857 -0.0787 -3.3594  2.0257
 7857SOL    HW235034   0.354   4.383   8.742  1.5796  0.7878 -0.3757
 7858SOL     OW35035   2.564   0.725  11.618  0.1597  0.6102  0.1297
 7858SOL    HW135036   2.493   0.734  11.681 -0.5542 -1.5839 -0.3555
 7858SOL    HW235037   2.651   0.732  11.657 -0.0873 -0.2718  0.8494
 7859SOL     OW35038   3.571   3.709   9.084  0.3882 -0.4263 -0.8542
 7859SOL    HW135039   3.560   3.673   9.172  0.5567 -1.5752 -1.3055
 7859SOL    HW235040   3.486   3.749   9.067  1.3578  1.3566 -1.5599
 7860SOL     OW35041   1.436   4.502   6.353 -0.2980 -0.5024  0.3967
 7860SOL    HW135042   1.443   4.428   6.413  0.8759 -3.1155 -2.9716
 7860SOL    HW235043   1.526   4.535   6.361 -0.3278 -0.5425  0.9099
 7861SOL     OW35044   0.273   3.488  12.083 -0.1488 -0.2526 -0.1860
 7861SOL    HW135045   0.258   3.545  12.158 -1.6667 -0.3883 -0.3785
 7861SOL    HW235046   0.219   3.408  12.089 -0.2315 -0.0727  1.4204
 7862SOL     OW35047   1.540   0.944   5.781  0.3469  0.0188 -0.4563
 7862SOL    HW135048   1.481   1.016   5.801 -1.8584 -1.2729 -2.2856
 7862SOL    HW235049   1.558   0.967   5.690 -0.9323  2.4475 -0.1077
 7863SOL     OW35050   3.273   0.308  16.223 -0.0848 -0.2466  0.1336
 7863SOL    HW135051   3.197   0.251  16.229 -1.7915  1.9458 -0.6590
 7863SOL    HW235052   3.240   0.392  16.192 -0.8401 -0.0819  1.3508
 7864SOL     OW35053   1.594   4.659   5.392  0.1070  0.0376  0.5465
 7864SOL    HW135054   1.573   4.613   5.474 -3.0751 -0.6784 -0.6688
 7864SOL    HW235055   1.507   4.687   5.364  1.3624  3.0811 -0.3560
 7865SOL     OW35056   1.771   3.928   5.426 -0.3737  0.3416 -0.0912
 7865SOL    HW135057   1.771   4.002   5.487 -0.1302  0.3282 -0.0747
 7865SOL    HW235058   1.832   3.862   5.459 -0.5731 -0.1414 -0.6760
 7866SOL     OW35059   1.113   1.314   6.430 -0.2716  0.1005  0.8691
 7866SOL    HW135060   1.055   1.386   6.405  0.3047  0.7053  1.2538
 7866SOL    HW235061   1.052   1.255   6.474 -0.7765  0.0039  0.0410
 7867SOL     OW35062   1.038   3.880   7.777 -0.2828 -0.4372 -0.5756
 7867SOL    HW135063   0.991   3.920   7.704 -2.4759 -1.2254  0.4007
 7867SOL    HW235064   1.079   3.958   7.815  0.0509 -0.0324 -1.7592
 7868SOL     OW35065   1.440   3.138   2.064 -0.2345 -1.0109  0.0728
 7868SOL    HW135066   1.459   3.067   2.004 -1.8581 -0.7007 -0.8078
 7868SOL    HW235067   1.466   3.099   2.148 -3.2493  4.1312  3.3873
 7869SOL     OW35068   4.598   2.334   9.736  0.2609 -0.6048  0.5536
 7869SOL    HW135069   4.533   2.296   9.796 -2.8384  0.4397 -2.1620
 7869SOL    HW235070   4.544   2.405   9.701  1.1669 -0.2802 -0.1798
 7870SOL     OW35071   0.410   0.710   5.257  0.1688  0.1985  0.2392
 7870SOL    HW135072   0.410   0.621   5.291  1.8932 -0.3946 -1.3539
 7870SOL    HW235073   0.502   0.734   5.265  0.5881 -0.3516 -3.0271
 7871SOL     OW35074   1.138   1.445   4.076 -0.0967 -0.2369  0.1628
 7871SOL    HW135075   1.208   1.400   4.123  0.5124 -0.4362 -0.9383
 7871SOL    HW235076   1.059   1.398   4.105  0.3384 -0.8385  0.3585
 7872SOL     OW35077   0.116   0.133   6.304  0.3563 -0.6413  0.2019
 7872SOL    HW135078   0.072   0.053   6.275  1.0969 -1.1596  0.5091
 7872SOL    HW235079   0.082   0.130   6.394  0.4117  2.2703  0.3285
 7873SOL     OW35080   4.124   0.248   8.673 -0.1668  0.4268 -0.5556
 7873SOL    HW135081   4.134   0.208   8.760  1.8705 -0.3985 -1.1742
 7873SOL    HW235082   4.216   0.250   8.647  0.1663 -2.4890  0.3812
 7874SOL     OW35083   1.076   2.512   8.705 -0.0108  0.1064 -0.5347
 7874SOL    HW135084   1.125   2.535   8.784  0.3397  0.3610 -0.8256
 7874SOL    HW235085   1.138   2.543   8.639 -0.6686 -0.0083 -1.2075
 7875SOL     OW35086   0.285   4.213  14.538 -0.3712  0.7025 -0.1184
 7875SOL    HW135087   0.364   4.265  14.551 -1.3125  1.7507  1.3805
 7875SOL    HW235088   0.292   4.149  14.608 -2.0940  0.7358  0.0844
 7876SOL     OW35089   0.857   4.224   1.861 -0.0074  0.0246 -0.1158
 7876SOL    HW135090   0.895   4.278   1.792 -0.3640  0.5123  0.0685
 7876SOL    HW235091   0.782   4.184   1.817  1.0093  0.0531 -1.8336
 7877SOL     OW35092   1.602   3.809   2.642 -0.0318  0.2173 -0.1121
 7877SOL    HW135093   1.616   3.716   2.664  0.5992  0.3125 -0.0864
 7877SOL    HW235094   1.603   3.839   2.733  2.9103 -0.5584  0.1363
 7878SOL     OW35095   1.529   1.269  12.944 -0.3297 -0.4805  0.1614
 7878SOL    HW135096   1.550   1.209  12.872 -0.9198 -1.1053  0.5023
 7878SOL    HW235097   1.440   1.297  12.921 -0.0923 -2.2041 -2.7869
 7879SOL     OW35098   2.367   0.094   1.071 -0.1395 -0.4201 -0.4572
 7879SOL    HW135099   2.375   0.092   0.976  0.2262  0.7012 -0.4541
 7879SOL    HW235100   2.401   0.183   1.082 -1.1087 -0.2336  1.0043
 7880SOL     OW35101   4.272   4.666   6.748  0.0537 -0.1419  0.3106
 7880SOL    HW135102   4.306   0.022   6.705  0.9807  0.6652  2.4891
 7880SOL    HW235103   4.255   4.692   6.839  0.5445  0.5619  0.2040
 7881SOL     OW35104   2.543   3.159   4.144  0.2750  0.4257  0.1582
 7881SOL    HW135105   2.465   3.165   4.199 -1.0910 -1.1626 -1.5713
 7881SOL    HW235106   2.585   3.244   4.135 -0.1010  0.4878 -1.0411
 7882SOL     OW35107   0.336   0.980  17.100  0.0732  0.3625 -0.1470
 7882SOL    HW135108   0.244   1.004  17.096 -0.0987 -0.1174  0.9451
 7882SOL    HW235109   0.344   0.937  17.185  0.3658 -0.1439 -0.4313
 7883SOL     OW35110   0.198   0.460  13.014 -0.4806 -0.7058 -0.1230
 7883SOL    HW135111   0.242   0.411  13.083  0.3609 -1.3906 -1.1535
 7883SOL    HW235112   0.103   0.461  13.023 -0.6108 -1.2164 -1.3307
 7884SOL     OW35113   1.635   2.735   4.176 -0.6747 -0.2862 -0.3827
 7884SOL    HW135114   1.677   2.698   4.254 -1.3759  1.3493  0.7718
 7884SOL    HW235115   1.569   2.667   4.165  0.4869 -1.3388 -0.8022
 7885SOL     OW35116   0.440   0.641   8.115  0.3863 -0.1053  0.0713
 7885SOL    HW135117   0.388   0.688   8.049  1.5588 -0.3785 -1.0435
 7885SOL    HW235118   0.531   0.669   8.108  0.4135 -0.4463 -0.9894
 7886SOL     OW35119   1.654   2.809  17.498 -0.1157 -0.0393  0.2211
 7886SOL    HW135120   1.582   2.869  17.477  0.9497  0.7919 -1.0499
 7886SOL    HW235121   1.713   2.844  17.431  0.9389  0.9143  1.6410
 7887SOL     OW35122   2.462   3.013   4.439  0.1742  0.5053  0.0639
 7887SOL    HW135123   2.527   2.995   4.508 -1.3793 -2.2589  0.8126
 7887SOL    HW235124   2.491   2.949   4.375  0.0017  1.0542 -0.5573
 7888SOL     OW35125   4.359   0.450  11.152 -0.0135  0.1649 -0.0480
 7888SOL    HW135126   4.325   0.507  11.083  1.1941 -2.2444 -2.6387
 7888SOL    HW235127   4.389   0.373  11.103  1.1253  1.8897 -2.0667
 7889SOL     OW35128   2.969   0.255  13.895  0.1390 -0.2398  0.1191
 7889SOL    HW135129   3.030   0.312  13.848 -0.4665 -0.0833 -0.4776
 7889SOL    HW235130   3.018   0.173  13.893  0.1106 -0.2448 -0.4955
 7890SOL     OW35131   1.134   0.810   6.191 -0.2783  0.3500 -0.2450
 7890SOL    HW135132   1.106   0.901   6.197 -1.8045 -0.0862 -0.6646
 7890SOL    HW235133   1.102   0.781   6.105 -1.8260 -0.6542  0.6721
 7891SOL     OW35134   2.620   0.269   8.198 -0.6113  0.2158 -0.1009
 7891SOL    HW135135   2.563   0.337   8.235  0.4115 -0.6672  3.0225
 7891SOL    HW235136   2.629   0.222   8.281 -1.0560 -0.4638 -0.4415
 7892SOL     OW35137   1.592   4.681  12.999 -0.0237  0.4341  0.2234
 7892SOL    HW135138   1.682   4.702  13.024 -0.3737  1.0593  0.9686
 7892SOL    HW235139   1.568   0.039  12.954  0.5947  0.5492  0.1042
 7893SOL     OW35140   3.863   3.185   2.070 -0.6246 -0.4079 -0.4117
 7893SOL    HW135141   3.858   3.260   2.010  1.7063  0.3833  0.3749
 7893SOL    HW235142   3.884   3.117   2.007 -1.0586 -0.0413 -0.9537
 7894SOL     OW35143   0.764   3.091   1.205  0.9008  0.5871 -0.1755
 7894SOL    HW135144   0.733   3.022   1.146  3.3631 -0.4158 -0.3101
 7894SOL    HW235145   0.729   3.172   1.169 -1.0590 -1.1270 -2.1623
 7895SOL     OW35146   1.427   2.541   5.392 -0.2406 -0.5554  0.0012
 7895SOL    HW135147   1.488   2.482   5.348  2.3997  1.0780  1.4817
 7895SOL    HW235148   1.384   2.588   5.320 -0.6552  0.7944  1.1484
 7896SOL     OW35149   0.345   2.242   4.332  0.0914  0.4354  0.2007
 7896SOL    HW135150   0.391   2.162   4.355 -2.2422 -0.8404  0.5057
 7896SOL    HW235151   0.324   2.286   4.415  0.5278  0.5850  0.2332
 7897SOL     OW35152   2.139   3.348   2.487  0.2611  0.1703  0.0612
 7897SOL    HW135153   2.063   3.337   2.430 -0.3125  1.8774  0.5010
 7897SOL    HW235154   2.197   3.389   2.422 -0.7864  2.7535  0.7999
 7898SOL     OW35155   3.787   3.889   8.228  0.3235  0.0592 -0.0014
 7898SOL    HW135156   3.796   3.983   8.215  0.5656  0.1749  0.9684
 7898SOL    HW235157   3.741   3.892   8.312 -0.5732  0.2483 -0.5095
 7899SOL     OW35158   3.063   3.176   2.932 -0.6050  0.4600  0.8189
 7899SOL    HW135159   2.980   3.202   2.892  0.3456  0.8356 -0.8614
 7899SOL    HW235160   3.044   3.181   3.026  0.9828 -0.3769  1.1847
 7900SOL     OW35161   4.490   4.256   3.196  0.7289 -0.6200 -0.0564
 7900SOL    HW135162   4.418   4.243   3.135  0.7365 -0.9791  0.0097
 7900SOL    HW235163   4.536   4.172   3.185 -1.3373 -1.8234  0.5617
 7901SOL     OW35164   4.390   0.613   5.492 -0.7849 -0.2945  0.3469
 7901SOL    HW135165   4.404   0.688   5.434 -0.7669 -0.0111  0.7222
 7901SOL    HW235166   4.478   0.578   5.502  0.1584  0.9387 -3.8931
 7902SOL     OW35167   4.641   0.590   2.007 -0.0296 -0.5754  0.0715
 7902SOL    HW135168   4.571   0.526   2.018 -0.3223 -0.7609 -2.7676
 7902SOL    HW235169   4.713   0.538   1.972  0.0355 -1.9942  2.3519
 7903SOL     OW35170   2.538   0.646   4.878  0.2226 -0.9587 -0.0098
 7903SOL    HW135171   2.530   0.615   4.968 -3.1571  1.4647  0.4956
 7903SOL    HW235172   2.609   0.710   4.883 -0.8156  0.4599 -3.5034
 7904SOL     OW35173   0.946   2.050   1.046 -0.2170 -0.5164  0.2034
 7904SOL    HW135174   0.873   2.050   1.108 -1.2410 -0.0743 -0.9953
 7904SOL    HW235175   0.950   2.144   1.030  1.9479 -0.8426 -1.2331
 7905SOL     OW35176   3.820   0.090  13.462 -0.2023  0.0793 -0.2111
 7905SOL    HW135177   3.904   0.043  13.460  0.3472  1.0221  0.8765
 7905SOL    HW235178   3.850   0.177  13.488 -0.1588 -0.6938  2.3294
 7906SOL     OW35179   0.219   1.636  12.618  0.0988  0.2982 -0.5298
 7906SOL    HW135180   0.177   1.649  12.703  1.7395  0.6728  0.2178
 7906SOL    HW235181   0.166   1.572  12.571  1.8896 -1.2755 -0.4150
 7907SOL     OW35182   2.022   0.566   8.901 -0.1136 -0.3072 -0.4898
 7907SOL    HW135183   1.961   0.493   8.885  0.5495 -0.8562 -0.5070
 7907SOL    HW235184   2.050   0.537   8.987 -1.8459  1.4863  0.6784
 7908SOL     OW35185   4.106   1.765   2.405  0.2138 -0.4303  0.2525
 7908SOL    HW135186   4.049   1.752   2.329  0.5671 -1.8760  0.2323
 7908SOL    HW235187   4.182   1.800   2.360 -0.4151  1.1981  0.4471
 7909SOL     OW35188   3.173   0.240   7.325  0.1558  0.1174  0.1806
 7909SOL    HW135189   3.168   0.145   7.313  0.3713 -0.0354  1.2714
 7909SOL    HW235190   3.262   0.252   7.292  0.0458  1.4371  0.3515
 7910SOL     OW35191   4.325   2.702   7.647 -0.6891 -0.5763  0.6313
 7910SOL    HW135192   4.305   2.793   7.626  2.6904 -0.0546 -0.3722
 7910SOL    HW235193   4.372   2.671   7.570 -1.5914  0.9316 -0.5240
 7911SOL     OW35194   2.459   2.111  17.119  0.0746 -0.1584 -0.7972
 7911SOL    HW135195   2.422   2.035  17.073 -1.2354 -0.1533  0.2667
 7911SOL    HW235196   2.394   2.134  17.185 -1.1797 -0.1639 -2.0359
 7912SOL     OW35197   3.010   0.588   7.022  0.0022 -0.4439  0.1727
 7912SOL    HW135198   2.949   0.635   6.965  0.3342 -0.5743 -0.2968
 7912SOL    HW235199   3.033   0.659   7.081 -2.9032  1.0310 -0.4523
 7913SOL     OW35200   3.005   1.802  16.849 -0.4418 -0.1858  0.4785
 7913SOL    HW135201   3.049   1.777  16.768  2.7681  2.7141  1.2846
 7913SOL    HW235202   2.937   1.853  16.805  0.8604 -1.4669 -2.9731
 7914SOL     OW35203   3.728   0.079  10.845 -0.5242 -0.2657 -0.2750
 7914SOL    HW135204   3.708   0.028  10.923 -0.4298 -1.0459 -0.7632
 7914SOL    HW235205   3.640   0.077  10.805 -0.5767  1.3654 -0.2481
 7915SOL     OW35206   0.387   1.630   6.110  0.5168  0.4130 -0.4534
 7915SOL    HW135207   0.348   1.648   6.025  0.8040 -0.6294 -0.8033
 7915SOL    HW235208   0.314   1.631   6.172 -0.4238 -0.5658 -1.5378
 7916SOL     OW35209   1.688   0.499  14.705  0.1970 -0.1099  0.2157
 7916SOL    HW135210   1.609   0.534  14.664  0.5663  0.3380 -0.1166
 7916SOL    HW235211   1.677   0.410  14.671 -1.1699  0.4004 -0.6874
 7917SOL     OW35212   3.288   4.695   1.570  0.1251 -0.2161  0.3192
 7917SOL    HW135213   3.242   0.016   1.642  2.3960 -0.4388  1.8890
 7917SOL    HW235214   3.244   4.610   1.574  1.4482 -0.9321 -0.4252
 7918SOL     OW35215   1.915   2.067   6.239 -0.2518  0.2290 -0.3285
 7918SOL    HW135216   1.824   2.088   6.216 -0.3632 -2.6145 -2.5422
 7918SOL    HW235217   1.919   2.094   6.331  1.1633  0.9893 -0.6274
 7919SOL     OW35218   2.597   2.335   5.041  0.6198  0.2505  0.3363
 7919SOL    HW135219   2.591   2.362   4.949 -0.0339 -2.4377 -0.4169
 7919SOL    HW235220   2.677   2.283   5.033  2.5335  3.2370 -0.0346
 7920SOL     OW35221   2.141   0.860   3.937  0.6805 -0.5951 -0.6573
 7920SOL    HW135222   2.168   0.868   4.028 -0.6653  1.1003 -0.4031
 7920SOL    HW235223   2.079   0.787   3.938  0.2145 -0.1718  1.0438
 7921SOL     OW35224   4.071   1.818  12.147  0.2899 -0.2815  0.3928
 7921SOL    HW135225   3.989   1.815  12.098  1.4617  0.3761 -1.6315
 7921SOL    HW235226   4.134   1.834  12.077 -1.3529 -0.4721 -1.1190
 7922SOL     OW35227   3.983   3.244   6.800 -0.0074  0.2861 -0.0112
 7922SOL    HW135228   3.993   3.306   6.727  0.3484 -0.6071 -0.7316
 7922SOL    HW235229   3.928   3.303   6.851  1.5940  1.7406  0.0295
 7923SOL     OW35230   2.916   0.616  13.710 -0.4826  0.2311  0.1370
 7923SOL    HW135231   2.953   0.528  13.721 -0.6576  0.3032  1.3470
 7923SOL    HW235232   2.954   0.654  13.789  1.3147 -0.8310 -0.2125
 7924SOL     OW35233   2.129   2.054   4.029 -0.3965 -0.1123 -0.1482
 7924SOL    HW135234   2.113   2.131   4.085 -2.4283 -0.6224 -0.0198
 7924SOL    HW235235   2.067   1.990   4.064 -1.0622  1.2609  1.1847
 7925SOL     OW35236   1.262   2.145   8.951  0.0245 -0.1867  0.5738
 7925SOL    HW135237   1.259   2.208   9.023 -0.7245  1.5723 -0.9857
 7925SOL    HW235238   1.172   2.138   8.920  0.7072  1.9924 -1.9087
 7926SOL     OW35239   2.507   4.150  10.095  0.1895 -0.3845  0.0995
 7926SOL    HW135240   2.506   4.202  10.015  2.6354  0.7875  0.8391
 7926SOL    HW235241   2.568   4.085  10.060 -1.0585 -1.6964  0.3339
 7927SOL     OW35242   1.477   3.913   5.454 -0.1661  1.0693  0.1208
 7927SOL    HW135243   1.449   3.822   5.467  1.7876  0.5229  0.6167
 7927SOL    HW235244   1.572   3.904   5.442 -0.6035 -2.5242 -0.8660
 7928SOL     OW35245   0.312   1.747  11.053  0.0549  0.3095  0.0891
 7928SOL    HW135246   0.269   1.686  11.113 -0.2498  0.8514  0.4282
 7928SOL    HW235247   0.394   1.704  11.031  0.5506  0.8717  0.8269
 7929SOL     OW35248   2.771   1.247  14.678 -0.5913 -0.0678  0.8876
 7929SOL    HW135249   2.759   1.308  14.605 -0.3274 -0.3369  0.6165
 7929SOL    HW235250   2.695   1.190  14.669 -0.8579  0.6193 -1.1373
 7930SOL     OW35251   2.799   3.657   0.517 -0.2340 -0.2234  0.3792
 7930SOL    HW135252   2.805   3.627   0.427  0.2314  0.9124  0.0249
 7930SOL    HW235253   2.858   3.731   0.506 -3.3848  2.1912 -0.1095
 7931SOL     OW35254   1.506   2.818   8.328 -0.2135  0.3849  0.2918
 7931SOL    HW135255   1.552   2.884   8.275  0.7840  0.8531  1.7538
 7931SOL    HW235256   1.420   2.810   8.286 -0.3916 -2.0204  1.1223
 7932SOL     OW35257   0.578   3.703   4.557 -0.4266  0.1348  0.0298
 7932SOL    HW135258   0.568   3.659   4.641  0.8253 -1.9294 -0.8931
 7932SOL    HW235259   0.517   3.776   4.558 -0.1623  0.3241  2.6858
 7933SOL     OW35260   2.384   0.768   1.646 -0.1420  0.4840 -0.4645
 7933SOL    HW135261   2.340   0.835   1.698  0.0311  0.1563  0.0980
 7933SOL    HW235262   2.461   0.818   1.618  0.5780 -0.7890 -0.7539
 7934SOL     OW35263   0.008   4.598  12.652  0.1721  0.5112 -0.1063
 7934SOL    HW135264   0.032   4.619  12.743  1.4851 -1.8482  0.0866
 7934SOL    HW235265   4.666   4.665  12.632 -0.4949  0.2996  1.3689
 7935SOL     OW35266   1.358   2.926   0.856  0.1022 -0.0741 -0.3266
 7935SOL    HW135267   1.453   2.920   0.847  0.0912  0.9131 -1.0763
 7935SOL    HW235268   1.343   3.003   0.801  0.1919  0.3789  0.2941
 7936SOL     OW35269   2.610   2.191  12.004 -0.0384 -0.1878  0.3166
 7936SOL    HW135270   2.649   2.204  12.090  1.0066  1.9266 -0.4737
 7936SOL    HW235271   2.593   2.098  11.994  0.0450 -0.3777  1.9266
 7937SOL     OW35272   0.907   0.039   6.385 -0.0904  0.4993 -0.1360
 7937SOL    HW135273   0.997   0.052   6.355 -1.0599  0.3124 -3.1633
 7937SOL    HW235274   0.914   0.021   6.479  2.2224 -0.8379 -0.5476
 7938SOL     OW35275   2.103   1.137   4.164 -0.1517  0.5631 -0.0941
 7938SOL    HW135276   2.185   1.119   4.210 -0.1780  2.0437  0.5328
 7938SOL    HW235277   2.043   1.070   4.197  0.9986  0.4267  1.6809
 7939SOL     OW35278   4.211   2.559   1.708 -0.0490 -0.2534 -0.0341
 7939SOL    HW135279   4.235   2.466   1.705 -0.4920 -0.3512 -0.5593
 7939SOL    HW235280   4.132   2.555   1.655 -1.8365  0.8555  2.5564
 7940SOL     OW35281   1.209   1.647   3.906  0.2349  0.5054  0.0987
 7940SOL    HW135282   1.288   1.595   3.894 -0.0489 -0.3265  1.8288
 7940SOL    HW235283   1.172   1.588   3.972  0.2543  0.7798  0.3542
 7941SOL     OW35284   1.233   3.310   8.560  0.6148  0.1439  0.0007
 7941SOL    HW135285   1.273   3.231   8.597  0.9039  1.4384  2.5056
 7941SOL    HW235286   1.143   3.315   8.593 -0.0212  0.1323 -1.7681
 7942SOL     OW35287   1.916   1.111  12.524 -0.6236  0.0424 -0.4180
 7942SOL    HW135288   1.880   1.189  12.480  2.7418  2.0522  0.3933
 7942SOL    HW235289   1.955   1.071  12.446  1.2766 -0.1266  0.6379
 7943SOL     OW35290   3.999   3.669   2.565  0.2950  0.2686  0.4524
 7943SOL    HW135291   3.985   3.575   2.570 -3.6763  0.8061 -1.1386
 7943SOL    HW235292   3.953   3.689   2.484 -0.9398 -2.1892  0.5468
 7944SOL     OW35293   3.706   4.620  11.074 -0.2254 -0.6706 -0.1913
 7944SOL    HW135294   3.630   4.587  11.121 -0.4364 -2.2808 -1.6536
 7944SOL    HW235295   3.766   4.646  11.144 -0.3814  0.3874 -0.4512
 7945SOL     OW35296   2.056   3.858  10.440 -0.2953  0.1010 -0.5152
 7945SOL    HW135297   2.131   3.909  10.471 -0.7271  0.1831  0.3974
 7945SOL    HW235298   2.084   3.767  10.433  3.7742  1.1562  2.0312
 7946SOL     OW35299   4.286   0.796   8.515 -0.0629  0.1520 -0.6777
 7946SOL    HW135300   4.327   0.713   8.541 -0.5715 -0.2352 -1.0945
 7946SOL    HW235301   4.276   0.838   8.601 -0.7746 -0.4573 -0.4597
 7947SOL     OW35302   3.697   4.329   3.393  0.0130 -0.1530 -0.1127
 7947SOL    HW135303   3.639   4.404   3.396  0.4605  0.0973  3.0893
 7947SOL    HW235304   3.783   4.371   3.386  0.2118 -0.4744  0.3949
 7948SOL     OW35305   4.092   2.364   5.124 -0.3383  0.3217 -0.0998
 7948SOL    HW135306   4.093   2.384   5.031 -0.6457 -1.8526 -0.5873
 7948SOL    HW235307   4.051   2.277   5.126 -0.4508  0.3800  0.1138
 7949SOL     OW35308   2.235   0.849  10.777 -0.0152 -0.8444 -0.3080
 7949SOL    HW135309   2.183   0.771  10.760  0.9025 -1.3660 -0.6892
 7949SOL    HW235310   2.267   0.862  10.687  0.0381  2.2642  0.1352
 7950SOL     OW35311   3.014   3.168  17.496 -0.5383 -0.1471  0.3130
 7950SOL    HW135312   3.096   3.182  17.448 -0.4396  1.4186  0.9581
 7950SOL    HW235313   2.955   3.158  17.421  0.8998 -1.4701 -0.6582
 7951SOL     OW35314   3.147   1.925   8.534 -0.7387 -0.0588 -0.6028
 7951SOL    HW135315   3.199   1.871   8.594 -1.0881  0.4940  0.1971
 7951SOL    HW235316   3.091   1.962   8.602 -1.3644 -0.7028 -0.7666
 7952SOL     OW35317   3.041   3.437   3.857  0.2991 -0.0486  0.2510
 7952SOL    HW135318   2.990   3.486   3.793  0.3981 -0.4407 -0.1276
 7952SOL    HW235319   3.015   3.473   3.942 -0.1731 -0.2149  0.1795
 7953SOL     OW35320   3.236   1.803   6.547  0.2499 -0.0888 -0.0156
 7953SOL    HW135321   3.201   1.806   6.458 -0.1262  1.3540  0.1850
 7953SOL    HW235322   3.220   1.712   6.574 -1.6313  0.6087  1.2640
 7954SOL     OW35323   0.881   2.216   3.707  0.4619  0.1236 -0.1992
 7954SOL    HW135324   0.853   2.140   3.657  0.6806  0.4937 -0.8796
 7954SOL    HW235325   0.812   2.281   3.693  0.6624  0.6283  1.1799
 7955SOL     OW35326   2.317   1.317   0.036 -0.2476  0.0494  0.3518
 7955SOL    HW135327   2.343   1.281  17.646 -1.0574 -2.4377  1.1495
 7955SOL    HW235328   2.356   1.403   0.022  1.8117 -0.8523  0.5370
 7956SOL     OW35329   0.023   3.979   5.375  0.3464 -0.4387 -0.3780
 7956SOL    HW135330   4.719   3.887   5.378 -0.2850 -0.3632 -3.1555
 7956SOL    HW235331   0.012   3.987   5.280  0.3463  1.3397 -0.2157
 7957SOL     OW35332   0.818   4.515  11.328  0.1241  0.2071  0.1394
 7957SOL    HW135333   0.765   4.543  11.403  0.0201 -0.0701  0.1698
 7957SOL    HW235334   0.853   4.430  11.354  0.7839  0.1778 -0.8561
 7958SOL     OW35335   2.948   4.014   1.577 -0.1535 -0.1046  0.3115
 7958SOL    HW135336   2.980   4.034   1.665 -1.7314  0.0256  0.8490
 7958SOL    HW235337   3.023   4.027   1.518  0.1236  0.5894  0.8178
 7959SOL     OW35338   4.706   3.724  15.362  0.3437  0.3704 -0.1625
 7959SOL    HW135339   0.075   3.699  15.362  0.2027 -0.1413 -0.0356
 7959SOL    HW235340   4.709   3.815  15.331  3.3943  1.0196  2.0083
 7960SOL     OW35341   0.470   1.298   7.643  0.2787 -0.0294  0.1348
 7960SOL    HW135342   0.429   1.333   7.564  1.0122 -1.1009 -0.7169
 7960SOL    HW235343   0.549   1.350   7.633 -1.0852  1.5903 -2.3309
 7961SOL     OW35344   3.165   4.334  11.547  0.7239  0.1978 -0.2187
 7961SOL    HW135345   3.161   4.341  11.642  0.7733 -3.1559  0.0192
 7961SOL    HW235346   3.159   4.422  11.511 -2.7456  1.0255  2.3915
 7962SOL     OW35347   2.711   2.489   7.176  0.7262 -1.2361  0.0974
 7962SOL    HW135348   2.618   2.505   7.191  1.0349  1.6781 -1.1823
 7962SOL    HW235349   2.739   2.526   7.260 -0.9296  0.6677 -0.2017
 7963SOL     OW35350   0.172   2.764   2.435  0.0776 -0.1983  0.3416
 7963SOL    HW135351   0.190   2.845   2.482  1.0637  1.2107 -2.5262
 7963SOL    HW235352   0.081   2.767   2.405 -0.8054 -0.2099  2.9623
 7964SOL     OW35353   2.392   1.420   8.913 -0.1836  0.1633  0.1213
 7964SOL    HW135354   2.471   1.369   8.892 -1.1302 -0.8261 -1.0565
 7964SOL    HW235355   2.392   1.395   9.005  1.5955  1.0856  0.3674
 7965SOL     OW35356   2.995   1.709   6.767 -0.1242 -0.0444  0.1337
 7965SOL    HW135357   2.967   1.708   6.859 -0.3031 -0.0448  0.0787
 7965SOL    HW235358   3.041   1.793   6.758 -1.8861  0.6966 -1.9490
 7966SOL     OW35359   3.443   2.404  17.539  0.3318 -0.3823 -0.1345
 7966SOL    HW135360   3.407   2.474  17.485  1.9827  0.0892 -0.5978
 7966SOL    HW235361   3.481   2.448  17.614  0.1830 -1.9095  0.8439
 7967SOL     OW35362   0.942   2.272   8.400 -0.2437  0.7482  0.1216
 7967SOL    HW135363   0.875   2.298   8.337  1.7682 -0.9944 -2.7559
 7967SOL    HW235364   0.905   2.187   8.425  0.6875  1.2028  2.9926
 7968SOL     OW35365   0.730   2.916   3.968  0.0856 -0.6370  0.0394
 7968SOL    HW135366   0.691   2.854   4.031  2.0786 -0.5600  1.3671
 7968SOL    HW235367   0.715   2.876   3.883 -1.2395  2.2133 -1.0418
 7969SOL     OW35368   4.691   2.305  11.604  0.0373 -0.6575  0.5589
 7969SOL    HW135369   0.025   2.324  11.529  1.1662 -0.6525  1.4298
 7969SOL    HW235370   4.700   2.210  11.610 -1.3303 -0.6939  1.8201
 7970SOL     OW35371   3.070   0.713   8.360 -0.3864 -1.2090  0.1787
 7970SOL    HW135372   3.084   0.625   8.324  0.5471 -0.9763 -0.0205
 7970SOL    HW235373   2.987   0.695   8.405  0.7864  0.1911  2.9180
 7971SOL     OW35374   1.213   4.604   5.217  0.3157  0.1103 -0.1657
 7971SOL    HW135375   1.248   4.683   5.258  1.0079 -1.0415  1.4930
 7971SOL    HW235376   1.180   4.642   5.136  1.0621  2.0290  0.4236
 7972SOL     OW35377   0.014   3.707   5.313  0.2445 -0.3238 -0.5662
 7972SOL    HW135378   0.087   3.736   5.258 -0.7613  1.9922 -0.6611
 7972SOL    HW235379   4.688   3.666   5.241  0.2794 -1.4183  0.0378
 7973SOL     OW35380   3.187   2.374   7.664 -0.1196 -0.3662  0.3220
 7973SOL    HW135381   3.212   2.334   7.747  1.6832  1.6770  0.7718
 7973SOL    HW235382   3.222   2.461   7.682  0.5999 -1.0278  2.1440
 7974SOL     OW35383   3.485   3.336   8.021 -1.1962  0.3694  0.3506
 7974SOL    HW135384   3.498   3.362   8.113  0.5545 -2.5729  0.9362
 7974SOL    HW235385   3.565   3.283   8.014 -0.9641  1.2062 -3.2109
 7975SOL     OW35386   3.005   3.149   7.789  0.4425 -0.3929 -0.4705
 7975SOL    HW135387   3.048   3.124   7.871 -1.8991  0.4756  1.0145
 7975SOL    HW235388   2.918   3.180   7.816  0.6772 -1.3598  1.3599
 7976SOL     OW35389   0.998   2.418  16.026 -0.0650  0.0605  0.2316
 7976SOL    HW135390   0.989   2.455  16.114 -1.0023 -0.2410  0.2599
 7976SOL    HW235391   0.974   2.327  16.040 -0.0892  0.1818  0.9755
 7977SOL     OW35392   1.741   1.495   1.930  0.3961  0.1641 -0.4711
 7977SOL    HW135393   1.831   1.496   1.960  0.0329  0.9888  0.5951
 7977SOL    HW235394   1.687   1.478   2.008 -0.8030 -1.6619 -1.6885
 7978SOL     OW35395   2.051   0.048   3.084  0.4335  0.8658  0.2544
 7978SOL    HW135396   2.077   0.136   3.055 -0.4085  0.9736 -0.2018
 7978SOL    HW235397   1.959   0.069   3.098 -0.3207 -0.1907 -2.9897
 7979SOL     OW35398   4.217   0.464   2.675  0.2813 -0.8861 -0.1842
 7979SOL    HW135399   4.175   0.391   2.721  1.2339 -0.1906  1.8175
 7979SOL    HW235400   4.209   0.438   2.584  0.0313  0.9721 -0.7020
 7980SOL     OW35401   3.505   1.857  14.975 -0.2647  0.1062 -0.3592
 7980SOL    HW135402   3.568   1.801  14.930 -0.2054 -0.8826  0.9571
 7980SOL    HW235403   3.459   1.797  15.034  0.8787  0.0882  0.5123
 7981SOL     OW35404   3.582   3.894  11.467 -0.4735  0.8184  0.5269
 7981SOL    HW135405   3.516   3.928  11.406 -0.4508 -1.1011 -0.5625
 7981SOL    HW235406   3.629   3.835  11.409 -0.0132 -0.8518  2.5846
 7982SOL     OW35407   1.329   1.873   9.071  0.4536 -0.0626 -0.3260
 7982SOL    HW135408   1.282   1.948   9.034  0.7150 -0.1540 -0.8452
 7982SOL    HW235409   1.420   1.904   9.070  1.1508 -2.1377 -1.4527
 7983SOL     OW35410   0.733   1.861  13.228  0.6812  0.2968 -0.7594
 7983SOL    HW135411   0.661   1.802  13.205  0.3193  0.5454 -0.2790
 7983SOL    HW235412   0.681   1.941  13.233 -0.4507 -0.4117 -1.1614
 7984SOL     OW35413   1.052   0.402  14.484  0.2849  0.1110  0.5356
 7984SOL    HW135414   1.128   0.358  14.447  0.7407  0.9771  0.4311
 7984SOL    HW235415   0.984   0.351  14.440  0.1157  0.4321  0.4278
 7985SOL     OW35416   1.325   2.592   6.992 -0.5374  0.5161 -0.1046
 7985SOL    HW135417   1.291   2.555   6.911  0.2360  0.1782 -0.2724
 7985SOL    HW235418   1.403   2.634   6.957 -2.4795  2.7926 -1.7206
 7986SOL     OW35419   3.867   0.622  14.341 -0.1395  0.7297 -0.4264
 7986SOL    HW135420   3.910   0.573  14.411 -1.4552  0.1290 -0.0467
 7986SOL    HW235421   3.925   0.624  14.264  2.9771  0.3701  1.9106
 7987SOL     OW35422   2.688   2.723   8.961 -0.3628  0.0460 -0.5436
 7987SOL    HW135423   2.643   2.762   9.035  1.5809 -1.0423  1.2305
 7987SOL    HW235424   2.729   2.644   8.997  0.0328  0.3375 -0.3465
 7988SOL     OW35425   1.307   3.745   3.217  0.0887 -0.0855 -0.3891
 7988SOL    HW135426   1.249   3.676   3.186  0.7274 -0.6649 -0.2870
 7988SOL    HW235427   1.294   3.820   3.159 -0.1352 -0.0267 -0.2631
 7989SOL     OW35428   2.266   4.302   6.127  0.2793 -0.0994 -0.3938
 7989SOL    HW135429   2.318   4.351   6.191  0.6513  0.0075 -0.7756
 7989SOL    HW235430   2.336   4.246   6.093 -1.2842 -2.1614 -0.1308
 7990SOL     OW35431   3.509   1.731   7.985 -0.4462 -0.9156  0.2138
 7990SOL    HW135432   3.444   1.797   8.007 -0.3193 -0.4676 -0.7844
 7990SOL    HW235433   3.453   1.663   7.948 -0.0713 -0.5356 -1.0462
 7991SOL     OW35434   4.562   3.626   7.353  0.4832  0.1830 -0.0778
 7991SOL    HW135435   4.605   3.563   7.296 -2.1452 -0.3087 -1.5106
 7991SOL    HW235436   4.487   3.649   7.298  0.5631 -0.7472 -0.5588
 7992SOL     OW35437   4.075   4.163  11.122 -0.1669 -0.5320 -0.2319
 7992SOL    HW135438   4.065   4.185  11.029  1.2739  1.4479  0.0919
 7992SOL    HW235439   4.027   4.236  11.161  0.4389 -0.3085  0.1049
 7993SOL     OW35440   0.133   0.068   0.705 -0.3430 -0.3932  0.1373
 7993SOL    HW135441   0.198   0.138   0.698  1.6498 -1.9297  3.0982
 7993SOL    HW235442   0.063   0.110   0.656 -0.0044 -1.3195 -1.1422
 7994SOL     OW35443   2.283   3.044   2.218  0.3183 -0.2228 -0.4900
 7994SOL    HW135444   2.369   3.054   2.176  0.4365 -0.2977 -0.2673
 7994SOL    HW235445   2.248   3.133   2.208 -0.0982 -0.3249  0.0687
 7995SOL     OW35446   3.992   2.657   6.759  0.0935 -0.3195 -0.1757
 7995SOL    HW135447   3.960   2.570   6.783  0.2515 -0.0285  1.0763
 7995SOL    HW235448   3.909   2.702   6.740 -0.2247  0.0712  2.0725
 7996SOL     OW35449   2.567   3.479   2.790 -0.1208 -0.1318 -0.4457
 7996SOL    HW135450   2.476   3.490   2.764  0.0268  0.5071 -0.6842
 7996SOL    HW235451   2.620   3.509   2.716 -1.7828  2.8464 -0.4479
 7997SOL     OW35452   0.828   1.553  11.103  0.7791 -0.2237 -0.1606
 7997SOL    HW135453   0.908   1.573  11.055 -0.2738  0.0466 -1.7950
 7997SOL    HW235454   0.854   1.590  11.187 -0.6950 -0.8645  0.5735
 7998SOL     OW35455   4.633   4.345  12.698  0.3056  0.7126 -0.8412
 7998SOL    HW135456   4.709   4.307  12.741 -1.4703 -0.8204  0.9764
 7998SOL    HW235457   4.661   4.432  12.672  1.0198  0.2693 -1.5445
 7999SOL     OW35458   3.433   2.255   3.243  1.1557 -0.0036  0.1766
 7999SOL    HW135459   3.389   2.252   3.158  0.4352 -2.5401  0.6566
 7999SOL    HW235460   3.516   2.211   3.228  1.0254  0.0422 -0.6331
 8000SOL     OW35461   2.520   0.744   2.033 -0.0609  0.0045  0.0083
 8000SOL    HW135462   2.569   0.698   2.102 -1.6572  0.0167  1.1482
 8000SOL    HW235463   2.555   0.690   1.962 -0.2514  0.2946 -0.3011
 8001SOL     OW35464   2.260   4.464  10.326 -0.6647  0.4331  0.3390
 8001SOL    HW135465   2.347   4.462  10.288 -1.5847 -3.0919 -1.5970
 8001SOL    HW235466   2.217   4.475  10.241 -1.6358  0.1868  0.7870
 8002SOL     OW35467   4.011   0.237  15.396  0.1933 -0.2011 -0.3800
 8002SOL    HW135468   4.023   0.148  15.431 -1.1599 -0.8443 -1.5348
 8002SOL    HW235469   4.053   0.235  15.310  2.2107  0.8038  0.5721
 8003SOL     OW35470   0.445   3.978  13.139  0.4565 -0.5494 -1.1712
 8003SOL    HW135471   0.417   3.918  13.208  0.2235 -2.3612 -2.8474
 8003SOL    HW235472   0.537   3.989  13.163 -0.0053 -2.1341  1.4086
 8004SOL     OW35473   2.973   1.071   9.547 -0.7606 -0.1380  0.2927
 8004SOL    HW135474   3.015   1.148   9.509  0.6225 -1.0621 -0.0648
 8004SOL    HW235475   3.029   1.001   9.514  1.2785  0.9900  1.3347
 8005SOL     OW35476   1.514   1.914  11.749  0.8675 -0.7364 -0.0638
 8005SOL    HW135477   1.440   1.949  11.700  0.5920 -1.7449 -0.3845
 8005SOL    HW235478   1.535   1.835  11.698  1.0984 -0.8134  0.1502
 8006SOL     OW35479   2.141   2.823   6.358 -0.6184 -0.2742 -0.1232
 8006SOL    HW135480   2.198   2.747   6.349  0.9851  0.8116  0.9018
 8006SOL    HW235481   2.177   2.842   6.445  0.2742  1.8734 -0.9434
 8007SOL     OW35482   4.280   0.741   8.801  0.0489  0.5357  0.2167
 8007SOL    HW135483   4.278   0.836   8.793  0.0649  0.5169 -0.0038
 8007SOL    HW235484   4.324   0.716   8.882  0.7798 -1.0123 -0.6557
 8008SOL     OW35485   0.564   1.946   8.536 -0.5753  0.2474 -0.6119
 8008SOL    HW135486   0.553   2.004   8.612  3.1999  0.0501  0.0535
 8008SOL    HW235487   0.516   1.876   8.581  0.1811 -1.0252 -1.7952
 8009SOL     OW35488   4.385   0.092   3.796 -0.3927  0.4580 -0.0130
 8009SOL    HW135489   4.331   0.093   3.718  1.1541 -0.4102 -1.1055
 8009SOL    HW235490   4.423   0.179   3.803  0.2944  0.0283  1.7781
 8010SOL     OW35491   0.680   1.240   6.030 -0.3556 -0.4579 -0.0847
 8010SOL    HW135492   0.773   1.262   6.034 -0.9127  1.9915 -0.1550
 8010SOL    HW235493   0.662   1.245   5.936  0.6613 -0.8212 -0.2937
 8011SOL     OW35494   2.283   3.871   4.709  0.5199 -0.0072  0.3540
 8011SOL    HW135495   2.305   3.963   4.702  1.4496 -0.1988  0.7394
 8011SOL    HW235496   2.361   3.830   4.670  2.0294  2.3156  0.9649
 8012SOL     OW35497   0.451   2.147   8.232 -0.6273 -0.1576 -0.3096
 8012SOL    HW135498   0.383   2.212   8.249 -0.2941 -0.4597  2.2111
 8012SOL    HW235499   0.419   2.096   8.158 -0.8224 -0.0244 -0.3166
 8013SOL     OW35500   3.959   3.923   8.993 -0.0539  0.6020  0.2883
 8013SOL    HW135501   3.948   3.866   9.070 -1.7326  1.2501  0.5412
 8013SOL    HW235502   3.879   3.895   8.949  1.4947 -1.9199 -0.9067
 8014SOL     OW35503   4.420   1.599  14.255 -0.0540  0.3339  0.3299
 8014SOL    HW135504   4.468   1.549  14.189 -2.9913  1.1016 -2.3959
 8014SOL    HW235505   4.421   1.532  14.323  0.9283  0.0119  0.0051
 8015SOL     OW35506   0.638   2.352   9.821  0.6658 -0.2875 -0.8733
 8015SOL    HW135507   0.694   2.296   9.875 -0.7319  0.9053  1.8609
 8015SOL    HW235508   0.598   2.283   9.768 -1.4536  0.8376 -0.7623
 8016SOL     OW35509   2.691   1.992  10.650 -0.1047 -0.0419  0.1334
 8016SOL    HW135510   2.641   2.074  10.648 -2.1904 -1.3222 -0.0208
 8016SOL    HW235511   2.671   1.962  10.739  1.9610  0.6603  0.8384
 8017SOL     OW35512   3.974   2.995  10.330  0.5001  0.5923  0.1886
 8017SOL    HW135513   3.897   2.952  10.367  0.3794  1.4726  0.9662
 8017SOL    HW235514   3.972   3.080  10.374  1.3082  0.1436  1.0704
 8018SOL     OW35515   0.623   1.905   7.865 -0.0382 -0.3724 -0.7792
 8018SOL    HW135516   0.570   1.825   7.864  1.0268 -1.0635 -1.3257
 8018SOL    HW235517   0.686   1.890   7.794 -1.9376 -1.0939 -2.3192
 8019SOL     OW35518   1.863   1.871   6.897  0.2518  0.0357 -0.1205
 8019SOL    HW135519   1.893   1.895   6.985  0.9049  1.2298 -0.6706
 8019SOL    HW235520   1.769   1.855   6.905  0.6520 -1.5566  1.3696
 8020SOL     OW35521   2.013   4.072  10.854 -0.4155  0.6501  0.0676
 8020SOL    HW135522   1.935   4.128  10.850 -1.0629 -0.2714 -0.3615
 8020SOL    HW235523   2.061   4.106  10.779 -0.5333 -0.0842 -0.3442
 8021SOL     OW35524   2.056   3.676   4.788  0.0671 -0.1698 -0.3105
 8021SOL    HW135525   2.105   3.738   4.734 -0.8252  2.0798  1.4409
 8021SOL    HW235526   2.133   3.643   4.834 -0.0063  0.9959  0.6548
 8022SOL     OW35527   3.025   3.741   3.761  0.1412 -0.0319  0.0863
 8022SOL    HW135528   2.990   3.715   3.676 -0.0989  0.7189 -0.0469
 8022SOL    HW235529   3.118   3.733   3.742 -0.2484 -2.5015 -0.7825
 8023SOL     OW35530   1.916   1.142  11.866  0.0741  0.7341 -0.0904
 8023SOL    HW135531   1.843   1.118  11.809  0.7199  0.5328 -0.8094
 8023SOL    HW235532   1.969   1.187  11.800 -0.7015  0.3735 -0.9591
 8024SOL     OW35533   1.530   2.194   4.250 -0.3353  0.3865  0.0669
 8024SOL    HW135534   1.525   2.235   4.336 -0.9310 -1.4939  0.9263
 8024SOL    HW235535   1.566   2.266   4.198 -1.8425  1.0664 -0.0347
 8025SOL     OW35536   3.771   3.670   2.925  0.5949 -0.3482 -0.1135
 8025SOL    HW135537   3.857   3.641   2.896  0.8920  0.8522 -0.4202
 8025SOL    HW235538   3.741   3.708   2.843  1.6645 -1.2669 -0.9185
 8026SOL     OW35539   0.104   0.389   3.253  0.6181 -0.2465 -0.3638
 8026SOL    HW135540   0.178   0.432   3.295  0.6906 -1.3290  0.6136
 8026SOL    HW235541   0.126   0.298   3.274  0.2805 -0.1879  0.2197
 8027SOL     OW35542   1.563   0.157   1.706  0.1271 -0.0128  0.2121
 8027SOL    HW135543   1.567   0.118   1.619 -1.1051  0.4255 -0.0334
 8027SOL    HW235544   1.469   0.152   1.721  0.0980  2.7339  0.9827
 8028SOL     OW35545   1.116   2.412   7.380  0.1755 -0.0621  0.0552
 8028SOL    HW135546   1.128   2.485   7.319 -1.1003  0.7321  0.7372
 8028SOL    HW235547   1.148   2.456   7.459 -1.3365 -0.2298  0.7786
 8029SOL     OW35548   4.370   3.943  15.131  0.0889 -0.0935  0.2593
 8029SOL    HW135549   4.296   3.889  15.106 -0.7332  1.8688 -1.5753
 8029SOL    HW235550   4.422   3.941  15.051 -0.2695 -0.5845  0.0407
 8030SOL     OW35551   4.239   4.104   2.365 -0.0761  0.0415  0.1517
 8030SOL    HW135552   4.266   4.195   2.381 -3.0850  0.5788  2.1590
 8030SOL    HW235553   4.258   4.060   2.448  0.1670 -0.6501 -0.2744
 8031SOL     OW35554   3.851   1.402   6.458 -0.9180 -0.1178  0.0838
 8031SOL    HW135555   3.861   1.325   6.514 -2.6169 -0.9684 -0.7906
 8031SOL    HW235556   3.921   1.464   6.481 -0.2201 -1.1947  0.8272
 8032SOL     OW35557   1.363   2.512   0.915  0.7245 -0.0531  0.4862
 8032SOL    HW135558   1.457   2.520   0.933  0.3198  0.7765  2.1789
 8032SOL    HW235559   1.345   2.426   0.877  0.4690  0.2285 -0.0263
 8033SOL     OW35560   0.351   1.399   9.303  0.4820  0.2762 -0.2439
 8033SOL    HW135561   0.365   1.325   9.362  3.3199  1.1282  0.1689
 8033SOL    HW235562   0.280   1.367   9.246  0.4410  1.6072 -0.9417
 8034SOL     OW35563   2.665   0.184   3.570  0.1932 -0.0202 -0.4956
 8034SOL    HW135564   2.648   0.096   3.604 -1.1767  0.8828  1.1177
 8034SOL    HW235565   2.761   0.190   3.567  0.0363  1.6318 -2.2839
 8035SOL     OW35566   3.895   4.482  13.357 -0.0931 -0.1144 -0.2225
 8035SOL    HW135567   3.975   4.532  13.341  2.0087 -3.4013  0.0480
 8035SOL    HW235568   3.861   4.489  13.268 -0.4289  2.6934  0.1159
 8036SOL     OW35569   3.387   0.569   8.494  0.3309 -0.0045 -1.0698
 8036SOL    HW135570   3.422   0.591   8.407 -0.3646  0.5933 -1.1953
 8036SOL    HW235571   3.411   0.634   8.559  0.2901 -0.1043 -0.9546
 8037SOL     OW35572   4.004   4.644   9.533  0.1490  1.0486 -0.3208
 8037SOL    HW135573   4.039   4.684   9.453 -0.8747 -1.8064 -2.1683
 8037SOL    HW235574   3.990   4.561   9.488  0.9298  0.2703  0.8601
 8038SOL     OW35575   0.857   3.668   4.495  0.5484  0.0464 -0.6199
 8038SOL    HW135576   0.764   3.687   4.495  0.3787 -0.7712  0.2563
 8038SOL    HW235577   0.854   3.577   4.464 -0.2556  0.5277 -1.9376
 8039SOL     OW35578   0.972   3.612  12.535 -0.0004  0.4626  0.2947
 8039SOL    HW135579   1.067   3.598  12.532  0.2168  1.8313  0.7866
 8039SOL    HW235580   0.948   3.615  12.442  0.7324  1.4790  0.1283
 8040SOL     OW35581   2.849   3.169   6.572 -0.6390 -0.3040 -0.2453
 8040SOL    HW135582   2.906   3.203   6.502 -0.2819 -1.0903 -0.3368
 8040SOL    HW235583   2.793   3.245   6.590 -1.2803 -1.3137  1.9607
 8041SOL     OW35584   0.585   1.933   7.333 -0.4202 -0.2709 -0.2220
 8041SOL    HW135585   0.592   2.008   7.391  0.4878 -1.1609  0.8172
 8041SOL    HW235586   0.590   1.975   7.247 -0.3378  0.1628 -0.0039
 8042SOL     OW35587   3.498   4.493   6.829  0.4191  0.5273 -0.3871
 8042SOL    HW135588   3.468   4.403   6.841 -0.1232  0.5930 -1.2547
 8042SOL    HW235589   3.592   4.475   6.823  0.0973 -1.3961  0.3265
 8043SOL     OW35590   1.452   3.161   2.938  0.0242 -0.1044 -0.6273
 8043SOL    HW135591   1.546   3.163   2.954  0.3953  0.9788 -2.9864
 8043SOL    HW235592   1.421   3.208   3.015 -0.3785 -1.3883 -0.0091
 8044SOL     OW35593   0.246   0.907  14.552  0.4525  0.1282  0.8678
 8044SOL    HW135594   0.152   0.910  14.568  0.5924  0.9739  1.5128
 8044SOL    HW235595   0.279   0.974  14.611 -2.8011  0.3943  2.3539
 8045SOL     OW35596   0.982   3.302   8.693  0.0318  0.3492  0.5082
 8045SOL    HW135597   0.964   3.236   8.760 -0.3651  0.2573  0.3130
 8045SOL    HW235598   0.987   3.382   8.746 -1.8807 -0.8621  2.4801
 8046SOL     OW35599   1.166   3.081   8.890  0.1530  0.4034  0.1539
 8046SOL    HW135600   1.157   2.992   8.923 -1.5988  0.6647  0.3992
 8046SOL    HW235601   1.098   3.124   8.943  0.3556  1.5462 -0.5093
 8047SOL     OW35602   2.537   0.806   0.743  0.0496  0.4076 -0.1217
 8047SOL    HW135603   2.476   0.787   0.815  0.2372  2.2964  0.5267
 8047SOL    HW235604   2.506   0.745   0.676  0.7703 -0.0100 -0.0801
 8048SOL     OW35605   0.014   4.054   3.080  0.4425 -0.2221 -0.2595
 8048SOL    HW135606   0.029   3.985   3.015  0.6762 -0.8250  0.4367
 8048SOL    HW235607   0.100   4.095   3.075  0.2303  0.6650  3.2065
 8049SOL     OW35608   0.050   1.567   9.151  0.3681 -0.0024 -0.3713
 8049SOL    HW135609   0.068   1.473   9.156  0.4807 -0.0486 -1.5822
 8049SOL    HW235610   0.015   1.575   9.063 -0.9716  1.5564  0.3014
 8050SOL     OW35611   3.447   3.814  11.924  0.4511 -0.2132  0.0963
 8050SOL    HW135612   3.393   3.893  11.933  3.1198  1.5594  0.4194
 8050SOL    HW235613   3.431   3.803  11.831 -0.0128  0.4887  0.0860
 8051SOL     OW35614   3.401   4.410   8.371  0.0825  0.0370  0.5282
 8051SOL    HW135615   3.422   4.383   8.460 -3.0509 -0.4261  1.1135
 8051SOL    HW235616   3.327   4.471   8.375  1.0915  1.3205 -0.4642
 8052SOL     OW35617   3.162   0.082  13.154  0.2458 -0.3463  0.0868
 8052SOL    HW135618   3.167   0.159  13.210  1.1931 -0.9576  0.8321
 8052SOL    HW235619   3.172   0.124  13.068  0.5172 -0.3176  0.1337
 8053SOL     OW35620   1.271   2.935   7.903  0.5692  0.0185 -0.0229
 8053SOL    HW135621   1.350   2.897   7.864  1.1444  0.8712  0.3231
 8053SOL    HW235622   1.287   3.026   7.880  1.1423  0.0325  0.4372
 8054SOL     OW35623   0.402   0.867  11.027  0.5457  0.3251  0.4675
 8054SOL    HW135624   0.389   0.932  11.096 -0.2558 -1.4139  1.9459
 8054SOL    HW235625   0.322   0.864  10.974  1.5788  0.9198 -1.1413
 8055SOL     OW35626   1.676   4.245   8.676 -0.1721 -0.0616 -0.7580
 8055SOL    HW135627   1.629   4.324   8.649  0.9720  0.6230 -0.7927
 8055SOL    HW235628   1.769   4.260   8.658  0.7116 -0.4622  3.5793
 8056SOL     OW35629   0.692   4.718   6.788 -0.7411  0.7524  0.2464
 8056SOL    HW135630   0.756   0.004   6.717  0.6517 -0.5497  1.3497
 8056SOL    HW235631   0.743   4.659   6.844  0.1619  1.5480  0.2520
 8057SOL     OW35632   2.894   4.698   6.838 -0.4150 -0.6184 -0.8393
 8057SOL    HW135633   2.874   0.063   6.869 -1.6464 -0.5967 -1.6461
 8057SOL    HW235634   2.929   4.655   6.915 -1.0625  2.1557  1.0099
 8058SOL     OW35635   0.139   2.028   5.518  0.1110  0.4997  0.1707
 8058SOL    HW135636   0.229   2.025   5.549 -0.3178  0.2920  1.3722
 8058SOL    HW235637   0.108   1.942   5.547 -0.2711  0.8050  0.6624
 8059SOL     OW35638   0.418   1.957   9.252 -0.0969  0.2701 -0.1527
 8059SOL    HW135639   0.402   1.967   9.346  0.5034 -1.0434  0.0956
 8059SOL    HW235640   0.367   1.881   9.223  0.6089 -0.3063  0.1147
 8060SOL     OW35641   4.220   1.668   6.657  0.4210 -0.1173  0.1259
 8060SOL    HW135642   4.222   1.763   6.650  1.9638  0.0118  2.2564
 8060SOL    HW235643   4.221   1.667   6.753  1.0168 -0.5969  0.1134
 8061SOL     OW35644   4.335   4.676  15.583  0.8333 -0.5623  0.1307
 8061SOL    HW135645   4.401   4.625  15.630  1.3000 -2.0016 -2.0952
 8061SOL    HW235646   4.261   4.681  15.644  0.7924 -1.6928  0.1719
 8062SOL     OW35647   3.903   0.699   2.202  0.7255  0.0486  0.4733
 8062SOL    HW135648   3.924   0.718   2.111 -0.4540 -1.0391 -0.0252
 8062SOL    HW235649   3.823   0.751   2.212 -0.1010 -0.7197 -2.3337
 8063SOL     OW35650   2.277   1.431   4.864  0.6071  0.1900 -0.6679
 8063SOL    HW135651   2.371   1.449   4.868  0.6014  0.0924  0.0495
 8063SOL    HW235652   2.226   1.503   4.901 -2.3459 -1.5610 -1.4194
 8064SOL     OW35653   0.012   0.699   8.241 -0.4836 -0.0554  0.2921
 8064SOL    HW135654   4.680   0.754   8.296 -0.0554  1.0765 -0.3919
 8064SOL    HW235655   0.050   0.754   8.172  1.7804 -0.8984  0.8892
 8065SOL     OW35656   1.098   3.308   4.303 -0.7532  0.2865  0.7181
 8065SOL    HW135657   1.079   3.392   4.344 -0.3939  0.7056  0.0214
 8065SOL    HW235658   1.112   3.253   4.380  1.0760  1.8807  1.5443
 8066SOL     OW35659   0.725   4.149   4.994  0.1283  0.1118  0.2341
 8066SOL    HW135660   0.803   4.150   5.049 -0.8389 -3.6269  1.6880
 8066SOL    HW235661   0.754   4.112   4.910  0.7253  0.0471  0.4686
 8067SOL     OW35662   2.969   1.978   2.443  0.7152 -0.6620 -0.0339
 8067SOL    HW135663   2.986   2.028   2.363  2.4166  1.2610  1.5214
 8067SOL    HW235664   2.985   1.887   2.419 -0.0890 -0.4533 -1.3653
 8068SOL     OW35665   3.787   0.298  11.485 -0.0825  0.6581  0.4415
 8068SOL    HW135666   3.813   0.390  11.488 -0.8168  0.8825 -0.2427
 8068SOL    HW235667   3.871   0.269  11.447 -0.0860  0.4746  0.5729
 8069SOL     OW35668   1.504   0.559   3.202 -0.2606 -0.7823  0.3550
 8069SOL    HW135669   1.446   0.625   3.163  1.2556  0.7638  0.6829
 8069SOL    HW235670   1.530   0.501   3.131 -0.8250 -0.3011 -0.2441
 8070SOL     OW35671   2.685   3.386   6.753 -0.7894  0.2570 -0.0885
 8070SOL    HW135672   2.732   3.366   6.834  0.5913 -1.0870 -1.2241
 8070SOL    HW235673   2.613   3.322   6.750 -1.4059  1.0335 -1.4950
 8071SOL     OW35674   1.926   0.949   6.106  0.1900 -0.0328 -0.4009
 8071SOL    HW135675   1.998   0.959   6.043  2.0595  0.6219  1.8233
 8071SOL    HW235676   1.917   0.854   6.111 -2.3628  0.2301 -0.3276
 8072SOL     OW35677   3.053   4.133   2.893  0.8411  0.6977  0.4549
 8072SOL    HW135678   2.978   4.115   2.837 -0.2003 -1.5581  2.6048
 8072SOL    HW235679   3.042   4.225   2.917 -1.1084  0.6385 -0.2508
 8073SOL     OW35680   3.532   1.133   4.249  0.7621 -0.3627  0.8079
 8073SOL    HW135681   3.625   1.153   4.261  0.2022  3.0818 -0.4492
 8073SOL    HW235682   3.509   1.194   4.179  0.8781 -1.2880 -0.0397
 8074SOL     OW35683   4.340   3.217   9.598  0.4568 -0.5154 -0.1626
 8074SOL    HW135684   4.420   3.168   9.614 -0.7463 -2.3017  0.3571
 8074SOL    HW235685   4.292   3.164   9.533  3.3221 -1.2822 -1.6321
 8075SOL     OW35686   4.310   1.607  16.309  0.5915 -0.2089 -0.1718
 8075SOL    HW135687   4.240   1.577  16.367 -0.3744  3.1095  0.3465
 8075SOL    HW235688   4.261   1.651  16.239  0.7911  0.7449  0.2897
 8076SOL     OW35689   4.401   2.046   5.613 -0.2991 -0.2655 -0.6578
 8076SOL    HW135690   4.459   2.101   5.561  2.1789 -0.5198  1.8111
 8076SOL    HW235691   4.464   2.000   5.669  0.0209 -0.9191 -1.5473
 8077SOL     OW35692   0.814   0.614   0.719 -0.3002 -0.0440  0.1540
 8077SOL    HW135693   0.902   0.577   0.728  0.7388  2.2702 -0.4350
 8077SOL    HW235694   0.758   0.537   0.711  0.6931 -0.7034 -0.6086
 8078SOL     OW35695   3.526   3.048  13.857 -0.7378  0.0127 -0.2443
 8078SOL    HW135696   3.467   3.076  13.787 -1.5906 -2.6201 -0.5460
 8078SOL    HW235697   3.457   3.005  13.907 -0.0318 -0.1996  0.5495
 8079SOL     OW35698   1.459   4.622  13.995 -0.7557 -0.2080  0.0030
 8079SOL    HW135699   1.394   4.568  14.039 -1.6376 -2.0637 -3.5741
 8079SOL    HW235700   1.524   4.648  14.060  0.1748  2.1315 -1.8362
 8080SOL     OW35701   3.418   3.572   8.631  0.6673 -0.8405  0.3345
 8080SOL    HW135702   3.447   3.585   8.541 -0.1355  1.8776  0.4747
 8080SOL    HW235703   3.374   3.654   8.652 -0.2543 -0.6354 -2.5331
 8081SOL     OW35704   2.912   0.576  10.607 -0.4337  0.3671 -0.5154
 8081SOL    HW135705   2.983   0.587  10.671 -0.9132  0.2653  0.0334
 8081SOL    HW235706   2.905   0.671  10.597 -0.3235 -0.0137 -4.0913
 8082SOL     OW35707   1.097   0.007   3.446  0.3282  0.0700 -0.1738
 8082SOL    HW135708   1.121   4.717   3.354 -0.3524 -2.1154 -0.0243
 8082SOL    HW235709   1.185   4.714   3.479 -0.4838 -0.2909  1.8047
 8083SOL     OW35710   1.979   1.843   7.484 -0.4707 -0.4782  0.0197
 8083SOL    HW135711   1.886   1.859   7.471 -0.2124  2.9690  2.5938
 8083SOL    HW235712   1.973   1.793   7.565  3.9116 -0.0158  0.6415
 8084SOL     OW35713   3.960   4.523   2.683  0.1561 -0.3184  0.3838
 8084SOL    HW135714   3.883   4.562   2.725  0.8720  0.8875  0.5489
 8084SOL    HW235715   3.980   4.442   2.731 -0.6269 -1.1868 -0.7610
 8085SOL     OW35716   0.646   4.376   7.566  0.1999  0.1964 -0.5630
 8085SOL    HW135717   0.607   4.358   7.651  2.8071 -2.2631  0.1214
 8085SOL    HW235718   0.570   4.354   7.513 -1.1586 -2.5844  2.5791
 8086SOL     OW35719   0.489   0.925   8.157  0.5862  0.2429 -0.1024
 8086SOL    HW135720   0.426   0.996   8.152 -0.8130 -1.1873 -2.7912
 8086SOL    HW235721   0.433   0.852   8.131 -0.7045  1.8141 -1.7306
 8087SOL     OW35722   2.322   3.664   8.747 -0.1338  0.3685  0.1421
 8087SOL    HW135723   2.248   3.634   8.695 -0.7810  1.4504  0.4397
 8087SOL    HW235724   2.272   3.700   8.820  0.0117  2.7856 -0.9354
 8088SOL     OW35725   4.398   1.491   5.968 -0.4379  0.0412  0.5265
 8088SOL    HW135726   4.329   1.501   5.903 -0.6072  1.6972  0.9567
 8088SOL    HW235727   4.368   1.533   6.049  0.1575  1.1287  0.1889
 8089SOL     OW35728   1.151   1.737  15.085 -0.0749 -0.2046 -0.7693
 8089SOL    HW135729   1.089   1.755  15.013 -2.2148 -2.4859  0.5247
 8089SOL    HW235730   1.234   1.754  15.041  1.1578  1.6353  2.3178
 8090SOL     OW35731   1.653   1.784   0.866 -0.1856 -0.2560  0.4946
 8090SOL    HW135732   1.715   1.814   0.801 -0.3397 -1.4147 -0.1779
 8090SOL    HW235733   1.710   1.800   0.942 -1.1864 -1.2437  1.4478
 8091SOL     OW35734   1.502   4.536   8.117  0.4665  0.3180 -0.1687
 8091SOL    HW135735   1.486   4.612   8.172 -4.0181 -1.3871  0.9338
 8091SOL    HW235736   1.430   4.481   8.149  0.0342  0.3884 -1.0275
 8092SOL     OW35737   1.010   2.924   3.104 -0.1692  0.4902 -0.9063
 8092SOL    HW135738   0.991   2.884   3.189 -0.0180  0.9112 -0.6763
 8092SOL    HW235739   1.105   2.920   3.101 -0.2091 -0.5368 -0.7914
 8093SOL     OW35740   0.995   1.160   7.562  0.8278  0.1175 -0.1136
 8093SOL    HW135741   0.913   1.146   7.515  0.6306  1.1075 -0.0552
 8093SOL    HW235742   0.968   1.151   7.653 -0.2569  1.2248 -0.3276
 8094SOL     OW35743   0.473   0.384   2.279 -0.0754 -0.1412  0.2150
 8094SOL    HW135744   0.395   0.408   2.229  0.3412 -1.1002 -0.9037
 8094SOL    HW235745   0.488   0.467   2.325  0.2306  0.8631 -1.6901
 8095SOL     OW35746   2.000   1.289   7.612  0.4179  0.2067  0.0810
 8095SOL    HW135747   1.944   1.261   7.539  0.5129  1.0858 -0.3322
 8095SOL    HW235748   2.032   1.201   7.628  0.1649 -0.0676 -0.9032
 8096SOL     OW35749   0.965   3.007   4.690 -0.3029  0.1479  0.2260
 8096SOL    HW135750   0.971   3.089   4.739  2.8726 -1.7705  2.9864
 8096SOL    HW235751   0.962   2.960   4.773 -1.3549  1.3493  0.8578
 8097SOL     OW35752   1.763   4.252   0.664  0.0860 -0.3173 -0.3557
 8097SOL    HW135753   1.764   4.184   0.732 -0.1085  0.0745  0.0366
 8097SOL    HW235754   1.702   4.315   0.702  0.1361  0.3699 -1.4082
 8098SOL     OW35755   0.797   0.982   1.293 -0.0158 -0.0236  0.2372
 8098SOL    HW135756   0.839   1.000   1.377 -2.1640  0.1048  1.2658
 8098SOL    HW235757   0.880   0.961   1.249 -0.3972 -0.0841 -0.4587
 8099SOL     OW35758   0.881   1.925   9.250  0.7335 -0.0120  0.8030
 8099SOL    HW135759   0.835   1.970   9.179  0.9586 -0.1523  0.5730
 8099SOL    HW235760   0.813   1.871   9.291 -0.5792  2.0389  1.3804
 8100SOL     OW35761   0.172   3.626   2.616  0.4939  0.0701 -0.4694
 8100SOL    HW135762   0.232   3.648   2.544 -0.5689  0.3144 -1.2719
 8100SOL    HW235763   0.150   3.534   2.603  0.2789  0.1324 -0.5514
 8101SOL     OW35764   3.556   3.281   2.676 -0.2448 -0.4384 -0.2514
 8101SOL    HW135765   3.461   3.270   2.684 -0.2601  0.9179  1.4876
 8101SOL    HW235766   3.552   3.376   2.665 -0.5298 -0.1575  2.2923
 8102SOL     OW35767   1.123   1.797   9.622  0.2055 -0.2775 -0.2357
 8102SOL    HW135768   1.179   1.720   9.627 -0.5123 -0.9090 -1.7198
 8102SOL    HW235769   1.187   1.867   9.637  1.2199 -0.5470 -3.1534
 8103SOL     OW35770   3.499   4.664   4.572 -0.4737  0.0440  0.4415
 8103SOL    HW135771   3.434   0.007   4.595  1.0887  2.0559 -0.9931
 8103SOL    HW235772   3.469   4.594   4.631  2.5972 -0.0980  1.8326
 8104SOL     OW35773   1.057   0.703   8.513  0.6115  0.1138  0.4652
 8104SOL    HW135774   1.067   0.742   8.600 -0.5747  0.7595  0.3102
 8104SOL    HW235775   1.006   0.776   8.478  0.2317  0.2995  1.4289
 8105SOL     OW35776   3.865   1.912   2.422 -0.0824  0.0898  0.0617
 8105SOL    HW135777   3.877   1.978   2.491  0.7508  1.7857 -1.6885
 8105SOL    HW235778   3.942   1.857   2.438 -0.9684 -1.5621 -1.3862
 8106SOL     OW35779   4.642   2.743   5.029 -0.4659 -0.0821  0.0954
 8106SOL    HW135780   4.676   2.739   4.940  0.2746 -2.7141  0.5145
 8106SOL    HW235781   4.586   2.666   5.031  0.2790 -0.6480 -0.9063
 8107SOL     OW35782   2.869   3.322  12.432 -0.4970  0.8950  0.2412
 8107SOL    HW135783   2.807   3.308  12.504  0.6047  2.8630  1.5572
 8107SOL    HW235784   2.820   3.270  12.367  1.7585 -0.7820 -0.1043
 8108SOL     OW35785   0.963   0.971  15.729 -0.1017  0.9508  0.0571
 8108SOL    HW135786   1.015   0.999  15.653 -2.6539 -0.4866 -2.2368
 8108SOL    HW235787   0.920   1.054  15.749 -1.7774 -0.0622  0.7091
 8109SOL     OW35788   4.578   2.769   2.571  0.3285  0.3991  0.5020
 8109SOL    HW135789   4.580   2.819   2.489 -0.1396  1.5141  1.1697
 8109SOL    HW235790   4.487   2.779   2.601  0.0871  2.8355 -1.0816
 8110SOL     OW35791   2.008   0.759   1.522  0.0109 -0.3030 -0.0322
 8110SOL    HW135792   2.035   0.846   1.551 -0.8975 -0.2577  0.7080
 8110SOL    HW235793   1.932   0.743   1.579  1.8037  0.8343  2.6628
 8111SOL     OW35794   3.321   0.303   8.444  0.0281 -0.6680 -0.6234
 8111SOL    HW135795   3.336   0.307   8.349 -0.3898  1.8762 -0.5777
 8111SOL    HW235796   3.363   0.383   8.474  1.0641 -1.2255 -0.5739
 8112SOL     OW35797   2.842   4.079   5.296 -0.4847 -0.1109  0.4396
 8112SOL    HW135798   2.771   4.078   5.232  0.4244 -2.1717 -0.5475
 8112SOL    HW235799   2.894   4.148   5.255 -1.4267  0.2337 -0.1469
 8113SOL     OW35800   3.881   0.291   0.390  0.2437 -0.6160  0.2978
 8113SOL    HW135801   3.976   0.288   0.396  0.3768  2.7649  0.2352
 8113SOL    HW235802   3.866   0.275   0.297 -1.1422 -0.2494  0.4457
 8114SOL     OW35803   0.156   0.890   8.091  0.0260  0.3212  0.0857
 8114SOL    HW135804   0.197   0.970   8.059  0.0860 -0.3057 -1.3921
 8114SOL    HW235805   0.206   0.827   8.040 -1.3755 -0.0560 -0.8140
 8115SOL     OW35806   2.884   1.442  11.379  0.3841  0.5234 -0.1403
 8115SOL    HW135807   2.818   1.511  11.378  1.7029  1.7951  0.2865
 8115SOL    HW235808   2.949   1.489  11.327  3.1078 -2.7867  0.2917
 8116SOL     OW35809   0.157   2.376  11.427 -0.1013  0.0045  0.2260
 8116SOL    HW135810   0.251   2.360  11.416  0.1880  2.5777 -1.2368
 8116SOL    HW235811   0.129   2.321  11.354  2.4612 -2.0403  0.7780
 8117SOL     OW35812   3.742   4.667   7.153  0.3522 -0.1529  0.6760
 8117SOL    HW135813   3.665   4.680   7.097  0.3436  0.5037  0.8421
 8117SOL    HW235814   3.734   0.009   7.223  1.8146 -0.1739  0.8507
 8118SOL     OW35815   1.031   4.135   2.044  0.1938 -0.1391 -0.4397
 8118SOL    HW135816   0.983   4.175   1.971  1.5315  5.0218  1.4680
 8118SOL    HW235817   1.036   4.214   2.098  3.3857  1.4584 -3.0379
 8119SOL     OW35818   4.569   1.933   6.084  0.9646  0.2482  0.1541
 8119SOL    HW135819   4.519   2.014   6.082 -0.9237 -0.9442 -1.1194
 8119SOL    HW235820   4.626   1.935   6.008  0.8409  2.0527  0.1205
 8120SOL     OW35821   1.054   3.239   5.914  0.0055  0.1713  0.6584
 8120SOL    HW135822   0.970   3.222   5.872  1.6557 -0.0485 -2.5836
 8120SOL    HW235823   1.106   3.171   5.872  0.8752  0.0684  1.8972
 8121SOL     OW35824   0.198   4.632  15.693  0.0225  0.0448  0.2071
 8121SOL    HW135825   0.293   4.628  15.705 -0.3983 -2.8278  2.6647
 8121SOL    HW235826   0.203   4.679  15.610  0.3157  2.4884  1.5842
 8122SOL     OW35827   4.177   1.223   6.523 -0.0633 -0.7066 -0.4686
 8122SOL    HW135828   4.171   1.128   6.512 -3.5422 -0.6706  0.8907
 8122SOL    HW235829   4.102   1.235   6.581 -0.6367  1.6759 -1.7022
 8123SOL     OW35830   1.475   4.436   4.202 -0.1777  0.1148 -0.0889
 8123SOL    HW135831   1.495   4.529   4.191 -1.3529  0.1524 -2.0606
 8123SOL    HW235832   1.559   4.395   4.184  0.3402  1.9263 -1.7707
 8124SOL     OW35833   3.521   0.309   3.996 -0.1431 -0.1572 -0.3776
 8124SOL    HW135834   3.607   0.333   3.962 -0.3615  0.2299 -0.6542
 8124SOL    HW235835   3.518   0.347   4.084  1.5990  2.0494 -1.2778
 8125SOL     OW35836   3.691   4.293  16.713 -0.0308 -0.1502 -0.4575
 8125SOL    HW135837   3.742   4.348  16.655 -0.5305 -0.8942 -1.5911
 8125SOL    HW235838   3.615   4.351  16.718  0.3480  0.0200  4.0909
 8126SOL     OW35839   1.559   0.143   6.455  0.3374  0.3894 -0.0339
 8126SOL    HW135840   1.489   0.177   6.399  0.2400 -1.0411 -0.7836
 8126SOL    HW235841   1.516   0.098   6.529  1.0185 -1.1828 -0.5893
 8127SOL     OW35842   0.209   0.602   8.644  0.3143 -0.4098 -0.0459
 8127SOL    HW135843   0.177   0.547   8.572 -2.4013 -1.5129  2.0023
 8127SOL    HW235844   0.257   0.673   8.600 -0.1628  0.0992  0.2635
 8128SOL     OW35845   4.258   3.817   0.271  0.7177  0.1282 -0.0039
 8128SOL    HW135846   4.354   3.822   0.268  0.7834  0.3534  2.6255
 8128SOL    HW235847   4.228   3.727   0.258  0.1758  0.2238  0.5889
 8129SOL     OW35848   4.544   0.781   1.323 -0.6472  0.0313  0.1424
 8129SOL    HW135849   4.553   0.775   1.228  3.0856 -1.0779  0.5401
 8129SOL    HW235850   4.580   0.695   1.346 -0.6341  0.3029  1.1344
 8130SOL     OW35851   0.938   2.681  13.553  0.0462  0.2203  0.2163
 8130SOL    HW135852   0.867   2.732  13.593 -0.0213  0.5929 -0.3626
 8130SOL    HW235853   1.016   2.720  13.594 -0.5919  1.2258  0.4918
 8131SOL     OW35854   3.255   4.617  12.624 -0.0294  0.6960 -0.0635
 8131SOL    HW135855   3.259   4.712  12.613 -0.8687  0.8894  1.2475
 8131SOL    HW235856   3.171   4.608  12.670  1.1278 -2.2290  1.4819
 8132SOL     OW35857   3.175   4.606   3.340 -0.7164 -0.4397  0.2977
 8132SOL    HW135858   3.159   4.689   3.384 -0.1176 -0.4264  0.4839
 8132SOL    HW235859   3.223   4.566   3.413  0.7707 -1.1641 -1.0674
 8133SOL     OW35860   1.126   0.287   8.261 -0.1562 -0.4264 -0.5392
 8133SOL    HW135861   1.106   0.194   8.254 -0.3422 -0.5157  1.2371
 8133SOL    HW235862   1.176   0.312   8.183 -0.4940 -0.9264 -0.9159
 8134SOL     OW35863   0.522   3.693   4.219 -0.6005 -0.3769  0.5570
 8134SOL    HW135864   0.473   3.733   4.291 -0.3465  1.6091 -0.3661
 8134SOL    HW235865   0.600   3.749   4.217 -1.8993  1.4366  0.2454
 8135SOL     OW35866   1.776   3.770  13.704  0.5448 -0.2901  0.2653
 8135SOL    HW135867   1.696   3.784  13.653  1.9918  1.5731 -1.4836
 8135SOL    HW235868   1.739   3.768  13.792  0.9481 -0.8735  0.4173
 8136SOL     OW35869   3.922   0.561  14.688  0.1660  0.4817 -0.2978
 8136SOL    HW135870   3.966   0.619  14.627  1.4728 -0.2528 -0.0481
 8136SOL    HW235871   3.983   0.560  14.762 -0.9822 -1.3261  0.6403
 8137SOL     OW35872   1.461   0.371   6.829 -0.1864  0.1336 -0.1858
 8137SOL    HW135873   1.422   0.446   6.784 -0.2813  1.0551  1.4362
 8137SOL    HW235874   1.429   0.307   6.765 -0.3256  0.7037 -0.6846
 8138SOL     OW35875   1.590   3.039  12.979  0.4123  0.4500  0.8645
 8138SOL    HW135876   1.619   2.975  12.914 -1.1635  1.8341 -1.2214
 8138SOL    HW235877   1.617   3.118  12.931  1.8895  0.3167  1.4730
 8139SOL     OW35878   0.828   3.346  15.617  0.7254 -0.4540 -0.0782
 8139SOL    HW135879   0.913   3.312  15.646  0.1750 -0.9368  0.9663
 8139SOL    HW235880   0.776   3.265  15.612 -0.8226  0.4807  1.2086
 8140SOL     OW35881   4.105   4.516   4.754 -0.3919 -0.1505  0.0604
 8140SOL    HW135882   4.095   4.593   4.698  0.1363 -0.7585 -0.8724
 8140SOL    HW235883   4.158   4.554   4.825  0.5240  0.4338 -0.9414
 8141SOL     OW35884   1.146   3.382  13.593  0.2245 -0.5296  0.1258
 8141SOL    HW135885   1.207   3.423  13.532 -0.0047  0.8241  0.8043
 8141SOL    HW235886   1.113   3.460  13.638  0.5488 -1.7994  2.5890
 8142SOL     OW35887   1.737   4.067   0.884 -0.5137 -0.3652  0.3815
 8142SOL    HW135888   1.747   4.015   0.964  2.9728  1.0444  0.8577
 8142SOL    HW235889   1.708   4.007   0.815  2.0375 -1.0953 -0.0927
 8143SOL     OW35890   1.231   0.234   1.429 -0.0016  0.0526  0.4568
 8143SOL    HW135891   1.267   0.267   1.347 -3.7980  4.7566  0.7358
 8143SOL    HW235892   1.209   0.145   1.399 -0.8943  0.1661  0.7764
 8144SOL     OW35893   3.634   1.736   5.208  0.7953  0.4911  0.6253
 8144SOL    HW135894   3.667   1.724   5.297  1.6071 -1.3411  0.0714
 8144SOL    HW235895   3.594   1.823   5.204  0.3083  0.2341 -0.2375
 8145SOL     OW35896   1.940   0.666   3.936  0.2288  0.4854  0.0640
 8145SOL    HW135897   1.937   0.633   4.026  1.4281 -0.9118 -0.4122
 8145SOL    HW235898   1.912   0.580   3.906 -1.0829  1.6457 -2.0792
 8146SOL     OW35899   0.738   4.192   6.887 -0.3724  0.0323  0.4689
 8146SOL    HW135900   0.817   4.137   6.883 -0.3978 -0.0976  1.4923
 8146SOL    HW235901   0.755   4.253   6.816 -2.1359  0.8428  0.7748
 8147SOL     OW35902   2.941   4.200   8.413  0.0878  0.7800  0.5358
 8147SOL    HW135903   2.856   4.244   8.405 -0.8033 -1.0568 -0.0050
 8147SOL    HW235904   2.997   4.247   8.351 -1.0336  0.2241 -0.8901
 8148SOL     OW35905   2.116   2.778   3.197 -0.3525 -1.1447  0.2731
 8148SOL    HW135906   2.170   2.701   3.182  1.7918  0.1225  1.5407
 8148SOL    HW235907   2.030   2.739   3.217 -1.5055  0.1837 -2.1292
 8149SOL     OW35908   4.459   1.408  14.478  0.1098  0.4499 -0.0207
 8149SOL    HW135909   4.413   1.371  14.553  2.0576 -1.2985  0.3140
 8149SOL    HW235910   4.491   1.486  14.524  1.7430  0.6375 -1.4968
 8150SOL     OW35911   0.423   4.723   6.501  0.2816 -0.0374 -0.0591
 8150SOL    HW135912   0.408   0.088   6.468  0.4301  0.5984  1.5478
 8150SOL    HW235913   0.475   0.036   6.573  1.2045 -0.8968 -0.2963
 8151SOL     OW35914   3.593   1.361   4.548  0.4588  0.5721  0.0004
 8151SOL    HW135915   3.605   1.444   4.595 -1.7880 -0.4376  2.3554
 8151SOL    HW235916   3.580   1.311   4.629  1.4326 -0.2913 -0.3719
 8152SOL     OW35917   4.403   3.331   0.148 -0.2027 -0.0726  0.6325
 8152SOL    HW135918   4.485   3.345   0.195 -0.0268 -0.0295  0.3073
 8152SOL    HW235919   4.364   3.266   0.208  0.0012 -0.0450  0.7957
 8153SOL     OW35920   3.954   0.993  12.339 -0.6628  0.1302 -0.2270
 8153SOL    HW135921   3.887   1.041  12.387 -0.3349  1.6699 -1.2772
 8153SOL    HW235922   3.992   1.070  12.295 -0.6544  1.5211  2.2156
 8154SOL     OW35923   0.372   3.668   5.439 -0.5198 -0.1082 -0.1611
 8154SOL    HW135924   0.352   3.633   5.352  0.9044  0.7170 -0.8289
 8154SOL    HW235925   0.465   3.688   5.439 -0.4621 -0.3855  1.7649
 8155SOL     OW35926   1.229   0.362   2.212 -0.6571  0.2604 -0.1526
 8155SOL    HW135927   1.266   0.433   2.265 -0.3587 -0.2665  0.3430
 8155SOL    HW235928   1.285   0.384   2.137 -1.5594  0.0298 -0.8894
 8156SOL     OW35929   1.258   2.194   3.376 -0.5790 -1.1868 -0.6371
 8156SOL    HW135930   1.237   2.103   3.396 -0.2464 -0.6157  2.2341
 8156SOL    HW235931   1.172   2.220   3.343  0.1857 -0.8000 -2.3583
 8157SOL     OW35932   3.416   3.983  10.464 -0.3584 -0.3484 -0.0720
 8157SOL    HW135933   3.409   3.888  10.456  1.8346 -0.7786  2.7808
 8157SOL    HW235934   3.476   3.984  10.539  2.4993  0.8515 -2.3673
 8158SOL     OW35935   3.908   2.428   2.208  0.0602 -0.2910 -0.7767
 8158SOL    HW135936   3.999   2.447   2.184  0.0066 -0.7571 -1.3529
 8158SOL    HW235937   3.911   2.412   2.302  1.0202 -0.6167 -0.8635
 8159SOL     OW35938   4.627   2.185   3.782  0.2347  0.1471  0.0084
 8159SOL    HW135939   4.685   2.141   3.720  1.2339  1.0276  0.3207
 8159SOL    HW235940   4.686   2.257   3.803 -1.7903  1.5401  0.9151
 8160SOL     OW35941   3.184   3.151  15.268 -0.5831  0.2936  0.3232
 8160SOL    HW135942   3.125   3.208  15.219 -2.0370 -1.3795  0.1530
 8160SOL    HW235943   3.119   3.083  15.285 -1.6787  1.2746  0.0587
 8161SOL     OW35944   3.202   1.954   5.047 -0.1949  0.0240 -0.5951
 8161SOL    HW135945   3.141   1.905   4.991 -1.2454 -0.3146  0.8285
 8161SOL    HW235946   3.135   1.993   5.103  3.1317  2.1889  1.8321
 8162SOL     OW35947   3.279   2.914  16.941 -0.4833  0.2597 -0.1578
 8162SOL    HW135948   3.370   2.901  16.967 -0.1605  0.2217 -1.2931
 8162SOL    HW235949   3.291   2.966  16.862  2.0623 -0.1821 -0.0677
 8163SOL     OW35950   4.088   0.967   5.252 -0.0548  0.1284  0.2701
 8163SOL    HW135951   4.158   1.001   5.196 -1.7047  1.3206 -1.0858
 8163SOL    HW235952   4.064   0.891   5.199  0.7178  0.1174 -0.0588
 8164SOL     OW35953   4.061   0.211   7.616  0.0577 -0.1649  0.1107
 8164SOL    HW135954   4.103   0.228   7.700 -1.8207 -2.4752  1.5024
 8164SOL    HW235955   3.989   0.274   7.610  0.5244  0.1746 -2.1873
 8165SOL     OW35956   4.321   0.852   6.269  0.7935 -0.1344  0.5940
 8165SOL    HW135957   4.373   0.872   6.192  1.2951 -0.8623  0.7424
 8165SOL    HW235958   4.234   0.874   6.238  0.6423  2.0960  2.6184
 8166SOL     OW35959   4.479   4.639  15.850 -0.3693  0.4283 -0.2601
 8166SOL    HW135960   4.421   4.564  15.864 -1.3126  1.1537 -0.3207
 8166SOL    HW235961   4.443   4.701  15.913 -2.2227 -0.0842 -0.8057
 8167SOL     OW35962   3.634   4.201   7.965  0.0431 -0.7253  0.4149
 8167SOL    HW135963   3.564   4.145   7.999  0.0470  1.5337  4.1727
 8167SOL    HW235964   3.592   4.284   7.947 -0.3457 -0.6819  1.4982
 8168SOL     OW35965   3.622   3.537  11.501  0.2803 -0.4056  0.1461
 8168SOL    HW135966   3.553   3.578  11.552  0.4834  0.6005 -0.3972
 8168SOL    HW235967   3.578   3.455  11.480  1.8062 -1.5739  1.5233
 8169SOL     OW35968   0.143   2.369   2.050 -0.3375  0.6550 -0.0374
 8169SOL    HW135969   0.221   2.385   1.997  0.3522 -3.3522 -0.2259
 8169SOL    HW235970   0.078   2.401   1.989 -1.0560 -0.8600 -0.0782
 8170SOL     OW35971   3.966   1.278   2.241 -0.0221  0.3166 -0.2895
 8170SOL    HW135972   3.916   1.321   2.311  0.1693 -1.8866  1.1982
 8170SOL    HW235973   4.015   1.356   2.212  0.1862  0.0233 -0.7320
 8171SOL     OW35974   2.660   0.265   5.583  0.1511 -0.3432  0.4119
 8171SOL    HW135975   2.654   0.185   5.531 -1.1213  0.7414 -1.0920
 8171SOL    HW235976   2.724   0.230   5.646  0.5941  0.4149  0.3873
 8172SOL     OW35977   3.657   2.281  15.863 -0.0503 -0.4842  0.1830
 8172SOL    HW135978   3.752   2.275  15.870  0.1176  1.0692 -0.8526
 8172SOL    HW235979   3.637   2.198  15.819  0.0573  0.5522 -1.8505
 8173SOL     OW35980   1.773   3.054   3.129 -0.1064  0.4431 -0.3271
 8173SOL    HW135981   1.735   2.983   3.181 -1.6861  0.0636 -2.0158
 8173SOL    HW235982   1.771   3.129   3.189  1.0794 -0.8773  1.3522
 8174SOL     OW35983   3.190   2.823   7.580 -0.0171  0.1263 -0.0986
 8174SOL    HW135984   3.192   2.919   7.574  0.7842  0.0967 -0.3639
 8174SOL    HW235985   3.107   2.807   7.626 -0.4791  0.9095 -0.6633
 8175SOL     OW35986   1.388   1.638  14.107  0.0599  0.1589 -0.0678
 8175SOL    HW135987   1.475   1.617  14.073  0.2097  1.8062 -0.6850
 8175SOL    HW235988   1.403   1.732  14.116 -1.6956  0.5453 -1.2671
 8176SOL     OW35989   3.118   0.994   5.418 -0.0954  0.1866  0.2811
 8176SOL    HW135990   3.053   1.019   5.352  1.0656  1.7205 -0.2635
 8176SOL    HW235991   3.069   0.946   5.485  2.2921 -0.9573  1.2021
 8177SOL     OW35992   3.413   1.532  11.607 -0.3098  0.0753 -0.1239
 8177SOL    HW135993   3.341   1.593  11.593  2.3915  3.2039 -0.4940
 8177SOL    HW235994   3.431   1.537  11.701 -1.1112  1.1175 -0.0236
 8178SOL     OW35995   2.814   2.095   6.558  0.3035  0.4315  0.1792
 8178SOL    HW135996   2.908   2.084   6.540  0.5624 -0.1304  1.8560
 8178SOL    HW235997   2.801   2.190   6.565  2.1579  0.6528  0.6270
 8179SOL     OW35998   3.478   0.180   6.526 -0.7093  0.1861 -0.7906
 8179SOL    HW135999   3.420   0.151   6.596  1.7758 -2.3791  0.2080
 8179SOL    HW236000   3.530   0.100   6.523  0.1815  0.7323  0.0093
 8180SOL     OW36001   3.959   0.216  10.749 -0.0419 -0.2227 -0.1554
 8180SOL    HW136002   4.002   0.174  10.675 -2.8273 -0.6282 -1.5589
 8180SOL    HW236003   3.896   0.149  10.778 -0.6944  0.8242  0.8155
 8181SOL     OW36004   3.764   2.652   4.652 -0.1644  0.3686 -0.0022
 8181SOL    HW136005   3.775   2.599   4.731 -0.4443  0.9256  0.4160
 8181SOL    HW236006   3.815   2.602   4.588 -1.6842 -0.4209 -0.5971
 8182SOL     OW36007   0.512   3.291   4.861 -0.3616  0.9212  0.4303
 8182SOL    HW136008   0.557   3.278   4.944 -2.5664  2.2200  1.8405
 8182SOL    HW236009   0.460   3.371   4.873  0.3144  1.1045  2.1259
 8183SOL     OW36010   3.398   0.423   2.522  0.2807  0.0622  0.1029
 8183SOL    HW136011   3.320   0.399   2.471  0.8402 -1.9787  0.2142
 8183SOL    HW236012   3.465   0.415   2.454  0.1418 -0.2114 -0.0050
 8184SOL     OW36013   1.437   0.207   7.031  0.1445 -0.7158 -0.2925
 8184SOL    HW136014   1.455   0.281   6.973  1.2475 -0.5052  0.3149
 8184SOL    HW236015   1.347   0.218   7.060  0.5881 -3.9572  2.3251
 8185SOL     OW36016   0.149   3.437   5.387 -0.8074 -0.4370 -0.1649
 8185SOL    HW136017   0.225   3.438   5.328  0.1179  3.1939  1.1196
 8185SOL    HW236018   0.105   3.516   5.356 -2.2427 -0.4400  1.8659
 8186SOL     OW36019   3.326   3.404  16.369 -0.5672  0.0219  0.1345
 8186SOL    HW136020   3.336   3.398  16.274 -2.2215 -0.0935 -0.0365
 8186SOL    HW236021   3.231   3.396  16.376 -0.4005 -0.3104  1.9025
 8187SOL     OW36022   4.102   0.092   2.028  0.2022 -0.8111 -0.3533
 8187SOL    HW136023   4.006   0.084   2.020  0.0526 -1.3939  2.1189
 8187SOL    HW236024   4.109   0.048   2.113  0.3161  1.5694  0.8663
 8188SOL     OW36025   2.187   4.506  14.240  0.6022 -0.2223  0.1091
 8188SOL    HW136026   2.136   4.536  14.165  0.4473 -2.3708 -0.6512
 8188SOL    HW236027   2.276   4.536  14.223  1.1501 -1.5984  0.5816
 8189SOL     OW36028   4.115   1.411   8.791  0.5022 -0.1489 -0.8017
 8189SOL    HW136029   4.149   1.496   8.819  2.5708 -1.1432 -0.3024
 8189SOL    HW236030   4.031   1.400   8.835  1.3175  0.4255  0.9101
 8190SOL     OW36031   3.523   4.315   5.601 -0.6327  0.3550 -0.5927
 8190SOL    HW136032   3.584   4.243   5.581  0.6797  1.7763 -1.6820
 8190SOL    HW236033   3.565   4.397   5.576  0.1797 -0.0408 -0.5660
 8191SOL     OW36034   2.062   3.531   7.461  0.6400 -0.5711 -0.6381
 8191SOL    HW136035   2.046   3.624   7.446  0.4527 -0.4797  0.1393
 8191SOL    HW236036   2.156   3.520   7.476  0.3107 -1.8194  0.4852
 8192SOL     OW36037   1.098   3.944  15.406 -0.2850  0.3709  0.2855
 8192SOL    HW136038   1.015   3.979  15.438  1.0899  2.8078  1.1436
 8192SOL    HW236039   1.132   4.019  15.357 -0.8374  0.5503  0.1715
 8193SOL     OW36040   0.752   1.960   0.750 -0.4892 -0.5639 -0.2914
 8193SOL    HW136041   0.661   1.956   0.779 -0.2745 -1.6707  0.2739
 8193SOL    HW236042   0.751   2.031   0.687  0.3030 -0.9521 -0.7408
 8194SOL     OW36043   0.402   0.469   1.945 -0.3633  0.1686  0.6890
 8194SOL    HW136044   0.456   0.545   1.964 -0.6379  0.3685  0.6632
 8194SOL    HW236045   0.396   0.476   1.850  1.0494 -0.9463  0.5081
 8195SOL     OW36046   0.750   1.749  12.862  0.1495 -0.3090  0.2572
 8195SOL    HW136047   0.685   1.750  12.933 -0.2775  1.8608 -0.1793
 8195SOL    HW236048   0.812   1.690  12.905 -0.6092  0.5533  2.5154
 8196SOL     OW36049   0.162   1.577   5.390  0.1809 -1.3653 -0.3504
 8196SOL    HW136050   0.132   1.487   5.404 -0.7674 -0.9407  0.3910
 8196SOL    HW236051   0.255   1.557   5.403  0.4340 -1.0968 -1.7760
 8197SOL     OW36052   3.162   2.708   2.879 -0.7615  0.5606 -0.7038
 8197SOL    HW136053   3.114   2.780   2.839 -4.3966 -1.8989 -0.7631
 8197SOL    HW236054   3.250   2.741   2.897 -0.7095 -0.5573  1.1482
 8198SOL     OW36055   1.847   0.384   5.918 -0.2979  0.8819 -0.1073
 8198SOL    HW136056   1.898   0.377   5.999 -0.0618 -0.5518 -0.3818
 8198SOL    HW236057   1.825   0.477   5.909  0.7225  1.2874  1.6826
 8199SOL     OW36058   2.672   4.663   5.997  0.1429 -0.3879 -0.4488
 8199SOL    HW136059   2.734   4.646   6.068 -0.0379  2.8608  0.4982
 8199SOL    HW236060   2.673   4.585   5.941 -1.0165 -1.3845  0.9163
 8200SOL     OW36061   2.622   4.443   1.145  0.0410  0.3933  0.3367
 8200SOL    HW136062   2.587   4.481   1.065 -1.6294 -0.3536  0.7158
 8200SOL    HW236063   2.691   4.509   1.160 -0.0296  0.6036 -0.2776
 8201SOL     OW36064   0.376   0.041   5.197 -0.6331  0.0312  0.2265
 8201SOL    HW136065   0.342   4.677   5.214 -0.5376 -0.1126 -0.2933
 8201SOL    HW236066   0.298   0.092   5.175 -0.7812  0.2522  1.2758
 8202SOL     OW36067   3.818   0.724  17.507  0.3190  0.0405  0.0573
 8202SOL    HW136068   3.908   0.748  17.487  0.0854  0.1702 -0.8406
 8202SOL    HW236069   3.773   0.803  17.478  0.4370  1.3638  3.4540
 8203SOL     OW36070   1.029   2.876  13.936  0.2896 -0.5750  0.2433
 8203SOL    HW136071   1.002   2.956  13.982  1.8312  1.4807 -2.4107
 8203SOL    HW236072   0.950   2.863  13.884  1.7179 -2.3249 -1.4805
 8204SOL     OW36073   1.373   0.899   4.197  0.0787 -0.0007  0.6030
 8204SOL    HW136074   1.283   0.867   4.203  0.3673 -0.5730  1.9311
 8204SOL    HW236075   1.417   0.848   4.129  2.0861  0.4262  1.5874
 8205SOL     OW36076   1.158   2.106   7.717 -0.1885  0.1792  0.0489
 8205SOL    HW136077   1.072   2.134   7.684  0.1998 -0.6044 -1.6707
 8205SOL    HW236078   1.207   2.158   7.653  0.7815  2.1099  2.3887
 8206SOL     OW36079   1.065   0.735   0.798 -0.0287  0.5611  0.2207
 8206SOL    HW136080   0.972   0.747   0.819 -0.1781  0.6485 -0.4909
 8206SOL    HW236081   1.101   0.813   0.840  1.3796 -1.5898  2.9450
 8207SOL     OW36082   1.149   0.988   7.094  0.0391  0.7286  0.0413
 8207SOL    HW136083   1.178   0.906   7.133 -0.8145  0.8569  0.9426
 8207SOL    HW236084   1.068   0.995   7.145  1.0647 -0.8087  1.9076
 8208SOL     OW36085   0.106   0.349  15.042  0.6929  0.2133 -0.1681
 8208SOL    HW136086   0.152   0.403  14.978  0.9917  2.2664  1.7780
 8208SOL    HW236087   0.036   0.410  15.064  1.1310  0.4502  0.5700
 8209SOL     OW36088   4.394   4.237   5.450 -0.3967 -0.0382 -0.0162
 8209SOL    HW136089   4.422   4.178   5.380 -3.8257 -0.5414 -0.9918
 8209SOL    HW236090   4.298   4.241   5.454 -0.3907  1.2808 -1.0703
 8210SOL     OW36091   3.905   4.205  10.919 -0.3426 -0.5162  0.2944
 8210SOL    HW136092   3.951   4.192  10.836 -0.1272  0.9200  0.1887
 8210SOL    HW236093   3.843   4.267  10.881 -2.2248 -1.0448  2.5284
 8211SOL     OW36094   4.411   3.337   7.386  0.3878  0.1860 -0.0235
 8211SOL    HW136095   4.483   3.370   7.331  2.6011 -2.7331  1.1558
 8211SOL    HW236096   4.450   3.339   7.473  0.1193  1.0403  0.0820
 8212SOL     OW36097   1.757   2.118   7.936  0.0459  0.1567  0.1380
 8212SOL    HW136098   1.698   2.191   7.955 -1.0380  0.1917 -3.3773
 8212SOL    HW236099   1.777   2.101   8.028  2.1604  2.0127  0.0250
 8213SOL     OW36100   0.654   2.118   5.465 -0.1487 -0.0886  0.2377
 8213SOL    HW136101   0.736   2.116   5.513 -0.1189  1.6171  0.2484
 8213SOL    HW236102   0.667   2.194   5.408  1.9155 -0.2959  0.4220
 8214SOL     OW36103   0.772   0.399  16.486 -0.2082 -0.3844 -0.1579
 8214SOL    HW136104   0.734   0.311  16.494 -1.8035  0.2005 -1.2406
 8214SOL    HW236105   0.759   0.413  16.392 -1.6031  2.7897  0.5012
 8215SOL     OW36106   4.287   1.772   3.733  0.1980 -0.4647  0.5751
 8215SOL    HW136107   4.241   1.704   3.683 -2.1521  0.6645  1.2103
 8215SOL    HW236108   4.251   1.755   3.820 -2.4816 -1.9023 -0.8117
 8216SOL     OW36109   1.860   2.935   8.442  0.0665  0.2324  0.0102
 8216SOL    HW136110   1.923   2.863   8.440  1.7812  1.7031  0.0103
 8216SOL    HW236111   1.775   2.899   8.468  0.5947 -0.8642  0.2306
 8217SOL     OW36112   0.437   4.059   4.174  0.4374  0.1531 -0.2645
 8217SOL    HW136113   0.509   4.122   4.174  0.6134 -0.0443 -1.5253
 8217SOL    HW236114   0.363   4.105   4.136  0.6003  0.9437  0.3846
 8218SOL     OW36115   2.074   2.335   2.400 -0.3933  0.1571  0.1461
 8218SOL    HW136116   1.981   2.357   2.408 -0.3518 -1.1551  4.0318
 8218SOL    HW236117   2.117   2.414   2.433  0.1068 -0.7270  1.5527
 8219SOL     OW36118   0.448   1.436   8.805 -0.3401 -0.0165  0.5383
 8219SOL    HW136119   0.455   1.491   8.727  2.0880 -0.8121  0.1974
 8219SOL    HW236120   0.539   1.412   8.822 -0.2678  0.8888  1.4077
 8220SOL     OW36121   3.202   4.651   7.835 -0.6162  0.0237 -0.2122
 8220SOL    HW136122   3.114   4.656   7.871 -1.1149  0.6057 -1.4954
 8220SOL    HW236123   3.260   4.648   7.911 -1.8490 -0.0477  0.7101
 8221SOL     OW36124   3.013   1.720   4.406  0.4850 -0.6645 -0.0989
 8221SOL    HW136125   3.091   1.666   4.390 -0.2502 -2.1980  1.5037
 8221SOL    HW236126   2.955   1.700   4.332  0.9261  1.7851 -1.0782
 8222SOL     OW36127   3.093   1.168  14.922 -0.0623  0.4032 -0.5988
 8222SOL    HW136128   3.013   1.144  14.875 -0.5171  1.2448 -0.2439
 8222SOL    HW236129   3.064   1.144  15.010  1.8305 -2.1628 -0.6790
 8223SOL     OW36130   0.128   3.632   0.828  0.0401 -0.1633  0.1437
 8223SOL    HW136131   0.036   3.655   0.842 -0.6084 -3.2884  1.0674
 8223SOL    HW236132   0.167   3.717   0.842 -1.7357  0.5396  0.8781
 8224SOL     OW36133   2.655   3.389   9.840  0.2050  0.2295  0.3635
 8224SOL    HW136134   2.594   3.462   9.847  0.1022  0.0109  1.7348
 8224SOL    HW236135   2.733   3.425   9.796  0.4591  2.2437  2.4748
 8225SOL     OW36136   3.246   0.663   1.597 -0.3375 -0.1854  0.6607
 8225SOL    HW136137   3.163   0.648   1.643 -1.6544  3.9398 -0.3010
 8225SOL    HW236138   3.280   0.576   1.581 -0.9463 -0.1578 -0.7356
 8226SOL     OW36139   0.859   0.869   2.632 -0.1476 -0.1747  0.3319
 8226SOL    HW136140   0.925   0.898   2.570  0.6597 -1.3709  0.6191
 8226SOL    HW236141   0.784   0.892   2.578  0.4839  0.3055 -0.3363
 8227SOL     OW36142   3.891   4.022   5.340 -0.2413 -0.4094  0.0143
 8227SOL    HW136143   3.905   3.968   5.262  0.1014  1.2537 -1.0856
 8227SOL    HW236144   3.906   3.956   5.408 -1.3939  0.9482  1.5978
 8228SOL     OW36145   3.399   4.265   1.989  0.4936  0.3865  0.3989
 8228SOL    HW136146   3.420   4.357   1.972  1.5379  0.1757  0.5227
 8228SOL    HW236147   3.428   4.224   1.907  0.6901 -0.1641  0.7464
 8229SOL     OW36148   0.371   1.458   8.254 -0.5880 -0.4252  0.4429
 8229SOL    HW136149   0.329   1.411   8.183  0.2819  0.7622 -0.8469
 8229SOL    HW236150   0.326   1.542   8.254 -3.1155 -1.7954 -0.4756
 8230SOL     OW36151   1.606   2.989  16.559 -0.4501 -0.2845  0.1888
 8230SOL    HW136152   1.677   2.925  16.558 -1.6029 -1.5858  1.7079
 8230SOL    HW236153   1.633   3.069  16.513 -0.9818  0.0971  0.5330
 8231SOL     OW36154   4.425   0.415   4.665 -0.3268  0.1371  0.5617
 8231SOL    HW136155   4.421   0.442   4.574 -0.9217 -0.6411  0.3545
 8231SOL    HW236156   4.518   0.395   4.674  0.1513  2.8102  1.5088
 8232SOL     OW36157   3.234   3.771   8.673 -0.5965  0.7522 -0.0570
 8232SOL    HW136158   3.174   3.823   8.725 -1.4271 -0.1863 -0.0780
 8232SOL    HW236159   3.181   3.770   8.593 -1.1498  0.0979  0.3180
 8233SOL     OW36160   4.453   1.709   4.719 -0.2349  0.5848 -0.2115
 8233SOL    HW136161   4.525   1.758   4.759  2.2765 -2.5399 -0.9017
 8233SOL    HW236162   4.494   1.622   4.713 -2.5468 -0.4569 -0.8135
 8234SOL     OW36163   3.782   3.446   7.211 -0.2197 -0.2494  0.0410
 8234SOL    HW136164   3.742   3.526   7.176  2.5358  1.4902  0.9051
 8234SOL    HW236165   3.868   3.464   7.172 -0.0159 -3.9569 -1.2585
 8235SOL     OW36166   4.266   4.235  11.711  0.6340 -0.3808  0.2278
 8235SOL    HW136167   4.262   4.229  11.806  1.5751 -0.2682  0.2807
 8235SOL    HW236168   4.185   4.279  11.685  0.2967 -0.2753  1.4639
 8236SOL     OW36169   3.723   2.408   6.135  0.2919  0.2641  0.1107
 8236SOL    HW136170   3.791   2.344   6.157 -1.2633 -1.1348  0.8277
 8236SOL    HW236171   3.784   2.482   6.132  1.4763 -0.6682  0.6585
 8237SOL     OW36172   4.612   0.896   6.182  0.2912 -0.8400 -0.1107
 8237SOL    HW136173   4.584   0.982   6.214 -0.3161 -1.9773  2.4015
 8237SOL    HW236174   4.565   0.842   6.246 -2.1625  0.3703 -0.9246
 8238SOL     OW36175   4.308   1.057   7.941  0.4320  0.1757 -0.3646
 8238SOL    HW136176   4.268   1.058   7.854  0.1702  1.9133 -0.2192
 8238SOL    HW236177   4.401   1.067   7.921  0.1776  2.0722 -0.5832
 8239SOL     OW36178   2.353   3.900   5.031 -0.3025  0.2118  0.1033
 8239SOL    HW136179   2.415   3.910   4.960 -2.0696  2.1719 -1.1763
 8239SOL    HW236180   2.307   3.818   5.012  0.7543  0.3302 -2.8781
 8240SOL     OW36181   4.246   0.817   3.352 -0.0373 -0.3421  0.1714
 8240SOL    HW136182   4.301   0.741   3.337 -2.2686 -1.9872  0.3750
 8240SOL    HW236183   4.266   0.865   3.271 -0.2496 -0.7802 -0.1405
 8241SOL     OW36184   3.131   1.956   7.377  0.3658 -0.0920 -0.1939
 8241SOL    HW136185   3.103   1.991   7.461 -1.0972 -1.1088 -0.2553
 8241SOL    HW236186   3.195   2.022   7.351 -0.4571  0.6301 -0.3973
 8242SOL     OW36187   4.450   0.406   3.842 -0.0786  0.1095  0.3506
 8242SOL    HW136188   4.378   0.423   3.902  0.1377  0.9100  0.3828
 8242SOL    HW236189   4.433   0.473   3.776 -1.0531 -1.3938 -0.8858
 8243SOL     OW36190   2.629   2.262   4.566  0.0358 -0.2219  0.1309
 8243SOL    HW136191   2.656   2.261   4.474 -0.2139 -0.5122  0.0586
 8243SOL    HW236192   2.541   2.223   4.562  0.4278 -1.0365 -0.4959
 8244SOL     OW36193   0.089   4.051  14.793 -0.2735 -0.0435  0.5241
 8244SOL    HW136194   0.096   4.096  14.709  0.7932 -1.7212 -0.3019
 8244SOL    HW236195   0.178   4.019  14.805 -0.3035  0.2603  1.5478
 8245SOL     OW36196   2.204   0.964  11.693 -0.4905  0.6162  0.2490
 8245SOL    HW136197   2.230   1.024  11.763  2.2562 -0.1496 -0.1405
 8245SOL    HW236198   2.193   1.026  11.621 -0.1817  2.2125  1.5877
 8246SOL     OW36199   2.023   1.488   6.578 -0.1918 -0.9140 -0.4155
 8246SOL    HW136200   2.005   1.552   6.647 -0.4376  1.1324 -2.3667
 8246SOL    HW236201   2.018   1.404   6.624  0.2462 -0.8455 -0.2456
 8247SOL     OW36202   2.701   1.210   5.185  0.3685  0.0200 -0.5913
 8247SOL    HW136203   2.677   1.156   5.110 -1.3102 -0.7415  0.5169
 8247SOL    HW236204   2.618   1.245   5.217  0.4374 -0.2341 -0.1417
 8248SOL     OW36205   3.232   0.832   6.884  0.3399 -0.2661 -0.5393
 8248SOL    HW136206   3.311   0.867   6.924  0.3239  2.5181 -2.9462
 8248SOL    HW236207   3.164   0.895   6.909  0.6962  0.2438 -0.8617
 8249SOL     OW36208   4.210   3.700  13.136  0.4704 -0.2389  0.2869
 8249SOL    HW136209   4.287   3.712  13.081 -0.2131  1.3251 -0.3340
 8249SOL    HW236210   4.162   3.641  13.078  2.9922 -1.8126 -0.1976
 8250SOL     OW36211   2.052   1.469   4.457  0.6724 -0.0649  0.1748
 8250SOL    HW136212   2.015   1.556   4.445 -2.5879 -1.4941 -0.0436
 8250SOL    HW236213   2.084   1.457   4.367  0.2102  2.8904 -0.3827
 8251SOL     OW36214   0.005   1.545   8.903 -0.3496  0.1536  1.0870
 8251SOL    HW136215   4.650   1.543   8.847  0.9993  1.3585 -0.8437
 8251SOL    HW236216   0.065   1.477   8.874 -0.4397  1.0115 -1.0960
 8252SOL     OW36217   2.174   2.004  17.011  0.1589  0.3366  0.1524
 8252SOL    HW136218   2.144   2.086  17.048  0.1057  0.6236 -0.5170
 8252SOL    HW236219   2.135   2.008  16.923  0.8788 -2.4059 -0.3016
 8253SOL     OW36220   1.388   0.446   7.643  0.3212  0.1416  0.0952
 8253SOL    HW136221   1.483   0.459   7.652 -0.1151  1.4793  2.8616
 8253SOL    HW236222   1.373   0.374   7.705  0.5437 -0.5648 -0.6724
 8254SOL     OW36223   0.030   1.937   6.300 -0.1698 -0.0089 -0.3769
 8254SOL    HW136224   0.036   2.030   6.320 -0.1830 -0.0182 -0.3302
 8254SOL    HW236225   4.678   1.930   6.241 -0.2742 -2.2345  0.0046
 8255SOL     OW36226   3.606   0.505   7.411  0.5418  0.0278  0.4440
 8255SOL    HW136227   3.648   0.486   7.327 -0.7731  0.2530 -0.2718
 8255SOL    HW236228   3.548   0.575   7.380 -0.1952 -1.0377 -0.5998
 8256SOL     OW36229   1.539   2.426   8.216 -0.2518  0.2045  0.1539
 8256SOL    HW136230   1.605   2.487   8.182 -1.0342  1.5248  1.0215
 8256SOL    HW236231   1.459   2.478   8.216  1.2301  2.4907 -2.0962
 8257SOL     OW36232   0.131   3.693   4.512 -0.6089  0.7958  0.2982
 8257SOL    HW136233   0.098   3.750   4.443  2.1406 -0.9846 -2.5032
 8257SOL    HW236234   0.161   3.756   4.578  0.0313  0.1752  0.6003
 8258SOL     OW36235   1.385   2.645   4.602  0.3061  0.2107  0.5096
 8258SOL    HW136236   1.450   2.680   4.663 -0.1804  1.2480  0.4354
 8258SOL    HW236237   1.432   2.642   4.519 -3.2360  0.7620 -1.5376
 8259SOL     OW36238   4.137   3.020   3.739 -0.1375 -0.1712  0.2023
 8259SOL    HW136239   4.125   2.950   3.674 -0.9832 -0.0874  0.2667
 8259SOL    HW236240   4.055   3.067   3.726 -0.6433 -0.7867  1.1351
 8260SOL     OW36241   0.887   0.050  13.381 -0.0133 -0.1136  0.0558
 8260SOL    HW136242   0.914   0.004  13.301 -1.8625 -1.5703  0.2679
 8260SOL    HW236243   0.878   4.699  13.440  0.2882  0.4850  0.8571
 8261SOL     OW36244   4.628   3.859   2.409  0.2337 -0.0448 -0.1606
 8261SOL    HW136245   4.587   3.812   2.336  2.7187 -1.6857 -0.4976
 8261SOL    HW236246   4.678   3.785   2.445 -0.3197 -0.4038 -0.1154
 8262SOL     OW36247   1.592   2.023   0.173 -0.0866 -0.4237 -0.4988
 8262SOL    HW136248   1.665   1.985   0.222  0.3121 -0.7676 -1.3493
 8262SOL    HW236249   1.567   2.097   0.227 -0.2948  0.0059 -1.1867
 8263SOL     OW36250   1.533   2.692   3.755  0.7196 -0.1914  0.5963
 8263SOL    HW136251   1.451   2.734   3.729  0.6112 -0.8035 -0.0373
 8263SOL    HW236252   1.553   2.626   3.688  0.1069  0.7292 -0.4983
 8264SOL     OW36253   2.428   4.094   6.102  0.3886  0.3225  0.3496
 8264SOL    HW136254   2.447   4.056   6.016 -2.0932 -1.8793  0.7938
 8264SOL    HW236255   2.434   4.012   6.151 -0.0766  0.8097  1.2209
 8265SOL     OW36256   0.896   3.035   2.023 -0.1575 -0.2499 -0.3998
 8265SOL    HW136257   0.947   2.988   2.089 -0.9778 -0.4916  0.0558
 8265SOL    HW236258   0.829   3.082   2.073 -0.2000  0.6507 -1.3142
 8266SOL     OW36259   1.871   3.536   6.348 -1.0426  0.2022 -0.1086
 8266SOL    HW136260   1.939   3.555   6.284 -1.3074  0.6758 -0.2450
 8266SOL    HW236261   1.805   3.492   6.293  0.5110 -0.7380 -1.2283
 8267SOL     OW36262   4.224   1.643   8.856  0.4564  0.0840 -0.2115
 8267SOL    HW136263   4.171   1.722   8.868 -1.1228 -0.7218 -1.8715
 8267SOL    HW236264   4.288   1.645   8.927  1.3648  1.0591 -1.0610
 8268SOL     OW36265   2.018   3.487   1.789 -0.7287  0.1996  0.3130
 8268SOL    HW136266   2.000   3.535   1.708 -0.0339 -0.4904 -0.2521
 8268SOL    HW236267   1.934   3.493   1.835  0.6855 -1.2071  3.0876
 8269SOL     OW36268   4.236   3.086  13.111 -0.2508 -0.2764 -0.2523
 8269SOL    HW136269   4.292   3.055  13.041 -0.1718 -0.7374  0.0139
 8269SOL    HW236270   4.152   3.066  13.070 -1.6612  0.3582  2.3005
 8270SOL     OW36271   4.257   3.316   5.731 -0.1864 -0.1178  0.2030
 8270SOL    HW136272   4.254   3.281   5.642  1.1492  2.7358 -0.9857
 8270SOL    HW236273   4.183   3.377   5.738  0.6267  1.0217 -1.0777
 8271SOL     OW36274   0.036   3.396  12.817 -0.7911  0.1874  0.2953
 8271SOL    HW136275   0.105   3.450  12.856  0.1794  0.4407 -1.8026
 8271SOL    HW236276   4.687   3.417  12.877 -0.9211 -1.7987  0.8404
 8272SOL     OW36277   3.156   2.616   9.598  0.0685 -0.4221 -0.4777
 8272SOL    HW136278   3.236   2.651   9.637  0.6694 -1.0103 -1.1957
 8272SOL    HW236279   3.174   2.529   9.634  1.5203 -0.5989 -1.6609
 8273SOL     OW36280   1.505   2.213  17.633  0.1819  0.0706  0.5633
 8273SOL    HW136281   1.425   2.176  17.596 -0.8564  3.6892 -0.8497
 8273SOL    HW236282   1.539   2.145  17.690  0.4350 -0.7101 -0.5161
 8274SOL     OW36283   2.272   0.082   9.205  0.3302  0.0820 -0.0588
 8274SOL    HW136284   2.301   0.058   9.293 -0.2042 -0.0419  0.0862
 8274SOL    HW236285   2.298   0.005   9.154  1.4273 -0.1710  0.8969
 8275SOL     OW36286   2.402   4.183   0.010  0.1198 -0.1140  0.0836
 8275SOL    HW136287   2.422   4.201   0.102 -1.4078 -0.6676  0.5231
 8275SOL    HW236288   2.485   4.212  17.667 -0.8622  0.2396 -1.8386
 8276SOL     OW36289   1.211   3.257   1.066 -0.1332 -0.0608  0.1720
 8276SOL    HW136290   1.147   3.203   1.111  0.9343 -1.2825  0.2186
 8276SOL    HW236291   1.144   3.303   1.015 -1.6119 -0.2039  1.9823
 8277SOL     OW36292   1.402   3.208   8.184  0.3880  0.1597  0.2466
 8277SOL    HW136293   1.358   3.146   8.242 -0.6358  2.1909  1.6141
 8277SOL    HW236294   1.433   3.266   8.253 -0.9624 -0.7879  1.6421
 8278SOL     OW36295   0.113   4.050   4.421 -0.4765  0.2455  0.1186
 8278SOL    HW136296   0.035   4.030   4.472  0.5378  0.7319  1.8553
 8278SOL    HW236297   0.079   4.075   4.335  0.5199  0.8541 -0.0921
 8279SOL     OW36298   3.894   3.410   1.877  0.4735  0.1832  0.2285
 8279SOL    HW136299   3.956   3.417   1.804 -0.3669 -0.5561 -0.5622
 8279SOL    HW236300   3.941   3.451   1.949  2.5667 -0.2714 -0.8656
 8280SOL     OW36301   2.580   1.700   4.989 -0.3300  0.5939 -0.2456
 8280SOL    HW136302   2.662   1.749   4.983 -1.5414  2.5107 -1.1435
 8280SOL    HW236303   2.582   1.672   5.080 -3.3385  1.3001  0.0282
 8281SOL     OW36304   1.028   2.496   0.675  0.5524 -0.6586  0.7318
 8281SOL    HW136305   0.993   2.407   0.679  1.4888 -1.0765 -0.6641
 8281SOL    HW236306   1.090   2.491   0.603  0.7240  0.2564  0.8143
 8282SOL     OW36307   2.780   0.928   2.941 -0.3993 -0.2096  0.3979
 8282SOL    HW136308   2.753   0.913   3.032 -0.4209 -0.1766  0.3969
 8282SOL    HW236309   2.707   0.901   2.885 -0.5580  1.4856 -0.2125
 8283SOL     OW36310   2.928   4.403   0.660  0.0122  0.1041  0.6582
 8283SOL    HW136311   2.862   4.392   0.592  0.7110 -1.7376  0.2641
 8283SOL    HW236312   2.881   4.456   0.724 -0.0932  1.4782 -0.5709
 8284SOL     OW36313   1.014   1.557   8.075  0.1395  0.1091 -0.1255
 8284SOL    HW136314   1.010   1.465   8.050 -1.0166  0.5632 -1.5832
 8284SOL    HW236315   0.978   1.557   8.164 -0.7582  0.1896 -0.4788
 8285SOL     OW36316   3.528   4.676   1.415 -0.5573 -0.1588 -0.6907
 8285SOL    HW136317   3.445   4.676   1.462 -1.8536  0.1107 -2.9858
 8285SOL    HW236318   3.491   4.709   1.334  0.6303 -2.1321 -2.0351
 8286SOL     OW36319   4.482   3.568   6.939 -0.1914 -0.2425 -0.1426
 8286SOL    HW136320   4.525   3.501   6.991 -0.5484 -0.3067  0.0685
 8286SOL    HW236321   4.455   3.630   7.007  0.9315 -0.1895  0.2693
 8287SOL     OW36322   2.867   2.957   8.996  0.0905 -0.8915 -0.1593
 8287SOL    HW136323   2.773   2.941   8.986 -0.0698 -0.9196  1.3530
 8287SOL    HW236324   2.873   2.916   9.082 -1.1054  0.3660  0.5459
 8288SOL     OW36325   3.800   3.903   0.357 -0.1235 -0.0609 -0.2828
 8288SOL    HW136326   3.752   3.837   0.306 -1.2783  0.5458  0.0323
 8288SOL    HW236327   3.758   3.983   0.325 -2.6168 -2.4504 -3.0147
 8289SOL     OW36328   0.139   3.018   5.436 -0.8928  0.3261 -0.1928
 8289SOL    HW136329   0.115   3.107   5.410 -2.2470  0.0505  0.1381
 8289SOL    HW236330   0.062   2.962   5.426 -0.9795  0.7400 -1.9023
 8290SOL     OW36331   0.157   3.883   8.265 -0.2202  0.2973 -0.0688
 8290SOL    HW136332   0.170   3.807   8.322 -1.4577  0.2268  0.1261
 8290SOL    HW236333   0.077   3.855   8.220  1.7912 -2.8763 -1.6438
 8291SOL     OW36334   0.680   3.273   6.267 -0.0697  0.0680  0.0332
 8291SOL    HW136335   0.759   3.219   6.272 -0.4149 -0.4388  0.0532
 8291SOL    HW236336   0.656   3.264   6.174  0.4575 -0.8422 -0.0140
 8292SOL     OW36337   4.147   4.490   5.316 -0.3867  0.0983 -0.3685
 8292SOL    HW136338   4.233   4.497   5.276 -0.4703 -1.1844 -0.7906
 8292SOL    HW236339   4.133   4.583   5.330 -0.0780 -0.3759  2.9044
 8293SOL     OW36340   1.902   2.005   5.713  0.3156 -0.3137 -0.1734
 8293SOL    HW136341   1.904   2.060   5.635 -1.9877 -1.1937 -0.8517
 8293SOL    HW236342   1.831   2.048   5.762 -0.8630  1.2269 -3.2660
 8294SOL     OW36343   1.820   0.878  10.486 -0.1557 -0.1095  0.3011
 8294SOL    HW136344   1.831   0.973  10.491 -0.4886 -0.0550 -0.0255
 8294SOL    HW236345   1.871   0.843  10.413 -1.0124  1.0574 -0.8531
 8295SOL     OW36346   2.947   0.820  17.444  0.5301 -0.3541  0.0049
 8295SOL    HW136347   2.954   0.734  17.485  0.8843 -1.2377 -1.9521
 8295SOL    HW236348   2.932   0.792  17.354 -1.6754  0.2968  0.1874
 8296SOL     OW36349   1.709   1.814  15.008  0.2948 -0.4635 -0.2428
 8296SOL    HW136350   1.671   1.809  14.921 -1.8344 -1.5754  0.7362
 8296SOL    HW236351   1.682   1.906  15.019 -0.2283 -0.6859  0.3919
 8297SOL     OW36352   4.335   0.078   7.687  0.9340 -0.0717  0.6532
 8297SOL    HW136353   4.260   0.123   7.647  1.8356 -0.3940 -1.3988
 8297SOL    HW236354   4.309   0.033   7.767 -0.6672 -0.0207  0.1602
 8298SOL     OW36355   3.104   0.705   5.395 -0.3014  0.0829 -0.3521
 8298SOL    HW136356   3.027   0.737   5.441  0.0133  0.4562 -0.0875
 8298SOL    HW236357   3.089   0.745   5.309 -4.5401  2.4897  1.5355
 8299SOL     OW36358   1.913   1.567   8.090  0.9049 -0.0314  0.1319
 8299SOL    HW136359   1.955   1.511   8.024 -0.1669  0.7467 -1.2137
 8299SOL    HW236360   1.944   1.656   8.074  1.3043 -0.3233 -0.7963
 8300SOL     OW36361   2.305   0.213  10.794 -0.0937  0.3328 -0.1237
 8300SOL    HW136362   2.341   0.232  10.881 -2.8434  0.0323  1.1030
 8300SOL    HW236363   2.213   0.201  10.818  0.1574 -1.1299  0.0931
 8301SOL     OW36364   1.471   0.746   3.559  0.0107 -0.7874  0.4449
 8301SOL    HW136365   1.409   0.788   3.500  1.8092  0.3814 -0.6339
 8301SOL    HW236366   1.411   0.696   3.613  1.8664 -1.3154  2.0323
 8302SOL     OW36367   1.740   0.233   2.347  0.3409 -0.4010  0.4821
 8302SOL    HW136368   1.689   0.152   2.352 -0.6721  0.0530 -3.0601
 8302SOL    HW236369   1.675   0.300   2.326  2.1920  1.0173 -0.7270
 8303SOL     OW36370   1.132   2.470   9.179  0.3086 -0.3412  0.3604
 8303SOL    HW136371   1.088   2.431   9.104  0.7058 -2.4412  1.1956
 8303SOL    HW236372   1.174   2.396   9.224  1.8233  0.4729  0.2574
 8304SOL     OW36373   1.845   1.728  17.625  0.0152  0.3190  0.9324
 8304SOL    HW136374   1.800   1.812  17.638 -2.8725 -1.3072  1.5624
 8304SOL    HW236375   1.933   1.755  17.652  0.1160  1.6426 -0.7732
 8305SOL     OW36376   2.330   3.328   5.478 -0.5611  0.5900  0.0956
 8305SOL    HW136377   2.249   3.374   5.501 -0.7935 -0.3088  1.0784
 8305SOL    HW236378   2.373   3.317   5.563 -1.8556  1.7990  0.9199
 8306SOL     OW36379   3.426   2.353   8.935  0.1316  0.1950 -0.2045
 8306SOL    HW136380   3.519   2.330   8.938 -0.0254 -0.7078 -2.1723
 8306SOL    HW236381   3.420   2.433   8.988  1.7981  0.4571 -0.4024
 8307SOL     OW36382   2.258   2.815   2.398  0.1765  0.5825  0.4247
 8307SOL    HW136383   2.255   2.897   2.348  2.7479  2.1717  2.8500
 8307SOL    HW236384   2.352   2.803   2.412 -0.2646 -3.4063 -0.1275
 8308SOL     OW36385   3.764   3.817   7.964  0.4947 -0.4675  0.2151
 8308SOL    HW136386   3.680   3.778   7.987 -0.2022 -0.8172 -2.8813
 8308SOL    HW236387   3.780   3.845   8.054 -1.0127 -0.1228  0.3777
 8309SOL     OW36388   2.618   3.526   1.905  0.0045 -0.6975 -0.0540
 8309SOL    HW136389   2.682   3.458   1.922 -0.3720 -0.8285  0.8301
 8309SOL    HW236390   2.537   3.476   1.913 -1.6200  1.8135 -0.5474
 8310SOL     OW36391   0.049   0.205   3.001 -0.0957 -0.2202 -0.1786
 8310SOL    HW136392   4.722   0.269   3.051  0.7134  0.7792 -0.6269
 8310SOL    HW236393   0.136   0.218   3.039 -0.0650 -1.2029  0.0747
 8311SOL     OW36394   4.266   3.668  13.394  0.1981 -0.1248  0.4927
 8311SOL    HW136395   4.240   3.679  13.302  0.8663 -0.2580  0.2817
 8311SOL    HW236396   4.329   3.738  13.413 -1.2513  1.0648  0.8624
 8312SOL     OW36397   3.583   4.642   6.528  0.1189 -0.0740 -0.0958
 8312SOL    HW136398   3.506   4.588   6.544  0.7025 -0.7039  0.5880
 8312SOL    HW236399   3.664   4.593   6.516 -0.5836 -1.2384 -0.0419
 8313SOL     OW36400   3.128   1.568   5.640  0.2731 -0.1699 -0.7208
 8313SOL    HW136401   3.064   1.544   5.706  0.4826  0.3985 -0.3056
 8313SOL    HW236402   3.091   1.529   5.560  0.2275  1.1826 -1.3700
 8314SOL     OW36403   0.054   2.601   0.717 -0.5318  0.2756  0.3398
 8314SOL    HW136404   0.085   2.618   0.629  2.0576 -1.5455  0.8857
 8314SOL    HW236405   4.688   2.635   0.721 -0.7137 -0.0428 -1.1299
 8315SOL     OW36406   2.483   1.981  12.242  0.1364 -0.1488 -0.4603
 8315SOL    HW136407   2.410   2.039  12.223  0.5392 -0.1745 -2.0648
 8315SOL    HW236408   2.508   1.949  12.155  0.0075  0.8387 -0.8592
 8316SOL     OW36409   1.787   3.271  12.849  0.0209 -0.0076 -0.2505
 8316SOL    HW136410   1.871   3.311  12.829 -0.2616  0.0287 -1.3547
 8316SOL    HW236411   1.748   3.256  12.763 -0.1431  2.3754 -0.5874
 8317SOL     OW36412   4.088   3.851   7.543 -0.5582 -0.3005 -0.3034
 8317SOL    HW136413   4.045   3.836   7.627  0.4004 -0.2703  0.1900
 8317SOL    HW236414   4.105   3.757   7.531 -2.4343 -0.3325 -2.8671
 8318SOL     OW36415   1.296   2.349  11.071  1.0094 -0.4037  0.1033
 8318SOL    HW136416   1.246   2.334  11.151  1.0636 -1.2895 -0.0335
 8318SOL    HW236417   1.223   2.369  11.012  0.1288  1.4379  1.8173
 8319SOL     OW36418   2.661   4.083  13.440  0.4058 -0.3675  0.3236
 8319SOL    HW136419   2.609   4.085  13.360 -1.0648  2.0678  1.3435
 8319SOL    HW236420   2.724   4.022  13.402  0.2417 -0.9791  1.0277
 8320SOL     OW36421   1.793   1.015  14.180  0.0423 -0.1999  0.2366
 8320SOL    HW136422   1.754   0.945  14.233 -1.6757  0.6815  0.1363
 8320SOL    HW236423   1.727   1.028  14.111  0.5315  0.4072 -0.1105
 8321SOL     OW36424   0.857   3.621  11.820  0.0740  0.1744  0.1884
 8321SOL    HW136425   0.879   3.689  11.757 -1.5180  0.7751  0.2832
 8321SOL    HW236426   0.774   3.592  11.783  0.8940 -0.8576 -0.8378
 8322SOL     OW36427   0.836   4.593   7.797 -0.1681 -0.2444  0.3130
 8322SOL    HW136428   0.859   4.681   7.828 -0.8499 -0.4010  1.2321
 8322SOL    HW236429   0.754   4.573   7.841 -0.0788 -0.6412  0.2962
 8323SOL     OW36430   2.928   0.314  11.429  0.4830  0.3185 -0.0612
 8323SOL    HW136431   2.969   0.335  11.513 -0.0083 -1.0730  0.5399
 8323SOL    HW236432   2.989   0.364  11.376 -0.2447  0.5488 -0.6812
 8324SOL     OW36433   0.250   2.750   5.725 -0.1278  0.2609  0.4687
 8324SOL    HW136434   0.241   2.664   5.764  1.3207  0.6810  1.7277
 8324SOL    HW236435   0.159   2.777   5.718 -0.1877 -0.5049 -1.6572
 8325SOL     OW36436   0.691   3.749   1.490  0.7144 -0.7613 -0.2898
 8325SOL    HW136437   0.680   3.709   1.404 -2.3577 -0.0801 -0.1989
 8325SOL    HW236438   0.680   3.840   1.464  2.0406 -1.1779 -2.3330
 8326SOL     OW36439   0.531   1.264   7.055  0.2596  0.2599 -0.0042
 8326SOL    HW136440   0.562   1.175   7.074 -0.8804 -0.1288  0.0706
 8326SOL    HW236441   0.589   1.307   7.117  0.6733 -0.3050  0.0085
 8327SOL     OW36442   1.649   2.092  15.002  0.0241  0.2492 -0.6527
 8327SOL    HW136443   1.568   2.068  15.048 -0.5234  2.0356 -0.6672
 8327SOL    HW236444   1.715   2.092  15.072  0.2502 -1.4640 -0.8779
 8328SOL     OW36445   2.633   2.529   4.384  0.0512  0.0886 -0.0939
 8328SOL    HW136446   2.668   2.450   4.341  3.3323  0.9877  0.9934
 8328SOL    HW236447   2.550   2.543   4.337  0.4974 -1.0481 -1.2296
 8329SOL     OW36448   0.373   0.695  14.097 -0.1636 -0.1309 -0.2122
 8329SOL    HW136449   0.448   0.733  14.052  0.1786  1.5942  1.8484
 8329SOL    HW236450   0.326   0.655  14.023  1.1899 -1.9325 -0.0862
 8330SOL     OW36451   2.237   1.501  12.972  0.2554 -0.0417 -0.2365
 8330SOL    HW136452   2.301   1.429  12.971 -0.3206 -0.5429 -1.0721
 8330SOL    HW236453   2.258   1.545  13.054  2.3274  0.4468 -1.0353
 8331SOL     OW36454   3.913   1.160   3.042  0.2045  0.4368  0.0933
 8331SOL    HW136455   4.001   1.171   3.006  0.2892 -0.6988 -0.0586
 8331SOL    HW236456   3.858   1.174   2.966 -0.6295  2.4348  1.0468
 8332SOL     OW36457   3.798   3.614   6.856 -0.3501  0.1525  0.0938
 8332SOL    HW136458   3.770   3.634   6.767 -0.5126 -0.2717  0.0508
 8332SOL    HW236459   3.792   3.702   6.892 -1.6149  0.4396 -0.8021
 8333SOL     OW36460   4.182   1.142   8.180 -0.4133 -0.1719 -0.3735
 8333SOL    HW136461   4.155   1.062   8.224  1.9155 -0.0888  1.1669
 8333SOL    HW236462   4.212   1.108   8.095 -0.9317 -0.5656 -0.3976
 8334SOL     OW36463   4.034   4.637   2.252  0.3192 -0.0102 -0.2592
 8334SOL    HW136464   4.030   4.560   2.308 -0.0248 -0.8755 -1.4649
 8334SOL    HW236465   3.940   4.649   2.239  0.1604  0.3520  1.2243
 8335SOL     OW36466   0.167   1.697   6.259 -0.4773  0.5425 -0.5346
 8335SOL    HW136467   0.129   1.782   6.279  0.6336  0.8085  0.4525
 8335SOL    HW236468   0.104   1.640   6.303 -1.4884  1.0812 -1.2865
 8336SOL     OW36469   1.907   3.167   8.519  0.7296 -0.2303  0.4682
 8336SOL    HW136470   1.891   3.079   8.484  0.9044  0.1669 -0.6137
 8336SOL    HW236471   1.877   3.145   8.608 -1.2331 -1.3166 -0.4530
 8337SOL     OW36472   0.491   0.965  11.282  0.1959 -0.2893  0.6089
 8337SOL    HW136473   0.566   0.974  11.341  1.0820  0.9442 -0.7130
 8337SOL    HW236474   0.419   0.957  11.346 -0.5585  1.1076 -0.0695
 8338SOL     OW36475   3.267   2.206   6.367 -0.4576 -0.2690 -0.8424
 8338SOL    HW136476   3.325   2.159   6.307  1.2901  1.1043 -0.2355
 8338SOL    HW236477   3.270   2.298   6.340 -0.5609 -0.6925 -2.3533
 8339SOL     OW36478   2.815   2.464   5.352  0.1493  0.0301  0.7051
 8339SOL    HW136479   2.886   2.511   5.395  1.3529 -0.6066 -0.5858
 8339SOL    HW236480   2.769   2.541   5.319  0.1505 -2.0120 -4.1429
 8340SOL     OW36481   2.082   4.106   7.216 -0.1082 -0.1377  0.5855
 8340SOL    HW136482   2.167   4.080   7.251  0.5173 -1.6688 -2.0500
 8340SOL    HW236483   2.022   4.095   7.290 -1.1165 -0.8832 -0.3287
 8341SOL     OW36484   0.657   1.974   2.841  0.2109 -0.0305  0.0611
 8341SOL    HW136485   0.711   1.986   2.920  0.2844  0.5991 -0.0815
 8341SOL    HW236486   0.682   1.883   2.827  0.8096  0.0512  0.5742
 8342SOL     OW36487   3.462   1.562   1.673 -0.2098  0.3553 -0.3733
 8342SOL    HW136488   3.472   1.507   1.751  2.9813 -2.0521 -2.4712
 8342SOL    HW236489   3.455   1.488   1.613 -0.5852 -2.5652  3.2039
 8343SOL     OW36490   1.543   0.498   9.926 -0.6705 -0.9040  0.1546
 8343SOL    HW136491   1.620   0.468   9.878  0.2689  1.8910 -0.0375
 8343SOL    HW236492   1.580   0.567   9.980 -1.0383 -0.7259  0.1751
 8344SOL     OW36493   1.537   2.971   2.277  0.0411 -0.1707  0.0450
 8344SOL    HW136494   1.562   2.922   2.199 -1.6776 -0.2872 -0.4386
 8344SOL    HW236495   1.462   2.925   2.315 -1.5830 -0.4571 -3.5221
 8345SOL     OW36496   1.617   3.789   2.950 -0.2134  0.1117 -1.1179
 8345SOL    HW136497   1.608   3.697   2.974  0.3343  0.0363 -1.2161
 8345SOL    HW236498   1.559   3.845   3.003  1.1617 -0.6081  1.1281
 8346SOL     OW36499   0.758   1.818  10.805 -0.2097  0.0519  0.5441
 8346SOL    HW136500   0.852   1.826  10.821 -0.4103 -3.1379  3.2014
 8346SOL    HW236501   0.751   1.864  10.721  2.1671 -0.4018  0.0880
 8347SOL     OW36502   3.977   3.510   2.114 -0.1725  0.1611  0.0786
 8347SOL    HW136503   4.011   3.599   2.117  0.3009  0.0177 -0.8760
 8347SOL    HW236504   4.023   3.476   2.191 -2.2029  0.0896  1.2666
 8348SOL     OW36505   2.991   2.957  15.344  0.5649 -0.2237 -0.2646
 8348SOL    HW136506   2.933   3.020  15.386  2.8207  1.4154  0.3815
 8348SOL    HW236507   3.017   2.907  15.421 -2.9577  1.6524  2.0739
 8349SOL     OW36508   0.661   0.238   4.540 -0.0146  0.2434 -0.0331
 8349SOL    HW136509   0.706   0.164   4.579  0.8342 -0.2442 -1.9474
 8349SOL    HW236510   0.710   0.242   4.457 -1.4895 -1.8177 -1.0209
 8350SOL     OW36511   0.315   3.619   1.669 -0.0353  0.2288 -0.1029
 8350SOL    HW136512   0.242   3.667   1.630  0.8197  0.9350 -0.8331
 8350SOL    HW236513   0.306   3.529   1.640 -0.7149  0.0757  0.5881
 8351SOL     OW36514   1.404   1.281   7.568 -0.3603  0.0557 -0.3414
 8351SOL    HW136515   1.396   1.356   7.509  1.3153 -0.2352 -0.9298
 8351SOL    HW236516   1.458   1.317   7.639  1.4721  1.8606 -2.6756
 8352SOL     OW36517   2.059   2.347  14.489 -0.1638 -0.3273  0.6244
 8352SOL    HW136518   2.139   2.296  14.478  0.3078  0.1684  1.6908
 8352SOL    HW236519   2.059   2.378  14.580  0.2235 -0.9956  0.8554
 8353SOL     OW36520   1.982   2.955   2.918 -0.0490  0.0190  0.2316
 8353SOL    HW136521   1.953   2.997   2.999 -0.7156  3.1635 -1.6163
 8353SOL    HW236522   2.068   2.994   2.905 -0.1705  1.1908  3.0392
 8354SOL     OW36523   1.861   2.696   4.989 -0.5971  0.6807  0.0482
 8354SOL    HW136524   1.817   2.649   5.059  1.5886  1.0198  1.6198
 8354SOL    HW236525   1.861   2.784   5.028 -0.1431  1.0986 -0.8858
 8355SOL     OW36526   1.774   4.710   8.150 -0.0209  0.0678 -0.2210
 8355SOL    HW136527   1.735   4.625   8.128 -0.5163  0.0320  0.7830
 8355SOL    HW236528   1.696   0.033   8.181 -0.8190 -0.2337 -1.7981
 8356SOL     OW36529   1.711   3.663   4.164 -0.2936  0.0523  0.1353
 8356SOL    HW136530   1.777   3.700   4.222  0.8167  1.8089 -2.2815
 8356SOL    HW236531   1.628   3.684   4.207  0.5739  3.2826  0.2054
 8357SOL     OW36532   4.486   3.963   4.464 -0.2858 -0.1146  0.1398
 8357SOL    HW136533   4.480   4.029   4.395 -0.8942  1.0855  1.3483
 8357SOL    HW236534   4.413   3.984   4.521 -1.0825  0.3950 -1.0549
 8358SOL     OW36535   2.655   0.700  14.482 -0.2601  0.6692 -0.4709
 8358SOL    HW136536   2.722   0.766  14.462 -2.9811  3.3785 -0.4956
 8358SOL    HW236537   2.630   0.737  14.566  1.8532 -2.4763  1.5444
 8359SOL     OW36538   2.360   0.331   2.683  0.0755  0.8365  0.0697
 8359SOL    HW136539   2.353   0.341   2.588  0.1708 -1.7141 -0.2082
 8359SOL    HW236540   2.298   0.397   2.714 -0.2475 -0.0270  1.2785
 8360SOL     OW36541   1.588   2.722   0.986 -0.2727 -0.1835  0.6103
 8360SOL    HW136542   1.580   2.792   1.050 -1.0219  0.1037  0.1961
 8360SOL    HW236543   1.660   2.677   1.030  2.1020  1.8950 -1.1772
 8361SOL     OW36544   2.795   3.777   4.533 -0.4315 -0.8332 -0.3102
 8361SOL    HW136545   2.815   3.741   4.619  2.5760 -1.6727 -1.3575
 8361SOL    HW236546   2.881   3.808   4.503 -0.7688 -0.1123 -0.5226
 8362SOL     OW36547   3.048   2.763   1.932 -0.9095  0.0012 -0.1661
 8362SOL    HW136548   3.053   2.676   1.972  0.1285  0.2050  0.1257
 8362SOL    HW236549   3.055   2.810   2.015  1.0865  1.1723 -1.0115
 8363SOL     OW36550   2.474   3.750   4.270 -0.2257  0.2273  0.2375
 8363SOL    HW136551   2.429   3.739   4.187  2.8994  0.8013 -1.5174
 8363SOL    HW236552   2.534   3.822   4.256  0.5445 -0.2179  1.2312
 8364SOL     OW36553   2.008   0.555  12.119  0.3919 -0.0955  0.6166
 8364SOL    HW136554   1.984   0.463  12.109 -1.6158  0.4307  0.4836
 8364SOL    HW236555   1.933   0.592  12.167  0.6960  0.2333  0.8347
 8365SOL     OW36556   1.919   1.474   5.217 -0.6268 -0.3055 -0.1938
 8365SOL    HW136557   1.887   1.565   5.216 -0.1616 -0.1663 -1.9369
 8365SOL    HW236558   1.942   1.474   5.310  0.9289 -0.3585 -0.5710
 8366SOL     OW36559   1.903   1.838   8.310  0.6118 -0.2700  1.1720
 8366SOL    HW136560   1.873   1.887   8.234  0.5424  2.1690  2.7777
 8366SOL    HW236561   1.990   1.808   8.283  0.1226  0.4177 -1.2011
 8367SOL     OW36562   1.532   0.482  10.669  0.2032  0.1713  0.3285
 8367SOL    HW136563   1.565   0.552  10.725 -3.2289  0.5822  1.8440
 8367SOL    HW236564   1.600   0.476  10.603 -0.2085  1.0013 -0.1636
 8368SOL     OW36565   1.921   3.153   8.883 -0.0071  0.0536  0.7736
 8368SOL    HW136566   1.834   3.117   8.867  0.9063 -1.5140 -0.6121
 8368SOL    HW236567   1.935   3.122   8.973 -2.5008 -2.5952  0.2606
 8369SOL     OW36568   1.536   1.495  16.644 -0.4081 -0.1295  0.7552
 8369SOL    HW136569   1.535   1.575  16.591 -2.0544 -0.4970  0.2302
 8369SOL    HW236570   1.477   1.521  16.715 -1.1632  0.4006 -0.0702
 8370SOL     OW36571   3.495   3.317  11.501 -0.0406  0.4102  0.0659
 8370SOL    HW136572   3.458   3.252  11.442 -0.0723  0.8791 -0.4309
 8370SOL    HW236573   3.424   3.320  11.565 -0.9138  0.1707 -0.9017
 8371SOL     OW36574   3.408   2.462   9.931  0.5720 -0.0248  0.5246
 8371SOL    HW136575   3.408   2.532   9.865 -2.8682 -1.4940 -1.0246
 8371SOL    HW236576   3.323   2.425   9.910  1.5446 -2.1537  0.4076
 8372SOL     OW36577   4.327   0.902   7.283 -0.0359 -0.0600 -0.6174
 8372SOL    HW136578   4.348   0.974   7.342 -0.2100 -0.7354  0.2764
 8372SOL    HW236579   4.296   0.946   7.204 -1.1292  1.3692  0.6077
 8373SOL     OW36580   4.190   1.253   0.685 -0.2649  0.2573 -0.7427
 8373SOL    HW136581   4.193   1.197   0.607 -1.6076 -0.5757 -0.1978
 8373SOL    HW236582   4.250   1.325   0.665 -0.9487  0.8588 -0.6176
 8374SOL     OW36583   4.011   2.731  10.789  0.1816  0.0300  0.2352
 8374SOL    HW136584   3.929   2.770  10.757 -0.4641 -0.3863  1.3738
 8374SOL    HW236585   3.976   2.662  10.846 -0.6591  0.4132  0.1902
 8375SOL     OW36586   3.758   0.773   5.160 -0.1119 -0.0872 -0.1441
 8375SOL    HW136587   3.714   0.858   5.154 -1.6440 -0.6492  3.4363
 8375SOL    HW236588   3.719   0.770   5.247  0.5102  0.0067  0.1412
 8376SOL     OW36589   0.198   0.139   3.365 -0.4921 -0.3658 -0.1691
 8376SOL    HW136590   0.258   0.172   3.432 -0.4624  0.4776 -0.6053
 8376SOL    HW236591   0.194   0.048   3.392 -2.3200 -0.2354  0.0155
 8377SOL     OW36592   4.209   4.272  12.414 -0.1862 -0.0003  0.6260
 8377SOL    HW136593   4.170   4.192  12.450  1.2891 -1.0392 -0.0566
 8377SOL    HW236594   4.143   4.324  12.370  0.0567  0.5791  0.9322
 8378SOL     OW36595   3.549   2.515   1.021  0.3273 -0.1337  0.1021
 8378SOL    HW136596   3.492   2.438   1.020  1.5695 -1.0439 -0.4179
 8378SOL    HW236597   3.554   2.551   0.933 -0.4983  1.0794  0.5495
 8379SOL     OW36598   4.009   2.198   7.627 -0.3906  0.4165  0.8427
 8379SOL    HW136599   3.928   2.213   7.677  0.0280  2.2506  0.9561
 8379SOL    HW236600   3.978   2.251   7.554 -2.1333  0.8766  1.9026
 8380SOL     OW36601   4.418   2.107   8.187 -0.0532 -0.3087  0.1260
 8380SOL    HW136602   4.332   2.149   8.178  0.9428  1.8079  0.5299
 8380SOL    HW236603   4.405   2.013   8.198  3.2463 -0.4469  2.8755
 8381SOL     OW36604   0.924   3.437   8.447 -0.6995  0.0548 -0.4645
 8381SOL    HW136605   0.973   3.428   8.529 -1.1148  0.6295 -0.1559
 8381SOL    HW236606   0.849   3.493   8.469 -1.8108 -1.1579 -1.1223
 8382SOL     OW36607   4.182   4.070   4.126 -0.0570 -0.3512 -0.2539
 8382SOL    HW136608   4.263   4.119   4.117  0.2154 -0.4152  1.8012
 8382SOL    HW236609   4.120   4.141   4.143  0.4442  0.5173 -2.1046
 8383SOL     OW36610   3.186   2.730  12.235  0.1740 -0.4823 -0.0939
 8383SOL    HW136611   3.274   2.768  12.236  0.2450 -0.7420  3.2748
 8383SOL    HW236612   3.165   2.721  12.328 -1.1893  1.3195 -0.2181
 8384SOL     OW36613   3.780   1.408   8.116 -0.0565 -0.3776 -0.1973
 8384SOL    HW136614   3.787   1.322   8.159  2.2111  0.8200  1.8303
 8384SOL    HW236615   3.719   1.458   8.170 -0.1868  0.3259 -1.0118
 8385SOL     OW36616   0.223   2.151   7.114  0.3964  0.3087 -0.5691
 8385SOL    HW136617   0.268   2.196   7.186  1.5503  0.3908 -1.3353
 8385SOL    HW236618   0.156   2.214   7.088 -1.3891 -0.6386  1.7396
 8386SOL     OW36619   3.178   4.534   8.152 -0.2658  0.4071  0.7777
 8386SOL    HW136620   3.149   4.514   8.241  0.2276 -2.6201  0.2657
 8386SOL    HW236621   3.104   4.491   8.110  0.0921 -0.2758  0.8377
 8387SOL     OW36622   2.468   3.995   2.359  0.7488 -0.1365  0.1417
 8387SOL    HW136623   2.473   3.984   2.264  0.3024  1.1644 -0.0346
 8387SOL    HW236624   2.408   4.070   2.364 -0.2947 -0.8311 -2.2060
 8388SOL     OW36625   3.825   0.029   4.645 -0.1548  0.0616  0.1528
 8388SOL    HW136626   3.846   4.660   4.624 -2.1755 -0.4108  0.2537
 8388SOL    HW236627   3.882   0.079   4.587  2.0160 -0.8353  1.5003
 8389SOL     OW36628   1.144   1.310  10.964 -0.1224 -0.0660  0.1496
 8389SOL    HW136629   1.088   1.368  10.912  1.6575  0.0813 -1.5511
 8389SOL    HW236630   1.108   1.308  11.053  2.3596 -0.3305  1.1220
 8390SOL     OW36631   1.372   1.609   4.965  0.0860  1.2427  0.3776
 8390SOL    HW136632   1.310   1.641   4.900 -0.1047  0.6505  0.2681
 8390SOL    HW236633   1.458   1.616   4.924 -0.8240 -2.2264 -2.0653
 8391SOL     OW36634   2.930   1.308   7.070  0.6595  1.0805 -0.7514
 8391SOL    HW136635   2.846   1.272   7.042  0.0252  2.7050 -0.9428
 8391SOL    HW236636   2.922   1.286   7.163 -0.1420  0.5101 -0.9601
 8392SOL     OW36637   0.797   2.457  16.701  0.7463 -0.0321 -0.0887
 8392SOL    HW136638   0.710   2.423  16.682  1.3312 -1.7176  0.2949
 8392SOL    HW236639   0.849   2.377  16.707  1.0032  0.1538  0.1527
 8393SOL     OW36640   1.999   0.521   3.321  0.8534  0.4371  0.6710
 8393SOL    HW136641   2.055   0.444   3.335  0.2339 -0.3145 -0.9736
 8393SOL    HW236642   1.931   0.502   3.386 -1.1108 -0.1275 -1.5491
 8394SOL     OW36643   4.261   2.620   4.118  0.1722  0.6263 -0.1809
 8394SOL    HW136644   4.336   2.644   4.171  0.9565 -1.9566 -0.1643
 8394SOL    HW236645   4.226   2.708   4.102  0.4423  0.6743 -0.5174
 8395SOL     OW36646   2.192   1.084   1.115  1.0317 -0.6454 -0.1907
 8395SOL    HW136647   2.268   1.051   1.164 -0.5263 -0.7271  2.1927
 8395SOL    HW236648   2.122   1.030   1.152 -0.7618  2.1444  0.4564
 8396SOL     OW36649   2.522   0.535   4.109  0.0350 -0.0448  0.0573
 8396SOL    HW136650   2.477   0.530   4.193 -0.9838 -2.0852 -0.5872
 8396SOL    HW236651   2.613   0.535   4.138  0.4176  1.7369 -1.1693
 8397SOL     OW36652   3.974   3.031   4.010  0.1619 -0.4121  0.0430
 8397SOL    HW136653   3.925   2.950   4.023  0.8146 -0.9962 -1.1176
 8397SOL    HW236654   4.058   2.993   4.034  0.0022  0.6248  2.2723
 8398SOL     OW36655   0.257   1.430   0.533 -0.2428  0.9159  0.3218
 8398SOL    HW136656   0.336   1.379   0.517 -0.5818 -0.1609  2.1312
 8398SOL    HW236657   0.258   1.480   0.451  1.5253  1.4076  0.6623
 8399SOL     OW36658   3.504   2.870   9.111  0.5295 -0.0510 -0.1025
 8399SOL    HW136659   3.448   2.943   9.084 -1.8218 -0.6616  3.0612
 8399SOL    HW236660   3.457   2.844   9.191 -0.7858  0.5980 -0.6651
 8400SOL     OW36661   1.531   4.058   5.728  0.6399  0.0265  0.0910
 8400SOL    HW136662   1.576   4.141   5.716  1.7635 -0.7752 -1.1741
 8400SOL    HW236663   1.442   4.076   5.696  0.9636 -1.0130 -1.3922
 8401SOL     OW36664   1.889   2.689   4.699  0.1021  0.5599  0.2314
 8401SOL    HW136665   1.982   2.672   4.682 -0.4224  0.3923 -2.3704
 8401SOL    HW236666   1.888   2.691   4.795  0.1311 -1.8813  0.2810
 8402SOL     OW36667   2.243   4.285   4.285 -0.1528  0.2860  0.3116
 8402SOL    HW136668   2.276   4.225   4.353 -0.2787  0.4691  0.5360
 8402SOL    HW236669   2.313   4.348   4.266  0.0978 -0.4520 -1.2069
 8403SOL     OW36670   4.640   4.206   5.562 -0.0788  0.1766  0.5324
 8403SOL    HW136671   4.546   4.204   5.541 -0.0149 -0.8514  0.3652
 8403SOL    HW236672   4.670   4.119   5.537  0.9860  1.0069 -1.0862
 8404SOL     OW36673   4.573   2.316  12.082  0.1421  0.4700 -0.1015
 8404SOL    HW136674   4.484   2.332  12.053  0.4251  2.4572  0.1377
 8404SOL    HW236675   4.609   2.260  12.013 -1.1798 -0.2571 -0.1960
 8405SOL     OW36676   0.231   0.050   7.389 -0.5787  0.8902  0.3697
 8405SOL    HW136677   0.253   0.072   7.298 -0.8863 -1.9216 -0.3892
 8405SOL    HW236678   0.304   0.085   7.440 -1.5772  2.6315  0.6082
 8406SOL     OW36679   2.443   2.950  13.111  0.6209 -0.4454 -0.2569
 8406SOL    HW136680   2.384   2.886  13.151  2.5033 -2.0353 -0.0252
 8406SOL    HW236681   2.515   2.948  13.173  0.4081  0.5983  0.0221
 8407SOL     OW36682   1.736   0.665   0.781  0.0361  0.7115 -0.6299
 8407SOL    HW136683   1.779   0.616   0.711  1.3818 -0.3315  0.9184
 8407SOL    HW236684   1.665   0.604   0.798  1.9842 -1.3748  0.0562
 8408SOL     OW36685   1.421   1.888   1.081 -0.4241  0.6960 -0.2442
 8408SOL    HW136686   1.341   1.920   1.123  0.1652  0.1689  1.2646
 8408SOL    HW236687   1.482   1.888   1.154 -1.4984 -1.0463  0.6519
 8409SOL     OW36688   2.704   2.283   4.291  0.1042  0.9431  0.2049
 8409SOL    HW136689   2.685   2.286   4.197  0.8492  1.0245  0.0547
 8409SOL    HW236690   2.797   2.261   4.295  0.6013  3.2244  1.0953
 8410SOL     OW36691   0.780   0.486  13.345 -0.0393 -0.4507 -0.1176
 8410SOL    HW136692   0.725   0.502  13.422  3.4207  0.5894  2.1366
 8410SOL    HW236693   0.707   0.492  13.284  1.3427 -0.6898 -1.7836
 8411SOL     OW36694   0.644   1.043   3.046  0.2749  0.1363 -0.3901
 8411SOL    HW136695   0.685   1.116   3.093 -1.1097  0.6908 -0.0406
 8411SOL    HW236696   0.646   0.979   3.117 -2.3487  0.4033 -0.0923
 8412SOL     OW36697   3.939   2.241  16.167  0.2452 -0.1507  0.5010
 8412SOL    HW136698   3.995   2.226  16.243 -0.0808 -1.3744  0.5093
 8412SOL    HW236699   3.950   2.163  16.113 -1.3682 -1.0056  1.4106
 8413SOL     OW36700   3.441   4.521  11.774 -0.4478 -0.4710  0.5134
 8413SOL    HW136701   3.389   4.590  11.814 -2.7160 -0.8800 -1.6985
 8413SOL    HW236702   3.377   4.450  11.787 -0.3575 -0.5946  0.2825
 8414SOL     OW36703   0.643   4.107   7.173 -0.0795  0.1103 -0.0114
 8414SOL    HW136704   0.691   4.151   7.103  0.5614  1.5104  1.2913
 8414SOL    HW236705   0.614   4.031   7.122 -2.0287  0.1033  1.0944
 8415SOL     OW36706   2.016   3.715   2.188  0.3674 -0.0431  0.8366
 8415SOL    HW136707   2.018   3.796   2.137 -0.2073  0.4496  1.5802
 8415SOL    HW236708   2.038   3.759   2.270 -0.6541  0.1773  1.0023
 8416SOL     OW36709   1.197   1.778  16.104 -0.4880 -0.9025  0.3126
 8416SOL    HW136710   1.189   1.683  16.096  0.7416 -0.7898 -2.3029
 8416SOL    HW236711   1.208   1.805  16.013  2.6917 -1.8520  0.4005
 8417SOL     OW36712   1.959   0.764   3.609 -0.6052  0.2471  0.6330
 8417SOL    HW136713   1.921   0.677   3.611  0.5678 -0.3060 -0.7818
 8417SOL    HW236714   2.049   0.739   3.630  0.5963  2.4873 -1.7922
 8418SOL     OW36715   3.135   4.599   1.101 -0.1999  0.6186 -0.1075
 8418SOL    HW136716   3.221   4.570   1.071 -0.0615  2.8116 -1.8041
 8418SOL    HW236717   3.108   4.651   1.025  0.2538  1.7536  0.5044
 8419SOL     OW36718   0.384   0.748   6.629  0.0393  0.0678  0.1342
 8419SOL    HW136719   0.385   0.844   6.627  1.4895  0.0164 -1.6086
 8419SOL    HW236720   0.338   0.727   6.547 -0.5328 -0.7318  0.6627
 8420SOL     OW36721   1.855   1.757   3.383 -0.1336  0.6168 -0.1314
 8420SOL    HW136722   1.947   1.782   3.392 -0.2778  0.7867  0.8687
 8420SOL    HW236723   1.816   1.786   3.466 -0.0398  0.1258  0.0822
 8421SOL     OW36724   4.723   1.084  17.651  0.1866 -0.1646  0.0065
 8421SOL    HW136725   4.677   1.082   0.040  2.1670  0.6607  1.1212
 8421SOL    HW236726   0.008   0.990  17.633  1.8555  0.2978 -1.6483
 8422SOL     OW36727   3.431   4.475  12.760 -0.5453 -0.8390 -0.3948
 8422SOL    HW136728   3.361   4.519  12.711  0.3662 -1.6860 -2.4411
 8422SOL    HW236729   3.504   4.492  12.701  0.1791  0.2052  0.7864
 8423SOL     OW36730   2.959   4.049   6.509 -0.2140 -0.2109 -0.0713
 8423SOL    HW136731   3.016   3.972   6.522 -2.1806 -1.6077  0.2906
 8423SOL    HW236732   2.895   4.028   6.577 -1.6663  1.4764 -0.9501
 8424SOL     OW36733   0.985   2.734  16.138  0.0676 -0.0879 -0.6329
 8424SOL    HW136734   0.997   2.790  16.214  0.8222  0.0987 -0.8969
 8424SOL    HW236735   1.071   2.724  16.097  0.8877  0.0336  1.0736
 8425SOL     OW36736   1.001   2.462  13.397  0.0573  0.2380 -0.6123
 8425SOL    HW136737   0.932   2.401  13.423 -0.1489  0.8494  0.2659
 8425SOL    HW236738   0.992   2.536  13.457 -0.2809 -1.5527  1.5425
 8426SOL     OW36739   1.383   3.566   9.515 -0.0162  0.1437  0.0377
 8426SOL    HW136740   1.364   3.645   9.464  2.1211  1.5813  1.4744
 8426SOL    HW236741   1.478   3.577   9.522 -0.1285  1.2245 -0.0022
 8427SOL     OW36742   0.694   3.344   6.006 -0.1009 -0.3201  0.5544
 8427SOL    HW136743   0.695   3.434   5.974  1.2133 -0.4924  0.1039
 8427SOL    HW236744   0.633   3.297   5.949 -0.5145 -0.6944  1.3103
 8428SOL     OW36745   3.628   0.680  15.269  0.1326 -0.6054  0.4310
 8428SOL    HW136746   3.653   0.757  15.218 -0.8677  0.0974  1.0194
 8428SOL    HW236747   3.616   0.614  15.200 -0.2318 -0.2638  0.1629
 8429SOL     OW36748   3.031   0.707   6.420 -0.0083  0.1792 -0.0620
 8429SOL    HW136749   3.082   0.695   6.500 -0.0624 -2.1930 -0.3805
 8429SOL    HW236750   2.996   0.795   6.433 -0.0015  0.1143  0.3867
 8430SOL     OW36751   3.974   0.002   3.834 -0.8187  0.0253  0.5026
 8430SOL    HW136752   4.033   4.675   3.778  0.5556 -0.1731  2.1285
 8430SOL    HW236753   4.026   0.077   3.864 -0.9986  0.8313 -1.2600
 8431SOL     OW36754   1.692   3.529  10.638  0.0260  0.1035 -0.4136
 8431SOL    HW136755   1.651   3.502  10.555 -0.1356 -0.9694  0.0136
 8431SOL    HW236756   1.709   3.440  10.669  0.5197  0.2005 -0.4048
 8432SOL     OW36757   3.183   0.407   5.199  0.5769  0.6255  0.6098
 8432SOL    HW136758   3.105   0.381   5.249  1.3558  1.1744  2.1245
 8432SOL    HW236759   3.195   0.496   5.231 -1.5384  0.8871  0.6462
 8433SOL     OW36760   1.758   1.214   7.986 -0.0918  0.0977 -0.2427
 8433SOL    HW136761   1.820   1.263   7.933  1.4104  0.5606  1.9306
 8433SOL    HW236762   1.800   1.213   8.072 -0.5038 -0.1349 -0.0450
 8434SOL     OW36763   2.873   1.011   5.841  0.1669  0.2092  0.4789
 8434SOL    HW136764   2.827   0.932   5.814  0.1607  0.7892 -1.1651
 8434SOL    HW236765   2.927   0.976   5.912  2.0125 -0.8486 -1.4577
 8435SOL     OW36766   4.134   0.731   7.392  0.5509 -0.7035 -0.1945
 8435SOL    HW136767   4.206   0.777   7.349 -0.0238 -0.9223 -1.3873
 8435SOL    HW236768   4.104   0.797   7.454  0.3131  1.0052 -2.1355
 8436SOL     OW36769   1.784   0.443   3.863 -0.1352  0.0205  0.2117
 8436SOL    HW136770   1.800   0.359   3.820  0.3103  0.3663 -0.3128
 8436SOL    HW236771   1.689   0.441   3.850  0.2891 -1.9029 -2.6440
 8437SOL     OW36772   1.369   1.448   7.337  0.4417 -0.1013  0.0308
 8437SOL    HW136773   1.279   1.439   7.368 -0.6296  1.6962 -2.6286
 8437SOL    HW236774   1.379   1.359   7.302 -1.1808 -1.2680  2.5133
 8438SOL     OW36775   1.015   1.247   4.890 -0.1234 -0.0960  0.0879
 8438SOL    HW136776   1.013   1.156   4.864 -2.0153  0.3296 -1.2561
 8438SOL    HW236777   1.102   1.273   4.860  0.2319 -1.4942 -0.0501
 8439SOL     OW36778   1.019   2.597   6.206 -0.0955 -0.1741 -0.2713
 8439SOL    HW136779   1.097   2.620   6.155 -1.1409  1.0417 -1.3060
 8439SOL    HW236780   1.052   2.546   6.280  1.5864  0.5694 -0.4878
 8440SOL     OW36781   3.697   0.524   5.825  0.2831  0.4083  0.4034
 8440SOL    HW136782   3.628   0.573   5.868 -1.1506 -0.4651 -0.9063
 8440SOL    HW236783   3.661   0.435   5.826 -3.3074  1.8558 -2.5429
 8441SOL     OW36784   2.623   4.267   4.519 -0.2854 -0.2780 -0.0676
 8441SOL    HW136785   2.707   4.244   4.559 -1.0271 -1.0214  1.0284
 8441SOL    HW236786   2.655   4.329   4.453 -1.4388  0.4745  0.0729
 8442SOL     OW36787   3.470   4.133   6.640 -0.3534 -0.0075  0.2527
 8442SOL    HW136788   3.427   4.172   6.716 -1.7485  0.6807 -0.8970
 8442SOL    HW236789   3.511   4.054   6.676 -1.3478 -1.1104 -1.0757
 8443SOL     OW36790   0.038   3.434   4.408 -0.1097  0.2689 -0.2472
 8443SOL    HW136791   0.045   3.529   4.404  1.0575  0.1926 -0.1466
 8443SOL    HW236792   0.125   3.395   4.398 -0.4870 -0.9457  1.2242
 8444SOL     OW36793   3.288   2.161   2.055  0.1016  0.2179  0.1520
 8444SOL    HW136794   3.323   2.089   2.108  0.8276 -0.2649 -1.0048
 8444SOL    HW236795   3.320   2.122   1.974  0.1724  0.8485 -0.1248
 8445SOL     OW36796   2.027   3.056   6.366 -0.0676  0.6328  0.1196
 8445SOL    HW136797   2.084   3.131   6.382  2.1888 -0.8851 -0.6642
 8445SOL    HW236798   2.086   2.982   6.347 -1.8334 -0.4030 -1.2845
 8446SOL     OW36799   3.743   0.676   3.005  0.1795 -0.4924 -0.0567
 8446SOL    HW136800   3.820   0.688   3.061  0.5080  0.7327 -0.7815
 8446SOL    HW236801   3.679   0.632   3.061 -1.5217  1.9381 -0.0974
 8447SOL     OW36802   4.557   4.467  16.150  0.4845  0.4409  0.1334
 8447SOL    HW136803   4.600   4.487  16.233 -0.1809 -1.0054  0.8345
 8447SOL    HW236804   4.511   4.548  16.129 -2.2842 -1.1717  0.0337
 8448SOL     OW36805   1.363   3.267  10.998 -0.5943  0.1658  0.2055
 8448SOL    HW136806   1.295   3.294  11.059 -0.3653 -0.2758  0.6541
 8448SOL    HW236807   1.405   3.351  10.980 -2.0547  0.9331  0.3448
 8449SOL     OW36808   3.321   0.054   1.979  0.7763 -0.4620  0.6147
 8449SOL    HW136809   3.357   4.703   1.930 -0.1903 -0.8144  0.4350
 8449SOL    HW236810   3.397   0.083   2.030  0.8193 -2.3293  1.6477
 8450SOL     OW36811   2.104   0.418   4.428 -0.1567 -0.3038 -0.2476
 8450SOL    HW136812   2.054   0.494   4.456  0.2376 -0.1091 -0.0708
 8450SOL    HW236813   2.148   0.386   4.506  0.1147  0.4863 -0.0833
 8451SOL     OW36814   4.390   4.026   2.145 -0.3756  0.7076  0.0900
 8451SOL    HW136815   4.334   4.069   2.210 -0.0626  0.5407  0.4690
 8451SOL    HW236816   4.396   3.941   2.188 -2.9873  0.1681 -0.6146
 8452SOL     OW36817   2.419   0.397  12.080 -0.5476 -0.2957 -0.0421
 8452SOL    HW136818   2.361   0.331  12.118 -1.1205 -0.0579 -0.5040
 8452SOL    HW236819   2.463   0.432  12.157  0.9972 -1.8028 -0.2405
 8453SOL     OW36820   2.577   2.732   3.305 -0.0659  0.7040  0.2190
 8453SOL    HW136821   2.618   2.652   3.338 -3.3688 -0.3448  1.8058
 8453SOL    HW236822   2.607   2.792   3.374  0.1459  1.4146 -0.4903
 8454SOL     OW36823   1.493   0.699  11.191  0.3287  0.2970  0.1451
 8454SOL    HW136824   1.458   0.788  11.196 -1.1237 -0.3123  0.5516
 8454SOL    HW236825   1.434   0.656  11.129  0.3808  0.6009 -0.1208
 8455SOL     OW36826   1.261   3.162   6.660  0.1141  0.4730 -0.0689
 8455SOL    HW136827   1.258   3.068   6.641  1.4787  0.8290 -1.9645
 8455SOL    HW236828   1.167   3.178   6.656  0.0863  0.1492 -0.5927
 8456SOL     OW36829   2.085   2.993   2.533 -0.3954 -0.8910  0.2095
 8456SOL    HW136830   2.110   2.909   2.494  0.7198 -0.5012  0.1143
 8456SOL    HW236831   2.160   3.021   2.584  2.1092  0.9772 -4.5477
 8457SOL     OW36832   3.848   3.337   5.353 -0.7638 -0.2073  0.1595
 8457SOL    HW136833   3.805   3.289   5.282 -0.5839 -2.8642  1.8071
 8457SOL    HW236834   3.896   3.262   5.389  0.2933  1.0568  1.3270
 8458SOL     OW36835   0.163   3.046   0.917 -0.5610 -0.6451 -0.1112
 8458SOL    HW136836   0.094   3.031   0.852 -2.0545 -1.1844  1.6173
 8458SOL    HW236837   0.110   3.069   0.993 -1.2631  1.5997 -1.3013
 8459SOL     OW36838   4.437   3.892  16.177 -0.5437  0.3615  0.0454
 8459SOL    HW136839   4.518   3.937  16.154  0.5672 -1.4267  0.4707
 8459SOL    HW236840   4.373   3.959  16.154 -0.6960  1.0074  2.3115
 8460SOL     OW36841   2.766   1.679  10.893 -0.1625 -0.8253 -0.8632
 8460SOL    HW136842   2.689   1.722  10.928 -1.9119 -2.4479 -2.6841
 8460SOL    HW236843   2.813   1.759  10.869 -1.8821  0.3689 -0.2202
 8461SOL     OW36844   3.601   2.084   4.799 -0.1081  0.3018  0.0711
 8461SOL    HW136845   3.542   2.008   4.796  1.7337 -1.0204 -2.5610
 8461SOL    HW236846   3.559   2.138   4.732  0.1244  0.0700 -0.2600
 8462SOL     OW36847   2.815   0.444   8.036  0.1041 -0.2373 -0.0990
 8462SOL    HW136848   2.863   0.372   7.995  0.8418  2.0813 -3.3060
 8462SOL    HW236849   2.744   0.391   8.072  0.8899  0.2674  2.2099
 8463SOL     OW36850   3.694   2.162   3.045  0.4046  0.2098 -0.6114
 8463SOL    HW136851   3.692   2.076   3.004  0.8349  0.1334 -0.4739
 8463SOL    HW236852   3.666   2.213   2.969 -0.2151 -0.0331 -0.5439
 8464SOL     OW36853   3.979   3.299   7.318 -0.4892 -0.3741  0.3711
 8464SOL    HW136854   3.962   3.222   7.264 -0.5560  0.2863 -0.5564
 8464SOL    HW236855   3.896   3.343   7.302  0.0583  0.3157 -0.6063
 8465SOL     OW36856   0.672   3.715  10.332 -0.0182  0.2606  0.2342
 8465SOL    HW136857   0.695   3.639  10.386 -0.2104  1.1205  1.5231
 8465SOL    HW236858   0.608   3.762  10.385 -0.3628  0.4614 -0.3578
 8466SOL     OW36859   1.775   2.823  10.290  0.3082 -0.2560 -0.0006
 8466SOL    HW136860   1.866   2.851  10.298  0.1036  0.4507 -0.1694
 8466SOL    HW236861   1.762   2.782  10.205 -1.1942  0.7584 -0.2651
 8467SOL     OW36862   3.475   1.952  14.667 -0.2997 -0.0387  0.1933
 8467SOL    HW136863   3.540   2.021  14.651 -0.3507 -0.0287  0.0293
 8467SOL    HW236864   3.499   1.935  14.758  1.8146  0.2381 -0.3218
 8468SOL     OW36865   4.304   0.828   1.459 -0.3818 -0.0176 -0.0729
 8468SOL    HW136866   4.273   0.738   1.464  3.3158 -1.2320  1.0552
 8468SOL    HW236867   4.383   0.818   1.406 -1.8952 -1.7850 -1.9839
 8469SOL     OW36868   1.855   4.417   7.382  0.2312  0.3996  0.3909
 8469SOL    HW136869   1.885   4.387   7.468  2.2159 -0.7756 -0.7106
 8469SOL    HW236870   1.910   4.365   7.323 -1.0288  0.7022 -1.0660
 8470SOL     OW36871   0.681   0.410  15.549  0.2816 -0.9508 -0.0454
 8470SOL    HW136872   0.648   0.395  15.460 -2.9705  0.1218  1.0106
 8470SOL    HW236873   0.744   0.340  15.566 -0.0797 -1.0909  0.6692
 8471SOL     OW36874   0.496   3.262   6.877 -0.0710 -0.3152 -0.3316
 8471SOL    HW136875   0.441   3.298   6.808 -0.5494  1.2041  0.8637
 8471SOL    HW236876   0.523   3.188   6.821  2.2048  1.0622 -1.0591
 8472SOL     OW36877   4.510   3.546   1.805  0.2692 -0.7472 -0.1499
 8472SOL    HW136878   4.521   3.472   1.746 -1.7404 -0.3538 -1.0316
 8472SOL    HW236879   4.595   3.586   1.824 -0.3906  0.9856 -0.8237
 8473SOL     OW36880   2.426   1.210   3.270 -0.3057 -0.4378  0.2467
 8473SOL    HW136881   2.496   1.230   3.207 -0.0536  2.6518  1.4929
 8473SOL    HW236882   2.426   1.118   3.244 -0.8286  0.0275 -1.4388
 8474SOL     OW36883   3.295   3.844   2.168 -0.4592  0.0679  0.7380
 8474SOL    HW136884   3.345   3.877   2.094  0.2075 -0.3380  1.0034
 8474SOL    HW236885   3.368   3.801   2.213  0.7968  0.7432 -0.6652
 8475SOL     OW36886   0.575   1.702   0.475  0.0785 -0.7185  0.2556
 8475SOL    HW136887   0.484   1.730   0.481  0.3282  0.1549 -0.0430
 8475SOL    HW236888   0.618   1.782   0.443  1.5206 -1.4498  0.3474
 8476SOL     OW36889   1.705   0.939  15.163 -0.2412  0.2898  0.0454
 8476SOL    HW136890   1.746   0.919  15.079  0.4268  2.7369 -0.2128
 8476SOL    HW236891   1.632   0.993  15.135  0.2956  1.1773  0.3667
 8477SOL     OW36892   4.049   2.043  17.576 -0.9284  0.0225 -0.1988
 8477SOL    HW136893   3.954   2.044  17.588 -0.9288 -0.3617 -0.1751
 8477SOL    HW236894   4.068   1.949  17.577  0.0348  0.2034 -0.6409
 8478SOL     OW36895   2.471   0.580   9.168 -0.4101  0.0966 -0.1811
 8478SOL    HW136896   2.563   0.560   9.186  0.1288  3.2781  0.5821
 8478SOL    HW236897   2.441   0.490   9.171  2.5546 -0.9738 -2.3849
 8479SOL     OW36898   3.592   3.300   9.637  0.6815  0.2289 -0.0330
 8479SOL    HW136899   3.649   3.376   9.621  1.0074  0.2457  1.2328
 8479SOL    HW236900   3.657   3.233   9.616  0.7651  0.2986 -0.0011
 8480SOL     OW36901   3.340   0.637  11.339  0.0102  0.1010  0.3414
 8480SOL    HW136902   3.304   0.654  11.426 -1.2053  0.8470 -0.3209
 8480SOL    HW236903   3.396   0.563  11.363 -1.6976 -2.3319 -3.2123
 8481SOL     OW36904   1.744   0.542  12.272 -0.5725 -0.2289  0.6397
 8481SOL    HW136905   1.693   0.554  12.192 -0.0929 -0.5723  0.2812
 8481SOL    HW236906   1.722   0.618  12.326  0.6128  0.1094  0.6425
 8482SOL     OW36907   1.977   2.054   9.600  0.3384  0.3278 -0.4427
 8482SOL    HW136908   2.066   2.073   9.628  0.5565  0.1232 -1.0024
 8482SOL    HW236909   1.937   2.012   9.676  1.0102 -1.3289 -0.9871
 8483SOL     OW36910   1.183   4.390   4.928 -0.5732 -0.0530  0.9977
 8483SOL    HW136911   1.232   4.434   4.858  0.8698  0.0838  2.1021
 8483SOL    HW236912   1.247   4.385   4.998  1.0149 -0.8104 -0.4968
 8484SOL     OW36913   4.358   3.985   7.149  0.0341  0.1661  0.1567
 8484SOL    HW136914   4.422   4.046   7.112  1.0859  0.2709  2.1278
 8484SOL    HW236915   4.282   4.043   7.155  0.1710  0.6328 -2.5201
 8485SOL     OW36916   2.724   1.203   6.564  0.5366 -0.3246 -0.3482
 8485SOL    HW136917   2.638   1.196   6.522 -0.6816  3.0542  1.5966
 8485SOL    HW236918   2.692   1.189   6.654  0.3273  0.7024 -0.2645
 8486SOL     OW36919   3.717   4.289   2.510 -0.1252 -0.0333 -0.1908
 8486SOL    HW136920   3.775   4.234   2.563  2.0507 -0.4583 -2.9909
 8486SOL    HW236921   3.661   4.326   2.578  0.4143  1.2729 -0.4585
 8487SOL     OW36922   1.189   4.230   3.028 -0.3708 -0.0954 -0.0826
 8487SOL    HW136923   1.150   4.248   2.942  0.4151  1.3727 -0.1221
 8487SOL    HW236924   1.281   4.231   3.002 -0.3343 -0.6533  0.0166
 8488SOL     OW36925   1.742   3.205  10.946  0.0557 -0.8209  0.1851
 8488SOL    HW136926   1.770   3.118  10.974  0.4162 -1.0543 -0.9134
 8488SOL    HW236927   1.832   3.235  10.940 -0.0616  0.4400  4.3773
 8489SOL     OW36928   0.177   4.578   8.058  0.1049 -0.0806  0.1125
 8489SOL    HW136929   0.193   4.535   8.142  0.1110  3.7669  2.0579
 8489SOL    HW236930   0.244   4.647   8.054 -0.8145  0.8341  0.5156
 8490SOL     OW36931   2.726   0.749  14.037 -0.1493 -0.2579 -0.1553
 8490SOL    HW136932   2.820   0.733  14.026  0.2419  0.9382  1.3614
 8490SOL    HW236933   2.698   0.703  14.116 -0.5509  3.2004  1.7480
 8491SOL     OW36934   2.289   0.020   7.346 -0.1146  0.2590  0.9826
 8491SOL    HW136935   2.259   0.100   7.389 -1.8371 -0.3778  0.9715
 8491SOL    HW236936   2.228   4.682   7.386 -0.1417  0.0078  0.5533
 8492SOL     OW36937   1.260   0.103  10.779 -0.5086 -0.4859 -0.0537
 8492SOL    HW136938   1.202   0.128  10.707 -0.4625 -0.9782 -0.2561
 8492SOL    HW236939   1.227   0.017  10.803 -0.4938 -1.0806 -2.2329
 8493SOL     OW36940   1.258   1.334   4.806  0.3299 -0.0781 -0.0913
 8493SOL    HW136941   1.296   1.344   4.893 -0.3210  0.2669  0.1536
 8493SOL    HW236942   1.325   1.297   4.748 -1.1476  1.1304 -2.6088
 8494SOL     OW36943   4.096   3.372   9.570 -0.2330  0.1301  0.9668
 8494SOL    HW136944   4.185   3.339   9.580  0.5145  2.2731  1.3926
 8494SOL    HW236945   4.098   3.410   9.482 -1.5268 -0.0363  0.8586
 8495SOL     OW36946   4.201   1.918  16.177  0.0259  0.4129  0.1761
 8495SOL    HW136947   4.129   1.949  16.122  0.8509 -2.1262 -2.3353
 8495SOL    HW236948   4.171   1.830  16.200 -1.2575  0.5104 -1.1480
 8496SOL     OW36949   1.415   3.079   4.593 -0.2523 -0.2125 -0.2570
 8496SOL    HW136950   1.326   3.083   4.560 -0.4459 -0.2393  0.2649
 8496SOL    HW236951   1.393   3.114   4.679  2.6610  1.7605 -0.2967
 8497SOL     OW36952   4.302   2.234  10.150  0.7432 -0.1469 -0.2889
 8497SOL    HW136953   4.306   2.271  10.062 -1.3653  3.9832  1.3149
 8497SOL    HW236954   4.246   2.294  10.200  3.0720  2.1113 -0.3610
 8498SOL     OW36955   1.095   4.285   2.796 -1.0958 -0.0495 -0.2828
 8498SOL    HW136956   1.130   4.242   2.718 -0.7754  1.1353 -0.7876
 8498SOL    HW236957   1.026   4.334   2.752 -1.6270  0.1502  0.7878
 8499SOL     OW36958   3.477   0.792   8.694  0.0922  0.4859  0.2109
 8499SOL    HW136959   3.511   0.881   8.703 -2.7912  1.7809 -1.5533
 8499SOL    HW236960   3.551   0.740   8.724  0.5526  0.7684 -0.4232
 8500SOL     OW36961   0.090   1.802   1.798  0.0974 -0.1815 -0.2373
 8500SOL    HW136962   0.098   1.726   1.740 -1.7105 -0.0014 -0.7228
 8500SOL    HW236963   0.078   1.747   1.876  0.7084  1.2449  0.8536
 8501SOL     OW36964   1.771   0.845  11.277 -0.3014  0.0339 -0.0325
 8501SOL    HW136965   1.762   0.804  11.363 -0.7731  0.5987  0.1929
 8501SOL    HW236966   1.750   0.776  11.215  0.8005  0.7219 -1.1672
 8502SOL     OW36967   2.080   3.618   8.242  0.3518  0.6289  0.0956
 8502SOL    HW136968   2.091   3.699   8.194 -2.0527 -0.3050 -2.0493
 8502SOL    HW236969   1.991   3.596   8.214  1.2499 -1.1574 -1.3344
 8503SOL     OW36970   4.425   3.537   2.960  0.3952 -0.1155 -0.1318
 8503SOL    HW136971   4.510   3.578   2.975  0.2324  0.0295  0.3933
 8503SOL    HW236972   4.409   3.510   3.051  1.8583  2.4375  0.8570
 8504SOL     OW36973   2.495   3.716   5.223 -0.7835 -0.4914  0.2030
 8504SOL    HW136974   2.459   3.627   5.234 -0.7804 -0.4022  0.9312
 8504SOL    HW236975   2.441   3.748   5.151 -0.5949 -0.9447 -0.1401
 8505SOL     OW36976   3.833   2.084   3.677 -0.1415  0.0162  0.2600
 8505SOL    HW136977   3.814   2.008   3.623  0.0335 -0.2217  0.5364
 8505SOL    HW236978   3.887   2.135   3.617 -1.1370 -1.2123 -1.6799
 8506SOL     OW36979   3.800   3.938   4.140  0.5146 -0.2731 -0.1780
 8506SOL    HW136980   3.849   3.986   4.207  1.6206  1.0858 -1.9742
 8506SOL    HW236981   3.805   3.997   4.065 -0.0409  0.2962  0.2349
 8507SOL     OW36982   2.971   0.325   5.345 -0.0940 -0.2499 -0.3685
 8507SOL    HW136983   2.906   0.278   5.293 -3.1038  2.2159  1.1809
 8507SOL    HW236984   2.926   0.359   5.422  3.4616 -1.6831  2.4062
 8508SOL     OW36985   2.408   4.643   3.752  0.0543 -0.4525  0.0615
 8508SOL    HW136986   2.370   4.658   3.666 -0.0933 -0.2033  0.1700
 8508SOL    HW236987   2.436   4.552   3.743 -0.9723 -0.9139  1.4331
 8509SOL     OW36988   1.453   3.960   1.006 -0.0474  0.9345 -0.8602
 8509SOL    HW136989   1.473   3.964   0.912 -0.8177 -0.3354 -1.0893
 8509SOL    HW236990   1.424   4.049   1.023 -0.0775  0.8272 -0.3558
 8510SOL     OW36991   4.036   4.343  11.616  0.2636 -0.6990  0.1627
 8510SOL    HW136992   3.956   4.295  11.640 -0.3847 -0.2577 -1.1160
 8510SOL    HW236993   4.001   4.426  11.584  1.1037 -0.5642 -0.3985
 8511SOL     OW36994   4.438   3.915   6.687 -0.6432 -0.2072  0.4713
 8511SOL    HW136995   4.435   3.867   6.604  1.0846 -0.7413  0.7206
 8511SOL    HW236996   4.344   3.909   6.704 -1.0243  0.1545 -1.5479
 8512SOL     OW36997   2.378   4.167   7.396  0.3261 -0.5166  0.3175
 8512SOL    HW136998   2.350   4.139   7.483 -2.0228  0.3984 -0.1263
 8512SOL    HW236999   2.371   4.081   7.354  1.5808 -1.1060  1.3449
 8513SOL     OW37000   0.986   0.537  10.494  0.4420 -0.1845 -0.4942
 8513SOL    HW137001   1.062   0.483  10.473  0.1426 -0.8328  0.0840
 8513SOL    HW237002   1.034   0.620  10.491  1.1839 -0.5996 -0.0323
 8514SOL     OW37003   4.419   0.637   7.234  0.3279  0.2154  0.2430
 8514SOL    HW137004   4.458   0.652   7.320 -1.3794  1.6928  0.7518
 8514SOL    HW237005   4.361   0.713   7.223  1.4404  0.9672 -0.4591
 8515SOL     OW37006   1.317   3.045   8.374 -0.6224  0.4110  0.4352
 8515SOL    HW137007   1.242   3.022   8.429 -0.7064  0.0397  0.1688
 8515SOL    HW237008   1.386   3.025   8.438  0.4459  0.3424 -0.7351
 8516SOL     OW37009   2.223   2.493   9.414  0.1214  0.3718  0.3277
 8516SOL    HW137010   2.251   2.464   9.500  0.4372  1.7974  0.7102
 8516SOL    HW237011   2.140   2.450   9.394  0.9073 -0.5345 -1.0061
 8517SOL     OW37012   1.480   0.760   0.750 -0.7272 -0.4193  0.3588
 8517SOL    HW137013   1.445   0.833   0.699  1.1195  0.6896  0.6798
 8517SOL    HW237014   1.560   0.803   0.781 -0.8471 -0.7151  1.0881
 8518SOL     OW37015   0.643   3.894   5.934  0.3153  0.3069  0.2761
 8518SOL    HW137016   0.687   3.889   6.019  1.8976 -1.9583 -0.6674
 8518SOL    HW237017   0.584   3.967   5.952  0.2547  0.1577  0.6704
 8519SOL     OW37018   1.867   4.120   8.925 -0.7103 -0.6784 -0.1311
 8519SOL    HW137019   1.805   4.150   8.991  0.1236 -0.3942  0.5246
 8519SOL    HW237020   1.925   4.196   8.921 -1.3062 -0.2225 -0.1059
 8520SOL     OW37021   3.559   2.475   5.113 -0.2340 -0.0142 -0.4448
 8520SOL    HW137022   3.489   2.409   5.114  0.9861 -1.3040  0.5548
 8520SOL    HW237023   3.626   2.430   5.063 -1.8742 -0.9549 -1.8097
 8521SOL     OW37024   2.331   3.896   7.315 -0.0122 -0.0299  0.3650
 8521SOL    HW137025   2.256   3.840   7.336  0.2737 -0.9635 -1.1005
 8521SOL    HW237026   2.393   3.828   7.288  0.0040  0.4075 -0.7227
 8522SOL     OW37027   2.012   4.268  10.197  0.0922  0.4354  0.0816
 8522SOL    HW137028   2.013   4.290  10.290  1.2204  0.6970  0.0063
 8522SOL    HW237029   2.086   4.207  10.204 -1.0658 -0.9817  0.1538
 8523SOL     OW37030   1.998   0.018  13.229 -0.2923 -0.3841  0.1310
 8523SOL    HW137031   1.937   0.078  13.185 -1.6450 -2.3329 -0.6768
 8523SOL    HW237032   1.980   4.657  13.185 -0.0473 -0.2099 -0.2968
 8524SOL     OW37033   0.184   2.681  11.361  0.7412 -0.0654  0.0015
 8524SOL    HW137034   0.163   2.590  11.383  0.4362 -0.9408 -3.7730
 8524SOL    HW237035   0.101   2.727  11.362  0.1365 -1.1788  0.5545
 8525SOL     OW37036   2.476   0.242   6.051 -0.5313 -0.0069  0.9481
 8525SOL    HW137037   2.521   0.297   6.115  0.0070 -0.4512  0.9513
 8525SOL    HW237038   2.505   0.153   6.072  2.1854  1.1206  1.9303
 8526SOL     OW37039   3.273   1.546   2.453  0.9550 -0.4709 -0.0666
 8526SOL    HW137040   3.223   1.464   2.447 -0.5944  0.5382 -0.9079
 8526SOL    HW237041   3.236   1.590   2.377 -0.8950  0.6311  1.4496
 8527SOL     OW37042   3.501   1.445   6.200  0.0361  0.2137  0.3126
 8527SOL    HW137043   3.444   1.470   6.127  2.1002  0.6260 -1.1471
 8527SOL    HW237044   3.577   1.416   6.150 -0.9064 -1.3207 -0.2484
 8528SOL     OW37045   2.249   2.960   1.852  0.6591 -0.0891 -0.1058
 8528SOL    HW137046   2.281   3.045   1.820  0.5819  0.1337  0.3983
 8528SOL    HW237047   2.163   2.965   1.811  0.2689 -0.9338  0.6096
 8529SOL     OW37048   1.949   2.950   1.776 -0.4134  0.2645  0.5707
 8529SOL    HW137049   1.874   3.010   1.775  1.4457  2.5315 -2.5995
 8529SOL    HW237050   1.953   2.932   1.682  1.5121 -1.5309  1.0147
 8530SOL     OW37051   0.763   0.263  13.139  0.3504 -0.0921 -0.3622
 8530SOL    HW137052   0.778   0.195  13.074 -1.7058  0.1317 -1.0682
 8530SOL    HW237053   0.697   0.313  13.090  0.7184  0.6447 -0.1125
 8531SOL     OW37054   3.215   2.408  14.971  0.3296 -0.0458 -0.7063
 8531SOL    HW137055   3.245   2.342  15.033 -0.1617 -0.4453 -0.8907
 8531SOL    HW237056   3.263   2.383  14.891  2.7653 -0.1478  0.8145
 8532SOL     OW37057   2.956   3.598   1.747 -0.2115 -0.4632  0.1129
 8532SOL    HW137058   3.040   3.600   1.703  0.0803 -0.1455  0.6783
 8532SOL    HW237059   2.966   3.549   1.829 -0.1810  2.8270  2.0677
 8533SOL     OW37060   2.074   1.941   0.197  0.5132  0.2488 -0.1131
 8533SOL    HW137061   2.086   1.959   0.291  0.8290  0.7667 -0.2524
 8533SOL    HW237062   2.082   1.846   0.191  0.4128  0.3679 -2.1233
 8534SOL     OW37063   1.417   3.347   4.280  0.0160 -0.6470 -0.1252
 8534SOL    HW137064   1.436   3.429   4.233 -0.6080 -0.4839 -0.0845
 8534SOL    HW237065   1.419   3.382   4.369 -1.4134 -0.9318  0.0085
 8535SOL     OW37066   1.437   1.576   4.649 -0.5267 -0.2292 -0.1157
 8535SOL    HW137067   1.472   1.556   4.561  1.7348  1.9136  0.2954
 8535SOL    HW237068   1.512   1.555   4.704 -0.4643 -3.6669 -1.4838
 8536SOL     OW37069   1.541   4.121   5.295  0.0546 -0.2980 -0.2009
 8536SOL    HW137070   1.480   4.050   5.314 -1.1335  1.0549  0.9492
 8536SOL    HW237071   1.625   4.076   5.281  0.0230  0.1184 -1.7455
 8537SOL     OW37072   3.640   1.752   3.917  0.1297 -0.9203 -0.6323
 8537SOL    HW137073   3.625   1.839   3.955  0.6604 -0.7657 -0.7813
 8537SOL    HW237074   3.734   1.746   3.898  0.5388  0.1004  1.0674
 8538SOL     OW37075   4.642   0.718   0.253  0.0860  0.5081 -0.4319
 8538SOL    HW137076   4.639   0.752   0.163  0.9125 -1.1292 -1.0735
 8538SOL    HW237077   4.561   0.759   0.284 -0.3167 -0.4418 -0.2254
 8539SOL     OW37078   2.554   1.802  13.351  0.1242 -0.0984  0.2684
 8539SOL    HW137079   2.512   1.740  13.291 -1.0585 -0.6689  1.7059
 8539SOL    HW237080   2.521   1.765  13.433 -2.7224  1.9613  0.0356
 8540SOL     OW37081   3.342   2.354   0.674 -0.4505  0.4219  0.8050
 8540SOL    HW137082   3.271   2.317   0.726 -2.0231  3.0211  0.4783
 8540SOL    HW237083   3.339   2.321   0.584 -2.2232  0.0353  1.0165
 8541SOL     OW37084   0.128   0.748   0.424 -0.7758 -0.3533  0.0478
 8541SOL    HW137085   0.055   0.740   0.362 -0.3823 -1.8432 -0.2301
 8541SOL    HW237086   0.189   0.788   0.362  1.3131 -1.6086  1.2804
 8542SOL     OW37087   0.048   0.733   4.441  0.2992 -0.7113  0.0222
 8542SOL    HW137088   0.040   0.738   4.346  1.9754  0.4607 -0.0514
 8542SOL    HW237089   0.067   0.644   4.471 -0.7506 -0.7373  0.6014
 8543SOL     OW37090   2.240   3.287   3.845 -0.4668  0.0456  0.0342
 8543SOL    HW137091   2.292   3.281   3.765 -1.3081 -1.2282 -0.4184
 8543SOL    HW237092   2.229   3.195   3.869 -0.3816  0.1552  0.4873
 8544SOL     OW37093   1.392   1.279   6.473  0.0951 -0.1959 -0.5872
 8544SOL    HW137094   1.298   1.293   6.480 -0.0696 -3.0754  2.7453
 8544SOL    HW237095   1.423   1.318   6.555  1.5171 -1.2951 -0.5946
 8545SOL     OW37096   3.727   0.995   1.280 -0.5748 -0.5380 -0.7478
 8545SOL    HW137097   3.656   0.931   1.287  0.7856 -1.7530  1.9891
 8545SOL    HW237098   3.801   0.934   1.278 -0.3441 -0.4295  3.4701
 8546SOL     OW37099   3.882   0.785   9.279 -0.4481  0.2479  0.6138
 8546SOL    HW137100   3.857   0.877   9.276  1.6216  0.8745  2.6144
 8546SOL    HW237101   3.866   0.776   9.185  0.2291 -0.2844  0.5436
 8547SOL     OW37102   0.288   4.444  14.937  0.5621  0.1246 -0.1440
 8547SOL    HW137103   0.369   4.471  14.892  1.6365 -2.0444  0.4697
 8547SOL    HW237104   0.314   4.402  15.019 -1.2754 -1.7220 -0.5267
 8548SOL     OW37105   3.157   4.467   2.382  0.0032 -0.4727  0.1856
 8548SOL    HW137106   3.119   4.416   2.453 -2.6642  5.9292  3.3801
 8548SOL    HW237107   3.229   4.411   2.354 -2.0318 -3.1170  0.2574
 8549SOL     OW37108   0.161   3.829  10.928 -0.2362 -0.6120  0.5968
 8549SOL    HW137109   0.119   3.913  10.946 -1.2191 -0.7441 -1.0061
 8549SOL    HW237110   0.111   3.763  10.977  0.2577 -0.2695  1.5470
 8550SOL     OW37111   4.390   0.819  14.938  0.1073 -0.1542  0.1268
 8550SOL    HW137112   4.384   0.742  14.994 -2.2818 -1.5404 -2.0755
 8550SOL    HW237113   4.377   0.893  14.998  0.3127  1.5697 -1.9229
 8551SOL     OW37114   0.256   3.599   4.108  0.5485 -0.1072  0.0043
 8551SOL    HW137115   0.265   3.512   4.146 -0.1346  0.2563  1.0084
 8551SOL    HW237116   0.346   3.627   4.128 -0.3080  1.3681  1.8404
 8552SOL     OW37117   2.708   1.605  14.866  0.4116 -0.0691 -0.2412
 8552SOL    HW137118   2.741   1.530  14.818 -1.4360  0.6595 -2.6360
 8552SOL    HW237119   2.616   1.594  14.844  0.0808  1.9637  0.0492
 8553SOL     OW37120   0.100   1.101   6.158  0.3345 -0.3224  0.0369
 8553SOL    HW137121   0.142   1.015   6.164  2.7565  0.8027 -0.7004
 8553SOL    HW237122   0.009   1.081   6.180 -0.4185  0.9806 -1.8938
 8554SOL     OW37123   1.353   4.318   9.770 -0.3205 -0.2634 -0.0796
 8554SOL    HW137124   1.280   4.269   9.732 -0.8351  0.7123 -0.3505
 8554SOL    HW237125   1.422   4.269   9.725  0.5094 -2.6474  3.7829
 8555SOL     OW37126   1.768   3.298   0.434 -0.7615 -0.4414 -1.1131
 8555SOL    HW137127   1.832   3.232   0.460 -0.7854 -0.0668 -0.0940
 8555SOL    HW237128   1.807   3.318   0.350 -0.0181  0.9577 -0.4346
 8556SOL     OW37129   0.621   1.989   3.166 -0.1255  0.5427 -0.3470
 8556SOL    HW137130   0.702   1.993   3.114  0.6106  2.0405  0.8837
 8556SOL    HW237131   0.604   2.084   3.165  2.2356  0.9709 -0.8486
 8557SOL     OW37132   3.379   4.467   6.491 -0.6230  0.3496  0.6362
 8557SOL    HW137133   3.315   4.454   6.561 -0.0007  0.0137  1.1479
 8557SOL    HW237134   3.338   4.434   6.411 -0.2178  0.3068  0.4465
 8558SOL     OW37135   3.933   3.721   0.161 -0.0107 -0.2480  0.2754
 8558SOL    HW137136   3.949   3.671   0.081  1.2337 -0.8061  0.8714
 8558SOL    HW237137   3.840   3.701   0.170 -0.4335  1.6295  0.1412
 8559SOL     OW37138   0.676   2.547   2.996 -0.9053 -0.0555 -0.2547
 8559SOL    HW137139   0.714   2.624   2.953 -0.6341  0.1360  0.3256
 8559SOL    HW237140   0.754   2.496   3.017 -1.4181 -0.1013  1.5052
 8560SOL     OW37141   3.702   3.301   8.587  0.1983 -0.6214 -0.5420
 8560SOL    HW137142   3.633   3.300   8.653  0.1437 -2.0424 -0.6302
 8560SOL    HW237143   3.778   3.271   8.638  0.8898  0.4660 -0.9198
 8561SOL     OW37144   1.649   4.136   6.602  0.3807  1.3608 -0.0920
 8561SOL    HW137145   1.672   4.043   6.605 -0.4825  1.1853  1.1852
 8561SOL    HW237146   1.714   4.179   6.658 -0.7553  0.2267  2.1148
 8562SOL     OW37147   4.212   4.622  12.976  0.1546  0.0965  0.1408
 8562SOL    HW137148   4.284   4.610  12.914 -3.6130 -0.1753 -4.1865
 8562SOL    HW237149   4.254   4.587  13.055 -2.2876 -1.5934  0.6866
 8563SOL     OW37150   3.627   3.637  14.322  0.2609 -0.1063  0.1473
 8563SOL    HW137151   3.596   3.588  14.398  0.9257  1.0454  1.1589
 8563SOL    HW237152   3.602   3.587  14.244  2.3967  1.2412 -1.4105
 8564SOL     OW37153   3.758   1.285   4.304  0.3527 -0.1956  0.6061
 8564SOL    HW137154   3.742   1.343   4.230 -0.7691 -0.6792  0.4744
 8564SOL    HW237155   3.821   1.336   4.356 -1.0110  1.2466  0.8377
 8565SOL     OW37156   0.182   3.606   2.903 -0.3104 -0.3990 -0.4013
 8565SOL    HW137157   0.110   3.563   2.948 -0.7779  1.2837  0.4886
 8565SOL    HW237158   0.164   3.592   2.811  0.7649 -1.6920 -0.4198
 8566SOL     OW37159   3.001   2.392   6.932  0.6225  0.8712 -0.3448
 8566SOL    HW137160   2.953   2.309   6.934  1.4801  0.4050  0.7526
 8566SOL    HW237161   3.012   2.412   7.025  1.4684  0.2689 -0.3228
 8567SOL     OW37162   1.980   2.365   3.190 -0.8843  0.1379 -0.0805
 8567SOL    HW137163   2.015   2.365   3.279 -1.8178 -0.4678  0.2824
 8567SOL    HW237164   1.909   2.302   3.199 -1.4647  0.8131  0.0691
 8568SOL     OW37165   2.573   3.830   4.872  0.2500 -0.2988  0.0254
 8568SOL    HW137166   2.563   3.739   4.845 -1.2919 -0.1178 -0.0291
 8568SOL    HW237167   2.669   3.832   4.870  0.1895  1.5975 -0.8997
 8569SOL     OW37168   1.928   2.848   4.328  1.1015  0.8470 -0.7137
 8569SOL    HW137169   1.892   2.902   4.258  1.6866  0.9353 -0.9441
 8569SOL    HW237170   1.981   2.909   4.380  3.2987 -0.3212 -1.5858
 8570SOL     OW37171   1.657   4.576   4.754  0.5193 -0.0039  1.0718
 8570SOL    HW137172   1.714   4.512   4.795  0.8243  0.9018  2.0536
 8570SOL    HW237173   1.642   4.530   4.671  1.1522 -0.4358  1.1982
 8571SOL     OW37174   3.062   1.803   8.804 -0.6309  0.3013 -0.3990
 8571SOL    HW137175   3.079   1.869   8.871 -1.3501 -0.3109  0.3969
 8571SOL    HW237176   2.966   1.808   8.798 -0.7950 -1.9931  0.0111
 8572SOL     OW37177   2.442   4.056   8.087  0.1692 -0.1199  0.3488
 8572SOL    HW137178   2.406   3.979   8.041 -0.9995 -0.1508  1.3273
 8572SOL    HW237179   2.366   4.097   8.129 -0.4187 -1.9858  1.1228
 8573SOL     OW37180   1.408   3.433   7.201 -0.1063 -0.0878  0.0971
 8573SOL    HW137181   1.441   3.344   7.211 -2.3629 -0.9474 -0.1492
 8573SOL    HW237182   1.327   3.425   7.250 -0.8756  1.0622 -0.9699
 8574SOL     OW37183   1.411   4.016   8.112  0.1182 -0.1304  0.3970
 8574SOL    HW137184   1.446   4.009   8.201 -0.2418 -0.3802  0.5163
 8574SOL    HW237185   1.371   3.933   8.087  0.7396  0.1858 -1.7032
 8575SOL     OW37186   0.677   4.563   4.380 -0.2637 -0.1878 -0.2412
 8575SOL    HW137187   0.644   4.474   4.372 -0.8411  0.0266 -0.2771
 8575SOL    HW237188   0.594   4.610   4.370 -1.5781 -2.1017  1.6692
 8576SOL     OW37189   0.816   3.700   6.857  0.2282 -0.2990 -0.4072
 8576SOL    HW137190   0.881   3.749   6.907 -0.3787 -1.6433  1.7167
 8576SOL    HW237191   0.766   3.774   6.825 -1.2704 -0.0895  2.4588
 8577SOL     OW37192   2.544   2.740   3.019 -0.0854 -0.4704  0.0958
 8577SOL    HW137193   2.531   2.761   3.112 -0.2455 -1.6095  0.3215
 8577SOL    HW237194   2.451   2.725   3.001 -0.2686 -0.2833  0.8685
 8578SOL     OW37195   3.197   1.810   6.292  0.0734 -0.1788 -0.2140
 8578SOL    HW137196   3.244   1.753   6.231 -0.0946  0.7948 -1.2350
 8578SOL    HW237197   3.126   1.849   6.242  0.8141  0.8657 -0.4387
 8579SOL     OW37198   2.133   2.694   4.224 -0.5391 -0.4802 -0.0159
 8579SOL    HW137199   2.088   2.668   4.144  0.1521 -1.1873 -0.1799
 8579SOL    HW237200   2.060   2.730   4.275  0.4575  1.0486  0.3319
 8580SOL     OW37201   0.304   0.066  10.228  0.4567  0.1501  0.1628
 8580SOL    HW137202   0.277   0.139  10.283  1.4955  1.7130 -1.3908
 8580SOL    HW237203   0.300   0.117  10.146  0.3867 -2.2149 -1.3124
 8581SOL     OW37204   3.466   1.485   4.336 -0.0313 -0.0412  0.5274
 8581SOL    HW137205   3.511   1.425   4.396  1.8446  2.1234  1.3202
 8581SOL    HW237206   3.532   1.514   4.273  0.6855 -2.9471 -0.0555
 8582SOL     OW37207   2.387   2.769   4.759 -0.2713 -0.5293  0.3593
 8582SOL    HW137208   2.451   2.814   4.813 -1.4499 -0.9965  2.1367
 8582SOL    HW237209   2.447   2.755   4.686 -3.4625 -2.5952 -1.8399
 8583SOL     OW37210   4.378   4.606   4.602 -0.7077  0.7122 -0.6929
 8583SOL    HW137211   4.315   4.667   4.564  0.1812  1.7048 -0.5676
 8583SOL    HW237212   4.431   4.671   4.648 -0.0096 -1.9135  2.2099
 8584SOL     OW37213   3.597   0.011  13.580  0.1740 -0.5262 -0.0260
 8584SOL    HW137214   3.682   0.019  13.537  0.9086 -1.9272  1.1698
 8584SOL    HW237215   3.608   0.064  13.660  0.1036 -0.0975 -0.3011
 8585SOL     OW37216   2.361   3.129   4.932 -0.3510  0.0749 -0.4572
 8585SOL    HW137217   2.368   3.095   5.022  0.9399  0.7757 -0.2980
 8585SOL    HW237218   2.449   3.140   4.896 -0.4552 -0.8845 -0.9944
 8586SOL     OW37219   2.095   0.758   9.314 -0.7540  0.1566  0.6937
 8586SOL    HW137220   2.148   0.836   9.328  0.0569 -0.1525 -0.6450
 8586SOL    HW237221   2.049   0.772   9.232 -0.5782 -0.8975  0.4117
 8587SOL     OW37222   1.684   3.079   4.605  0.3311 -0.0585 -0.3123
 8587SOL    HW137223   1.591   3.101   4.610  0.0909 -1.8565  2.8052
 8587SOL    HW237224   1.686   2.986   4.582  0.9027 -0.5469  1.7452
 8588SOL     OW37225   3.877   0.488  15.140  0.0996 -0.1931 -0.0837
 8588SOL    HW137226   3.909   0.554  15.078  1.3525 -0.8129 -0.1097
 8588SOL    HW237227   3.959   0.438  15.146  0.7714  0.4980 -3.5021
 8589SOL     OW37228   2.482   4.424   2.081  0.2705 -0.4258 -0.3418
 8589SOL    HW137229   2.545   4.475   2.031  0.3549  0.9959  1.1776
 8589SOL    HW237230   2.403   4.460   2.041 -0.3981 -1.9184 -0.3510
 8590SOL     OW37231   3.265   4.442   5.658 -0.6918  0.0802 -0.1078
 8590SOL    HW137232   3.345   4.454   5.606 -0.2867 -2.1721 -0.0161
 8590SOL    HW237233   3.305   4.389   5.728  0.1012  0.5067 -0.2376
 8591SOL     OW37234   3.992   0.524   2.404  0.1939 -0.4205  0.7432
 8591SOL    HW137235   3.971   0.602   2.353  4.7438 -0.6277 -1.4724
 8591SOL    HW237236   4.065   0.487   2.354  0.6731 -0.4471  1.4558
 8592SOL     OW37237   4.623   2.136   5.475  0.4568 -0.1309  0.1362
 8592SOL    HW137238   4.690   2.073   5.501  2.6017  1.7304 -0.8015
 8592SOL    HW237239   4.681   2.193   5.425  1.2648 -0.2803  0.9100
 8593SOL     OW37240   0.377   0.725   1.108  0.5148  0.5590 -0.3777
 8593SOL    HW137241   0.352   0.817   1.115 -0.6199  0.4533 -2.7947
 8593SOL    HW237242   0.289   0.694   1.129  0.4891 -0.3426 -1.7735
 8594SOL     OW37243   4.567   0.059   4.732 -0.4010 -0.0309  0.3311
 8594SOL    HW137244   4.634   0.056   4.801  1.1952 -0.2056 -1.2149
 8594SOL    HW237245   4.606   0.116   4.665  1.2784 -1.2076  0.2986
 8595SOL     OW37246   2.482   1.081   5.024 -0.0963  0.3660  0.0885
 8595SOL    HW137247   2.539   1.097   4.949 -0.2482 -0.2367 -0.1486
 8595SOL    HW237248   2.486   0.986   5.034  1.0854  0.2331 -1.6416
 8596SOL     OW37249   2.690   0.408  14.577  0.2793 -0.0630 -0.2984
 8596SOL    HW137250   2.679   0.500  14.554 -1.6249 -0.5914 -1.4530
 8596SOL    HW237251   2.771   0.391  14.527 -0.8693 -3.4916 -1.0314
 8597SOL     OW37252   4.298   3.057   5.555 -0.1534 -0.0984  0.1742
 8597SOL    HW137253   4.249   3.011   5.623 -0.5145  0.7975  0.5223
 8597SOL    HW237254   4.390   3.032   5.565  0.3355  1.3353 -0.6642
 8598SOL     OW37255   4.495   4.335   9.922 -0.4487 -0.1907  0.1065
 8598SOL    HW137256   4.556   4.369   9.857 -0.9024 -1.3332 -0.9348
 8598SOL    HW237257   4.544   4.259   9.954 -2.4506 -2.3521 -1.9182
 8599SOL     OW37258   3.015   3.516   2.035 -0.3859 -0.0350  0.6975
 8599SOL    HW137259   2.994   3.608   2.050 -1.6541 -0.2099 -0.0182
 8599SOL    HW237260   3.048   3.482   2.119  0.3184  0.3743  0.5903
 8600SOL     OW37261   3.023   1.181   9.834 -0.1957  0.2042  0.5802
 8600SOL    HW137262   3.030   1.267   9.792  4.3318  0.3112  1.4807
 8600SOL    HW237263   3.070   1.191   9.917 -2.3512 -0.7014  1.8893
 8601SOL     OW37264   3.815   0.020   1.383  0.4083 -0.4409 -0.4007
 8601SOL    HW137265   3.832   0.060   1.298  1.3154 -0.8766 -0.4214
 8601SOL    HW237266   3.720   0.010   1.384  0.3774 -0.0772  0.1664
 8602SOL     OW37267   4.619   2.334  17.266 -0.1096  1.1146  0.4196
 8602SOL    HW137268   4.625   2.264  17.201  1.1315  1.3939  0.2245
 8602SOL    HW237269   4.607   2.413  17.212  1.4935  1.4335  0.5413
 8603SOL     OW37270   4.084   3.007   6.279  0.3609  0.2773  0.6592
 8603SOL    HW137271   3.994   3.004   6.245  1.8053 -0.5017 -3.1106
 8603SOL    HW237272   4.139   3.041   6.209  0.4993 -0.3510  0.4597
 8604SOL     OW37273   2.012   3.909   0.396  0.2788  0.8539 -0.0234
 8604SOL    HW137274   1.919   3.919   0.417 -0.2208  1.5578 -2.6337
 8604SOL    HW237275   2.012   3.814   0.392  1.7232  0.8297  0.3448
 8605SOL     OW37276   4.451   1.992  12.996  0.3795 -0.4450  0.7572
 8605SOL    HW137277   4.433   1.956  13.083 -0.0264  1.3112  1.3941
 8605SOL    HW237278   4.482   1.911  12.955 -0.1570  0.3229 -1.1434
 8606SOL     OW37279   4.049   2.058   1.950 -0.2084 -0.3970 -0.2142
 8606SOL    HW137280   4.101   2.051   1.870 -0.8197 -1.7121 -0.4965
 8606SOL    HW237281   4.001   2.135   1.919  1.7257  0.4072 -1.2376
 8607SOL     OW37282   1.374   4.530  12.952 -0.2958 -0.6805 -0.0384
 8607SOL    HW137283   1.425   4.606  12.978  0.0274 -1.5772  1.9837
 8607SOL    HW237284   1.427   4.463  12.996 -1.4824 -0.5659  1.5553
 8608SOL     OW37285   2.416   3.315   5.736  0.2413 -0.1689 -0.2535
 8608SOL    HW137286   2.425   3.405   5.766  3.1143 -0.5508  0.0662
 8608SOL    HW237287   2.323   3.306   5.755  0.3796 -0.8868  0.0871
 8609SOL     OW37288   1.511   1.711   5.564  0.1312  0.5041  0.0370
 8609SOL    HW137289   1.568   1.667   5.628 -0.5452 -1.3789 -0.6538
 8609SOL    HW237290   1.545   1.686   5.479 -1.5432  0.9829 -0.7670
 8610SOL     OW37291   3.395   4.024   4.338 -0.5280  0.3867  0.0990
 8610SOL    HW137292   3.313   4.068   4.357  0.3014  2.1940 -0.4961
 8610SOL    HW237293   3.439   4.079   4.403 -2.4272  0.1282  1.5927
 8611SOL     OW37294   4.420   4.513   5.373  0.0140 -0.0896 -0.3636
 8611SOL    HW137295   4.485   4.489   5.307  0.2118 -0.2091 -0.1266
 8611SOL    HW237296   4.397   4.431   5.416 -0.8733 -0.8575 -2.3352
 8612SOL     OW37297   3.256   1.856   5.572 -0.0814 -0.5233  0.2647
 8612SOL    HW137298   3.203   1.787   5.531  0.4855 -0.8360  0.0592
 8612SOL    HW237299   3.202   1.882   5.646  2.5190 -0.3709  2.1274
 8613SOL     OW37300   3.334   2.320   2.679  0.0747  0.8958  0.1997
 8613SOL    HW137301   3.320   2.344   2.588 -3.0915 -2.6103 -0.2457
 8613SOL    HW237302   3.323   2.401   2.728 -0.2636 -0.2281  1.9904
 8614SOL     OW37303   1.306   0.901  12.580 -0.2823 -0.5639  0.3007
 8614SOL    HW137304   1.397   0.873  12.578  0.2384  1.1342  0.6571
 8614SOL    HW237305   1.310   0.989  12.545 -1.3405 -0.9800 -0.8698
 8615SOL     OW37306   4.518   0.783  11.624  0.1101 -0.4249 -0.5624
 8615SOL    HW137307   4.599   0.830  11.645  0.1566 -0.0113 -1.6746
 8615SOL    HW237308   4.533   0.701  11.671  2.5609  1.0806  1.2809
 8616SOL     OW37309   1.991   2.316   9.303  0.1541  0.2546  0.1377
 8616SOL    HW137310   1.954   2.231   9.279  0.5384  0.4156 -1.0551
 8616SOL    HW237311   1.954   2.366   9.230  1.7620  2.5555  0.8928
 8617SOL     OW37312   0.265   3.036   8.018 -0.1562 -0.7033 -0.5449
 8617SOL    HW137313   0.203   2.973   7.981 -0.1744 -2.7551  2.9505
 8617SOL    HW237314   0.319   2.971   8.063 -0.5834 -0.1057  0.8374
 8618SOL     OW37315   1.759   3.294   3.939 -0.0263  0.1013 -0.3430
 8618SOL    HW137316   1.741   3.294   4.033  2.0535  1.4598  0.0603
 8618SOL    HW237317   1.845   3.336   3.949 -0.2443  0.3923  0.2666
 8619SOL     OW37318   1.049   1.874   8.764  0.3596 -0.5004 -0.1089
 8619SOL    HW137319   1.021   1.841   8.678  1.9186 -0.5615 -0.5903
 8619SOL    HW237320   0.983   1.837   8.822  0.2715  0.4849  0.4218
 8620SOL     OW37321   4.596   3.506   3.934  0.3049  0.0372  0.4860
 8620SOL    HW137322   4.585   3.600   3.917  1.8249  0.5165  2.2044
 8620SOL    HW237323   4.569   3.469   3.849  1.9184  2.2360 -0.9877
 8621SOL     OW37324   0.634   3.553   1.973  0.3141  0.1212 -0.3644
 8621SOL    HW137325   0.615   3.555   1.880 -3.3877  0.4441  0.4206
 8621SOL    HW237326   0.637   3.646   1.993 -1.8929  0.3002 -0.9129
 8622SOL     OW37327   4.481   1.420   1.715  0.0537  0.2888 -0.1350
 8622SOL    HW137328   4.496   1.423   1.809 -2.4267 -1.0041  0.3060
 8622SOL    HW237329   4.446   1.508   1.702  1.7830  1.0409  0.2570
 8623SOL     OW37330   3.459   3.785   8.072 -0.8429 -0.1183  0.2578
 8623SOL    HW137331   3.430   3.851   8.010 -1.3382  0.9181  1.6207
 8623SOL    HW237332   3.423   3.704   8.035 -1.2851  0.1738  0.0507
 8624SOL     OW37333   0.026   2.444   3.713 -0.0096  1.2520 -0.0215
 8624SOL    HW137334   0.060   2.529   3.684 -1.5326  1.5744 -0.8514
 8624SOL    HW237335   4.674   2.441   3.654 -0.5349  3.1150  0.5575
 8625SOL     OW37336   2.974   3.916  16.038 -0.0930 -0.0121 -0.3931
 8625SOL    HW137337   2.998   3.858  15.966 -1.5446 -1.6950  0.4884
 8625SOL    HW237338   2.928   3.853  16.093  1.0905 -1.3274 -0.9245
 8626SOL     OW37339   0.040   2.191   6.439  0.0688 -0.3336 -0.4023
 8626SOL    HW137340   4.720   2.193   6.524 -0.5320  0.8299 -0.7339
 8626SOL    HW237341   0.131   2.193   6.466 -0.0430 -0.4479 -0.0233
 8627SOL     OW37342   0.445   2.558   5.895 -0.2319  0.7393  0.1436
 8627SOL    HW137343   0.466   2.505   5.972 -0.1053  0.3265 -0.1722
 8627SOL    HW237344   0.351   2.543   5.895  0.1243 -1.5860 -1.8216
 8628SOL     OW37345   4.051   3.368   3.074  0.1220  0.1613  0.5205
 8628SOL    HW137346   3.957   3.349   3.080  0.3886 -1.3677 -0.1029
 8628SOL    HW237347   4.083   3.281   3.049 -0.3255  0.5390 -1.3196
 8629SOL     OW37348   4.455   0.343  11.591 -0.0523  0.2473  0.0551
 8629SOL    HW137349   4.379   0.343  11.649 -0.1265 -2.7011 -0.0562
 8629SOL    HW237350   4.412   0.345  11.505 -0.1688 -3.4077  0.0504
 8630SOL     OW37351   2.242   1.849  17.217  0.6684  0.2324 -0.5648
 8630SOL    HW137352   2.202   1.897  17.144  2.2645  0.5344 -1.2633
 8630SOL    HW237353   2.265   1.921  17.276  1.4137 -1.2347  0.9123
 8631SOL     OW37354   2.114   1.801   5.357  0.1314  0.1638  0.0645
 8631SOL    HW137355   2.189   1.743   5.341 -0.4326 -0.8667  1.0920
 8631SOL    HW237356   2.119   1.816   5.452 -1.8417 -1.1191  0.3859
 8632SOL     OW37357   0.362   3.821  10.389 -0.2126  0.4666 -0.5660
 8632SOL    HW137358   0.346   3.727  10.382  0.7898  0.3564 -1.4292
 8632SOL    HW237359   0.357   3.835  10.483 -1.3154  1.5566 -0.7803
 8633SOL     OW37360   0.694   0.168  12.441 -0.0541 -0.1243  0.9374
 8633SOL    HW137361   0.741   0.117  12.508  1.3304  0.6277  0.5283
 8633SOL    HW237362   0.640   0.097  12.406  1.3811 -1.4923  1.4481
 8634SOL     OW37363   0.286   4.480   5.241  0.2845  0.7798 -0.2369
 8634SOL    HW137364   0.231   4.410   5.203  1.3854  0.1887 -0.7429
 8634SOL    HW237365   0.375   4.446   5.248  0.4852  1.2800 -0.3497
 8635SOL     OW37366   3.493   4.506  11.245 -0.4613  0.4786 -0.0386
 8635SOL    HW137367   3.435   4.443  11.203 -1.0249  0.8278  0.2180
 8635SOL    HW237368   3.566   4.456  11.281  0.6279  1.2563 -1.1423
 8636SOL     OW37369   1.054   1.347   3.785 -0.1613 -0.5044 -0.6530
 8636SOL    HW137370   1.007   1.381   3.709 -0.5793  1.1319  0.3284
 8636SOL    HW237371   1.089   1.422   3.834 -1.8997  0.1514 -0.4329
 8637SOL     OW37372   1.791   0.388  12.639 -0.6786 -0.0192 -0.2401
 8637SOL    HW137373   1.720   0.333  12.607  0.2443 -0.3735 -1.6612
 8637SOL    HW237374   1.803   0.339  12.721  0.4860 -0.0249 -0.4170
 8638SOL     OW37375   3.959   2.980   6.894 -0.3072 -0.1143 -0.2198
 8638SOL    HW137376   4.012   2.917   6.846  1.4262 -0.1966  1.7786
 8638SOL    HW237377   3.985   3.062   6.851 -0.1127  0.7738  1.5967
 8639SOL     OW37378   2.008   2.975   4.658 -0.4399  0.2417  0.5780
 8639SOL    HW137379   2.064   2.968   4.581 -1.4547 -1.2799  0.0004
 8639SOL    HW237380   1.973   2.887   4.670  2.4344 -0.8737  0.7468
 8640SOL     OW37381   3.449   4.219  16.036  0.6563 -0.4205 -0.3288
 8640SOL    HW137382   3.441   4.313  16.019  0.4378 -0.3011  0.4127
 8640SOL    HW237383   3.422   4.224  16.128 -1.4407  1.1237 -1.0501
 8641SOL     OW37384   1.598   2.020   0.562  0.1692  0.1185  0.0354
 8641SOL    HW137385   1.648   2.082   0.509 -2.5113  1.1229 -1.3445
 8641SOL    HW237386   1.663   2.015   0.632  0.4945 -3.5826 -0.5609
 8642SOL     OW37387   3.428   1.508   5.240  0.4804  0.6959  0.0746
 8642SOL    HW137388   3.340   1.537   5.266  0.3271  0.8785 -0.6473
 8642SOL    HW237389   3.461   1.596   5.222 -0.0540  1.1983  1.5405
 8643SOL     OW37390   2.843   0.954   7.836  0.0011 -0.4888 -0.5568
 8643SOL    HW137391   2.853   0.885   7.770 -2.2592 -2.0483  0.7103
 8643SOL    HW237392   2.870   0.910   7.916 -0.1942 -2.6170 -1.6479
 8644SOL     OW37393   4.028   3.490   4.928 -0.3345 -0.3820 -0.2821
 8644SOL    HW137394   3.942   3.447   4.929  0.2411 -1.4881  1.0875
 8644SOL    HW237395   4.021   3.517   5.020 -3.6585  0.3888 -0.7686
 8645SOL     OW37396   0.532   3.788  14.793  0.2580  0.1968 -0.0877
 8645SOL    HW137397   0.554   3.714  14.736 -0.1384  0.9058 -1.1539
 8645SOL    HW237398   0.446   3.764  14.829 -1.0519  1.7614 -2.2092
 8646SOL     OW37399   3.141   3.540   5.060 -0.3527  0.4351  0.1662
 8646SOL    HW137400   3.058   3.584   5.078  0.4953  1.5184  1.5087
 8646SOL    HW237401   3.159   3.494   5.142  0.1900 -3.5074 -2.1516
 8647SOL     OW37402   3.596   0.513   1.925  0.3870  0.3996 -0.7136
 8647SOL    HW137403   3.659   0.498   1.996  0.0387 -1.6831 -0.8584
 8647SOL    HW237404   3.644   0.587   1.886  1.0791  0.0285 -0.5688
 8648SOL     OW37405   0.839   0.223   3.753  0.1098 -0.0955 -0.4010
 8648SOL    HW137406   0.868   0.146   3.801  1.8198  0.6864 -0.1811
 8648SOL    HW237407   0.844   0.196   3.661 -0.6683  1.0177 -0.7802
 8649SOL     OW37408   4.242   1.584   4.350  0.0933  0.2549  0.5437
 8649SOL    HW137409   4.173   1.638   4.387 -0.7298  0.4924 -1.3334
 8649SOL    HW237410   4.245   1.624   4.264 -0.3836  0.4706  0.6278
 8650SOL     OW37411   3.175   1.529   6.619 -0.5987  0.3904  0.0210
 8650SOL    HW137412   3.173   1.455   6.680 -1.0239 -1.2582 -1.9972
 8650SOL    HW237413   3.126   1.595   6.668 -2.4980 -1.3095  0.4179
 8651SOL     OW37414   2.306   2.310   9.072  1.0100  0.4274 -0.0414
 8651SOL    HW137415   2.301   2.265   9.156 -2.4716  1.3777  0.2813
 8651SOL    HW237416   2.222   2.355   9.061  0.1119 -0.6490  2.4567
 8652SOL     OW37417   4.590   2.146  12.367 -0.5144  0.0303 -0.1287
 8652SOL    HW137418   4.503   2.175  12.392 -1.0414 -0.0035 -1.9600
 8652SOL    HW237419   4.611   2.174  12.278 -0.3751  1.1278  0.2515
 8653SOL     OW37420   2.816   3.948   3.058 -0.1658  0.3154 -0.1999
 8653SOL    HW137421   2.809   4.042   3.078 -1.5490  0.1007  0.3129
 8653SOL    HW237422   2.886   3.928   3.120  0.4972 -3.0731 -2.0856
 8654SOL     OW37423   2.831   0.103   8.477  0.4042  0.1296  0.4123
 8654SOL    HW137424   2.848   0.196   8.460  0.9677  0.5346  3.0833
 8654SOL    HW237425   2.777   0.097   8.556 -1.8368  0.9313 -1.0653
 8655SOL     OW37426   3.390   3.816   5.589  0.0041  0.5950 -0.4514
 8655SOL    HW137427   3.320   3.880   5.574  1.4620  2.6326  1.4389
 8655SOL    HW237428   3.451   3.862   5.647 -0.0299  0.7127 -0.5071
 8656SOL     OW37429   3.586   2.899   0.823  0.5971 -0.0839 -0.5377
 8656SOL    HW137430   3.648   2.939   0.762  1.5793 -0.1931  0.3879
 8656SOL    HW237431   3.533   2.977   0.839 -1.0258 -1.0910 -1.0428
 8657SOL     OW37432   1.559   3.245   0.581 -0.0316  0.4434 -0.3280
 8657SOL    HW137433   1.634   3.257   0.522  1.5489 -0.4413  1.4942
 8657SOL    HW237434   1.599   3.192   0.649 -1.3396 -1.8481 -1.3396
 8658SOL     OW37435   4.524   4.101   0.398  0.1350  0.0992  0.9564
 8658SOL    HW137436   4.570   4.063   0.473  2.4388  0.9954 -0.0103
 8658SOL    HW237437   4.598   4.130   0.345 -0.3223  0.0842  0.3156
 8659SOL     OW37438   4.052   3.823   8.231  0.2010  0.5074  0.4742
 8659SOL    HW137439   3.959   3.847   8.224 -0.6612 -2.6770  1.3956
 8659SOL    HW237440   4.068   3.871   8.313  2.6746 -0.8973  0.8117
 8660SOL     OW37441   3.921   4.049   4.351  0.0665 -0.2397 -0.1300
 8660SOL    HW137442   3.896   4.075   4.440 -0.5796  1.0228 -0.6738
 8660SOL    HW237443   3.957   4.133   4.321 -0.3158  0.0012  0.0781
 8661SOL     OW37444   1.909   0.659   4.835  0.4653 -0.1541  0.4062
 8661SOL    HW137445   1.898   0.684   4.927  0.1586  0.2014  0.2733
 8661SOL    HW237446   1.986   0.604   4.849  0.7827 -0.3416 -2.0685
 8662SOL     OW37447   0.749   0.359   8.142  0.1462  0.0096 -0.0707
 8662SOL    HW137448   0.708   0.282   8.103  1.8003  0.3112 -2.3829
 8662SOL    HW237449   0.761   0.337   8.234  3.0368  2.2511  0.0800
 8663SOL     OW37450   1.276   2.332   4.754 -0.7751  0.1360  0.1643
 8663SOL    HW137451   1.225   2.310   4.831 -0.1640  2.4646  1.2613
 8663SOL    HW237452   1.362   2.304   4.784 -1.4485  0.3633  2.2515
 8664SOL     OW37453   3.386   4.643   8.745  0.6936 -0.4878 -0.2052
 8664SOL    HW137454   3.348   4.717   8.793 -0.9950 -0.5946 -1.4040
 8664SOL    HW237455   3.416   4.584   8.815  2.2698 -2.3625 -2.4578
 8665SOL     OW37456   0.090   1.305   4.016 -0.0558  0.0442  0.3302
 8665SOL    HW137457   0.174   1.348   4.031 -0.0844 -0.4595  2.0054
 8665SOL    HW237458   0.064   1.295   4.108  2.0123  0.2231  0.9389
 8666SOL     OW37459   1.133   4.689   3.178  0.3075  0.4004 -0.3466
 8666SOL    HW137460   1.079   0.020   3.121 -0.5372 -1.3585 -1.1749
 8666SOL    HW237461   1.103   4.602   3.153  0.2798  0.2904  0.0577
 8667SOL     OW37462   1.598   2.323   6.355 -0.0054 -0.5437 -0.2851
 8667SOL    HW137463   1.653   2.283   6.288  0.7645 -2.8321  1.6871
 8667SOL    HW237464   1.655   2.326   6.433 -0.9787  2.1754  0.3217
 8668SOL     OW37465   2.519   1.962   4.382 -0.3457  0.1560 -0.6908
 8668SOL    HW137466   2.521   1.901   4.457 -1.5903  0.2706 -0.5637
 8668SOL    HW237467   2.606   1.949   4.345  0.2943  1.2267  0.4365
 8669SOL     OW37468   3.028   4.027   4.616 -0.3189 -0.4296  0.4232
 8669SOL    HW137469   3.116   4.065   4.613 -0.2411 -0.7285 -1.3933
 8669SOL    HW237470   3.036   3.957   4.551  2.1310  1.4420 -1.2939
 8670SOL     OW37471   0.688   2.307   5.265 -0.2596 -0.3989  0.3241
 8670SOL    HW137472   0.770   2.354   5.283 -1.3178  1.7392 -0.3655
 8670SOL    HW237473   0.622   2.367   5.301 -0.1645  0.7676 -1.4625
 8671SOL     OW37474   1.555   2.568   3.505 -0.2694  0.1263  0.0031
 8671SOL    HW137475   1.487   2.501   3.515 -1.4194  0.7662 -3.4581
 8671SOL    HW237476   1.506   2.631   3.452  0.6008 -0.1982 -1.1852
 8672SOL     OW37477   3.437   1.232   2.797 -0.0031 -0.0787 -0.3800
 8672SOL    HW137478   3.365   1.288   2.768 -1.2709 -1.3541  0.3292
 8672SOL    HW237479   3.423   1.145   2.761 -2.0794 -0.7884  2.1416
 8673SOL     OW37480   3.765   3.478   4.624  0.0611 -0.5174 -0.1412
 8673SOL    HW137481   3.792   3.523   4.544  0.7391  1.3854  1.1392
 8673SOL    HW237482   3.850   3.445   4.655  0.2487 -2.0670 -2.2813
 8674SOL     OW37483   0.339   0.612   9.408  0.4163 -0.2158  0.0476
 8674SOL    HW137484   0.407   0.579   9.467  0.1333  0.6677  0.8617
 8674SOL    HW237485   0.268   0.549   9.422  1.8296 -1.5315  1.1614
 8675SOL     OW37486   4.519   0.662   7.507  0.9569 -0.6739  0.2944
 8675SOL    HW137487   4.463   0.702   7.575 -1.5552 -0.8990 -1.6623
 8675SOL    HW237488   4.580   0.732   7.481  0.4721 -0.5568 -0.5182
 8676SOL     OW37489   3.601   0.428   9.971 -0.5271 -0.0479 -0.3959
 8676SOL    HW137490   3.559   0.414  10.056  0.3917 -0.4580 -0.0032
 8676SOL    HW237491   3.609   0.524   9.976 -0.3165  0.0198 -2.0316
 8677SOL     OW37492   2.933   0.949   2.197  0.3917  0.4006  0.5337
 8677SOL    HW137493   2.961   0.865   2.234 -0.2579  0.9348  2.2060
 8677SOL    HW237494   2.896   0.927   2.111 -1.5199 -0.1283  1.4837
 8678SOL     OW37495   1.689   3.047   8.844  0.2920  0.1781 -0.1519
 8678SOL    HW137496   1.653   3.069   8.930  1.4909  1.3556  0.0606
 8678SOL    HW237497   1.615   3.049   8.785  0.4606  2.9230 -0.2722
 8679SOL     OW37498   4.438   3.059   2.265  0.6442  0.6148 -0.6727
 8679SOL    HW137499   4.372   3.070   2.333  1.2977 -1.0976  0.2422
 8679SOL    HW237500   4.403   2.987   2.213  0.1235  0.0283  0.5007
 8680SOL     OW37501   4.203   1.269   3.952  0.0384  0.0415  0.4324
 8680SOL    HW137502   4.279   1.311   3.994  1.7254  1.8829 -4.4347
 8680SOL    HW237503   4.144   1.264   4.026  0.5788  1.3854  0.9555
 8681SOL     OW37504   0.627   0.945   3.671 -0.5643 -0.1649  0.0343
 8681SOL    HW137505   0.717   0.931   3.698  0.1443  1.9047 -1.2305
 8681SOL    HW237506   0.601   0.853   3.676  1.8049 -0.8288  0.1533
 8682SOL     OW37507   4.216   3.284  12.332  0.1148 -0.1464 -0.3304
 8682SOL    HW137508   4.190   3.292  12.240  0.5781  0.4138 -0.4115
 8682SOL    HW237509   4.152   3.220  12.364  1.2864 -0.4707  1.3505
 8683SOL     OW37510   4.337   4.571   2.103  0.0840  0.2005 -0.6187
 8683SOL    HW137511   4.347   4.476   2.099 -0.1412  0.0006  3.2402
 8683SOL    HW237512   4.376   4.594   2.018  1.0897 -0.0070 -0.2103
 8684SOL     OW37513   4.050   2.700   2.779  0.4852 -0.0713 -0.4298
 8684SOL    HW137514   4.004   2.635   2.726  0.7581  1.2371 -2.2418
 8684SOL    HW237515   3.982   2.740   2.834  0.1091 -0.2327 -0.7760
 8685SOL     OW37516   2.639   0.589  14.235  0.0560  0.2723 -0.0648
 8685SOL    HW137517   2.633   0.625  14.323 -0.2295 -0.3998  0.1889
 8685SOL    HW237518   2.678   0.503  14.250 -1.5432  0.2327  3.6683
 8686SOL     OW37519   2.646   1.697   4.506 -0.4605  0.2456  0.0374
 8686SOL    HW137520   2.642   1.688   4.411  0.3640  0.8584 -0.0508
 8686SOL    HW237521   2.610   1.609   4.522 -1.7951  0.6602 -0.6565
 8687SOL     OW37522   0.888   0.314   6.358 -0.1013  0.7111  0.4221
 8687SOL    HW137523   0.974   0.338   6.392 -0.1550  3.2896 -1.2458
 8687SOL    HW237524   0.872   0.226   6.390 -1.5330  0.8889  0.1941
 8688SOL     OW37525   1.137   3.593   2.364 -0.3827  0.0789  0.6037
 8688SOL    HW137526   1.125   3.542   2.445 -1.5635 -0.4149  0.1306
 8688SOL    HW237527   1.164   3.679   2.394 -0.1790 -0.5033  2.1126
 8689SOL     OW37528   4.510   1.088   1.494  0.2219  0.4897 -0.0836
 8689SOL    HW137529   4.581   1.144   1.525  1.4684 -2.1799  1.8088
 8689SOL    HW237530   4.446   1.094   1.565  0.2495 -0.7732  0.0537
 8690SOL     OW37531   3.695   0.625   8.716  0.3597 -0.1602  0.0799
 8690SOL    HW137532   3.711   0.532   8.735 -1.0246 -0.8330 -2.0127
 8690SOL    HW237533   3.782   0.656   8.743 -0.0551 -0.0869  1.3335
 8691SOL     OW37534   3.312   3.708   2.759  0.6100  0.0937 -0.3469
 8691SOL    HW137535   3.280   3.715   2.669 -2.9455  2.7147  1.1233
 8691SOL    HW237536   3.246   3.761   2.804 -1.2918 -1.6063 -1.1289
 8692SOL     OW37537   2.154   4.362  15.489  0.0991  0.1741 -0.1714
 8692SOL    HW137538   2.183   4.413  15.413 -0.8820 -1.0338 -1.3667
 8692SOL    HW237539   2.152   4.431  15.555  0.8672  0.5598 -0.5480
 8693SOL     OW37540   4.149   2.887  14.673  0.2690  0.0874 -0.6800
 8693SOL    HW137541   4.182   2.876  14.583  3.8025 -0.5088  0.6896
 8693SOL    HW237542   4.173   2.802  14.711  0.3934  0.7945  0.7888
 8694SOL     OW37543   0.125   0.683   7.660  0.4553 -0.0913  0.0261
 8694SOL    HW137544   0.188   0.611   7.656  0.1135 -0.4376  0.8080
 8694SOL    HW237545   0.090   0.687   7.571 -1.5489 -2.7632  0.7131
 8695SOL     OW37546   0.144   3.545   3.348  0.0806 -0.5748 -0.5212
 8695SOL    HW137547   0.176   3.597   3.422 -0.6198 -0.5629 -0.2311
 8695SOL    HW237548   0.057   3.582   3.335  0.7350  1.0052 -0.3805
 8696SOL     OW37549   1.623   1.961  13.904  0.2714  0.6030  0.1310
 8696SOL    HW137550   1.572   2.023  13.852  1.3020  0.9750 -0.4502
 8696SOL    HW237551   1.657   1.898  13.840  2.0595  2.0175 -0.3084
 8697SOL     OW37552   2.759   2.588   9.434 -0.1538  0.4825 -0.0325
 8697SOL    HW137553   2.698   2.524   9.396  0.3741 -0.2658  0.3855
 8697SOL    HW237554   2.692   2.640   9.477  2.2389  3.4021  0.1417
 8698SOL     OW37555   2.085   4.400   7.831  0.3209  0.4575  0.5876
 8698SOL    HW137556   1.996   4.417   7.864 -0.2135 -0.4784 -0.4077
 8698SOL    HW237557   2.138   4.442   7.899  1.1352  1.5590 -0.7521
 8699SOL     OW37558   4.480   1.995   2.710 -0.0458  0.2645 -0.1393
 8699SOL    HW137559   4.386   1.996   2.695 -0.0619 -2.5502 -0.2140
 8699SOL    HW237560   4.487   2.024   2.801 -0.1913  2.6859 -0.8992
 8700SOL     OW37561   2.527   3.113   2.130  0.1739  0.0915 -0.1317
 8700SOL    HW137562   2.569   3.096   2.215  1.0251  1.4022 -0.2869
 8700SOL    HW237563   2.540   3.207   2.147  0.3704  0.4182 -2.1667
 8701SOL     OW37564   2.932   3.241   3.184  0.0783  0.3920 -0.0810
 8701SOL    HW137565   2.894   3.153   3.191  1.6551 -0.1633  1.3078
 8701SOL    HW237566   2.855   3.295   3.165 -0.1099  0.6358  1.3643
 8702SOL     OW37567   1.246   3.945   2.819  0.0838 -0.5528  0.3835
 8702SOL    HW137568   1.206   3.999   2.750  0.0438 -2.2426 -0.9075
 8702SOL    HW237569   1.313   3.900   2.768  1.1027  1.6448 -0.2428
 8703SOL     OW37570   2.998   3.894   2.431  0.3447 -0.1616 -0.4471
 8703SOL    HW137571   2.926   3.943   2.472  1.3502 -1.4115  2.7825
 8703SOL    HW237572   3.020   3.944   2.352 -0.4192 -0.3761 -0.7962
 8704SOL     OW37573   1.993   4.633   8.243  0.3248  0.5211  0.1123
 8704SOL    HW137574   2.034   4.678   8.169  2.2747 -1.3033  0.0952
 8704SOL    HW237575   1.901   4.652   8.221  0.0541  1.4696  2.0834
 8705SOL     OW37576   0.215   4.063   8.771 -0.4029  0.5272 -0.1335
 8705SOL    HW137577   0.260   4.125   8.713  0.8360  0.7750  1.0998
 8705SOL    HW237578   0.128   4.099   8.756 -0.7804 -0.7068 -0.9404
 8706SOL     OW37579   3.069   1.888   4.831  0.6227  0.6358  0.7593
 8706SOL    HW137580   3.113   1.967   4.800  0.6843 -0.2019 -1.2959
 8706SOL    HW237581   3.083   1.828   4.758 -1.7113  0.3029  0.5708
 8707SOL     OW37582   2.530   1.135   8.041 -0.0091 -0.1985  0.4293
 8707SOL    HW137583   2.476   1.215   8.046 -3.6739 -2.6430 -0.0092
 8707SOL    HW237584   2.595   1.150   7.972  1.0562  0.9818  1.6917
 8708SOL     OW37585   3.265   2.711   4.861 -0.2183 -0.5808  0.7059
 8708SOL    HW137586   3.173   2.730   4.883 -0.7150 -1.0801 -0.9739
 8708SOL    HW237587   3.304   2.796   4.881 -2.9020  1.0688 -1.1049
 8709SOL     OW37588   2.068   1.960   4.609 -0.0053  0.7790  0.2234
 8709SOL    HW137589   2.150   1.952   4.561  0.8987 -1.3338  2.0678
 8709SOL    HW237590   2.070   1.874   4.652 -0.6601  0.4553 -0.3981
 8710SOL     OW37591   0.647   4.239   4.100 -0.0796 -0.1775 -0.2337
 8710SOL    HW137592   0.687   4.193   4.027 -0.1969 -0.5810 -0.0444
 8710SOL    HW237593   0.721   4.288   4.135 -1.8940  3.2007 -1.1345
 8711SOL     OW37594   3.279   0.413  13.073 -0.6930 -0.4460  0.7415
 8711SOL    HW137595   3.229   0.393  13.152 -1.7959 -0.6810 -0.0115
 8711SOL    HW237596   3.218   0.461  13.017  0.7852  0.7831  0.2044
 8712SOL     OW37597   2.545   2.434   4.797 -0.0647  0.2988  0.3381
 8712SOL    HW137598   2.554   2.387   4.714 -0.7213 -3.9479  2.6692
 8712SOL    HW237599   2.451   2.451   4.809  0.3727  1.4692  1.9860
 8713SOL     OW37600   2.378   0.604   7.236  0.0164  0.1963 -0.3532
 8713SOL    HW137601   2.371   0.515   7.270  2.7478  0.2431  0.3678
 8713SOL    HW237602   2.300   0.654   7.261  0.3110  0.0380  0.8730
 8714SOL     OW37603   2.388   4.061   4.084  0.0748 -0.0631  0.3162
 8714SOL    HW137604   2.312   4.010   4.114  1.0258 -0.3286  2.2502
 8714SOL    HW237605   2.419   4.105   4.163 -2.1509  0.0856  1.1208
 8715SOL     OW37606   1.442   4.351   7.269  0.7261 -0.1822  0.3980
 8715SOL    HW137607   1.457   4.312   7.355 -1.0450 -2.5922 -0.3792
 8715SOL    HW237608   1.362   4.399   7.292 -0.1779 -1.1025 -0.8469
 8716SOL     OW37609   3.271   1.430   2.748  0.2763 -0.1970  0.3618
 8716SOL    HW137610   3.351   1.480   2.728 -1.5342  1.4295 -2.9542
 8716SOL    HW237611   3.253   1.464   2.836  1.0063  0.2405  0.3449
 8717SOL     OW37612   3.366   3.240   6.345 -0.2271  0.2008  0.2144
 8717SOL    HW137613   3.366   3.189   6.426 -0.8021 -1.8070 -1.0535
 8717SOL    HW237614   3.393   3.330   6.366 -1.3127  0.1489  1.9140
 8718SOL     OW37615   1.858   3.193   7.368  0.3195 -0.4203 -0.2954
 8718SOL    HW137616   1.778   3.156   7.406  0.1379  1.1910  0.8634
 8718SOL    HW237617   1.931   3.161   7.422 -0.7542 -0.7901  0.9396
 8719SOL     OW37618   3.275   4.063   6.214  0.2379  0.3054 -0.0926
 8719SOL    HW137619   3.355   4.013   6.194 -0.3297 -1.3488  1.8130
 8719SOL    HW237620   3.277   4.048   6.309  0.7480  1.5535  0.0916
 8720SOL     OW37621   3.454   0.629  15.496 -0.2841  0.0808 -0.1453
 8720SOL    HW137622   3.384   0.578  15.536  1.6632 -1.7761  0.8655
 8720SOL    HW237623   3.458   0.609  15.403 -1.3496 -1.3413  0.1243
 8721SOL     OW37624   0.421   2.508   3.528  0.2888 -0.1514  0.0241
 8721SOL    HW137625   0.440   2.517   3.622 -1.2598  0.4469  0.2749
 8721SOL    HW237626   0.411   2.598   3.499 -0.5033 -0.1624  0.2439
 8722SOL     OW37627   1.095   1.428   8.970 -0.3469 -0.1483 -0.2292
 8722SOL    HW137628   1.066   1.460   8.885 -1.9077  0.4572  0.5280
 8722SOL    HW237629   1.142   1.504   9.002 -1.2163  0.8798 -1.4258
 8723SOL     OW37630   4.612   3.129   9.660  0.0603  0.5595  0.6417
 8723SOL    HW137631   4.674   3.168   9.722 -0.2782 -0.9494  1.9410
 8723SOL    HW237632   4.642   3.039   9.671 -0.9559  0.2770  1.1122
 8724SOL     OW37633   1.210   1.459  10.330 -0.7288 -0.4266  0.3056
 8724SOL    HW137634   1.252   1.428  10.249  0.3954 -1.5670  1.3052
 8724SOL    HW237635   1.215   1.553  10.313 -4.4997 -0.2910  0.0853
 8725SOL     OW37636   0.207   1.192   4.377  0.3656 -0.0496  0.0434
 8725SOL    HW137637   0.138   1.177   4.312 -1.2762  0.6129  1.6392
 8725SOL    HW237638   0.180   1.135   4.449 -0.2601  0.1926  0.0039
 8726SOL     OW37639   4.160   3.806   4.970 -0.2710  0.1303  0.5375
 8726SOL    HW137640   4.112   3.876   5.014 -0.8112  0.3608 -0.4225
 8726SOL    HW237641   4.097   3.758   4.916  0.9775 -0.1951 -0.6426
 8727SOL     OW37642   2.815   4.284   6.034  0.1452  0.0767 -0.9289
 8727SOL    HW137643   2.841   4.287   5.942 -1.3219  1.0419 -1.3108
 8727SOL    HW237644   2.886   4.340   6.067 -0.7500 -0.5434  2.0257
 8728SOL     OW37645   1.308   0.530   3.637  0.0967  0.2720  0.3720
 8728SOL    HW137646   1.287   0.439   3.616  1.1037  0.1580 -0.1391
 8728SOL    HW237647   1.223   0.568   3.658  0.8441  1.7159  0.8395
 8729SOL     OW37648   1.592   3.093   9.394 -0.1010  0.1928  0.1333
 8729SOL    HW137649   1.549   3.057   9.472  1.0306  0.4081  0.8538
 8729SOL    HW237650   1.572   3.186   9.406  3.4179  1.1510 -1.6164
 8730SOL     OW37651   4.561   0.786   5.363 -0.1517  0.2083 -0.4917
 8730SOL    HW137652   4.595   0.794   5.274  1.3459 -0.1546  0.0469
 8730SOL    HW237653   4.644   0.785   5.411  0.5841  0.5322 -1.7621
 8731SOL     OW37654   3.657   0.758   1.808 -0.3071  0.0721  0.1247
 8731SOL    HW137655   3.694   0.736   1.722 -0.1193 -0.8623  0.4446
 8731SOL    HW237656   3.699   0.843   1.823  0.8023 -0.5946  0.7700
 8732SOL     OW37657   3.670   2.961   7.528 -0.5826 -0.1435  0.3221
 8732SOL    HW137658   3.732   2.926   7.592 -1.9782 -0.8401  1.3139
 8732SOL    HW237659   3.708   3.042   7.497  2.7115 -2.4532 -1.6028
 8733SOL     OW37660   4.378   4.379   2.577  0.0001  0.5741 -0.2735
 8733SOL    HW137661   4.429   4.406   2.500 -1.0286 -0.9041 -1.4662
 8733SOL    HW237662   4.413   4.293   2.599 -0.0020  0.8003  0.6117
 8734SOL     OW37663   1.253   2.767   3.705 -0.4702 -0.2255 -0.3445
 8734SOL    HW137664   1.190   2.697   3.722 -1.1960  1.0127  2.0586
 8734SOL    HW237665   1.272   2.801   3.792 -1.6263 -0.7190  0.1034
 8735SOL     OW37666   2.697   3.905   1.537 -0.1547  0.2796 -0.5324
 8735SOL    HW137667   2.786   3.938   1.539 -0.7606  1.8316  0.8953
 8735SOL    HW237668   2.713   3.812   1.553 -0.8247  0.1143 -0.8118
 8736SOL     OW37669   2.007   0.185   2.249  0.1526 -0.0556  0.1747
 8736SOL    HW137670   1.929   0.213   2.297 -0.4097  3.6796 -2.9042
 8736SOL    HW237671   1.983   0.203   2.158 -1.4573  0.8718  0.7962
 8737SOL     OW37672   3.223   2.907   1.465 -0.3514 -0.2444 -0.1314
 8737SOL    HW137673   3.219   2.946   1.552 -1.2643  0.4182 -0.4777
 8737SOL    HW237674   3.154   2.841   1.468 -1.6649  1.2593  2.3576
 8738SOL     OW37675   2.649   4.173   7.080  0.5264 -0.1280 -0.5189
 8738SOL    HW137676   2.628   4.238   7.147  0.8864  1.0256 -1.5304
 8738SOL    HW237677   2.737   4.204   7.058  0.5690 -0.2186 -0.4749
 8739SOL     OW37678   2.734   2.280   1.791 -0.1518  0.3886 -0.2110
 8739SOL    HW137679   2.699   2.204   1.746 -1.1777  0.1207  1.0618
 8739SOL    HW237680   2.664   2.344   1.802  0.3353  0.9543 -0.4193
 8740SOL     OW37681   4.664   2.674  10.688  0.1098 -0.3969 -0.3053
 8740SOL    HW137682   4.677   2.590  10.644  0.7989 -1.3484  1.7170
 8740SOL    HW237683   4.577   2.663  10.725 -0.0478  1.7970  0.0087
 8741SOL     OW37684   4.229   3.143   9.312 -0.5073 -0.5196  0.1764
 8741SOL    HW137685   4.137   3.171   9.309 -0.6197 -1.4223 -4.4510
 8741SOL    HW237686   4.278   3.222   9.290 -1.2491  0.6049  2.5593
 8742SOL     OW37687   3.522   3.114   4.999  0.3987 -0.0136  0.2307
 8742SOL    HW137688   3.479   3.071   4.925 -0.4272  1.6091 -0.2220
 8742SOL    HW237689   3.490   3.204   4.994 -1.9156 -0.9589 -2.0633
 8743SOL     OW37690   2.798   2.221  12.212  0.0304  0.4075  0.2087
 8743SOL    HW137691   2.893   2.215  12.206  0.0697  0.2664  1.1161
 8743SOL    HW237692   2.781   2.170  12.291  1.7748  0.0132  0.3199
 8744SOL     OW37693   1.103   2.378   1.706 -0.0658 -0.7044  0.2113
 8744SOL    HW137694   1.058   2.294   1.716  0.2044 -0.7688  0.8932
 8744SOL    HW237695   1.035   2.444   1.711 -0.8381 -1.4143 -0.7992
 8745SOL     OW37696   2.995   4.135   1.821  0.0375 -0.0272  0.5943
 8745SOL    HW137697   3.038   4.208   1.775  1.6141 -1.7221 -0.6383
 8745SOL    HW237698   2.903   4.155   1.806 -0.6169 -3.6012 -0.1497
 8746SOL     OW37699   3.990   1.572   2.721  0.0784 -0.5780  0.1173
 8746SOL    HW137700   4.032   1.499   2.676  2.5507 -0.6711  2.5477
 8746SOL    HW237701   3.927   1.593   2.652  0.1150  2.2359  0.9251
 8747SOL     OW37702   2.581   2.830  10.560 -0.2755  0.8103  0.3116
 8747SOL    HW137703   2.597   2.909  10.611  0.2344  1.6037 -1.0956
 8747SOL    HW237704   2.589   2.765  10.631 -0.0796 -2.1263 -2.3747
 8748SOL     OW37705   4.567   0.781  11.357 -0.4018  0.5035  0.3862
 8748SOL    HW137706   4.658   0.806  11.341 -0.0798  0.0267  1.4210
 8748SOL    HW237707   4.568   0.774  11.453 -2.2141  1.8075  0.5008
 8749SOL     OW37708   0.710   3.661   8.131 -0.8281  0.2096  0.2183
 8749SOL    HW137709   0.745   3.749   8.145  0.0523  0.0449 -0.9511
 8749SOL    HW237710   0.791   3.612   8.124 -1.2271 -0.4482  0.2369
 8750SOL     OW37711   0.443   3.354   1.659 -0.2504  0.3253 -0.1564
 8750SOL    HW137712   0.501   3.398   1.721 -1.3765 -0.0826  1.1900
 8750SOL    HW237713   0.505   3.336   1.589 -1.6645 -0.0824 -1.3039
 8751SOL     OW37714   0.665   1.481   2.650 -0.3543  0.0436 -0.1789
 8751SOL    HW137715   0.615   1.488   2.569  0.8792  0.8940 -0.8760
 8751SOL    HW237716   0.608   1.422   2.698  2.0321 -0.4617  2.0742
 8752SOL     OW37717   1.391   1.785   3.133  0.3415 -0.1955  0.5199
 8752SOL    HW137718   1.484   1.762   3.141  0.8314  1.8710  0.8037
 8752SOL    HW237719   1.355   1.745   3.212  0.3090  0.6922  0.9542
 8753SOL     OW37720   2.140   4.048   7.875 -0.3483  0.6483 -0.5719
 8753SOL    HW137721   2.053   4.077   7.899  0.0336  0.5068  0.9608
 8753SOL    HW237722   2.132   3.959   7.909 -0.6839  1.7239  2.1094
 8754SOL     OW37723   1.481   1.812  16.275 -0.2488  0.2553  0.2268
 8754SOL    HW137724   1.511   1.757  16.348  2.8070  0.9174 -0.5128
 8754SOL    HW237725   1.515   1.897  16.305  0.6709  0.3920 -1.2299
 8755SOL     OW37726   2.039   2.999  10.217  0.5512 -0.5765 -0.2978
 8755SOL    HW137727   2.049   3.057  10.292  2.1116 -0.3544 -0.6895
 8755SOL    HW237728   2.124   2.957  10.205  1.2806  0.9136 -0.2862
 8756SOL     OW37729   4.163   1.038   1.359 -0.0076 -0.6389  0.1205
 8756SOL    HW137730   4.242   1.065   1.312  0.2471 -0.3213  0.7265
 8756SOL    HW237731   4.197   0.958   1.400 -1.7805 -0.2531  2.3151
 8757SOL     OW37732   4.547   1.657   5.592  0.1843 -0.5538 -0.5863
 8757SOL    HW137733   4.452   1.653   5.592  0.0781  1.8319 -2.0722
 8757SOL    HW237734   4.574   1.571   5.624  0.0161 -0.6783 -0.7849
 8758SOL     OW37735   0.080   2.067   5.134 -0.2188  0.1101 -0.4898
 8758SOL    HW137736   0.089   1.975   5.160  0.8196  0.5239  0.5946
 8758SOL    HW237737   0.161   2.103   5.168  0.4577 -1.6222 -0.2776
 8759SOL     OW37738   1.218   1.135   6.241  0.5517  0.4314 -0.4217
 8759SOL    HW137739   1.154   1.158   6.173 -0.9435 -1.5030  0.3121
 8759SOL    HW237740   1.200   1.196   6.313  0.2852  1.1720 -1.1142
 8760SOL     OW37741   3.088   1.707   9.300 -0.1586 -0.0885  0.6281
 8760SOL    HW137742   3.048   1.769   9.239 -1.5048 -0.0688  1.5107
 8760SOL    HW237743   3.127   1.648   9.237 -1.6034 -0.0132 -0.3481
 8761SOL     OW37744   4.720   1.119   8.416 -0.1256 -0.0798  0.4234
 8761SOL    HW137745   4.633   1.107   8.377 -0.4029 -0.1299  1.0536
 8761SOL    HW237746   0.003   1.041   8.471  2.0876  2.2035  3.3567
 8762SOL     OW37747   1.945   2.316   6.911 -0.3243 -0.6655 -0.7987
 8762SOL    HW137748   2.000   2.261   6.967 -0.5102  0.2296  0.2456
 8762SOL    HW237749   1.883   2.346   6.978 -1.6945 -1.9667 -1.4691
 8763SOL     OW37750   0.744   2.680  17.136 -0.1095 -0.0643 -0.4127
 8763SOL    HW137751   0.808   2.655  17.203  0.3168 -3.1576 -1.9585
 8763SOL    HW237752   0.658   2.658  17.171 -0.0220 -0.1537 -0.2523
 8764SOL     OW37753   1.217   2.453   5.763 -0.4468 -0.6774 -0.1448
 8764SOL    HW137754   1.201   2.415   5.676 -1.0392  0.0067 -0.3322
 8764SOL    HW237755   1.140   2.505   5.783 -0.2861 -0.0081 -1.2565
 8765SOL     OW37756   3.165   1.113   2.839 -0.3835  0.1779  0.4497
 8765SOL    HW137757   3.135   1.198   2.871 -0.4729  0.3441 -0.0810
 8765SOL    HW237758   3.233   1.091   2.903 -1.6114 -0.6739  1.4414
 8766SOL     OW37759   3.892   0.243   0.105 -0.2811  0.5708 -0.0662
 8766SOL    HW137760   3.978   0.201   0.104  0.2502  1.6384  0.8949
 8766SOL    HW237761   3.882   0.294   0.025 -3.6407  0.2313  0.1127
 8767SOL     OW37762   3.181   2.118   7.881 -0.2258 -0.1033  0.1436
 8767SOL    HW137763   3.214   2.199   7.918  1.6146 -0.4994 -0.6322
 8767SOL    HW237764   3.095   2.144   7.848 -0.6652 -1.2796  0.3318
 8768SOL     OW37765   1.757   2.723   3.925 -0.1855 -0.1425 -0.7388
 8768SOL    HW137766   1.721   2.711   4.013  0.0448  2.9465 -0.2143
 8768SOL    HW237767   1.680   2.743   3.872 -1.1243 -2.0352 -0.0609
 8769SOL     OW37768   2.344   1.506   6.057  0.1063 -0.4077  0.1143
 8769SOL    HW137769   2.413   1.569   6.079  1.3593 -1.7960  0.1678
 8769SOL    HW237770   2.325   1.483   6.147  0.9768 -0.3645  0.3133
 8770SOL     OW37771   4.691   3.775   6.161 -0.2578 -0.5883 -0.0022
 8770SOL    HW137772   4.597   3.779   6.177 -0.3584  1.6532 -1.1399
 8770SOL    HW237773   4.677   3.789   6.067  1.2406  1.1740  0.0481
 8771SOL     OW37774   2.533   2.571   5.647 -0.0661 -0.3116  0.1214
 8771SOL    HW137775   2.628   2.572   5.635 -0.3584  1.3067 -2.0736
 8771SOL    HW237776   2.515   2.488   5.692  0.4909 -1.7338 -2.2890
 8772SOL     OW37777   0.570   2.194   5.827 -0.0382  0.5771  0.3356
 8772SOL    HW137778   0.595   2.216   5.917  0.8888  0.1294  0.1920
 8772SOL    HW237779   0.653   2.157   5.797 -1.6541 -3.2319  0.6123
 8773SOL     OW37780   3.729   4.336  11.310  0.5369  0.6552  0.0992
 8773SOL    HW137781   3.705   4.282  11.235  1.0883  0.3597  0.1361
 8773SOL    HW237782   3.713   4.278  11.383  1.2748  2.0497  1.3655
 8774SOL     OW37783   3.105   2.086   6.546 -0.1836 -0.3961 -0.1407
 8774SOL    HW137784   3.143   2.139   6.476 -0.8436  0.7387  0.3621
 8774SOL    HW237785   3.152   2.002   6.541 -1.7344 -1.3573  1.2023
 8775SOL     OW37786   3.796   2.738   3.466 -0.7477 -0.4492  0.0528
 8775SOL    HW137787   3.731   2.795   3.424 -0.7006 -1.0071 -0.7856
 8775SOL    HW237788   3.837   2.684   3.399  0.6816  0.2107  0.3987
 8776SOL     OW37789   1.285   0.573  10.527 -0.5800 -0.3523  0.0025
 8776SOL    HW137790   1.270   0.558  10.621  2.1037  0.2873  0.5282
 8776SOL    HW237791   1.308   0.483  10.503  0.8390 -0.2971  1.1567
 8777SOL     OW37792   0.608   0.001  15.429 -0.2348 -0.6890 -0.1513
 8777SOL    HW137793   0.632   4.655  15.367  0.7180 -0.4548 -0.0512
 8777SOL    HW237794   0.566   4.679  15.503 -0.6698  0.4225  0.2824
 8778SOL     OW37795   2.861   0.796   4.339 -0.7249 -0.0587 -0.1959
 8778SOL    HW137796   2.938   0.797   4.282 -2.7843  0.4271 -2.9726
 8778SOL    HW237797   2.804   0.785   4.262 -1.2836  1.2892  0.0274
 8779SOL     OW37798   0.947   2.860   8.750  0.2714 -0.8460  0.7458
 8779SOL    HW137799   0.962   2.835   8.841  0.7996  1.6668  1.3671
 8779SOL    HW237800   0.857   2.892   8.749  0.3350 -0.6565  2.2206
 8780SOL     OW37801   2.725   4.709   5.411 -0.4805  0.1567 -0.0840
 8780SOL    HW137802   2.720   4.623   5.368 -1.1052  0.4968 -0.6856
 8780SOL    HW237803   2.798   4.685   5.467  1.2665  1.1943 -1.9018
 8781SOL     OW37804   0.876   4.680   5.823  0.1232  0.0239  0.0125
 8781SOL    HW137805   0.937   0.010   5.772  0.8604 -0.2726  0.5948
 8781SOL    HW237806   0.936   4.646   5.889 -2.2701  0.2810  2.3329
 8782SOL     OW37807   0.656   1.277  16.554 -0.0862  0.4249  0.2199
 8782SOL    HW137808   0.568   1.301  16.582  0.4780  2.8351 -0.0585
 8782SOL    HW237809   0.664   1.202  16.612  2.4404  1.3996  1.1277
 8783SOL     OW37810   0.835   3.290   3.085 -0.3310  0.4346  0.4394
 8783SOL    HW137811   0.799   3.306   2.998  0.2221 -0.3806  0.0631
 8783SOL    HW237812   0.767   3.241   3.132  0.1227  1.1864  1.8912
 8784SOL     OW37813   0.162   2.913   9.919 -0.3754 -0.8925  0.5777
 8784SOL    HW137814   0.200   2.829   9.893  1.4784 -0.7003  2.6009
 8784SOL    HW237815   0.204   2.940  10.001 -0.2011 -0.3469  0.3017
 8785SOL     OW37816   3.207   0.351  10.570 -0.2987 -0.4460  0.6830
 8785SOL    HW137817   3.188   0.261  10.596 -1.5971 -0.2358  0.4687
 8785SOL    HW237818   3.142   0.362  10.500  0.6202 -1.3042 -0.3031
 8786SOL     OW37819   2.191   2.255  13.369  0.4131  0.3025  0.5779
 8786SOL    HW137820   2.278   2.226  13.341  0.5425  1.2913 -0.0725
 8786SOL    HW237821   2.128   2.231  13.302  0.2748  0.9852  0.4602
 8787SOL     OW37822   1.151   1.870  11.863  0.1106  0.0248 -0.5569
 8787SOL    HW137823   1.182   1.783  11.836  1.0779  0.5613 -1.1580
 8787SOL    HW237824   1.059   1.863  11.837  0.3125  0.1901 -1.3232
 8788SOL     OW37825   0.264   0.976   2.859  0.1558  0.8270 -0.3477
 8788SOL    HW137826   0.234   0.900   2.909  2.1553  1.5868  2.0058
 8788SOL    HW237827   0.332   1.009   2.919  2.1755 -0.0288 -2.1470
 8789SOL     OW37828   0.521   1.937  12.231 -0.7867  0.2990 -0.0811
 8789SOL    HW137829   0.486   1.893  12.309 -0.5495  0.4921  0.1343
 8789SOL    HW237830   0.444   1.959  12.180  0.3669  0.0273 -1.9434
 8790SOL     OW37831   4.033   3.322   4.560  0.1890  0.3665  0.2519
 8790SOL    HW137832   4.076   3.402   4.528 -2.6415  1.5042 -0.7167
 8790SOL    HW237833   4.003   3.280   4.479  0.0363 -0.5494  0.7921
 8791SOL     OW37834   3.109   4.330   1.629  0.1522  0.0673  0.2085
 8791SOL    HW137835   3.107   4.367   1.541 -1.5215 -0.4978  0.0136
 8791SOL    HW237836   3.204   4.331   1.643 -0.1555  0.8231  2.2635
 8792SOL     OW37837   2.634   4.227  17.574 -0.6044  0.0358 -0.0699
 8792SOL    HW137838   2.669   4.210  17.487 -1.6606 -0.2342 -0.4410
 8792SOL    HW237839   2.681   4.157  17.619  0.4813  0.0650 -1.1535
 8793SOL     OW37840   4.554   1.002   7.596 -0.1370 -0.3174 -0.2413
 8793SOL    HW137841   4.503   1.054   7.533  1.0411 -1.2179 -1.9433
 8793SOL    HW237842   4.628   0.966   7.547 -1.0861 -1.1728 -1.0420
 8794SOL     OW37843   0.758   0.531  16.245 -0.0991 -0.3268  0.1644
 8794SOL    HW137844   0.795   0.610  16.284  0.5563 -0.8401  0.5664
 8794SOL    HW237845   0.686   0.565  16.191 -0.5586 -0.3527  0.7584
 8795SOL     OW37846   0.306   4.118   5.812 -0.0827  0.4675  0.1119
 8795SOL    HW137847   0.351   4.069   5.743  0.1384 -0.8130  1.1726
 8795SOL    HW237848   0.374   4.137   5.876  0.7613  0.2623 -0.7229
 8796SOL     OW37849   2.966   0.657   2.666 -0.0758  0.2179  0.1942
 8796SOL    HW137850   3.001   0.684   2.751 -1.0283 -0.7976  0.9231
 8796SOL    HW237851   2.905   0.586   2.688 -0.5112  1.5970  3.4316
 8797SOL     OW37852   0.493   0.222   9.586 -0.1827 -0.7017  0.1142
 8797SOL    HW137853   0.430   0.263   9.527  0.4608  1.1716  0.7229
 8797SOL    HW237854   0.434   0.178   9.647  0.6656 -0.4369  1.1462
 8798SOL     OW37855   0.728   0.085   7.448  0.0263 -0.1288 -0.2989
 8798SOL    HW137856   0.670   0.103   7.523  0.1880  0.6092 -0.3510
 8798SOL    HW237857   0.661   0.082   7.379 -0.4128  2.3257  0.0282
 8799SOL     OW37858   0.199   1.999   9.083 -0.0188  0.3292 -0.1336
 8799SOL    HW137859   0.139   1.981   9.010 -0.6172 -0.4200  0.5382
 8799SOL    HW237860   0.186   1.922   9.139 -0.0919  1.2429  1.0937
 8800SOL     OW37861   1.663   2.520  15.800 -0.0540 -0.1890 -0.3682
 8800SOL    HW137862   1.626   2.472  15.874  1.2718  2.6636  2.1217
 8800SOL    HW237863   1.742   2.469  15.787  1.3201  1.7354  0.5175
 8801SOL     OW37864   1.318   4.694   4.372 -0.2371 -0.1907  0.0015
 8801SOL    HW137865   1.282   4.605   4.378  0.0159 -0.0881  3.2962
 8801SOL    HW237866   1.379   4.668   4.303  0.6881  1.0904  0.3369
 8802SOL     OW37867   3.314   3.999  14.882  0.4763 -0.4125  0.4144
 8802SOL    HW137868   3.292   4.047  14.962 -1.8457  0.8137 -0.9521
 8802SOL    HW237869   3.313   4.067  14.815  2.8798  0.3030  1.1192
 8803SOL     OW37870   3.686   2.647   2.234  0.4632 -0.0783 -0.2292
 8803SOL    HW137871   3.733   2.730   2.231 -2.8292  1.7545 -0.9420
 8803SOL    HW237872   3.737   2.583   2.184 -0.9240 -1.5805  0.2440
 8804SOL     OW37873   3.100   0.392  13.711  0.3065 -0.3794  0.0789
 8804SOL    HW137874   3.113   0.421  13.620 -0.4360 -0.8239 -0.1678
 8804SOL    HW237875   3.185   0.354  13.729 -0.1859 -1.2425  0.6001
 8805SOL     OW37876   1.832   2.068  15.180  0.6199 -0.1907 -0.0821
 8805SOL    HW137877   1.900   2.000  15.177 -0.2210 -1.0594  0.7176
 8805SOL    HW237878   1.814   2.067  15.274  1.0824  0.8727  0.0195
 8806SOL     OW37879   2.452   1.236   0.373 -0.3077  0.4821 -0.4589
 8806SOL    HW137880   2.418   1.237   0.284  0.9564 -1.8728 -0.9638
 8806SOL    HW237881   2.496   1.321   0.372  0.7167 -0.0171  0.7595
 8807SOL     OW37882   4.186   1.201   7.111 -0.4796  0.0080  0.0010
 8807SOL    HW137883   4.266   1.215   7.162  2.1683  0.9731 -4.4295
 8807SOL    HW237884   4.213   1.123   7.064  0.8833 -0.5739  1.7486
 8808SOL     OW37885   0.757   1.593  12.540  0.1456 -0.4576 -0.1293
 8808SOL    HW137886   0.839   1.628  12.575 -0.6904 -0.4528  1.8439
 8808SOL    HW237887   0.697   1.665  12.560 -1.4496 -1.1494 -2.4546
 8809SOL     OW37888   4.385   0.147   8.061  0.4592  0.2682  0.2101
 8809SOL    HW137889   4.299   0.113   8.085  1.1356 -1.2751  0.4769
 8809SOL    HW237890   4.381   0.241   8.079  0.4456  0.3665 -0.3120
 8810SOL     OW37891   2.966   2.084  16.593  0.4716 -0.5116  0.1820
 8810SOL    HW137892   3.016   2.043  16.522  1.6416 -0.4927  0.9797
 8810SOL    HW237893   2.935   2.008  16.642 -1.2467 -1.5092 -2.4760
 8811SOL     OW37894   2.742   4.722   6.610  0.2755  0.0352  1.0554
 8811SOL    HW137895   2.777   4.714   6.699  0.2519 -3.5430  0.7522
 8811SOL    HW237896   2.719   4.630   6.595  1.8803 -0.3019  0.6413
 8812SOL     OW37897   1.342   0.207   7.819 -0.1618 -0.3366 -0.3587
 8812SOL    HW137898   1.431   0.208   7.785 -0.1758 -3.4415 -0.4851
 8812SOL    HW237899   1.302   0.146   7.757 -1.3760  1.9660 -1.8809
 8813SOL     OW37900   2.743   1.971   5.368  0.0298 -0.3237 -0.0466
 8813SOL    HW137901   2.658   1.978   5.323  1.2161  0.2165 -2.2022
 8813SOL    HW237902   2.797   1.978   5.290  0.9782 -3.1398  0.3872
 8814SOL     OW37903   4.575   3.499  13.010 -0.7504  0.2220  0.6239
 8814SOL    HW137904   4.515   3.571  12.988 -1.0528 -0.3312 -0.3712
 8814SOL    HW237905   4.521   3.441  13.063 -1.4162 -1.2866 -1.7205
 8815SOL     OW37906   3.240   2.228   7.450  0.5246 -0.5446 -0.2574
 8815SOL    HW137907   3.308   2.193   7.507  1.0511  1.1570  0.1712
 8815SOL    HW237908   3.208   2.297   7.508 -0.8431 -0.1151 -1.5138
 8816SOL     OW37909   1.137   3.588  14.960 -0.2533  0.1228  0.3571
 8816SOL    HW137910   1.121   3.640  15.039 -0.7844  0.7688 -0.1780
 8816SOL    HW237911   1.231   3.598  14.973 -0.2229  0.6669 -0.3262
 8817SOL     OW37912   0.718   3.308   7.031 -0.1154 -0.0163  0.6948
 8817SOL    HW137913   0.661   3.325   6.956 -1.5512 -2.3331  1.2505
 8817SOL    HW237914   0.650   3.298   7.099 -0.7887 -4.4023 -0.5739
 8818SOL     OW37915   1.866   4.400   8.030 -1.0151  0.6050 -0.1814
 8818SOL    HW137916   1.772   4.380   8.022 -1.1307  0.8289  0.6514
 8818SOL    HW237917   1.898   4.349   8.104  0.6792  0.3064 -1.1249
 8819SOL     OW37918   2.744   3.604  10.768 -0.0955 -0.2556 -0.2189
 8819SOL    HW137919   2.678   3.548  10.810  0.9170 -0.5379  1.0082
 8819SOL    HW237920   2.686   3.657  10.714 -0.5995  1.3016  1.8340
 8820SOL     OW37921   4.391   3.342   4.220 -0.0124 -0.5387  0.2358
 8820SOL    HW137922   4.339   3.422   4.217 -2.2882 -2.0515 -0.8474
 8820SOL    HW237923   4.321   3.280   4.241 -2.1517  1.4315 -1.1249
 8821SOL     OW37924   0.661   3.826   2.043 -0.6992 -0.6200 -0.4832
 8821SOL    HW137925   0.707   3.855   1.964 -2.4110  0.5122 -1.0706
 8821SOL    HW237926   0.725   3.835   2.113  0.4950  1.9579 -1.9009
 8822SOL     OW37927   0.747   3.473   2.403  0.8756  0.3510 -0.3434
 8822SOL    HW137928   0.841   3.488   2.408  0.7480  0.4924  1.5797
 8822SOL    HW237929   0.704   3.558   2.393  0.0281 -0.0607 -0.2598
 8823SOL     OW37930   3.430   3.563   2.062  0.0485 -0.3135  0.7774
 8823SOL    HW137931   3.396   3.612   1.987  0.3921 -0.4204  0.5503
 8823SOL    HW237932   3.526   3.559   2.060  0.1168  1.7967  0.3755
 8824SOL     OW37933   2.644   2.066   9.750 -0.0434 -0.0170  0.2159
 8824SOL    HW137934   2.652   1.971   9.760 -1.4279 -0.2091 -0.4169
 8824SOL    HW237935   2.577   2.084   9.816 -1.6978 -0.2523 -1.3928
 8825SOL     OW37936   1.356   3.646   5.457 -0.0774 -0.8746 -0.5251
 8825SOL    HW137937   1.386   3.595   5.382 -2.1960 -1.0529 -1.2563
 8825SOL    HW237938   1.420   3.631   5.527  0.4723  1.2031 -0.5852
 8826SOL     OW37939   3.361   1.517   3.983 -0.4944 -0.2988 -0.3261
 8826SOL    HW137940   3.284   1.537   4.036 -0.6678  0.2091 -0.7682
 8826SOL    HW237941   3.341   1.425   3.965  0.3716 -0.5666  0.0795
 8827SOL     OW37942   2.853   0.046   7.372 -0.2648  0.0644 -0.0245
 8827SOL    HW137943   2.892   4.687   7.343 -3.5676 -1.8198  0.7936
 8827SOL    HW237944   2.777   0.016   7.422  0.1999  0.4642  0.9278
 8828SOL     OW37945   3.967   3.922   2.760 -0.0930  0.1206 -0.2895
 8828SOL    HW137946   4.034   3.859   2.734 -0.8226 -1.3043  1.3148
 8828SOL    HW237947   4.014   3.971   2.828 -1.3103  2.1898 -0.9440
 8829SOL     OW37948   1.353   3.993   3.711 -0.3817  0.3027 -0.4878
 8829SOL    HW137949   1.448   4.003   3.698 -0.5272  1.4081 -0.6668
 8829SOL    HW237950   1.343   3.976   3.617 -1.4245  0.2150 -0.3513
 8830SOL     OW37951   4.712   0.156   5.621  0.2413 -0.8417 -0.7115
 8830SOL    HW137952   0.051   0.084   5.625  1.4057  0.2212  0.5522
 8830SOL    HW237953   4.640   0.113   5.666 -1.5323  2.4401 -0.3931
 8831SOL     OW37954   1.008   0.571   3.437  0.0453 -0.3435  0.3126
 8831SOL    HW137955   1.094   0.604   3.409  0.3828  0.7602  2.6148
 8831SOL    HW237956   1.010   0.594   3.530  0.8784  1.3028 -0.0886
 8832SOL     OW37957   2.616   2.825   4.269  0.2817 -0.2468 -0.4921
 8832SOL    HW137958   2.641   2.736   4.247  1.5481 -0.3728  1.5233
 8832SOL    HW237959   2.521   2.825   4.254  0.0021 -0.4980  1.3063
 8833SOL     OW37960   0.401   2.547   3.965 -0.5703  0.6738 -0.3012
 8833SOL    HW137961   0.419   2.550   4.059 -0.4405 -2.5150 -0.2056
 8833SOL    HW237962   0.329   2.484   3.954  0.5714 -0.6451 -0.2890
 8834SOL     OW37963   2.896   0.274  17.150 -0.3713  0.4013  0.3332
 8834SOL    HW137964   2.818   0.249  17.099 -0.9242 -0.6603  1.7036
 8834SOL    HW237965   2.861   0.266  17.239 -0.3720  0.3859  0.3317
 8835SOL     OW37966   1.187   0.755   7.647 -0.0597  0.2590 -0.0331
 8835SOL    HW137967   1.270   0.787   7.682  0.4552  0.1142 -1.1217
 8835SOL    HW237968   1.128   0.812   7.697 -0.9853 -0.9031  0.2027
 8836SOL     OW37969   0.809   0.784   0.480  0.1640 -0.2215 -0.3125
 8836SOL    HW137970   0.815   0.747   0.568  0.4860 -0.7263 -0.5477
 8836SOL    HW237971   0.857   0.734   0.414 -0.6033 -0.1619 -0.9076
 8837SOL     OW37972   0.841   2.313   1.638  0.1666  0.0713  0.0444
 8837SOL    HW137973   0.869   2.235   1.590 -1.7330 -0.9813  0.6217
 8837SOL    HW237974   0.816   2.275   1.722  2.0023  0.3109  0.7021
 8838SOL     OW37975   4.151   0.938  17.290 -0.2060 -0.3847  0.2680
 8838SOL    HW137976   4.239   0.918  17.258 -0.0675 -0.1502  0.5000
 8838SOL    HW237977   4.115   0.973  17.208 -1.1469 -1.1308  0.3717
 8839SOL     OW37978   1.422   2.740  16.791 -0.1302  0.2632  0.0186
 8839SOL    HW137979   1.332   2.766  16.808 -0.2329 -0.4931  0.6233
 8839SOL    HW237980   1.467   2.732  16.875  1.8155  2.0939 -0.8237
 8840SOL     OW37981   3.178   0.266   2.114  0.5227 -0.0611 -0.2676
 8840SOL    HW137982   3.213   0.240   2.199 -1.1477 -1.0069  0.1271
 8840SOL    HW237983   3.206   0.192   2.061 -2.0180 -1.5778  0.5106
 8841SOL     OW37984   0.931   0.478   8.387  0.0180  0.2514  0.3086
 8841SOL    HW137985   0.991   0.547   8.417  1.5975 -0.7911 -0.5058
 8841SOL    HW237986   0.993   0.408   8.365  0.8315  1.2439 -0.5360
 8842SOL     OW37987   3.502   2.013   9.366  0.0573 -0.3194 -0.3034
 8842SOL    HW137988   3.484   1.925   9.398  1.3259 -0.3760  0.2601
 8842SOL    HW237989   3.596   2.005   9.347 -0.3686 -2.0110 -1.6164
 8843SOL     OW37990   4.453   3.107  12.935  0.5981 -0.4856 -0.4599
 8843SOL    HW137991   4.543   3.083  12.953  1.4896  0.4754 -3.6068
 8843SOL    HW237992   4.434   3.055  12.857  1.2849  0.0695 -0.9908
 8844SOL     OW37993   1.161   1.780   5.173 -0.0961 -0.6902  0.3207
 8844SOL    HW137994   1.129   1.776   5.082 -0.0853 -2.7321  0.4061
 8844SOL    HW237995   1.143   1.697   5.216 -0.6149 -1.0464 -0.5809
 8845SOL     OW37996   4.151   0.026   7.016  0.0147 -0.0981 -0.8119
 8845SOL    HW137997   4.159   4.700   7.097 -0.3340 -0.5444 -1.0462
 8845SOL    HW237998   4.236   0.071   7.014  0.2493 -0.5885 -2.1441
 8846SOL     OW37999   0.587   0.897   5.914  0.3512 -0.3517  0.0803
 8846SOL    HW138000   0.624   0.850   5.988  0.6049 -1.0981 -0.5287
 8846SOL    HW238001   0.665   0.940   5.879 -0.3756  0.3348 -0.7245
 8847SOL     OW38002   0.738   2.980   2.338  0.0469  0.3759 -0.2322
 8847SOL    HW138003   0.802   3.051   2.348 -1.6717  2.1520 -1.7869
 8847SOL    HW238004   0.682   3.028   2.277 -0.2010 -0.3245 -0.5454
 8848SOL     OW38005   4.632   2.997   4.790 -0.4507  0.5016  0.4831
 8848SOL    HW138006   4.547   3.016   4.830  0.3446 -1.8122  3.2537
 8848SOL    HW238007   4.632   3.041   4.705 -0.0634  1.0436  0.7568
 8849SOL     OW38008   1.448   0.307  17.020  0.5951 -0.1428 -0.0083
 8849SOL    HW138009   1.488   0.252  16.953  1.2208 -0.5209  0.6715
 8849SOL    HW238010   1.355   0.288  17.004  0.9154  0.9090 -2.9972
 8850SOL     OW38011   3.875   3.658   4.149 -0.9730 -0.5019  0.3796
 8850SOL    HW138012   3.915   3.744   4.160 -2.8488  0.3195  0.6879
 8850SOL    HW238013   3.889   3.633   4.058  1.1314 -0.5785  0.7284
 8851SOL     OW38014   0.846   2.168   4.236  0.4068 -0.3421 -0.6030
 8851SOL    HW138015   0.774   2.222   4.203 -0.4454 -0.7934  0.5179
 8851SOL    HW238016   0.927   2.204   4.199  0.0320 -0.2662 -1.3337
 8852SOL     OW38017   3.117   2.878   7.177 -0.1526 -0.6606 -0.1957
 8852SOL    HW138018   3.162   2.962   7.178 -3.3815  1.0607  0.4086
 8852SOL    HW238019   3.086   2.891   7.088  1.2944  1.0813 -0.4264
 8853SOL     OW38020   4.701   0.334   3.821  0.1640 -0.1698  0.3108
 8853SOL    HW138021   4.609   0.359   3.820  0.3231  0.4355  0.4486
 8853SOL    HW238022   4.685   0.245   3.790 -0.1077 -0.2399  0.6464
 8854SOL     OW38023   0.694   1.077   6.612 -0.3498  0.3127  0.0692
 8854SOL    HW138024   0.603   1.089   6.585 -0.3925  2.2894  1.0954
 8854SOL    HW238025   0.679   1.045   6.700  2.2803  1.7595  1.0463
 8855SOL     OW38026   2.086   4.047   0.162 -0.4563  0.0009 -0.1582
 8855SOL    HW138027   2.078   4.054   0.257  1.6524  1.2102 -0.0624
 8855SOL    HW238028   2.179   4.022   0.159  0.0570  1.8325  0.4132
 8856SOL     OW38029   1.608   3.824   6.343 -0.4458 -0.0380 -0.3033
 8856SOL    HW138030   1.692   3.857   6.373  0.0043  0.6382 -2.3334
 8856SOL    HW238031   1.632   3.797   6.255 -0.6667  1.2860 -0.7610
 8857SOL     OW38032   3.332   2.697   1.191 -0.4197  0.2598  0.1943
 8857SOL    HW138033   3.338   2.613   1.235 -3.1123 -0.3690 -0.6003
 8857SOL    HW238034   3.418   2.732   1.215 -0.6281  0.9925 -0.1021
 8858SOL     OW38035   2.417   0.597   0.623 -1.0435 -0.2515  0.3320
 8858SOL    HW138036   2.469   0.537   0.677  0.5620 -0.3939 -1.3695
 8858SOL    HW238037   2.434   0.551   0.541 -2.8115  0.2306 -0.2999
 8859SOL     OW38038   1.344   3.628  15.141 -0.2355  0.4127 -0.2376
 8859SOL    HW138039   1.423   3.674  15.113 -0.5318 -0.4617 -2.4932
 8859SOL    HW238040   1.282   3.699  15.160  0.3966  0.9337 -0.1025
 8860SOL     OW38041   0.951   1.588   9.868  0.0138  0.0298 -0.4241
 8860SOL    HW138042   0.986   1.598   9.957  1.4439 -1.0418 -0.8540
 8860SOL    HW238043   0.953   1.680   9.843  0.0691  0.2753  0.4704
 8861SOL     OW38044   2.233   0.254  12.217  0.0907 -0.0142 -0.4638
 8861SOL    HW138045   2.161   0.210  12.172  0.1642 -1.2744  0.6385
 8861SOL    HW238046   2.203   0.343  12.238  0.2983 -0.1918  0.5839
 8862SOL     OW38047   2.824   3.969   8.496  0.1281 -0.0649  0.1105
 8862SOL    HW138048   2.866   4.046   8.459 -0.3631  0.1411 -0.0173
 8862SOL    HW238049   2.771   3.942   8.421  1.6721  0.8427 -1.2962
 8863SOL     OW38050   0.132   1.796   8.600 -0.6722  0.0353 -0.1696
 8863SOL    HW138051   0.178   1.836   8.526  2.1763  0.8189  2.0485
 8863SOL    HW238052   0.046   1.839   8.589 -1.3486 -1.4365 -0.6683
 8864SOL     OW38053   4.476   2.551  14.176  0.0550 -0.8659  0.1576
 8864SOL    HW138054   4.510   2.616  14.116 -1.1213 -0.1872  0.2230
 8864SOL    HW238055   4.451   2.611  14.247  2.7702  1.9868 -1.3214
 8865SOL     OW38056   0.921   4.611   7.467 -0.7153  0.1966  0.5171
 8865SOL    HW138057   0.842   4.663   7.459  0.6920  2.0949 -0.9913
 8865SOL    HW238058   0.911   4.593   7.561  1.2866  1.1005  0.9161
 8866SOL     OW38059   2.743   4.007   3.712 -0.0102  0.4795 -0.0355
 8866SOL    HW138060   2.684   3.959   3.655 -0.2215  1.4381 -0.6295
 8866SOL    HW238061   2.692   4.086   3.732 -0.9634 -0.1377 -0.0613
 8867SOL     OW38062   4.297   4.319  10.938  0.6235 -0.5107 -0.6545
 8867SOL    HW138063   4.318   4.285  11.025 -0.1020  1.5291  0.3266
 8867SOL    HW238064   4.203   4.333  10.939  1.0084  2.1167  0.2784
 8868SOL     OW38065   3.742   0.962   7.384  0.2395 -0.1968  0.0489
 8868SOL    HW138066   3.727   1.019   7.460  0.9294  0.1721 -0.0961
 8868SOL    HW238067   3.799   1.017   7.330  0.5592  2.0031  2.6392
 8869SOL     OW38068   3.326   1.082  14.807  0.0131  0.5860  0.3189
 8869SOL    HW138069   3.346   1.146  14.738  1.5715 -2.3915 -2.0077
 8869SOL    HW238070   3.238   1.108  14.834 -0.6616 -0.2229 -1.0814
 8870SOL     OW38071   3.683   3.077   8.932 -0.1902  0.7086  0.1327
 8870SOL    HW138072   3.606   3.065   8.876 -0.1579 -1.1958  0.4888
 8870SOL    HW238073   3.749   3.108   8.870  1.8628 -3.1531  0.3918
 8871SOL     OW38074   1.554   0.046  11.012  0.3745 -0.2833 -0.6190
 8871SOL    HW138075   1.580   4.702  10.949 -0.0953 -0.3211 -0.7761
 8871SOL    HW238076   1.637   0.072  11.051 -0.5901 -0.4604  1.5535
 8872SOL     OW38077   1.377   3.535   8.722 -0.3645 -0.0013 -0.1268
 8872SOL    HW138078   1.434   3.458   8.732 -0.0654  0.4292  1.4842
 8872SOL    HW238079   1.436   3.579   8.661  0.6469  0.6897  1.3734
 8873SOL     OW38080   3.954   0.532   1.362  0.7723  0.2073  0.3800
 8873SOL    HW138081   3.951   0.483   1.280 -2.6629 -0.1876  0.7371
 8873SOL    HW238082   4.044   0.525   1.393  1.0295  1.1874 -0.1330
 8874SOL     OW38083   0.570   0.561   0.914 -0.4949 -0.1586 -0.5426
 8874SOL    HW138084   0.489   0.591   0.955 -0.9041 -2.2994  0.2345
 8874SOL    HW238085   0.623   0.640   0.929 -1.7027  0.8374 -1.5067
 8875SOL     OW38086   1.547   0.697   4.347  0.5730 -0.5047  0.2115
 8875SOL    HW138087   1.526   0.610   4.314  0.5457 -0.5863  0.4432
 8875SOL    HW238088   1.463   0.724   4.385  0.9568  0.1463  0.6069
 8876SOL     OW38089   1.949   2.254   8.641 -0.2749 -0.2778  0.9418
 8876SOL    HW138090   1.858   2.233   8.620  0.1612 -1.6142  0.3750
 8876SOL    HW238091   1.991   2.169   8.627  0.0523  0.3206 -1.8273
 8877SOL     OW38092   2.354   2.920  15.418  0.1116 -0.6009 -0.6602
 8877SOL    HW138093   2.349   2.900  15.512  1.0970  1.0262 -0.2681
 8877SOL    HW238094   2.445   2.899  15.398  0.0241 -0.2768 -1.3893
 8878SOL     OW38095   1.929   3.860   2.422 -0.1141 -0.5100  1.1011
 8878SOL    HW138096   1.976   3.940   2.446 -1.7132  1.1223 -1.1843
 8878SOL    HW238097   1.902   3.832   2.509 -0.6210 -3.3687  0.0363
 8879SOL     OW38098   1.906   3.950   2.767  0.8894  0.5053 -0.0711
 8879SOL    HW138099   1.893   3.864   2.729  0.1224  1.5127 -2.0950
 8879SOL    HW238100   1.817   3.982   2.780  0.2256 -1.5932  0.5209
 8880SOL     OW38101   1.195   0.445  15.771  0.2719  0.5656  0.1170
 8880SOL    HW138102   1.188   0.536  15.742  1.4047  0.1110 -1.6243
 8880SOL    HW238103   1.208   0.394  15.690 -0.3367  0.5434  0.0366
 8881SOL     OW38104   0.384   1.575   3.075 -1.1107  0.2051 -0.6884
 8881SOL    HW138105   0.289   1.577   3.091 -1.1941 -1.0069 -1.0534
 8881SOL    HW238106   0.388   1.503   3.012  1.3386  0.4571 -0.8238
 8882SOL     OW38107   1.053   2.094   2.346 -0.2188 -0.6587  0.8418
 8882SOL    HW138108   1.077   2.092   2.438  3.0060  0.3694  0.0283
 8882SOL    HW238109   1.069   2.003   2.320  0.6744  0.0886 -1.2494
 8883SOL     OW38110   0.503   2.027  13.284  0.6219 -0.3000  0.2559
 8883SOL    HW138111   0.519   2.084  13.359 -0.2926  0.8211 -0.4071
 8883SOL    HW238112   0.457   2.078  13.218  0.5846  1.1739  1.4158
 8884SOL     OW38113   0.950   1.129   3.617 -0.1686  0.0676  0.5297
 8884SOL    HW138114   1.032   1.166   3.651 -0.1730  0.5122  0.0426
 8884SOL    HW238115   0.887   1.186   3.662 -0.2942  0.4562 -0.1397
 8885SOL     OW38116   0.809   1.103   2.806  0.1566 -0.0129  0.0876
 8885SOL    HW138117   0.779   1.082   2.895 -1.2458  0.0773 -0.3590
 8885SOL    HW238118   0.842   1.022   2.768 -0.4714 -0.1736 -0.1183
 8886SOL     OW38119   1.745   0.479  13.425 -0.1094 -0.7774  0.9640
 8886SOL    HW138120   1.763   0.446  13.338  0.0744  0.5908  0.4787
 8886SOL    HW238121   1.649   0.482  13.429  0.0263  3.0618  1.6403
 8887SOL     OW38122   1.986   3.543  10.712 -0.7551  0.5642  0.1248
 8887SOL    HW138123   1.992   3.467  10.771  2.1275  0.7742  0.1210
 8887SOL    HW238124   1.961   3.512  10.625 -2.2133 -0.7299  0.9933
 8888SOL     OW38125   3.770   4.590   2.164  0.1340 -0.1750  0.1191
 8888SOL    HW138126   3.705   4.637   2.215 -0.4429 -0.3449 -0.4447
 8888SOL    HW238127   3.715   4.511   2.165 -0.8571  0.5498  1.4610
 8889SOL     OW38128   4.548   2.834   7.044  0.4479 -0.1369  0.1759
 8889SOL    HW138129   4.608   2.896   7.000 -0.9830  0.5488 -0.8136
 8889SOL    HW238130   4.464   2.878   7.033 -0.0803 -1.2003 -0.0953
 8890SOL     OW38131   2.842   3.099  10.652 -0.2537  0.2377 -0.8635
 8890SOL    HW138132   2.861   3.193  10.655 -0.2426  0.1543  1.9601
 8890SOL    HW238133   2.748   3.089  10.665 -0.4963  1.9477 -1.2913
 8891SOL     OW38134   4.539   1.587   3.694  0.4614 -0.5249 -0.2375
 8891SOL    HW138135   4.452   1.568   3.658  0.3390 -0.5224  0.0526
 8891SOL    HW238136   4.597   1.537   3.636 -0.8457 -2.6324  0.2431
 8892SOL     OW38137   1.899   0.378   2.758  0.0565  0.5467 -1.1669
 8892SOL    HW138138   1.894   0.409   2.667 -0.6019  1.3751 -0.8422
 8892SOL    HW238139   1.839   0.433   2.809  0.6062  0.6683 -0.6546
 8893SOL     OW38140   2.663   3.491   1.417 -0.3425  0.1269 -0.1802
 8893SOL    HW138141   2.688   3.450   1.500 -1.4739  2.0895  1.1292
 8893SOL    HW238142   2.747   3.499   1.371 -1.1135 -2.7831 -2.0881
 8894SOL     OW38143   3.402   1.740   7.626  0.1111 -0.6897  0.8697
 8894SOL    HW138144   3.386   1.675   7.694  1.0657 -0.3393  1.4340
 8894SOL    HW238145   3.319   1.727   7.580  1.1140 -1.9301 -0.5766
 8895SOL     OW38146   2.773   1.402  16.795 -0.1641  0.4710  0.2508
 8895SOL    HW138147   2.843   1.427  16.734  0.2496 -1.5802 -0.1101
 8895SOL    HW238148   2.719   1.349  16.736  1.1536 -2.4353  1.6761
 8896SOL     OW38149   4.217   3.981  13.877 -0.0578  0.0663 -0.1710
 8896SOL    HW138150   4.272   3.928  13.819 -2.1478 -0.9854 -1.1857
 8896SOL    HW238151   4.135   3.932  13.886 -0.1103  0.1757 -0.0420
 8897SOL     OW38152   2.365   2.695   6.782 -0.1440 -0.0196 -0.5780
 8897SOL    HW138153   2.388   2.618   6.730 -1.7691 -0.8274 -0.1109
 8897SOL    HW238154   2.320   2.648   6.853 -0.0990 -0.3699 -0.7802
 8898SOL     OW38155   1.768   0.274  13.605  0.0728 -0.4764 -0.3066
 8898SOL    HW138156   1.718   0.194  13.592 -1.8320  0.6850 -0.0939
 8898SOL    HW238157   1.756   0.325  13.525 -0.1884 -0.4789 -0.2680
 8899SOL     OW38158   3.863   3.739  14.210  0.1355 -0.5995 -0.3115
 8899SOL    HW138159   3.931   3.764  14.272  0.7292 -0.4185 -1.0313
 8899SOL    HW238160   3.791   3.701  14.259  0.8886  0.6087  1.7448
 8900SOL     OW38161   2.764   4.459   5.306  0.2828  0.2187  0.0116
 8900SOL    HW138162   2.785   4.399   5.378  1.5981  0.3894 -0.2230
 8900SOL    HW238163   2.801   4.414   5.230  0.2299  0.8182 -0.3687
 8901SOL     OW38164   2.565   0.291   8.627 -0.1776 -0.1727 -0.0587
 8901SOL    HW138165   2.594   0.358   8.689  0.2109 -0.0648 -0.3553
 8901SOL    HW238166   2.568   0.333   8.541 -2.5663  0.2443  0.0717
 8902SOL     OW38167   4.299   2.765   7.918 -0.3950 -0.3421  0.4659
 8902SOL    HW138168   4.279   2.695   7.979  1.1073 -1.2585 -0.0903
 8902SOL    HW238169   4.268   2.733   7.833 -0.3613  0.7824  0.0212
 8903SOL     OW38170   4.593   2.676  16.777 -0.0141 -0.0977 -0.5928
 8903SOL    HW138171   4.506   2.691  16.814  0.4997 -1.3954  1.1220
 8903SOL    HW238172   4.573   2.595  16.729 -0.6253 -0.4833  0.3283
 8904SOL     OW38173   1.007   2.621   6.794  0.0427 -0.4019 -0.8029
 8904SOL    HW138174   1.047   2.535   6.796 -0.8451 -0.8239 -1.4365
 8904SOL    HW238175   1.082   2.678   6.780  0.2286 -0.0678  1.4890
 8905SOL     OW38176   0.277   0.280   0.717 -0.2431  0.0359 -0.2938
 8905SOL    HW138177   0.363   0.321   0.728  1.1856 -2.9488 -0.3446
 8905SOL    HW238178   0.225   0.343   0.767  0.5677 -0.3523  1.0446
 8906SOL     OW38179   3.598   0.246   7.027 -0.1912 -0.1835 -0.3423
 8906SOL    HW138180   3.561   0.282   6.947 -2.2511 -1.2688  0.1340
 8906SOL    HW238181   3.693   0.245   7.016 -0.2392  2.0348 -0.9381
 8907SOL     OW38182   3.284   1.172  13.972  0.4296  0.1216  0.0267
 8907SOL    HW138183   3.287   1.151  13.879 -0.0360 -1.0854  0.2829
 8907SOL    HW238184   3.251   1.260  13.958 -0.0099 -0.3528 -1.8551
 8908SOL     OW38185   0.636   1.203   2.106 -0.1481 -0.8116 -0.2787
 8908SOL    HW138186   0.555   1.227   2.150  0.2373  1.5877 -0.8732
 8908SOL    HW238187   0.594   1.209   2.020 -1.8837 -3.6911  0.3833
 8909SOL     OW38188   4.152   0.032   8.062 -0.3880 -0.4108  0.0314
 8909SOL    HW138189   4.095   0.073   7.997  0.5474  2.0262  0.7446
 8909SOL    HW238190   4.108   0.063   8.140 -1.3671  0.0675 -0.7131
 8910SOL     OW38191   0.933   3.835   8.058  0.2236 -0.5333  0.3480
 8910SOL    HW138192   1.010   3.828   8.115  0.3768 -1.0951  0.0752
 8910SOL    HW238193   0.973   3.833   7.970 -0.2099 -1.8493  0.1858
 8911SOL     OW38194   3.021   4.466   6.078 -0.6618 -0.4833 -0.0199
 8911SOL    HW138195   3.107   4.506   6.090 -0.9004  0.0352 -0.0362
 8911SOL    HW238196   3.003   4.494   5.988 -1.9885 -2.1861 -0.2727
 8912SOL     OW38197   3.907   1.844   5.049 -0.8125 -0.7237 -0.2978
 8912SOL    HW138198   3.852   1.782   5.097  0.6404 -0.5094  1.6684
 8912SOL    HW238199   3.994   1.816   5.079  0.4279  0.9397 -2.3212
 8913SOL     OW38200   2.838   0.258   2.293  0.2474  0.1108  0.1971
 8913SOL    HW138201   2.855   0.292   2.206 -2.8313 -0.9455 -0.8345
 8913SOL    HW238202   2.900   0.186   2.304 -0.1966 -0.2130  0.6209
 8914SOL     OW38203   3.802   4.483   1.285 -0.3911  0.3892  0.4593
 8914SOL    HW138204   3.894   4.462   1.303 -1.0763  0.0045  3.3808
 8914SOL    HW238205   3.802   4.571   1.322 -2.0217  0.5816 -0.0346
 8915SOL     OW38206   3.320   0.431  15.630  0.3775 -0.3643  0.0430
 8915SOL    HW138207   3.286   0.368  15.694 -0.5890  1.0316  0.9086
 8915SOL    HW238208   3.289   0.386  15.551  1.3660 -1.3413  0.2204
 8916SOL     OW38209   3.083   4.458   6.377  0.2090 -0.0008  0.1182
 8916SOL    HW138210   3.155   4.414   6.332  0.5744  1.4791 -0.7310
 8916SOL    HW238211   3.020   4.386   6.379  1.1772 -0.8162  2.0323
 8917SOL     OW38212   0.384   2.777   3.476 -0.0073  0.2918 -0.3178
 8917SOL    HW138213   0.352   2.817   3.557 -0.0962 -0.6573  0.1140
 8917SOL    HW238214   0.310   2.791   3.417  0.3551  4.1477  0.1517
 8918SOL     OW38215   3.938   0.744   1.941  0.1154  0.7886 -0.3072
 8918SOL    HW138216   4.027   0.776   1.927 -0.4881  2.6165  0.0102
 8918SOL    HW238217   3.893   0.822   1.907 -1.9273 -0.0526  0.4812
 8919SOL     OW38218   1.261   3.152  13.431 -0.1460  0.1939  0.4693
 8919SOL    HW138219   1.227   3.185  13.514 -2.6307  0.5525 -0.6909
 8919SOL    HW238220   1.351   3.128  13.449 -0.2289  1.0255  1.9337
 8920SOL     OW38221   2.924   4.244   2.294 -0.7480 -0.0110 -0.1414
 8920SOL    HW138222   2.977   4.318   2.325 -1.3601  1.1248 -1.7680
 8920SOL    HW238223   2.981   4.168   2.293 -2.7838 -1.5397  0.6381
 8921SOL     OW38224   0.239   0.631   4.841 -0.0145  0.2892 -0.2531
 8921SOL    HW138225   0.319   0.677   4.866  0.7711  0.3821 -2.9411
 8921SOL    HW238226   0.191   0.704   4.801  0.5018 -0.5955 -2.5084
 8922SOL     OW38227   2.124   4.173   0.439  0.0919 -0.2533  0.0981
 8922SOL    HW138228   2.077   4.107   0.490 -0.2851  0.2173  0.3587
 8922SOL    HW238229   2.205   4.128   0.415 -0.2843 -1.3443  0.8924
 8923SOL     OW38230   3.052   3.446   3.349  0.2957 -0.5286 -0.1249
 8923SOL    HW138231   3.077   3.498   3.273 -0.9719 -0.9107 -0.7978
 8923SOL    HW238232   2.994   3.384   3.304  0.2527 -1.1510  0.7839
 8924SOL     OW38233   1.821   0.044   1.747 -1.0947  0.3263 -0.1486
 8924SOL    HW138234   1.824   4.700   1.678  1.1475  0.0242  0.2365
 8924SOL    HW238235   1.746   0.096   1.719 -2.4109 -1.7002 -0.4254
 8925SOL     OW38236   4.457   4.182  12.378 -0.2749  0.3082  0.1240
 8925SOL    HW138237   4.446   4.202  12.285  0.5589  0.0882 -0.0280
 8925SOL    HW238238   4.375   4.200  12.422  0.0916  2.2822  0.0242
 8926SOL     OW38239   2.275   2.215  12.490 -0.3580 -0.2584  0.9186
 8926SOL    HW138240   2.356   2.170  12.513  1.1843  2.2379  0.4082
 8926SOL    HW238241   2.284   2.299  12.535  4.0739 -0.3920  0.3111
 8927SOL     OW38242   3.107   4.345   5.437  0.4180  0.1624 -0.1828
 8927SOL    HW138243   3.106   4.419   5.376  2.6202  0.3352 -0.0206
 8927SOL    HW238244   3.152   4.388   5.509  0.7633 -1.8188  0.7728
 8928SOL     OW38245   1.767   3.733   7.893 -0.1258 -0.1240 -0.0645
 8928SOL    HW138246   1.684   3.685   7.882 -0.4276 -0.2144  2.6861
 8928SOL    HW238247   1.799   3.696   7.975 -2.7190  0.9277  1.4152
 8929SOL     OW38248   1.978   2.312   3.964  0.5367  0.0681  0.0203
 8929SOL    HW138249   1.965   2.395   3.918  1.0411 -1.3713 -2.7280
 8929SOL    HW238250   2.053   2.332   4.021 -1.6419  1.1763  2.4685
 8930SOL     OW38251   2.611   2.986   4.646  0.2293 -0.6909 -0.7009
 8930SOL    HW138252   2.686   2.929   4.635  0.6190 -0.3308  0.0798
 8930SOL    HW238253   2.577   2.938   4.722  2.1368  1.7269  1.6649
 8931SOL     OW38254   2.472   0.889   3.986  0.1231 -0.2069 -0.2908
 8931SOL    HW138255   2.460   0.975   3.945  0.2883  1.6814  3.6218
 8931SOL    HW238256   2.398   0.886   4.047 -0.4472  2.1491 -0.8791
 8932SOL     OW38257   1.838   4.106   5.609 -1.0488  0.4964 -0.0714
 8932SOL    HW138258   1.826   4.052   5.687  0.5555  0.2856  0.0297
 8932SOL    HW238259   1.856   4.192   5.647 -2.0381  0.8409 -0.4103
 8933SOL     OW38260   1.675   1.514   0.879 -0.3911  0.3309  0.5019
 8933SOL    HW138261   1.660   1.608   0.885  0.1547  0.2456  3.1373
 8933SOL    HW238262   1.765   1.513   0.912 -0.7798 -0.2825  1.5523
 8934SOL     OW38263   4.682   1.392  10.322 -0.2841 -0.1154  0.2429
 8934SOL    HW138264   4.645   1.368  10.237 -1.3536 -0.9165  0.9459
 8934SOL    HW238265   4.715   1.307  10.352  1.8424  0.3953 -0.6041
 8935SOL     OW38266   0.789   4.274  15.838 -0.7943 -0.1331  0.5772
 8935SOL    HW138267   0.743   4.325  15.905 -2.8914  0.4131 -1.2786
 8935SOL    HW238268   0.819   4.194  15.881  0.6182 -1.3043 -2.5886
 8936SOL     OW38269   4.108   3.520  12.956  0.3151 -0.3042 -0.1242
 8936SOL    HW138270   4.068   3.452  13.012  2.0060 -2.3577 -1.4172
 8936SOL    HW238271   4.055   3.515  12.876  0.0545  1.2154 -0.0471
 8937SOL     OW38272   0.873   4.322  15.412 -0.0706 -0.1487 -0.3957
 8937SOL    HW138273   0.881   4.237  15.455  0.9427 -0.5728 -1.4296
 8937SOL    HW238274   0.868   4.295  15.321 -3.4451  2.9872 -1.1308
 8938SOL     OW38275   4.526   0.878  10.479 -0.5283  0.7351 -0.0842
 8938SOL    HW138276   4.452   0.837  10.525  1.7526 -2.6028  0.5722
 8938SOL    HW238277   4.597   0.848  10.535 -1.0301  0.7092  0.5436
 8939SOL     OW38278   3.800   2.930   1.520 -0.1830 -0.7643  0.0902
 8939SOL    HW138279   3.721   2.956   1.567  0.9079 -1.9430  2.5573
 8939SOL    HW238280   3.845   3.014   1.521 -0.3460 -0.6612 -1.1018
 8940SOL     OW38281   2.644   0.907   2.390  0.1955 -0.1728  0.8060
 8940SOL    HW138282   2.726   0.927   2.344  0.0277  0.3806  0.7447
 8940SOL    HW238283   2.637   0.823   2.344 -1.7590 -0.1541  1.0681
 8941SOL     OW38284   0.565   0.954   1.525  0.3840  0.0233  0.2427
 8941SOL    HW138285   0.628   0.976   1.593  0.4191 -0.0989  0.2493
 8941SOL    HW238286   0.510   1.032   1.518 -1.9656 -1.8501 -2.2613
 8942SOL     OW38287   1.021   0.858  12.779  0.0833  0.0522 -0.5376
 8942SOL    HW138288   1.032   0.777  12.728  2.6554  1.0538 -1.5690
 8942SOL    HW238289   0.980   0.819  12.857 -2.7543 -0.7864 -2.4593
 8943SOL     OW38290   3.100   2.258   9.399  0.1989 -0.0958 -0.2354
 8943SOL    HW138291   3.066   2.347   9.396 -0.1741 -0.2336 -0.1231
 8943SOL    HW238292   3.194   2.273   9.409 -0.2898  1.0827  2.5051
 8944SOL     OW38293   2.015   4.600   2.354  0.9368 -0.4328 -0.6802
 8944SOL    HW138294   2.024   4.573   2.445 -1.9820 -4.8452 -1.6855
 8944SOL    HW238295   1.925   4.576   2.334  0.5570 -0.3529  0.9187
 8945SOL     OW38296   1.175   3.295  14.630 -0.0842 -0.0360 -0.2090
 8945SOL    HW138297   1.193   3.228  14.564 -1.1638 -0.1671 -0.3842
 8945SOL    HW238298   1.258   3.337  14.649 -1.1359  1.6323  0.7178
 8946SOL     OW38299   2.505   3.204   2.475 -0.1138 -0.2003 -0.3893
 8946SOL    HW138300   2.578   3.153   2.443  0.3025  0.8580 -1.1258
 8946SOL    HW238301   2.495   3.261   2.399 -0.2531 -1.5878 -1.4076
 8947SOL     OW38302   0.482   3.112   5.660  0.1887  0.6687  0.0949
 8947SOL    HW138303   0.480   3.026   5.617 -1.7168  1.5930 -1.6899
 8947SOL    HW238304   0.403   3.095   5.710 -0.7289 -1.5025 -2.0379
 8948SOL     OW38305   3.153   0.826   0.685  0.9304 -1.0181  0.0049
 8948SOL    HW138306   3.116   0.902   0.641 -0.3162  0.8389  4.3281
 8948SOL    HW238307   3.221   0.805   0.620  0.0010  0.0770 -1.3235
 8949SOL     OW38308   0.185   4.267   8.992  0.5605 -0.8103 -0.4747
 8949SOL    HW138309   0.109   4.259   8.934  0.6649  0.5868 -0.8087
 8949SOL    HW238310   0.237   4.320   8.931  0.7739  3.3034  3.2949
 8950SOL     OW38311   1.239   4.213   5.722 -0.1300  0.2651 -0.1432
 8950SOL    HW138312   1.200   4.298   5.702 -1.3787 -0.4200 -0.6508
 8950SOL    HW238313   1.282   4.196   5.638  2.8738 -0.6639  1.6075
 8951SOL     OW38314   1.984   3.012   9.125  0.5369 -0.4932 -0.3531
 8951SOL    HW138315   1.918   2.945   9.104 -0.5692  0.6852 -0.6600
 8951SOL    HW238316   1.957   3.020   9.216  0.6355 -1.4483 -0.2409
 8952SOL     OW38317   2.274   0.027  12.604 -0.2832  0.5367  0.4770
 8952SOL    HW138318   2.322   0.104  12.573 -0.9703  1.5031  1.8284
 8952SOL    HW238319   2.327   4.685  12.558  0.0972  1.4873 -0.4212
 8953SOL     OW38320   1.567   4.518   8.609  0.3834  0.6336 -0.0688
 8953SOL    HW138321   1.633   4.580   8.640  0.6129 -0.1588  1.0211
 8953SOL    HW238322   1.489   4.569   8.632 -0.2496 -1.5104  2.5496
 8954SOL     OW38323   0.529   2.287   2.055 -0.2915  0.3401 -0.0309
 8954SOL    HW138324   0.459   2.295   1.990 -1.9823 -0.8289  1.6289
 8954SOL    HW238325   0.536   2.192   2.054  1.8658  0.5148 -0.9103
 8955SOL     OW38326   1.973   2.908  10.805  0.2408  0.2644  0.3625
 8955SOL    HW138327   2.022   2.925  10.886 -1.1974 -1.4299  1.5670
 8955SOL    HW238328   1.884   2.919  10.837  0.2527 -0.7985  0.7592
 8956SOL     OW38329   2.780   4.544   1.471  0.7184 -0.3395 -0.2537
 8956SOL    HW138330   2.853   4.563   1.530  1.2218 -1.4982 -0.5145
 8956SOL    HW238331   2.820   4.540   1.384  0.6940  0.9816 -0.3311
 8957SOL     OW38332   2.104   2.890   2.111  0.7887 -0.1414 -0.2417
 8957SOL    HW138333   2.170   2.946   2.150  0.6454 -0.9623  1.1845
 8957SOL    HW238334   2.154   2.854   2.038  1.6865 -0.5508  0.5816
 8958SOL     OW38335   1.675   0.866  16.094 -0.0651  0.0406 -0.2841
 8958SOL    HW138336   1.616   0.929  16.052 -0.3495 -0.4328 -0.5879
 8958SOL    HW238337   1.619   0.795  16.124  0.9675 -0.5273  0.2991
 8959SOL     OW38338   2.180   3.058   6.834  0.5794 -0.4787 -0.1065
 8959SOL    HW138339   2.177   2.968   6.801 -0.8538 -0.0130 -1.2620
 8959SOL    HW238340   2.085   3.060   6.852  0.2272 -1.0669 -1.9356
 8960SOL     OW38341   1.016   0.396  10.140  0.0738 -0.4588  0.3504
 8960SOL    HW138342   0.922   0.378  10.149  0.4551 -1.7840  1.6778
 8960SOL    HW238343   1.023   0.434  10.053 -0.2730 -0.9642  0.1049
 8961SOL     OW38344   3.122   1.549   9.526  0.5638 -0.3754 -0.2086
 8961SOL    HW138345   3.110   1.618   9.461  2.5992  0.6108  0.4696
 8961SOL    HW238346   3.064   1.581   9.596  0.9325 -0.1609 -0.0009
 8962SOL     OW38347   0.935   2.070   1.539  0.0978  0.1815 -0.0427
 8962SOL    HW138348   0.968   2.005   1.477  0.2376  0.9696 -0.7919
 8962SOL    HW238349   0.893   2.017   1.607  0.7586  3.0131  2.5829
 8963SOL     OW38350   2.265   2.256  13.090  0.3253  0.0856  0.6130
 8963SOL    HW138351   2.263   2.236  12.996  0.3034 -1.7290  0.9930
 8963SOL    HW238352   2.293   2.347  13.097  0.4954  0.0113  0.8920
 8964SOL     OW38353   1.467   4.244   1.303  0.3545  0.4223 -0.2168
 8964SOL    HW138354   1.539   4.205   1.253 -1.7243  0.4389 -3.2320
 8964SOL    HW238355   1.517   4.260   1.383  1.6173 -0.5131 -0.8101
 8965SOL     OW38356   0.182   2.493   5.875 -0.4031 -0.0401 -0.4931
 8965SOL    HW138357   0.114   2.457   5.818 -1.3366 -0.3584  0.8250
 8965SOL    HW238358   0.126   2.540   5.938  1.6901 -0.7638  1.9103
 8966SOL     OW38359   3.884   2.200   1.775 -0.1003  0.4716  0.2485
 8966SOL    HW138360   3.871   2.292   1.796 -1.1353  0.3761  0.0020
 8966SOL    HW238361   3.934   2.217   1.695 -0.1339  1.0236  0.3459
 8967SOL     OW38362   0.846   3.876   8.487 -0.3301  0.2280  0.3227
 8967SOL    HW138363   0.792   3.871   8.566  1.7204 -0.9270  1.6565
 8967SOL    HW238364   0.937   3.888   8.516 -0.6212  1.9223  0.5523
 8968SOL     OW38365   2.001   3.669  13.851  0.1771  0.6140 -0.3786
 8968SOL    HW138366   1.942   3.722  13.797  0.9913  1.9234  0.0109
 8968SOL    HW238367   1.936   3.600  13.867 -0.7357  1.5470 -0.0438
 8969SOL     OW38368   3.015   0.880   6.027 -0.1574  0.1599 -0.8295
 8969SOL    HW138369   3.089   0.876   6.087 -1.0358  0.7160  0.3014
 8969SOL    HW238370   2.956   0.814   6.063  1.3225 -0.9276 -0.4262
 8970SOL     OW38371   4.104   4.113   8.115  0.7830  0.1764 -0.1930
 8970SOL    HW138372   4.015   4.107   8.151  0.3022  0.9063 -1.2789
 8970SOL    HW238373   4.105   4.199   8.073 -0.8024  0.2346 -0.1167
 8971SOL     OW38374   3.681   0.870   0.217  0.2178 -0.0406 -0.0501
 8971SOL    HW138375   3.714   0.947   0.264 -2.1136 -0.5969  2.5333
 8971SOL    HW238376   3.590   0.886   0.243  0.3745  0.4136  0.2285
 8972SOL     OW38377   3.021   1.580  17.001  0.2050  0.0285 -0.6712
 8972SOL    HW138378   3.020   1.666  16.959  0.5513  0.2348 -0.2663
 8972SOL    HW238379   2.971   1.535  16.934 -1.3486 -1.9717  1.8747
 8973SOL     OW38380   2.785   0.549  11.521  0.3540 -0.5009 -0.0920
 8973SOL    HW138381   2.787   0.568  11.615 -1.1452 -0.5089 -0.0707
 8973SOL    HW238382   2.871   0.508  11.512  0.8076  0.2988  0.6142
 8974SOL     OW38383   1.638   3.828   2.370  0.7694 -0.0763  0.1620
 8974SOL    HW138384   1.634   3.793   2.459  2.0251 -0.2412  0.1437
 8974SOL    HW238385   1.721   3.787   2.345  1.1473  0.8268 -0.0421
 8975SOL     OW38386   2.687   1.218   2.088 -0.1896 -0.5852 -0.1968
 8975SOL    HW138387   2.621   1.218   2.158 -0.2994  3.0291 -0.3068
 8975SOL    HW238388   2.647   1.158   2.026  0.4732 -1.2125 -0.0136
 8976SOL     OW38389   0.237   0.042  15.445  0.3902 -0.1240  0.1764
 8976SOL    HW138390   0.236   0.002  15.358 -2.0295 -2.1169  1.1452
 8976SOL    HW238391   0.177   0.116  15.433  2.5422  1.3244 -1.6678
 8977SOL     OW38392   2.452   4.603   3.249 -0.2082  0.2802  0.3520
 8977SOL    HW138393   2.514   4.671   3.274 -0.6699  1.3266 -1.3696
 8977SOL    HW238394   2.483   4.559   3.170  0.8368  1.9577 -0.1591
 8978SOL     OW38395   1.916   3.689   7.128  0.0759 -0.2292 -0.0679
 8978SOL    HW138396   1.846   3.743   7.090 -0.6830 -1.4077 -0.3581
 8978SOL    HW238397   1.855   3.618   7.150  0.5553  0.0068  1.9777
 8979SOL     OW38398   2.107   2.930  11.049 -0.2375 -0.0659 -0.0159
 8979SOL    HW138399   2.059   2.912  11.130  1.0234 -0.9911  0.5221
 8979SOL    HW238400   2.172   2.860  11.047  1.3459  1.4246 -0.4313
 8980SOL     OW38401   3.007   0.014   7.088 -0.2358  0.1376 -0.3467
 8980SOL    HW138402   3.047   4.703   7.169 -0.7197 -0.3101 -0.2948
 8980SOL    HW238403   2.929   0.047   7.133  0.5250 -1.1848  1.9606
 8981SOL     OW38404   4.661   2.825   3.165 -0.0479 -0.0037 -0.3143
 8981SOL    HW138405   4.630   2.803   3.077 -1.6445 -0.2335  0.2889
 8981SOL    HW238406   4.634   2.917   3.167 -1.5965 -0.5860  4.0560
 8982SOL     OW38407   0.848   1.452  17.276 -0.2197  0.0053 -0.6598
 8982SOL    HW138408   0.891   1.402  17.345 -0.6672  2.9651  1.7960
 8982SOL    HW238409   0.832   1.385  17.210 -1.2301 -0.7224  0.3184
 8983SOL     OW38410   2.701   0.406   7.740  0.5784 -0.3900  0.0042
 8983SOL    HW138411   2.773   0.460   7.771 -0.2072 -0.2110  1.5161
 8983SOL    HW238412   2.748   0.349   7.680  1.2153 -0.5958  0.7080
 8984SOL     OW38413   3.527   0.856   3.007 -0.1731 -0.2146 -0.0502
 8984SOL    HW138414   3.605   0.801   3.000 -1.0413 -1.1537 -2.4063
 8984SOL    HW238415   3.478   0.800   3.067 -0.5434  0.6642  0.4701
 8985SOL     OW38416   0.726   4.255  14.623 -0.2759 -0.1545  0.0730
 8985SOL    HW138417   0.652   4.316  14.614 -0.1207  0.0750  0.3543
 8985SOL    HW238418   0.703   4.197  14.696  0.4865 -1.8734 -1.0832
 8986SOL     OW38419   3.318   0.791   4.734 -0.7667 -0.0259 -0.3334
 8986SOL    HW138420   3.267   0.829   4.663 -1.3805 -1.4709 -0.6751
 8986SOL    HW238421   3.410   0.811   4.717 -0.6036 -0.3358  0.1618
 8987SOL     OW38422   4.563   2.155   1.337 -0.6052 -0.0302 -0.3120
 8987SOL    HW138423   4.540   2.192   1.422  0.1080  0.8612 -0.5111
 8987SOL    HW238424   4.658   2.160   1.342 -0.8113  1.5678  1.9376
 8988SOL     OW38425   3.093   2.483   6.363 -0.2974  0.4262 -0.1307
 8988SOL    HW138426   3.096   2.576   6.388  3.1833 -0.4066  2.6411
 8988SOL    HW238427   3.137   2.486   6.277 -0.7866 -0.1153 -0.3955
 8989SOL     OW38428   1.733   0.921  16.384  0.7631  0.0263  0.0374
 8989SOL    HW138429   1.769   1.008  16.402  0.6226  0.4751 -1.8735
 8989SOL    HW238430   1.644   0.950  16.362  1.5207 -0.1931 -3.2826
 8990SOL     OW38431   0.618   4.571   2.265  0.4740 -0.3013 -0.7592
 8990SOL    HW138432   0.632   4.649   2.211 -1.2638  0.1993 -0.4897
 8990SOL    HW238433   0.543   4.537   2.218  0.8271  1.7378 -2.8348
 8991SOL     OW38434   3.392   2.764   7.362  0.7452  0.5901 -0.5764
 8991SOL    HW138435   3.373   2.781   7.455 -2.9661  2.1446 -1.6054
 8991SOL    HW238436   3.307   2.782   7.322  1.0854 -1.9331 -2.3690
 8992SOL     OW38437   4.555   1.602   2.674 -0.1736 -0.1927  0.3429
 8992SOL    HW138438   4.604   1.685   2.667  1.5295 -1.2924 -0.8359
 8992SOL    HW238439   4.475   1.621   2.625  0.3946 -1.1144 -0.9521
 8993SOL     OW38440   3.963   2.564  15.179 -0.3206 -0.0747  0.0196
 8993SOL    HW138441   4.044   2.551  15.228  1.3171  0.0017 -2.6342
 8993SOL    HW238442   3.919   2.619  15.243 -1.4496  1.0257 -1.6859
 8994SOL     OW38443   1.310   4.258   8.847 -0.1450 -0.1020 -0.4040
 8994SOL    HW138444   1.291   4.281   8.938  0.9067  0.5311 -0.3481
 8994SOL    HW238445   1.290   4.343   8.807 -1.7894 -1.9912 -3.6155
 8995SOL     OW38446   2.597   3.908   7.019  0.6338 -0.0545 -0.2126
 8995SOL    HW138447   2.610   4.000   7.042 -0.2442  0.0393 -0.1138
 8995SOL    HW238448   2.503   3.890   7.018  0.7453 -0.6472 -0.1740
 8996SOL     OW38449   1.082   3.210  12.789 -0.1340  0.2138 -0.5290
 8996SOL    HW138450   1.143   3.283  12.798  0.6511 -0.4819 -0.1968
 8996SOL    HW238451   1.018   3.221  12.859 -1.1037  0.1320 -1.4026
 8997SOL     OW38452   0.374   1.846   3.341  0.2615  0.0263  0.2627
 8997SOL    HW138453   0.282   1.828   3.359  0.3840 -0.3876  0.4709
 8997SOL    HW238454   0.401   1.894   3.419 -2.4404  1.8118  0.0950
 8998SOL     OW38455   4.243   1.168   2.271  0.3629 -0.2249  0.2289
 8998SOL    HW138456   4.249   1.074   2.255 -1.6325 -0.6595  1.9176
 8998SOL    HW238457   4.147   1.166   2.264  0.5772 -0.7605 -2.3659
 8999SOL     OW38458   1.457   3.468  13.882 -0.4492 -0.6966 -0.1787
 8999SOL    HW138459   1.505   3.525  13.942 -1.2061  0.7555 -0.9676
 8999SOL    HW238460   1.376   3.461  13.933  0.4845  0.5131  1.4652
 9000SOL     OW38461   3.770   4.304   6.787  0.5003 -0.9124 -0.5199
 9000SOL    HW138462   3.747   4.322   6.696 -1.6174  2.9958  0.7860
 9000SOL    HW238463   3.766   4.209   6.786  2.7780 -0.9628 -3.5110
 9001SOL     OW38464   1.308   2.373   9.483  0.0650 -0.2245 -0.1663
 9001SOL    HW138465   1.400   2.379   9.507  0.5895 -0.8390 -2.0062
 9001SOL    HW238466   1.304   2.467   9.464 -0.2321 -0.3207 -0.5831
 9002SOL     OW38467   1.200   2.922   7.433 -0.0552  0.0435 -0.1948
 9002SOL    HW138468   1.205   3.014   7.457 -0.4814  0.4206 -1.5552
 9002SOL    HW238469   1.198   2.921   7.337 -1.5522  1.4065 -0.1836
 9003SOL     OW38470   4.354   2.897   6.858  0.1874 -0.1494  0.3115
 9003SOL    HW138471   4.422   2.902   6.790  1.1261  1.6241  1.3976
 9003SOL    HW238472   4.320   2.984   6.837 -0.5882 -0.4216  0.4426
 9004SOL     OW38473   4.002   2.987   4.346  0.3560 -0.0312  0.0844
 9004SOL    HW138474   4.016   2.898   4.377  0.1007 -0.3290 -0.6358
 9004SOL    HW238475   3.939   3.020   4.410  1.8734  0.7036  1.1999
 9005SOL     OW38476   0.095   0.784  16.403 -0.0663 -0.0668  0.6917
 9005SOL    HW138477   0.115   0.759  16.313 -4.3924 -0.0038 -0.3049
 9005SOL    HW238478   0.142   0.716  16.452 -0.9406 -0.5481  0.8741
 9006SOL     OW38479   1.159   0.055   7.197 -0.3305  0.1830  0.9601
 9006SOL    HW138480   1.164   0.133   7.142  4.0327  0.0847  1.1991
 9006SOL    HW238481   1.202   0.094   7.272  0.2668  1.7627 -0.2209
 9007SOL     OW38482   2.520   3.657   2.195  0.5692 -0.6329 -0.0634
 9007SOL    HW138483   2.609   3.692   2.206 -0.2108  0.9741  1.3093
 9007SOL    HW238484   2.496   3.696   2.111  0.3676 -0.4240  0.0874
 9008SOL     OW38485   1.097   3.894   8.294  0.3244  0.2587  0.5317
 9008SOL    HW138486   1.125   3.914   8.383  1.8611  0.9983 -0.1286
 9008SOL    HW238487   1.037   3.966   8.275  2.5323  1.5221 -1.4998
 9009SOL     OW38488   0.788   1.413   9.751  0.1003 -0.2230  0.1808
 9009SOL    HW138489   0.778   1.380   9.840 -0.4119 -0.5574 -0.0012
 9009SOL    HW238490   0.837   1.490   9.780 -1.9123  0.8580  0.7109
 9010SOL     OW38491   4.674   3.781   0.535  0.0140 -0.0642  0.5656
 9010SOL    HW138492   4.629   3.800   0.452 -1.5439  1.9806  1.8847
 9010SOL    HW238493   4.647   3.860   0.580 -0.2882  0.9432 -1.3664
 9011SOL     OW38494   0.447   4.191   4.676 -0.1348 -0.2157  0.4981
 9011SOL    HW138495   0.457   4.280   4.709  0.7722  0.2750 -1.1400
 9011SOL    HW238496   0.390   4.214   4.603  1.4297  2.9523  0.3050
 9012SOL     OW38497   0.669   4.084   0.667  0.1874 -0.1088 -0.0367
 9012SOL    HW138498   0.702   4.161   0.621 -1.4278  0.6239  0.0583
 9012SOL    HW238499   0.618   4.123   0.738 -4.0202 -2.3074 -1.8622
 9013SOL     OW38500   1.225   1.679   3.317  0.1744 -0.3359  0.3442
 9013SOL    HW138501   1.188   1.604   3.271 -2.5124  2.0223 -1.2626
 9013SOL    HW238502   1.251   1.639   3.401  1.5046  1.0809  0.6018
 9014SOL     OW38503   3.504   3.166   0.886  0.0285  0.2016 -0.1885
 9014SOL    HW138504   3.572   3.233   0.897  0.0405 -0.2699  2.3917
 9014SOL    HW238505   3.457   3.172   0.969 -1.3544 -1.5712 -0.8427
 9015SOL     OW38506   3.781   0.334   8.762  0.6866  0.1033  0.2949
 9015SOL    HW138507   3.813   0.284   8.687 -0.3172  0.4209 -0.3506
 9015SOL    HW238508   3.742   0.267   8.818  2.0373 -0.1847  0.8756
 9016SOL     OW38509   0.884   3.792  12.737 -0.1246 -0.4213 -0.2236
 9016SOL    HW138510   0.917   3.750  12.658  2.0518  2.1046 -0.6401
 9016SOL    HW238511   0.941   3.760  12.807 -1.0309  1.5572  1.4507
 9017SOL     OW38512   1.590   4.010   7.212 -0.1684 -0.6952  0.1105
 9017SOL    HW138513   1.556   4.040   7.296 -1.2735  2.1761 -1.3500
 9017SOL    HW238514   1.518   3.969   7.164  0.1620 -1.9760  0.6939
 9018SOL     OW38515   2.248   0.601   6.975 -0.0080  0.4558 -0.5384
 9018SOL    HW138516   2.158   0.578   6.999 -0.6469  0.3532 -3.0605
 9018SOL    HW238517   2.287   0.613   7.062 -4.4851  1.2301  1.3978
 9019SOL     OW38518   2.786   2.141   5.021 -0.7144 -0.1156 -0.0095
 9019SOL    HW138519   2.756   2.051   5.005  0.4010 -0.8081  1.7756
 9019SOL    HW238520   2.858   2.170   4.965 -0.8315  0.1505 -0.0234
 9020SOL     OW38521   0.451   3.999   3.076  0.4665 -0.5854 -0.4276
 9020SOL    HW138522   0.436   3.908   3.052 -0.9993 -0.6598  0.8042
 9020SOL    HW238523   0.422   4.000   3.167  1.3192 -0.5521 -0.1514
 9021SOL     OW38524   3.072   2.071  12.656 -0.5039  0.1515  0.4462
 9021SOL    HW138525   3.143   2.008  12.668  1.6426  2.3603 -0.7469
 9021SOL    HW238526   3.118   2.145  12.615 -0.7275 -0.0672 -0.1996
 9022SOL     OW38527   2.867   1.541   6.569 -0.7079 -0.2461  0.2258
 9022SOL    HW138528   2.782   1.574   6.598 -1.1452 -1.2861  0.1181
 9022SOL    HW238529   2.922   1.591   6.630 -2.2726  1.7533  0.0255
 9023SOL     OW38530   3.060   2.381   8.534 -0.3146 -0.1842 -0.4372
 9023SOL    HW138531   2.977   2.333   8.528 -0.1322 -0.5026 -0.4306
 9023SOL    HW238532   3.104   2.354   8.454  1.2833 -1.6990  0.9437
 9024SOL     OW38533   1.723   1.184   1.646  0.1405 -0.5322 -0.4024
 9024SOL    HW138534   1.685   1.098   1.664 -0.5076 -0.2560 -0.4473
 9024SOL    HW238535   1.778   1.162   1.570 -1.7293  1.1526 -2.2221
 9025SOL     OW38536   0.129   3.831   1.625 -0.1321 -0.2192  0.3079
 9025SOL    HW138537   0.058   3.891   1.648  0.0464  0.3124 -0.5085
 9025SOL    HW238538   0.088   3.792   1.548 -1.8084 -1.9117  2.0609
 9026SOL     OW38539   0.377   3.200   5.117 -0.5434 -0.1224 -0.3087
 9026SOL    HW138540   0.455   3.148   5.137  0.7730  1.6293 -0.9216
 9026SOL    HW238541   0.308   3.136   5.135  0.5764 -0.6269  2.3259
 9027SOL     OW38542   4.698   0.657   7.127 -0.1172 -0.1377 -0.1486
 9027SOL    HW138543   4.609   0.627   7.147 -0.4154  1.0200  0.2429
 9027SOL    HW238544   4.675   0.749   7.117 -0.7133 -0.2039  0.6366
 9028SOL     OW38545   2.213   3.014   7.645 -0.7290 -0.4054  0.0954
 9028SOL    HW138546   2.193   2.974   7.560  1.6733 -2.1669  0.3509
 9028SOL    HW238547   2.285   2.956   7.670 -0.9470 -0.3953  0.7510
 9029SOL     OW38548   3.860   4.607   8.153 -0.4620 -0.0587 -0.5707
 9029SOL    HW138549   3.826   4.572   8.071 -0.8281 -0.8057 -0.1024
 9029SOL    HW238550   3.911   4.680   8.118 -0.0584 -0.0100  0.1216
 9030SOL     OW38551   4.112   1.705   5.176 -0.0817 -0.6277 -0.6708
 9030SOL    HW138552   4.199   1.696   5.137 -0.9644  0.9189 -2.9883
 9030SOL    HW238553   4.097   1.619   5.215 -2.5879 -0.8438 -2.1314
 9031SOL     OW38554   0.580   1.581  13.860  0.0265  0.2885 -0.0361
 9031SOL    HW138555   0.589   1.560  13.767  1.7848 -1.1476  0.4709
 9031SOL    HW238556   0.575   1.499  13.908 -1.0701  0.3237 -0.0800
 9032SOL     OW38557   2.346   1.660   5.304 -0.0005  0.3350  0.0201
 9032SOL    HW138558   2.424   1.648   5.249 -0.1487 -2.0149  0.3320
 9032SOL    HW238559   2.387   1.673   5.390  0.2656 -0.0922 -0.0411
 9033SOL     OW38560   0.709   3.334   2.832  0.0656  0.1305 -0.0259
 9033SOL    HW138561   0.637   3.274   2.813  0.6695 -0.0492 -1.7700
 9033SOL    HW238562   0.773   3.310   2.765  0.3283 -0.1489  0.3250
 9034SOL     OW38563   3.393   3.205   5.502 -0.1769  0.4025 -0.2126
 9034SOL    HW138564   3.479   3.171   5.527 -0.7852  0.0857  1.4078
 9034SOL    HW238565   3.419   3.297   5.492 -0.3332  0.4449 -0.2352
 9035SOL     OW38566   0.072   0.594   2.359 -0.2357  0.1006  0.2508
 9035SOL    HW138567   0.121   0.664   2.402 -2.4544  1.0192  1.2509
 9035SOL    HW238568   0.150   0.541   2.339  0.7652  0.9462  1.9210
 9036SOL     OW38569   0.523   3.532   2.679 -0.3858 -0.6537 -0.1503
 9036SOL    HW138570   0.472   3.559   2.602 -1.6586 -1.4103  0.4221
 9036SOL    HW238571   0.552   3.616   2.713  1.0345 -1.3185  0.2741
 9037SOL     OW38572   0.386   4.520   9.272 -0.3262  0.7334 -0.9382
 9037SOL    HW138573   0.461   4.551   9.222  1.0931 -0.8438  0.1949
 9037SOL    HW238574   0.372   4.432   9.239  1.0594 -1.0176  3.1831
 9038SOL     OW38575   4.696   2.185   8.625 -0.3294 -0.1869  0.1918
 9038SOL    HW138576   4.621   2.189   8.685 -0.8868 -1.9585 -0.3700
 9038SOL    HW238577   4.677   2.100   8.585 -0.4513 -0.5685  1.0651
 9039SOL     OW38578   2.326   2.978   8.043  0.0716 -0.0585  0.2437
 9039SOL    HW138579   2.353   2.890   8.069  1.1098 -0.0863 -0.9447
 9039SOL    HW238580   2.313   2.968   7.949 -0.1702 -1.7062  0.4506
 9040SOL     OW38581   2.341   2.759   5.743 -0.1086 -0.5598  0.0134
 9040SOL    HW138582   2.405   2.692   5.719 -0.9813 -1.0778 -0.8636
 9040SOL    HW238583   2.283   2.726   5.811  1.9386 -1.9808  1.0784
 9041SOL     OW38584   1.581   3.101   4.264  0.4311  0.1599  0.1032
 9041SOL    HW138585   1.542   3.069   4.345 -0.9407 -0.8207 -0.9406
 9041SOL    HW238586   1.566   3.195   4.255 -2.3580 -0.3476 -0.5040
 9042SOL     OW38587   3.782   4.473   1.011 -0.1720  0.4947  0.7911
 9042SOL    HW138588   3.849   4.541   1.021  0.7468 -0.3784  0.4780
 9042SOL    HW238589   3.777   4.441   1.101  0.4426 -0.7714  0.3665
 9043SOL     OW38590   2.004   2.906   0.210  0.0428  0.0513 -0.1413
 9043SOL    HW138591   2.093   2.882   0.238 -0.2290 -1.4529 -0.6059
 9043SOL    HW238592   2.013   2.936   0.120  0.3733 -3.6821 -1.3101
 9044SOL     OW38593   4.137   1.398   2.569 -0.5727  0.2248 -0.4549
 9044SOL    HW138594   4.087   1.321   2.541 -1.5413  0.0855  1.6616
 9044SOL    HW238595   4.222   1.356   2.554  0.5460  1.9795  0.9342
 9045SOL     OW38596   2.035   4.119  17.601  0.5336 -0.3248 -0.2904
 9045SOL    HW138597   2.115   4.166  17.578  0.8029 -1.0613 -0.8415
 9045SOL    HW238598   2.051   4.087  17.690 -1.4916 -1.0761 -0.2038
 9046SOL     OW38599   4.437   1.013  15.728 -0.6544 -0.6004  1.2314
 9046SOL    HW138600   4.346   0.989  15.710 -1.1772  1.7909  0.7166
 9046SOL    HW238601   4.459   1.060  15.648 -0.9949 -0.4163  1.2445
 9047SOL     OW38602   0.147   4.193   0.034 -0.3465  0.1383  1.0616
 9047SOL    HW138603   0.212   4.248  17.686 -0.7654  0.4342  0.8069
 9047SOL    HW238604   0.143   4.122  17.664  1.3885  0.7361  0.3103
 9048SOL     OW38605   0.712   4.227   2.382  0.0778  0.1527 -0.2667
 9048SOL    HW138606   0.738   4.211   2.292 -0.6417  0.6701 -0.5597
 9048SOL    HW238607   0.767   4.300   2.410 -1.1914  0.0432  2.5142
 9049SOL     OW38608   2.647   1.677  12.653  0.0003  0.8946 -0.6940
 9049SOL    HW138609   2.578   1.618  12.684 -0.3094  1.2177 -0.7726
 9049SOL    HW238610   2.610   1.754  12.697 -1.6579 -0.1402 -0.2623
 9050SOL     OW38611   2.957   4.301   5.161  0.0301  0.3359 -0.4224
 9050SOL    HW138612   3.005   4.367   5.111  0.7744  0.1849  0.1021
 9050SOL    HW238613   2.971   4.231   5.098  0.7059 -1.1209  1.3462
 9051SOL     OW38614   3.277   2.644   0.941 -0.0285  0.1195 -0.5604
 9051SOL    HW138615   3.317   2.660   1.026  0.3236 -0.6401 -0.5828
 9051SOL    HW238616   3.354   2.659   0.886  0.2749  2.2770  0.4585
 9052SOL     OW38617   2.573   3.112  15.177 -0.5424 -0.4013 -0.0156
 9052SOL    HW138618   2.634   3.043  15.151  0.0960 -0.3507  1.3327
 9052SOL    HW238619   2.632   3.186  15.161  0.7457 -1.3378  0.4082
 9053SOL     OW38620   4.127   0.453   7.360 -0.2531 -0.2262 -0.1257
 9053SOL    HW138621   4.056   0.396   7.331 -0.5321  0.3713 -0.6032
 9053SOL    HW238622   4.095   0.541   7.378 -0.7161  0.2740 -3.4198
 9054SOL     OW38623   1.892   2.555  14.974 -0.2057  0.1136  1.1824
 9054SOL    HW138624   1.799   2.572  14.960 -0.6075 -1.2588  2.1726
 9054SOL    HW238625   1.907   2.500  15.052  2.0320 -1.4941 -0.3972
 9055SOL     OW38626   1.468   3.134   6.212  0.0508  0.5727  0.1910
 9055SOL    HW138627   1.394   3.120   6.271 -0.3186 -0.0211 -0.4151
 9055SOL    HW238628   1.495   3.224   6.233  0.9555  0.3121  0.1373
 9056SOL     OW38629   1.311   2.481   6.018  0.3829 -0.0401  0.4157
 9056SOL    HW138630   1.305   2.465   5.924  0.7349  1.5046  0.1288
 9056SOL    HW238631   1.229   2.438   6.042  0.2888 -0.0091  0.1562
 9057SOL     OW38632   3.857   3.352  15.836  0.7951 -0.5519  0.2098
 9057SOL    HW138633   3.902   3.267  15.830 -1.5613 -1.7234 -1.0280
 9057SOL    HW238634   3.909   3.413  15.783  1.7718 -0.7636  0.9285
 9058SOL     OW38635   3.973   0.995   3.757 -0.2926 -0.4453  0.4173
 9058SOL    HW138636   3.881   0.971   3.751 -0.5216  0.9985 -1.6258
 9058SOL    HW238637   4.026   0.923   3.723  2.3740  0.7055  2.0835
 9059SOL     OW38638   1.529   0.207   3.809  0.3258  0.0633 -0.2441
 9059SOL    HW138639   1.567   0.204   3.721 -0.0200 -0.8237 -0.3658
 9059SOL    HW238640   1.547   0.117   3.838 -1.4025  0.1428  1.0832
 9060SOL     OW38641   1.443   2.921   1.890 -0.0932 -0.6701  0.1177
 9060SOL    HW138642   1.354   2.888   1.901 -0.2504  0.2495  1.6246
 9060SOL    HW238643   1.435   2.980   1.815  0.9973  0.1584  0.6565
 9061SOL     OW38644   1.931   3.903   9.721  0.3649  0.1686  0.5563
 9061SOL    HW138645   1.866   3.843   9.683  1.5869  0.3300 -1.8373
 9061SOL    HW238646   1.879   3.922   9.799  1.3291  1.1900  0.9395
 9062SOL     OW38647   1.247   1.830   6.195  0.1158 -0.1732  0.2982
 9062SOL    HW138648   1.196   1.754   6.225  0.2809 -0.4829 -0.2063
 9062SOL    HW238649   1.299   1.853   6.271 -1.7481  1.9544  0.9298
 9063SOL     OW38650   0.855   1.353   7.214  0.0566 -0.0134  0.1915
 9063SOL    HW138651   0.856   1.445   7.185 -0.3464  0.1202  0.6123
 9063SOL    HW238652   0.943   1.340   7.250  0.3242 -1.8482 -1.0985
 9064SOL     OW38653   2.441   0.804   9.042 -0.0409  0.3690  0.1257
 9064SOL    HW138654   2.377   0.783   8.974  0.4681  1.5968 -0.7222
 9064SOL    HW238655   2.445   0.718   9.084  1.5246  0.8286  0.9322
 9065SOL     OW38656   2.209   0.843   7.953  0.1263  0.6840 -0.2422
 9065SOL    HW138657   2.123   0.876   7.978  0.0402  0.8201 -0.7108
 9065SOL    HW238658   2.244   0.834   8.042 -0.3144 -1.4256 -0.2677
 9066SOL     OW38659   3.675   0.428   2.188  0.5709 -0.0417 -0.0807
 9066SOL    HW138660   3.767   0.445   2.166  1.2234 -0.8334  1.9629
 9066SOL    HW238661   3.670   0.453   2.281  0.2880  0.8594 -0.3361
 9067SOL     OW38662   3.889   3.105   0.831  0.3851 -0.0571  0.2271
 9067SOL    HW138663   3.849   3.192   0.832 -0.2415 -0.3605  2.2159
 9067SOL    HW238664   3.830   3.063   0.769 -1.5907  2.0098  0.7488
 9068SOL     OW38665   1.002   4.578   3.675 -0.1787  0.0395 -0.0937
 9068SOL    HW138666   0.991   4.631   3.754  2.3293  1.1592 -0.4917
 9068SOL    HW238667   1.035   4.641   3.611  1.5424 -1.2912 -0.5193
 9069SOL     OW38668   3.552   0.275   1.434  0.0486 -0.2389  0.2483
 9069SOL    HW138669   3.506   0.335   1.492  1.2515  1.6059 -0.7147
 9069SOL    HW238670   3.645   0.289   1.456  0.3653  0.3665 -1.4648
 9070SOL     OW38671   4.132   0.086   8.349 -0.4680  0.4556 -0.3397
 9070SOL    HW138672   4.211   0.036   8.368 -1.0371 -0.3530 -0.1322
 9070SOL    HW238673   4.076   0.052   8.419  0.3318 -2.7210 -1.2610
 9071SOL     OW38674   1.213   0.527   6.018 -0.0387  0.2542  0.5905
 9071SOL    HW138675   1.243   0.572   5.939 -1.1238  1.5980  0.9551
 9071SOL    HW238676   1.291   0.479   6.048  0.3149 -0.0409 -0.7884
 9072SOL     OW38677   1.653   0.592   2.399  0.3125  0.8336  0.3611
 9072SOL    HW138678   1.660   0.605   2.304 -1.0929  2.7039  0.5048
 9072SOL    HW238679   1.726   0.644   2.431  1.2972  0.5442 -1.4397
 9073SOL     OW38680   3.128   2.245   8.313  0.5971  1.1849  0.0374
 9073SOL    HW138681   3.178   2.232   8.232 -1.2205  1.3931 -1.1208
 9073SOL    HW238682   3.100   2.154   8.317 -1.1200  1.7448  0.8564
 9074SOL     OW38683   0.753   4.133   3.868 -0.1333 -0.2952  0.0438
 9074SOL    HW138684   0.740   4.051   3.819  0.0452  0.4259 -1.2024
 9074SOL    HW238685   0.843   4.153   3.843 -1.3813  3.7038 -1.1156
 9075SOL     OW38686   2.246   1.887   2.255  0.3592  0.0555 -0.1618
 9075SOL    HW138687   2.246   1.965   2.310 -0.5393  0.2761 -0.4876
 9075SOL    HW238688   2.230   1.918   2.166  1.2628 -1.0643 -0.7180
 9076SOL     OW38689   2.127   3.828   4.429  0.2297  0.2120  0.2116
 9076SOL    HW138690   2.081   3.890   4.485  1.4063  0.4993  0.8567
 9076SOL    HW238691   2.185   3.793   4.496  1.6822  3.2950  0.5499
 9077SOL     OW38692   4.072   3.355  10.928 -0.0039 -0.7768 -0.1713
 9077SOL    HW138693   4.007   3.392  10.868  0.6004  0.5473 -0.0205
 9077SOL    HW238694   4.024   3.345  11.011  0.9381 -0.2940  0.4312
 9078SOL     OW38695   2.116   1.632   3.671  0.2382 -0.0641 -0.0354
 9078SOL    HW138696   2.051   1.598   3.734 -2.1131  0.8975 -1.9251
 9078SOL    HW238697   2.197   1.618   3.720 -0.6988  1.0080  1.8077
 9079SOL     OW38698   2.076   2.402   4.858 -0.4786  0.0782  0.6876
 9079SOL    HW138699   2.138   2.464   4.895 -1.1209  1.1041  0.0630
 9079SOL    HW238700   2.135   2.360   4.796  0.4015  1.3635  0.6665
 9080SOL     OW38701   3.421   0.837   1.917  0.4244 -0.0396 -0.3366
 9080SOL    HW138702   3.503   0.793   1.895  0.2116  0.4637 -2.1020
 9080SOL    HW238703   3.373   0.758   1.944  0.5207  0.9872  2.8231
 9081SOL     OW38704   0.729   2.533   2.126  0.3552  0.2879 -0.0900
 9081SOL    HW138705   0.652   2.568   2.081  1.9135 -0.1357 -3.0759
 9081SOL    HW238706   0.720   2.440   2.109 -0.6495 -0.0915  2.4516
 9082SOL     OW38707   2.243   4.518   1.990  0.7904 -0.1918 -0.0257
 9082SOL    HW138708   2.226   4.610   1.971 -0.1679 -0.3318  0.1656
 9082SOL    HW238709   2.170   4.476   1.944 -0.5188  2.0150  0.0378
 9083SOL     OW38710   3.163   0.855   5.783  0.3675 -0.4416 -0.2354
 9083SOL    HW138711   3.255   0.833   5.799 -0.0093 -1.6270  0.3192
 9083SOL    HW238712   3.138   0.877   5.873 -0.5749 -1.6698 -0.1912
 9084SOL     OW38713   2.904   1.396   5.202  0.4768  0.0907  0.0126
 9084SOL    HW138714   2.886   1.409   5.295  0.4063  0.3225 -0.0344
 9084SOL    HW238715   2.839   1.327   5.188 -2.7132  2.8570  1.3583
 9085SOL     OW38716   1.356   2.873   4.956 -0.0875  0.2459 -0.0602
 9085SOL    HW138717   1.430   2.848   4.901 -0.6315  0.9777 -1.1215
 9085SOL    HW238718   1.384   2.833   5.038 -1.3433  0.2081  0.3570
 9086SOL     OW38719   4.213   4.414   3.446  0.6025  0.3841 -0.0942
 9086SOL    HW138720   4.240   4.483   3.386  1.1023 -0.0906 -0.4158
 9086SOL    HW238721   4.205   4.336   3.391  1.5819 -0.1269  0.4888
 9087SOL     OW38722   1.585   3.298   7.985  0.4315  0.0998  0.3731
 9087SOL    HW138723   1.538   3.301   8.068  0.5365  1.9638  0.3634
 9087SOL    HW238724   1.678   3.296   8.006  1.0685  0.2926 -2.4726
 9088SOL     OW38725   3.141   2.562   2.654  0.6282 -0.2415  0.6206
 9088SOL    HW138726   3.206   2.625   2.623 -2.0169  2.6498  0.8418
 9088SOL    HW238727   3.146   2.592   2.745 -1.7330  0.9144  0.3740
 9089SOL     OW38728   2.392   0.757  13.588  0.2979  0.3268  0.6230
 9089SOL    HW138729   2.487   0.743  13.597  0.4306  1.1431  0.5537
 9089SOL    HW238730   2.355   0.742  13.675 -0.0264 -1.1073  0.2393
 9090SOL     OW38731   3.795   0.880  15.152 -0.0308  0.4429 -0.3589
 9090SOL    HW138732   3.871   0.895  15.208  0.6704  4.4349 -2.4579
 9090SOL    HW238733   3.786   0.964  15.107 -0.1418  0.8269  0.3794
 9091SOL     OW38734   1.201   2.238   5.016  0.0557 -0.2339  0.2875
 9091SOL    HW138735   1.254   2.166   5.051  1.0340  0.8680  1.0735
 9091SOL    HW238736   1.117   2.193   5.008 -0.2400  0.2952  0.4689
 9092SOL     OW38737   4.284   4.134  13.158  0.5155 -0.2970  0.3498
 9092SOL    HW138738   4.371   4.096  13.174  0.5936 -0.1443  0.2858
 9092SOL    HW238739   4.299   4.186  13.080 -1.0541  1.2067  1.0490
 9093SOL     OW38740   2.472   3.696   1.192 -0.8020 -0.3245 -0.1990
 9093SOL    HW138741   2.468   3.695   1.288 -2.0487  1.7671 -0.2479
 9093SOL    HW238742   2.541   3.631   1.180  0.2623  1.0884 -1.6400
 9094SOL     OW38743   0.869   4.063   7.355  0.4023  0.7958  0.6065
 9094SOL    HW138744   0.915   3.998   7.302 -0.3195  1.0681 -0.3490
 9094SOL    HW238745   0.786   4.062   7.308  0.7427  1.5350 -0.0195
 9095SOL     OW38746   4.369   4.332  15.408  0.1643 -0.4917 -0.0284
 9095SOL    HW138747   4.400   4.247  15.377  1.4898  0.1387 -0.4582
 9095SOL    HW238748   4.411   4.388  15.342 -1.6220  1.7367  0.7387
 9096SOL     OW38749   4.374   0.815   7.754  0.3490 -0.1127 -0.2589
 9096SOL    HW138750   4.431   0.783   7.824 -0.4867 -0.5062  0.2393
 9096SOL    HW238751   4.435   0.881   7.724 -0.4486  0.0706 -1.4690
 9097SOL     OW38752   0.264   3.513   4.654 -0.3054 -0.2834  0.2058
 9097SOL    HW138753   0.309   3.451   4.597  1.0682 -1.0180  2.0859
 9097SOL    HW238754   0.222   3.576   4.594  0.4251 -0.5274 -0.5581
 9098SOL     OW38755   1.268   3.040   3.163  0.7303  0.1990  0.5485
 9098SOL    HW138756   1.279   3.016   3.256 -0.7529  0.6986  0.8538
 9098SOL    HW238757   1.329   2.977   3.125  2.0723  3.1482 -2.1369
 9099SOL     OW38758   1.137   4.376   0.160  0.1915  0.4628 -0.4325
 9099SOL    HW138759   1.200   4.447   0.169  0.7408  0.0054 -0.6905
 9099SOL    HW238760   1.100   4.368   0.248  2.7235  0.3665  0.6214
 9100SOL     OW38761   1.741   4.364   3.646  0.2020  0.0210 -0.4075
 9100SOL    HW138762   1.811   4.319   3.600 -0.7180 -0.6272 -1.1655
 9100SOL    HW238763   1.790   4.433   3.691 -0.1252 -0.2003  0.2815
 9101SOL     OW38764   4.360   1.288   6.793 -0.0082  0.3283 -0.2144
 9101SOL    HW138765   4.336   1.319   6.705 -1.2381  0.7852  0.2804
 9101SOL    HW238766   4.321   1.201   6.798 -0.7874  0.6592 -0.4463
 9102SOL     OW38767   2.019   2.347  14.843 -0.3341 -0.2945  0.4313
 9102SOL    HW138768   1.992   2.423  14.894 -0.3732 -0.7997  1.1662
 9102SOL    HW238769   2.030   2.282  14.913 -2.2131  1.7848  2.6484
 9103SOL     OW38770   3.224   1.469   3.242 -0.5479  0.1722 -0.4563
 9103SOL    HW138771   3.263   1.408   3.306  1.1848  2.4317  0.6612
 9103SOL    HW238772   3.186   1.409   3.178  0.5463 -0.7864 -0.2260
 9104SOL     OW38773   2.550   1.443   4.539  0.3026 -0.0668  0.1602
 9104SOL    HW138774   2.596   1.440   4.624  4.0298  1.0891 -1.8214
 9104SOL    HW238775   2.476   1.383   4.550 -0.6267  1.2430  1.1613
 9105SOL     OW38776   4.594   4.187   9.593  0.1066 -0.2418  0.0997
 9105SOL    HW138777   4.504   4.217   9.602  1.3329  3.0584  1.5354
 9105SOL    HW238778   4.638   4.271   9.578 -0.8978  0.6488  2.0315
 9106SOL     OW38779   4.159   3.590   8.186 -0.4653  0.4603 -0.3008
 9106SOL    HW138780   4.248   3.582   8.222  0.1175  1.2450 -1.5668
 9106SOL    HW238781   4.136   3.676   8.221  1.3528  1.2793 -1.1217
 9107SOL     OW38782   1.333   4.720   3.581 -0.1135 -0.2034 -0.2577
 9107SOL    HW138783   1.365   4.655   3.643  0.0578 -0.7807 -0.9561
 9107SOL    HW238784   1.413   0.032   3.542  0.3885 -0.1157  0.8494
 9108SOL     OW38785   3.009   2.349   7.206 -0.1115  0.3354  0.1494
 9108SOL    HW138786   2.989   2.432   7.248 -1.1544  0.5658 -0.7996
 9108SOL    HW238787   2.944   2.287   7.239  2.7397 -2.4627  0.5454
 9109SOL     OW38788   0.960   0.932   3.131 -0.0662 -0.7636  0.0362
 9109SOL    HW138789   0.877   0.979   3.119 -1.4867 -3.2636  0.2574
 9109SOL    HW238790   0.973   0.937   3.225 -0.9653 -0.8683  0.1624
 9110SOL     OW38791   0.523   2.827   7.414 -0.5774 -0.1087 -0.1022
 9110SOL    HW138792   0.532   2.876   7.332  0.9846  2.5009  1.6169
 9110SOL    HW238793   0.582   2.874   7.474 -1.1173  0.7589 -0.2519
 9111SOL     OW38794   0.929   1.474   6.217  0.1013  0.1013  0.0198
 9111SOL    HW138795   0.932   1.408   6.148 -0.5964 -0.4216  0.4903
 9111SOL    HW238796   0.834   1.487   6.223  0.0315 -0.6744  0.6501
 9112SOL     OW38797   0.439   4.180  14.311  0.0342 -0.1641  0.5475
 9112SOL    HW138798   0.471   4.093  14.335  2.1763  0.4523 -0.0725
 9112SOL    HW238799   0.380   4.197  14.384  0.6702 -1.1461  1.2904
 9113SOL     OW38800   2.266   4.159  10.222  0.8542  0.5036  0.4240
 9113SOL    HW138801   2.343   4.193  10.175  0.2554 -1.1489 -1.7661
 9113SOL    HW238802   2.278   4.066  10.204 -2.1710  0.6082 -2.2602
 9114SOL     OW38803   0.181   3.654  16.089  0.1433  0.0108  0.0337
 9114SOL    HW138804   0.133   3.737  16.090 -0.9760 -0.6657  1.7604
 9114SOL    HW238805   0.227   3.653  16.005  0.2616  1.5985  0.0892
 9115SOL     OW38806   0.785   1.389   3.607 -0.4333 -0.3943 -0.2284
 9115SOL    HW138807   0.833   1.439   3.540  1.1081  0.0556  1.1879
 9115SOL    HW238808   0.754   1.317   3.554 -3.6078 -0.6827  2.0407
 9116SOL     OW38809   1.110   3.367   2.557 -0.3017 -0.2061  0.4824
 9116SOL    HW138810   1.152   3.291   2.518  0.4548  0.1768  0.5513
 9116SOL    HW238811   1.191   3.409   2.587  0.1313 -0.3209 -0.5395
 9117SOL     OW38812   0.783   2.405   2.429 -0.3857  0.3275  0.2448
 9117SOL    HW138813   0.687   2.406   2.424 -0.3551 -3.5138 -0.9008
 9117SOL    HW238814   0.798   2.468   2.500  0.3507 -1.0888  1.3238
 9118SOL     OW38815   2.240   4.410   7.123 -0.3072  0.2281  1.0027
 9118SOL    HW138816   2.213   4.330   7.078  1.9131  0.0314  0.0375
 9118SOL    HW238817   2.335   4.417   7.116 -0.3272  0.0982  0.5822
 9119SOL     OW38818   3.753   3.605  13.171 -0.8563 -0.2475  0.2429
 9119SOL    HW138819   3.772   3.693  13.202  0.3500 -0.2602 -0.4520
 9119SOL    HW238820   3.837   3.564  13.192 -0.2611 -0.5272 -2.6757
 9120SOL     OW38821   0.860   2.734   2.893 -0.1124 -0.4287 -0.2057
 9120SOL    HW138822   0.905   2.764   2.973  1.9806  1.3087 -2.0247
 9120SOL    HW238823   0.877   2.817   2.847 -0.6099 -1.5387 -2.3724
 9121SOL     OW38824   4.647   4.584   5.816 -0.5111 -0.4406 -0.0613
 9121SOL    HW138825   4.719   4.595   5.754 -2.4017  3.2867 -1.6466
 9121SOL    HW238826   4.572   4.606   5.760  0.9120  1.5296 -1.2185
 9122SOL     OW38827   3.930   4.463   7.159 -0.1122 -0.0587 -0.6351
 9122SOL    HW138828   3.931   4.414   7.077  3.6148 -1.9550  0.5742
 9122SOL    HW238829   3.868   4.528   7.126 -0.0641  0.1407 -0.3357
 9123SOL     OW38830   2.576   0.910   6.508  0.0263  0.0069  0.1214
 9123SOL    HW138831   2.540   0.893   6.595 -0.2189  0.8136  0.1741
 9123SOL    HW238832   2.495   0.921   6.460 -0.2850 -3.2137 -0.1067
 9124SOL     OW38833   3.185   3.971   0.141 -0.4944  0.3331  0.1166
 9124SOL    HW138834   3.159   4.022   0.064  0.7615 -0.5556 -0.8888
 9124SOL    HW238835   3.277   3.994   0.143  0.3444 -2.8395 -1.8826
 9125SOL     OW38836   0.352   0.803   8.474 -0.4436  0.4428  0.3855
 9125SOL    HW138837   0.350   0.895   8.498 -0.1324  0.6448 -0.3855
 9125SOL    HW238838   0.301   0.811   8.394  0.1028 -0.9409 -0.1035
 9126SOL     OW38839   0.398   2.008   7.995  0.2229  0.5041 -0.6348
 9126SOL    HW138840   0.349   2.034   7.917 -1.2882 -0.8383 -0.1240
 9126SOL    HW238841   0.487   1.985   7.968 -0.9358 -2.2528 -2.1474
 9127SOL     OW38842   4.279   2.645   6.318  0.2899 -0.4794  0.1924
 9127SOL    HW138843   4.309   2.560   6.352  0.4335 -0.3522  0.3783
 9127SOL    HW238844   4.216   2.669   6.386 -2.1698  1.1456 -2.6647
 9128SOL     OW38845   1.416   2.425   5.041  0.0565  1.1994  0.2107
 9128SOL    HW138846   1.362   2.348   5.025 -1.2769  1.3110  4.2360
 9128SOL    HW238847   1.350   2.488   5.068 -1.6659  0.1005 -1.3545
 9129SOL     OW38848   0.736   3.383   9.100 -0.3511 -0.0359 -0.1801
 9129SOL    HW138849   0.722   3.457   9.040 -3.8459 -0.3600  0.2179
 9129SOL    HW238850   0.727   3.425   9.185  2.9298  1.1895 -0.4408
 9130SOL     OW38851   4.126   1.983   2.204  0.3155 -0.3403 -0.1211
 9130SOL    HW138852   4.145   1.892   2.181 -1.5781 -0.2757 -1.9403
 9130SOL    HW238853   4.084   2.012   2.122  2.6231 -0.5805 -1.3848
 9131SOL     OW38854   1.225   2.662  15.128  0.4232 -0.0407 -0.3680
 9131SOL    HW138855   1.238   2.575  15.166  3.9210  0.1275 -1.1253
 9131SOL    HW238856   1.277   2.708  15.193 -0.8724 -1.8739  1.9606
 9132SOL     OW38857   4.307   3.946   8.156  1.0589 -0.0484 -0.1116
 9132SOL    HW138858   4.242   4.015   8.148  0.8015 -0.3979 -1.0360
 9132SOL    HW238859   4.247   3.872   8.147  2.1301 -0.8516 -0.6634
 9133SOL     OW38860   3.957   2.542   5.787  0.1777  1.0955  0.0158
 9133SOL    HW138861   4.022   2.579   5.727  0.3156  0.8530  0.0130
 9133SOL    HW238862   4.001   2.464   5.822 -0.6381  0.8340  0.4604
 9134SOL     OW38863   0.849   0.654   6.995 -0.6012 -0.1010  0.2000
 9134SOL    HW138864   0.769   0.624   7.037 -0.8379  2.2307  1.4550
 9134SOL    HW238865   0.839   0.745   7.024 -1.6699 -0.7351  1.7962
 9135SOL     OW38866   1.826   0.277   8.316  0.1051 -0.6212  0.2111
 9135SOL    HW138867   1.831   0.250   8.408  0.5617 -2.0511 -0.2246
 9135SOL    HW238868   1.752   0.337   8.308 -0.1883 -0.8695  1.0920
 9136SOL     OW38869   3.262   0.149  12.529 -0.0451  0.4004 -0.4860
 9136SOL    HW138870   3.235   0.178  12.442  1.0276 -2.4486 -1.7657
 9136SOL    HW238871   3.353   0.181  12.525  0.0930 -0.0258 -0.7194
 9137SOL     OW38872   1.619   1.794  10.838 -0.0853  0.3132  0.3946
 9137SOL    HW138873   1.578   1.880  10.844  0.2728  0.5445 -0.5149
 9137SOL    HW238874   1.572   1.750  10.767 -0.4088 -2.0401  2.0672
 9138SOL     OW38875   3.755   0.049   4.001 -0.0875 -1.1422 -0.1903
 9138SOL    HW138876   3.798   0.091   4.075 -0.2220 -0.3678 -0.5565
 9138SOL    HW238877   3.827   0.011   3.951  1.7755 -0.1113  1.7447
 9139SOL     OW38878   1.900   2.574  14.658  0.0762 -0.1898  0.3338
 9139SOL    HW138879   1.920   2.540  14.746 -1.3617  0.5064  0.9236
 9139SOL    HW238880   1.945   2.658  14.668 -1.0795  0.2739  1.5588
 9140SOL     OW38881   1.847   4.701  10.727 -0.4386 -0.1944  0.2001
 9140SOL    HW138882   1.842   0.073  10.729 -0.3936 -0.2504  2.7362
 9140SOL    HW238883   1.762   4.675  10.762 -1.4299  1.8477 -0.7145
 9141SOL     OW38884   2.459   4.297   0.291 -0.0242 -0.4143  0.0870
 9141SOL    HW138885   2.455   4.300   0.387 -1.4568  0.9036 -0.0080
 9141SOL    HW238886   2.517   4.370   0.270 -0.6076 -0.0666 -0.3135
 9142SOL     OW38887   3.699   0.440   0.524  0.5595  0.0122 -0.4795
 9142SOL    HW138888   3.758   0.383   0.474  0.9275  1.9046 -2.2349
 9142SOL    HW238889   3.686   0.507   0.457 -2.0511  2.0368  2.0820
 9143SOL     OW38890   2.260   4.023   0.899  0.2168 -0.1595  0.2838
 9143SOL    HW138891   2.288   4.013   0.990 -3.4042 -0.6947  1.3564
 9143SOL    HW238892   2.301   3.946   0.859  2.0071  1.4537 -0.9908
 9144SOL     OW38893   3.785   3.025   8.284 -0.9264  0.8040 -0.0121
 9144SOL    HW138894   3.774   2.955   8.220  1.3838  0.0058  0.4580
 9144SOL    HW238895   3.736   2.987   8.356  0.3748 -1.1504 -0.1623
 9145SOL     OW38896   3.338   3.897   7.824  0.4839  0.0045  0.1983
 9145SOL    HW138897   3.285   3.914   7.746 -0.4509 -0.4007  0.7478
 9145SOL    HW238898   3.413   3.855   7.781 -1.7845 -2.0829 -1.6799
 9146SOL     OW38899   4.355   1.472   9.658 -0.1614  0.5842 -0.4230
 9146SOL    HW138900   4.294   1.411   9.616  1.6396 -2.0624  0.8168
 9146SOL    HW238901   4.381   1.411   9.726 -0.7630  0.7727 -0.0242
 9147SOL     OW38902   3.032   0.018  15.762 -0.2018  0.1291 -0.1511
 9147SOL    HW138903   3.024   0.089  15.698  1.3921 -0.4440 -1.0085
 9147SOL    HW238904   3.049   0.063  15.845 -0.6649  0.1879 -0.0904
 9148SOL     OW38905   4.378   3.237   7.906 -0.0306  0.2153 -0.0014
 9148SOL    HW138906   4.332   3.213   7.825 -0.7113 -0.5732  0.6196
 9148SOL    HW238907   4.333   3.317   7.933 -1.4993 -0.3305 -0.8146
 9149SOL     OW38908   3.759   4.428   3.083 -0.2994 -0.2504  0.3404
 9149SOL    HW138909   3.711   4.467   3.156  1.4560  0.7979  0.9390
 9149SOL    HW238910   3.816   4.503   3.063 -1.3388  0.6947  0.8989
 9150SOL     OW38911   3.635   0.776   4.368  0.3817 -0.0378 -0.0873
 9150SOL    HW138912   3.594   0.775   4.455 -0.2734 -0.0018 -0.3976
 9150SOL    HW238913   3.715   0.728   4.385 -0.3004 -1.1126  0.0757
 9151SOL     OW38914   3.322   1.315   5.849  0.6101 -0.4729 -0.3938
 9151SOL    HW138915   3.342   1.298   5.757  0.7801  1.0446 -0.6409
 9151SOL    HW238916   3.231   1.286   5.857 -0.0111  1.2529 -1.2850
 9152SOL     OW38917   3.893   0.507  10.808  0.8244 -0.1953 -0.7625
 9152SOL    HW138918   3.894   0.420  10.769 -0.6266 -0.4672 -0.2186
 9152SOL    HW238919   3.825   0.486  10.872  1.8469 -0.3779  0.2446
 9153SOL     OW38920   0.717   1.487  10.466  0.4904  0.4002 -0.6440
 9153SOL    HW138921   0.715   1.510  10.559  0.9855  1.0139 -0.7873
 9153SOL    HW238922   0.691   1.396  10.452  1.5719  0.2887 -1.8849
 9154SOL     OW38923   2.514   0.461  14.005 -0.1176  0.0718 -0.5801
 9154SOL    HW138924   2.518   0.483  14.098  0.7417 -1.1767 -0.3153
 9154SOL    HW238925   2.461   0.532  13.969 -0.3022  0.2244 -0.0030
 9155SOL     OW38926   1.223   4.191   4.517  0.3474  0.0814 -0.5274
 9155SOL    HW138927   1.235   4.281   4.546 -1.5309  1.0089 -2.6742
 9155SOL    HW238928   1.154   4.203   4.452  0.8246  0.3217 -0.9898
 9156SOL     OW38929   4.407   1.210   6.017  0.3740 -0.0866 -0.4026
 9156SOL    HW138930   4.398   1.166   5.933  1.1970  1.1372 -1.1349
 9156SOL    HW238931   4.424   1.298   5.984  0.0666  0.2667  0.3835
 9157SOL     OW38932   3.912   4.633  15.410  0.1188  0.1969  0.5628
 9157SOL    HW138933   4.007   4.637  15.399  0.1608 -0.4277  0.7210
 9157SOL    HW238934   3.875   4.641  15.322  0.0552 -3.1529  0.2714
 9158SOL     OW38935   1.125   1.385   7.443 -0.6968  0.1884  0.4595
 9158SOL    HW138936   1.083   1.301   7.456 -0.2061 -0.2779 -0.9535
 9158SOL    HW238937   1.105   1.425   7.528 -0.8715 -0.3273  0.6605
 9159SOL     OW38938   3.730   2.999   0.624  0.2530  0.3921  0.0649
 9159SOL    HW138939   3.791   2.961   0.560  0.7580  0.1783  0.6733
 9159SOL    HW238940   3.687   3.073   0.582 -2.0347  0.7864  3.1269
 9160SOL     OW38941   2.161   4.107  13.001  0.4325 -0.1922 -0.9040
 9160SOL    HW138942   2.202   4.091  12.915  1.4925 -0.7922 -0.2967
 9160SOL    HW238943   2.099   4.178  12.987  0.0136 -0.1517  1.2025
 9161SOL     OW38944   3.876   3.950  11.303 -0.0123 -0.2068 -0.3590
 9161SOL    HW138945   3.931   3.965  11.380 -0.7150 -1.2820  0.3544
 9161SOL    HW238946   3.820   3.879  11.336  2.6499 -3.1241 -2.0779
 9162SOL     OW38947   2.779   0.252   5.109 -0.6060  0.1000  0.4234
 9162SOL    HW138948   2.707   0.236   5.170 -0.4799 -2.5309 -0.1140
 9162SOL    HW238949   2.818   0.165   5.113 -1.2701 -0.1448  1.5269
 9163SOL     OW38950   1.541   3.733   3.857  0.3775 -0.0825 -0.0063
 9163SOL    HW138951   1.516   3.702   3.771  0.2240 -0.4022  0.1539
 9163SOL    HW238952   1.632   3.702   3.860 -0.1487 -1.4986  1.1457
 9164SOL     OW38953   2.037   2.487  11.237 -0.6850  0.0457  0.0656
 9164SOL    HW138954   1.947   2.498  11.207 -0.5111 -0.6486 -0.7102
 9164SOL    HW238955   2.024   2.519  11.327 -0.4985  0.0501  0.0894
 9165SOL     OW38956   2.657   0.468  17.382  0.3567  1.2725  0.2777
 9165SOL    HW138957   2.650   0.511  17.297  1.9265 -0.9313 -0.9601
 9165SOL    HW238958   2.670   0.377  17.358 -0.2992  0.8313  1.5961
 9166SOL     OW38959   1.324   2.687  17.303 -0.2911  0.3696  0.9862
 9166SOL    HW138960   1.270   2.654  17.232  0.4551  0.2752  0.4676
 9166SOL    HW238961   1.367   2.759  17.258  3.0478 -1.5275  1.1943
 9167SOL     OW38962   4.402   1.294  15.192 -0.5939 -0.0340  0.0004
 9167SOL    HW138963   4.419   1.361  15.259 -1.4253  0.8527 -0.6816
 9167SOL    HW238964   4.418   1.341  15.110  2.6635  1.2745  1.3894
 9168SOL     OW38965   0.137   3.251   3.260  0.2177  0.2112  0.2038
 9168SOL    HW138966   0.207   3.230   3.198 -1.7544 -0.5151 -1.7660
 9168SOL    HW238967   0.164   3.338   3.289  2.9465 -1.3139  2.2745
 9169SOL     OW38968   0.111   2.700  12.316  0.1856 -0.2173 -0.4888
 9169SOL    HW138969   0.161   2.664  12.243 -0.3053 -0.8652 -0.5085
 9169SOL    HW238970   0.029   2.690  12.269 -0.3185  0.2998  0.2797
 9170SOL     OW38971   2.378   0.243  12.477  0.2393  0.0383  0.2144
 9170SOL    HW138972   2.316   0.247  12.404  0.3597 -2.7746 -0.0540
 9170SOL    HW238973   2.441   0.304  12.439 -0.3407  0.6351  0.2029
 9171SOL     OW38974   4.345   2.768  15.518  0.6157 -0.5695 -0.2513
 9171SOL    HW138975   4.401   2.835  15.478 -0.8221  0.5820 -0.3463
 9171SOL    HW238976   4.262   2.788  15.475 -0.0914 -0.6778  1.0479
 9172SOL     OW38977   0.234   4.712   1.358  0.1277  0.0629 -0.3341
 9172SOL    HW138978   0.166   4.697   1.293 -0.6913 -1.4073  0.8550
 9172SOL    HW238979   0.167   0.008   1.424  1.7277 -1.1503  1.6097
 9173SOL     OW38980   3.853   4.254   3.683 -0.0089 -0.5761 -0.1551
 9173SOL    HW138981   3.798   4.328   3.659 -1.4334 -1.4487  0.4127
 9173SOL    HW238982   3.787   4.184   3.678  0.6195 -1.0574 -1.8228
 9174SOL     OW38983   0.430   1.492   8.512  0.1566 -0.1298 -0.2480
 9174SOL    HW138984   0.457   1.402   8.533 -2.7818 -0.8030  0.5637
 9174SOL    HW238985   0.399   1.481   8.422 -1.7988  2.8869  0.0553
 9175SOL     OW38986   1.602   0.437   8.411 -0.1294 -0.1442  0.0882
 9175SOL    HW138987   1.509   0.443   8.386 -0.1200 -0.5388 -0.0411
 9175SOL    HW238988   1.623   0.510   8.469 -0.6843 -0.2524  0.4268
 9176SOL     OW38989   3.911   3.737   2.320  0.0164 -0.2969  0.2137
 9176SOL    HW138990   3.952   3.816   2.286 -2.6962  0.3430 -1.5156
 9176SOL    HW238991   3.827   3.761   2.282  1.6857  1.6372 -2.2328
 9177SOL     OW38992   0.300   3.215  12.764  0.1950  0.1173 -0.1686
 9177SOL    HW138993   0.242   3.212  12.840  0.5155  2.7882  0.1677
 9177SOL    HW238994   0.243   3.243  12.692 -1.9011  1.3309  1.9446
 9178SOL     OW38995   2.673   3.621   8.316  0.4919  0.2294  0.1582
 9178SOL    HW138996   2.733   3.599   8.244 -0.8191 -0.4394 -0.7357
 9178SOL    HW238997   2.733   3.631   8.390  1.1128  1.7041 -0.5409
 9179SOL     OW38998   2.871   2.860   7.975 -0.1213  0.1128  0.6529
 9179SOL    HW138999   2.954   2.821   7.945 -0.2751  0.2954 -0.0134
 9179SOL    HW239000   2.894   2.905   8.056 -1.9962  0.1234  1.1670
 9180SOL     OW39001   0.053   0.731  10.155  0.8061  0.1973  0.1025
 9180SOL    HW139002   0.127   0.777  10.118  0.0183  0.0992 -1.5983
 9180SOL    HW239003   0.000   0.807  10.180 -0.5734  0.6709 -4.2586
 9181SOL     OW39004   0.961   3.456   3.963  0.3758  0.1726  0.2042
 9181SOL    HW139005   0.888   3.479   4.021  0.8687  0.0136  0.8877
 9181SOL    HW239006   1.033   3.477   4.022 -0.8989  1.9137  1.1367
 9182SOL     OW39007   1.101   2.538   2.127  0.1614 -0.2745  0.0620
 9182SOL    HW139008   1.074   2.549   2.035  0.3980  0.7473  0.1072
 9182SOL    HW239009   1.053   2.599   2.184  1.3412  1.8270 -1.1977
 9183SOL     OW39010   4.230   3.806   5.742 -0.2128 -0.1913 -0.0703
 9183SOL    HW139011   4.207   3.887   5.697  0.7022 -0.7944 -1.6030
 9183SOL    HW239012   4.323   3.795   5.722  0.0642 -0.8583  1.5605
 9184SOL     OW39013   0.527   1.125   3.871  0.5483  0.0517 -0.0725
 9184SOL    HW139014   0.457   1.179   3.835 -0.6489  0.3427  2.6937
 9184SOL    HW239015   0.555   1.070   3.798 -0.9435  1.2833 -1.5730
 9185SOL     OW39016   0.948   1.325  17.507  0.5746 -0.1000  0.2385
 9185SOL    HW139017   1.037   1.335  17.539 -0.4414  1.3942  2.5624
 9185SOL    HW239018   0.934   1.236  17.537 -0.3408 -0.4742 -1.2739
 9186SOL     OW39019   1.160   4.396   7.935  0.0885  0.3995  0.5437
 9186SOL    HW139020   1.100   4.468   7.916 -0.1056  0.3480  0.9676
 9186SOL    HW239021   1.234   4.437   7.891 -1.0175  1.6448 -0.1320
 9187SOL     OW39022   2.014   0.290   5.729  0.0020 -0.0559 -0.3193
 9187SOL    HW139023   2.071   0.233   5.781  1.0343  2.0862  0.8873
 9187SOL    HW239024   1.953   0.322   5.795  2.1539 -0.2929  1.7966
 9188SOL     OW39025   1.638   2.936  12.399  0.1362 -0.1460  0.0820
 9188SOL    HW139026   1.732   2.923  12.387  0.3121  3.4053 -2.2979
 9188SOL    HW239027   1.598   2.855  12.366 -0.8355  1.1619 -1.9554
 9189SOL     OW39028   1.482   0.015   0.719 -0.1768 -0.0700  0.2027
 9189SOL    HW139029   1.538   0.062   0.657 -1.1502 -0.9502 -1.3380
 9189SOL    HW239030   1.496   4.651   0.681 -0.0905  0.0005  0.0707
 9190SOL     OW39031   3.173   1.693   3.380 -0.2391  0.0880 -0.1756
 9190SOL    HW139032   3.205   1.634   3.311 -0.8206 -0.9231  0.4165
 9190SOL    HW239033   3.184   1.783   3.348  1.3215 -0.0430 -0.0008
 9191SOL     OW39034   4.013   3.855   6.226 -0.0399  0.3428 -0.2370
 9191SOL    HW139035   4.016   3.765   6.259  0.8611  0.3730 -0.2546
 9191SOL    HW239036   4.077   3.847   6.156  0.1606  2.4274 -0.2766
 9192SOL     OW39037   3.210   1.370   4.632  0.1309  0.7161  0.1002
 9192SOL    HW139038   3.245   1.281   4.621  0.1784  0.7973 -0.3984
 9192SOL    HW239039   3.167   1.361   4.717 -0.8714  3.4886 -0.1142
 9193SOL     OW39040   4.673   1.551  11.990  0.4107 -0.0333  0.1416
 9193SOL    HW139041   4.587   1.523  12.021  0.4699 -1.0279 -0.5758
 9193SOL    HW239042   4.646   1.585  11.905 -0.5920 -1.3357 -0.0489
 9194SOL     OW39043   0.975   0.872   4.351 -0.5949  0.2080  0.2666
 9194SOL    HW139044   1.032   0.885   4.276  0.2621 -0.3494  0.8224
 9194SOL    HW239045   0.988   0.944   4.413  0.0093 -0.0291  0.4156
 9195SOL     OW39046   4.070   0.579  16.345 -0.1865  0.0103 -0.3821
 9195SOL    HW139047   4.064   0.615  16.434 -1.3164 -0.3915 -0.3002
 9195SOL    HW239048   4.138   0.514  16.361 -0.4326 -0.2608 -0.4551
 9196SOL     OW39049   1.072   2.973   9.414 -0.0970 -0.3655  0.8559
 9196SOL    HW139050   1.029   2.891   9.389 -0.7728  1.3434 -3.6339
 9196SOL    HW239051   0.997   3.011   9.458 -0.4817  1.0401 -1.0176
 9197SOL     OW39052   1.617   3.666  16.185  0.3041 -0.0856 -0.5825
 9197SOL    HW139053   1.588   3.733  16.247  0.9605 -0.1742 -0.1820
 9197SOL    HW239054   1.602   3.584  16.232 -3.3275  0.7189 -0.2797
 9198SOL     OW39055   0.828   0.333   2.901 -0.7265  0.3598 -0.1711
 9198SOL    HW139056   0.826   0.311   2.808  0.4204  0.3462 -0.1810
 9198SOL    HW239057   0.882   0.412   2.904 -2.3768  1.4889  0.3294
 9199SOL     OW39058   4.187   3.261   5.442 -0.6394 -0.0626 -0.1222
 9199SOL    HW139059   4.223   3.190   5.495  1.2914  0.0611 -1.2547
 9199SOL    HW239060   4.237   3.254   5.360 -1.4428 -1.3802 -0.4864
 9200SOL     OW39061   1.558   2.186   3.434  0.2304  0.4224 -0.3754
 9200SOL    HW139062   1.618   2.193   3.360  0.5128 -0.4559 -0.2356
 9200SOL    HW239063   1.503   2.264   3.430  0.2684  0.4181 -0.9072
 9201SOL     OW39064   4.358   3.103   4.842  0.1483  0.2608  0.1965
 9201SOL    HW139065   4.284   3.162   4.858 -1.5132 -1.8226  0.0943
 9201SOL    HW239066   4.381   3.128   4.752 -0.0109  1.7240  0.5597
 9202SOL     OW39067   1.356   0.015   2.003 -0.1899 -0.0368 -0.0294
 9202SOL    HW139068   1.417   4.677   1.961 -0.8423  0.2556 -1.3849
 9202SOL    HW239069   1.324   0.069   1.931 -0.0776  1.1851  0.8291
 9203SOL     OW39070   0.875   1.460   7.800  0.1370  0.1037  0.1057
 9203SOL    HW139071   0.963   1.468   7.765 -0.8219  0.1598 -2.3047
 9203SOL    HW239072   0.874   1.531   7.864 -1.6531  1.2487 -1.1743
 9204SOL     OW39073   2.890   1.633  15.089  0.4906 -0.7028 -0.2778
 9204SOL    HW139074   2.857   1.680  15.012 -0.5663 -0.5591  0.2506
 9204SOL    HW239075   2.814   1.588  15.126  2.2956 -2.4800  1.2083
 9205SOL     OW39076   1.402   3.599  14.818 -1.3145 -0.4651 -0.0045
 9205SOL    HW139077   1.332   3.609  14.753 -0.9649  1.8484 -0.0270
 9205SOL    HW239078   1.428   3.507  14.819 -2.2135 -0.6987  1.7912
 9206SOL     OW39079   4.604   2.441   7.967 -0.3939  0.3185  0.3043
 9206SOL    HW139080   4.591   2.347   7.954 -0.2120  0.1040  1.6392
 9206SOL    HW239081   4.658   2.445   8.046 -0.3089  2.5718  0.1361
 9207SOL     OW39082   3.534   1.009   2.114  0.2967  0.2193  0.2317
 9207SOL    HW139083   3.460   1.063   2.140  1.0119  0.6061  1.4832
 9207SOL    HW239084   3.504   0.980   2.028 -0.2380  0.9942  0.1541
 9208SOL     OW39085   0.153   0.841   3.517 -0.1278 -0.1272 -0.3671
 9208SOL    HW139086   0.066   0.804   3.503 -0.2435 -0.6800  1.8634
 9208SOL    HW239087   0.139   0.932   3.490 -2.3818 -0.4480 -0.2604
 9209SOL     OW39088   4.255   1.548  16.725  0.1304 -0.2691  0.0454
 9209SOL    HW139089   4.235   1.543  16.632 -0.3474  0.4744  0.1129
 9209SOL    HW239090   4.346   1.525  16.702  0.0356 -2.3086  1.6737
 9210SOL     OW39091   1.265   3.596   4.433  0.5999  1.0280  0.0067
 9210SOL    HW139092   1.191   3.640   4.474  0.2327 -2.2225  2.8526
 9210SOL    HW239093   1.273   3.653   4.356  3.6086  0.4270 -0.1271
 9211SOL     OW39094   2.694   1.134   1.383 -0.1585 -0.2628  0.1875
 9211SOL    HW139095   2.724   1.059   1.435 -2.5405 -1.8707 -0.7422
 9211SOL    HW239096   2.694   1.099   1.294 -1.6437  1.6364 -0.5493
 9212SOL     OW39097   1.965   3.261   1.214 -0.3512  0.0139 -0.0755
 9212SOL    HW139098   2.015   3.272   1.134  0.0982 -0.4239  0.1421
 9212SOL    HW239099   1.907   3.337   1.216 -1.1607 -0.5745 -1.3035
 9213SOL     OW39100   3.810   2.884   2.333  0.0782  0.5219  0.2436
 9213SOL    HW139101   3.748   2.942   2.376 -2.0347 -1.7382  0.2725
 9213SOL    HW239102   3.885   2.877   2.392  0.4981  3.0470 -0.0067
 9214SOL     OW39103   3.554   3.511   3.497 -0.3526  0.4222  0.9191
 9214SOL    HW139104   3.462   3.518   3.474  0.1162  1.8212 -0.5540
 9214SOL    HW239105   3.555   3.453   3.573  1.1608  2.2269  2.2757
 9215SOL     OW39106   3.663   4.267  14.324 -0.2656  0.1088 -0.7508
 9215SOL    HW139107   3.644   4.325  14.398  0.7879 -0.7174  0.1788
 9215SOL    HW239108   3.657   4.331  14.254 -1.8821 -2.0286 -2.5324
 9216SOL     OW39109   3.484   0.415  11.419  0.1206 -0.4352  0.3209
 9216SOL    HW139110   3.448   0.329  11.398 -2.0358  0.0668  1.8725
 9216SOL    HW239111   3.503   0.405  11.513  1.2448 -0.5877  0.0769
 9217SOL     OW39112   2.525   2.867   9.171 -0.8939  1.2137  0.0647
 9217SOL    HW139113   2.544   2.915   9.251  0.0924 -0.0668  0.6091
 9217SOL    HW239114   2.490   2.790   9.215  0.8113  1.2995  1.5842
 9218SOL     OW39115   2.638   1.502   8.735  0.3707  0.1630 -0.4389
 9218SOL    HW139116   2.621   1.569   8.801  0.1000 -0.3916  0.0600
 9218SOL    HW239117   2.630   1.423   8.788  4.0817  0.3246  0.3255
 9219SOL     OW39118   0.921   1.257  17.072 -0.8335  0.0078 -0.1089
 9219SOL    HW139119   0.856   1.257  17.002 -2.7080 -1.8559  1.6629
 9219SOL    HW239120   0.994   1.306  17.034 -1.3269  0.9659  0.1614
 9220SOL     OW39121   1.818   3.013   4.158 -0.0828  0.6865  0.6641
 9220SOL    HW139122   1.771   3.090   4.190  0.4174  2.0629 -1.9230
 9220SOL    HW239123   1.737   2.961   4.164  1.9815 -2.4759  1.4750
 9221SOL     OW39124   1.822   2.075  15.450  0.1520 -0.3082 -0.1495
 9221SOL    HW139125   1.775   2.111  15.525 -2.8217 -3.6766 -0.4039
 9221SOL    HW239126   1.912   2.109  15.459 -0.6292  1.2989  1.6288
 9222SOL     OW39127   2.688   3.135   5.102 -0.1295  0.3163 -0.4135
 9222SOL    HW139128   2.721   3.177   5.022  0.9244  0.5368  0.1415
 9222SOL    HW239129   2.771   3.129   5.149  0.2462 -1.6886 -1.3075
 9223SOL     OW39130   1.557   0.158  16.801 -0.9422  0.6190  0.3523
 9223SOL    HW139131   1.514   0.195  16.724 -0.5528 -0.4645 -0.3842
 9223SOL    HW239132   1.556   0.065  16.779  2.0822  0.4118  1.0352
 9224SOL     OW39133   0.609   2.488   7.752 -0.0634 -0.1001 -0.0683
 9224SOL    HW139134   0.570   2.569   7.787 -1.9943 -0.3643 -1.6046
 9224SOL    HW239135   0.556   2.426   7.802  0.0739 -1.1062 -1.1796
 9225SOL     OW39136   2.427   3.415   6.537 -0.5134  0.3484 -0.3755
 9225SOL    HW139137   2.346   3.423   6.487 -0.4262 -0.6588 -0.6853
 9225SOL    HW239138   2.487   3.359   6.488 -1.3861 -1.6238  0.7853
 9226SOL     OW39139   1.520   2.011   9.479  0.4993 -0.1153 -0.0563
 9226SOL    HW139140   1.608   2.044   9.464  0.0645  1.1900  0.2596
 9226SOL    HW239141   1.513   1.939   9.416 -1.2005 -0.0744  0.0622
 9227SOL     OW39142   4.544   3.021  16.739 -0.7670 -0.5859 -0.1560
 9227SOL    HW139143   4.560   3.080  16.813  0.6459 -0.5647 -0.4807
 9227SOL    HW239144   4.609   3.055  16.678 -0.2482 -1.1454  0.0902
 9228SOL     OW39145   1.793   2.226  12.360 -0.2996 -0.1175 -0.0374
 9228SOL    HW139146   1.811   2.142  12.318  2.6691  0.4538  0.0826
 9228SOL    HW239147   1.793   2.288  12.287 -0.3013  1.7807  1.5716
 9229SOL     OW39148   3.767   2.247   5.831  0.5167  0.5508 -0.1431
 9229SOL    HW139149   3.803   2.208   5.751 -0.4961  0.6189 -0.6306
 9229SOL    HW239150   3.853   2.260   5.872  1.2783 -0.8196 -1.2922
 9230SOL     OW39151   2.360   1.820   9.490  0.4985  0.2464  0.4053
 9230SOL    HW139152   2.296   1.767   9.538  1.2103 -1.0208 -0.0551
 9230SOL    HW239153   2.318   1.906   9.493  1.1357  0.4970  1.9536
 9231SOL     OW39154   4.705   0.572  15.122 -0.3390 -0.3554 -0.1903
 9231SOL    HW139155   4.663   0.586  15.207  1.9564 -0.1562  0.9380
 9231SOL    HW239156   0.014   0.661  15.111 -4.0795  1.1240  0.9325
 9232SOL     OW39157   2.603   3.917   1.912  0.6559 -0.0272  0.0766
 9232SOL    HW139158   2.549   3.911   1.833  1.0263 -2.0586 -0.0266
 9232SOL    HW239159   2.655   3.996   1.897 -2.7205  2.0987 -0.4515
 9233SOL     OW39160   0.749   1.362   4.298  0.1714  0.1726 -0.2232
 9233SOL    HW139161   0.706   1.354   4.213 -2.1341 -1.2775  1.0772
 9233SOL    HW239162   0.701   1.438   4.332  0.6350 -1.2757  3.6438
 9234SOL     OW39163   4.473   4.211  16.216  0.3556 -0.2936 -0.0636
 9234SOL    HW139164   4.401   4.191  16.157 -0.9150  1.7340  0.8153
 9234SOL    HW239165   4.489   4.302  16.190 -0.7878 -0.3782 -1.0453
 9235SOL     OW39166   4.153   1.569   8.348 -0.0506  0.6932 -0.3946
 9235SOL    HW139167   4.121   1.531   8.267 -0.9251  1.9896 -0.6583
 9235SOL    HW239168   4.116   1.507   8.410  0.3083  1.2977  0.4390
 9236SOL     OW39169   0.880   1.220  13.959 -0.0767 -0.5936  0.5890
 9236SOL    HW139170   0.901   1.128  13.978  2.1668 -0.0021  1.0433
 9236SOL    HW239171   0.786   1.212  13.944  0.4590 -1.9863 -2.1128
 9237SOL     OW39172   4.086   0.821   4.235 -0.9507  0.0127 -0.4313
 9237SOL    HW139173   4.031   0.871   4.175  0.3594  1.5640 -0.3145
 9237SOL    HW239174   4.019   0.790   4.296  1.5745 -1.5790  1.5306
 9238SOL     OW39175   0.778   0.093  10.303  0.4099  0.0237 -0.4138
 9238SOL    HW139176   0.873   0.103  10.296  0.6858 -0.6053  2.3201
 9238SOL    HW239177   0.778   0.019  10.364 -3.0070 -0.8032 -1.4223
 9239SOL     OW39178   3.175   4.063  17.330 -0.6079 -0.0697 -0.0256
 9239SOL    HW139179   3.258   4.066  17.378 -0.3477  0.5059 -0.4991
 9239SOL    HW239180   3.145   3.974  17.348 -0.1941 -0.5594 -1.7589
 9240SOL     OW39181   2.307   1.669   6.797  0.0708  0.1370  0.5530
 9240SOL    HW139182   2.371   1.598   6.785 -1.0860 -0.7139 -0.6431
 9240SOL    HW239183   2.237   1.634   6.741  0.6853 -0.2433  0.0258
 9241SOL     OW39184   3.918   1.172  10.833 -1.0056 -0.5633  0.1855
 9241SOL    HW139185   3.950   1.182  10.743  0.9618  1.8727  1.1610
 9241SOL    HW239186   3.981   1.112  10.873 -0.8199  0.0075  0.7508
 9242SOL     OW39187   0.150   1.592  11.215  0.1957  0.3602  0.3098
 9242SOL    HW139188   0.059   1.563  11.205 -0.0282  0.4848  1.8770
 9242SOL    HW239189   0.194   1.508  11.230 -0.6625 -0.4930 -1.9636
 9243SOL     OW39190   2.769   2.510   3.560  0.1061  0.6400  0.6242
 9243SOL    HW139191   2.704   2.476   3.621  0.5622 -1.5322 -0.0684
 9243SOL    HW239192   2.800   2.592   3.596 -0.7007  0.1201  2.4936
 9244SOL     OW39193   0.870   1.974   3.028  0.6544 -0.3381  0.5274
 9244SOL    HW139194   0.936   1.914   3.064 -0.8032 -2.7940 -0.8450
 9244SOL    HW239195   0.928   2.046   3.006  1.3317 -1.7257 -2.2949
 9245SOL     OW39196   4.117   4.614  13.264 -0.0732  0.0718 -0.2115
 9245SOL    HW139197   4.112   4.635  13.171 -2.6588 -0.8772 -0.3027
 9245SOL    HW239198   4.206   4.579  13.259 -0.5642 -0.9193 -2.1151
 9246SOL     OW39199   1.167   0.273   3.643  0.1619 -0.2011 -0.1242
 9246SOL    HW139200   1.187   0.181   3.622  1.2856  0.3806 -1.5862
 9246SOL    HW239201   1.127   0.251   3.727 -1.3750 -2.8822 -1.5514
 9247SOL     OW39202   3.291   2.449   6.161  0.2605  0.3988 -0.4687
 9247SOL    HW139203   3.371   2.417   6.117 -0.0700  2.6308 -2.7021
 9247SOL    HW239204   3.228   2.424   6.094  0.2381  0.3893 -0.4436
 9248SOL     OW39205   3.245   3.251  11.181 -0.1673 -0.4727 -0.7714
 9248SOL    HW139206   3.265   3.195  11.256  3.9447  1.7426 -0.1805
 9248SOL    HW239207   3.166   3.292  11.216  1.5797 -0.3832  3.1477
 9249SOL     OW39208   3.624   0.206   8.401 -0.0857  0.4160 -0.2251
 9249SOL    HW139209   3.713   0.212   8.437  0.1388 -0.7354 -0.6148
 9249SOL    HW239210   3.590   0.124   8.435 -1.6255  1.4377  0.7050
 9250SOL     OW39211   3.495   0.127  11.081 -0.2090  0.3236  0.1198
 9250SOL    HW139212   3.574   0.113  11.134 -0.1084  1.1121  0.1902
 9250SOL    HW239213   3.506   0.053  11.022  0.2400  0.7363 -0.3209
 9251SOL     OW39214   0.871   1.484   3.233 -0.3050 -0.1285 -0.6953
 9251SOL    HW139215   0.963   1.475   3.256 -0.1350  1.6604 -0.7228
 9251SOL    HW239216   0.880   1.517   3.144  0.3972 -0.8931 -0.9135
 9252SOL     OW39217   1.460   2.026   6.799 -0.2716  0.0313 -0.1157
 9252SOL    HW139218   1.403   1.963   6.844 -0.3442 -0.2571 -0.6144
 9252SOL    HW239219   1.529   2.051   6.861 -1.4886 -2.7657  2.3536
 9253SOL     OW39220   1.795   0.746   1.669 -0.1052 -0.2070  0.3671
 9253SOL    HW139221   1.718   0.792   1.702 -0.4540 -0.9351  0.5787
 9253SOL    HW239222   1.794   0.664   1.719 -1.9087 -0.4717 -0.1240
 9254SOL     OW39223   3.906   3.911  11.024 -0.2446  0.6160 -0.4330
 9254SOL    HW139224   3.989   3.959  11.015 -0.0745  0.0990 -1.6327
 9254SOL    HW239225   3.883   3.910  11.117  1.7407  1.3500  0.0623
 9255SOL     OW39226   4.430   0.948  16.035  0.5670 -0.5380 -0.3815
 9255SOL    HW139227   4.456   1.016  16.097  0.0450 -1.7502  1.1572
 9255SOL    HW239228   4.445   0.990  15.950  0.2485 -1.5776 -0.9616
 9256SOL     OW39229   0.121   0.715  15.380  0.7937  0.0961  0.4246
 9256SOL    HW139230   0.112   0.640  15.438  3.9486  1.5953  2.8677
 9256SOL    HW239231   0.131   0.780  15.449 -1.2385  0.7177  0.1359
 9257SOL     OW39232   2.138   1.715   6.459  0.0243 -0.1057 -0.6012
 9257SOL    HW139233   2.110   1.625   6.445 -1.7368  0.1294  1.2912
 9257SOL    HW239234   2.094   1.766   6.391 -0.3649 -0.1212 -0.3612
 9258SOL     OW39235   1.875   1.066  15.594  0.1368  0.0077  0.2371
 9258SOL    HW139236   1.897   1.156  15.619  0.3005 -0.7686  2.8621
 9258SOL    HW239237   1.883   1.018  15.676 -0.7153 -1.4598 -0.5379
 9259SOL     OW39238   3.168   1.560   5.337 -0.0477 -0.4207  0.2161
 9259SOL    HW139239   3.093   1.531   5.284 -0.9887  0.4361  1.0864
 9259SOL    HW239240   3.149   1.652   5.356 -1.2890 -0.5902 -0.1744
 9260SOL     OW39241   3.099   4.219   8.619  0.5247  0.4240  0.4404
 9260SOL    HW139242   3.030   4.201   8.555 -0.5224  3.5892  0.6855
 9260SOL    HW239243   3.074   4.171   8.698 -0.0559 -0.2177 -0.1351
 9261SOL     OW39244   3.605   0.348   9.580  0.7277 -0.0680  0.0284
 9261SOL    HW139245   3.696   0.326   9.596  1.0631  1.1960 -0.1446
 9261SOL    HW239246   3.583   0.275   9.522 -0.6427  1.9164 -1.9697
 9262SOL     OW39247   3.594   0.147  16.026  0.6790 -0.0966  0.0592
 9262SOL    HW139248   3.584   0.106  15.940 -2.5367 -2.0605  1.3756
 9262SOL    HW239249   3.574   0.240  16.015  2.4980  0.4752  1.5446
 9263SOL     OW39250   0.359   2.504   7.057  0.1797 -0.9242  0.3322
 9263SOL    HW139251   0.403   2.419   7.052 -1.2036 -1.7532  2.0545
 9263SOL    HW239252   0.416   2.548   7.120 -1.4700  0.7840  0.6136
 9264SOL     OW39253   0.428   3.537   3.273  0.2912  0.6169  0.0455
 9264SOL    HW139254   0.349   3.538   3.326 -0.6338 -0.9949 -1.2908
 9264SOL    HW239255   0.477   3.609   3.311 -1.9860  2.1072  0.0996
 9265SOL     OW39256   4.467   2.039   8.757  0.0099  0.4294 -0.2907
 9265SOL    HW139257   4.386   2.032   8.707 -1.5093  2.2680  1.9049
 9265SOL    HW239258   4.433   2.009   8.841  0.9804  2.3831  0.8030
 9266SOL     OW39259   1.029   4.243  16.532  0.0949  0.2156  0.3317
 9266SOL    HW139260   0.948   4.209  16.493  0.7004 -2.3678  1.3131
 9266SOL    HW239261   1.051   4.173  16.593 -0.5979 -1.7157 -1.6685
 9267SOL     OW39262   4.222   3.746   2.755  0.8332 -0.1980  0.4202
 9267SOL    HW139263   4.163   3.676   2.726  1.1135  0.1445 -1.0103
 9267SOL    HW239264   4.247   3.717   2.842  0.2333  0.0772  0.6873
 9268SOL     OW39265   1.471   2.850   2.714 -0.1142  0.7937 -0.1642
 9268SOL    HW139266   1.559   2.876   2.740  0.4946  0.0749 -1.5792
 9268SOL    HW239267   1.471   2.825   2.622 -1.9615 -1.1688  0.3517
 9269SOL     OW39268   0.310   2.582   2.251  0.1128 -0.1439 -0.7960
 9269SOL    HW139269   0.271   2.667   2.270 -0.0237 -0.4353  0.2377
 9269SOL    HW239270   0.350   2.603   2.166  0.0467 -0.4224 -0.8968
 9270SOL     OW39271   0.532   1.708   5.641 -0.1048  0.2644  0.0971
 9270SOL    HW139272   0.476   1.778   5.674  1.1118  0.9150  0.7571
 9270SOL    HW239273   0.576   1.763   5.576 -0.8405  1.4616  0.6202
 9271SOL     OW39274   0.993   1.243   4.183 -0.0363 -0.3368  0.3884
 9271SOL    HW139275   1.037   1.209   4.261  1.9826  2.0711  0.3054
 9271SOL    HW239276   0.907   1.255   4.224  0.4508  0.3996  1.1905
 9272SOL     OW39277   3.214   3.386   8.611 -0.0002 -0.0796 -0.3381
 9272SOL    HW139278   3.280   3.447   8.643  1.0891 -2.2710  1.5684
 9272SOL    HW239279   3.209   3.416   8.520 -0.3197 -0.3688 -0.4167
 9273SOL     OW39280   2.947   0.097   3.556  0.5105  0.7902 -0.2339
 9273SOL    HW139281   3.019   0.077   3.616  0.1922 -1.6255 -0.6451
 9273SOL    HW239282   2.906   0.013   3.577  0.5967  1.6107  3.0907
 9274SOL     OW39283   2.241   4.192   4.741 -0.5130 -0.1777  0.2973
 9274SOL    HW139284   2.255   4.285   4.723  2.2302 -1.2272 -2.9274
 9274SOL    HW239285   2.330   4.158   4.734  0.0600  1.5745 -0.7950
 9275SOL     OW39286   4.078   1.858   4.496 -0.0384  0.0403 -0.0341
 9275SOL    HW139287   4.166   1.845   4.461  1.1710 -1.1212  3.5003
 9275SOL    HW239288   4.065   1.776   4.544 -1.1109  0.4128  0.3094
 9276SOL     OW39289   4.427   4.177   4.314  0.4137  0.1008  0.1367
 9276SOL    HW139290   4.399   4.248   4.372 -0.1548 -0.8793  1.0403
 9276SOL    HW239291   4.463   4.231   4.243  0.5728  2.4699  2.0076
 9277SOL     OW39292   0.824   1.093   6.252  0.1118  0.2913 -0.3432
 9277SOL    HW139293   0.754   1.133   6.303 -0.3622 -1.4042  0.3355
 9277SOL    HW239294   0.800   1.106   6.160  0.5409 -0.6643 -0.5846
 9278SOL     OW39295   3.722   3.509   9.466  0.3505  0.0421 -0.2518
 9278SOL    HW139296   3.669   3.497   9.387  1.3924 -3.7664 -0.3393
 9278SOL    HW239297   3.777   3.431   9.466 -0.8635 -0.8082  1.1128
 9279SOL     OW39298   0.315   0.483   3.396 -0.1071  0.0782 -0.4295
 9279SOL    HW139299   0.387   0.423   3.417  1.1556  1.6070 -0.4091
 9279SOL    HW239300   0.361   0.565   3.382  2.1384 -1.0135  0.5074
 9280SOL     OW39301   0.255   2.521   9.216  0.0682 -0.1545 -0.2146
 9280SOL    HW139302   0.167   2.554   9.198  0.2251  0.4315  0.0800
 9280SOL    HW239303   0.246   2.429   9.191  1.7224 -0.9245  1.9278
 9281SOL     OW39304   4.712   1.441   3.514 -0.3030  0.3626 -0.2718
 9281SOL    HW139305   0.075   1.457   3.474 -0.3587  0.7274 -0.2401
 9281SOL    HW239306   4.671   1.388   3.446 -1.8316  3.3731 -1.6999
 9282SOL     OW39307   2.888   1.980   2.734  0.0002  0.6854 -0.3921
 9282SOL    HW139308   2.933   1.968   2.650  2.6165 -1.3811  1.3181
 9282SOL    HW239309   2.804   1.933   2.732  0.0368  0.6718 -1.7172
 9283SOL     OW39310   0.904   3.264  12.991  0.1810 -0.1938 -0.0027
 9283SOL    HW139311   0.833   3.328  13.001  0.7655 -0.0456  2.9230
 9283SOL    HW239312   0.895   3.219  13.075  0.3464  2.4711  1.4204
 9284SOL     OW39313   1.785   0.844   5.795  0.0023 -0.2314 -0.0926
 9284SOL    HW139314   1.845   0.919   5.794 -2.4038  1.6792 -0.7410
 9284SOL    HW239315   1.702   0.891   5.801 -0.1804 -0.4258 -1.0805
 9285SOL     OW39316   2.462   3.224   6.785  0.3424 -0.1795  0.6267
 9285SOL    HW139317   2.418   3.187   6.709 -0.2713  1.0244  0.3866
 9285SOL    HW239318   2.385   3.253   6.833  0.3542  1.1241 -0.1119
 9286SOL     OW39319   2.714   4.209   2.978 -0.1377 -0.2946 -0.1450
 9286SOL    HW139320   2.762   4.188   2.897  2.6335 -1.0510  1.7007
 9286SOL    HW239321   2.627   4.176   2.957  0.3828 -1.6661 -0.1563
 9287SOL     OW39322   4.098   3.141  16.779  0.0067  0.1725 -0.4859
 9287SOL    HW139323   4.007   3.117  16.793  0.6239 -1.6597  0.4274
 9287SOL    HW239324   4.099   3.203  16.706  0.3949  0.3840 -0.2999
 9288SOL     OW39325   1.164   3.832   6.664  0.3663 -0.0514 -0.3851
 9288SOL    HW139326   1.180   3.799   6.752 -0.2558  1.2953  0.2242
 9288SOL    HW239327   1.238   3.790   6.621  0.5029 -1.1600  0.9370
 9289SOL     OW39328   1.776   0.977   4.366  0.4702 -0.1496 -0.3587
 9289SOL    HW139329   1.868   0.958   4.382  0.2746 -1.3627 -0.7137
 9289SOL    HW239330   1.759   0.908   4.302 -1.3774  0.7131 -0.7984
 9290SOL     OW39331   4.017   1.377  12.754 -0.4334  0.3782  0.0992
 9290SOL    HW139332   4.080   1.433  12.708 -0.8209  1.5702  0.9948
 9290SOL    HW239333   4.075   1.335  12.818  0.1743  0.1813 -0.5843
 9291SOL     OW39334   0.521   3.271  15.736  0.2672 -0.5046  0.7978
 9291SOL    HW139335   0.539   3.226  15.654  0.6337 -0.6833  0.9725
 9291SOL    HW239336   0.537   3.197  15.795 -0.1096 -0.3678  1.0740
 9292SOL     OW39337   4.329   2.228   3.176  0.2374  0.4358 -0.0343
 9292SOL    HW139338   4.303   2.247   3.266 -1.5750  1.1588 -0.7207
 9292SOL    HW239339   4.303   2.307   3.127 -0.1787  0.1853 -0.2134
 9293SOL     OW39340   0.148   1.971   3.962  0.2649  0.0278 -0.2740
 9293SOL    HW139341   0.241   1.958   3.984 -0.1917 -4.0475 -0.7750
 9293SOL    HW239342   0.118   2.020   4.038  0.9547 -1.2062  0.7828
 9294SOL     OW39343   3.428   0.604   6.352 -0.2747  0.0992  0.0663
 9294SOL    HW139344   3.456   0.613   6.261  0.3137 -0.2698  0.2125
 9294SOL    HW239345   3.423   0.694   6.385 -0.9474  0.2195 -0.3666
 9295SOL     OW39346   1.454   4.404   4.499 -0.2431 -0.2248  0.2129
 9295SOL    HW139347   1.426   4.344   4.429 -0.6910  0.6189 -0.3364
 9295SOL    HW239348   1.549   4.389   4.503 -0.1400  0.5721  0.5861
 9296SOL     OW39349   3.194   3.051   6.823 -0.4746 -0.3254  0.6941
 9296SOL    HW139350   3.234   3.066   6.909  2.4742  0.2632 -0.7715
 9296SOL    HW239351   3.136   2.978   6.843  1.1855 -2.2455 -1.6700
 9297SOL     OW39352   0.985   1.860   0.864  0.4931  0.1057  0.2471
 9297SOL    HW139353   0.907   1.857   0.808  0.9331 -1.1326 -0.2937
 9297SOL    HW239354   0.956   1.920   0.933 -0.1129 -0.1135  0.1884
 9298SOL     OW39355   2.184   2.021   7.963  0.6788 -0.2695  0.0654
 9298SOL    HW139356   2.142   2.097   7.922  0.7215 -0.1941  0.1605
 9298SOL    HW239357   2.255   2.066   8.010  1.5545  1.2994 -2.7454
 9299SOL     OW39358   2.611   4.677   4.021 -0.0294  0.3452  0.2149
 9299SOL    HW139359   2.672   4.605   4.004  0.7096  1.5911 -2.4859
 9299SOL    HW239360   2.596   4.704   3.930 -0.7396 -0.9463 -0.0471
 9300SOL     OW39361   1.683   2.565   1.659  0.4084  0.3725  0.6517
 9300SOL    HW139362   1.753   2.499   1.664  0.7810  0.7136 -0.0736
 9300SOL    HW239363   1.606   2.511   1.646  0.4330  0.6032 -0.4158
 9301SOL     OW39364   1.000   2.557   7.900  0.4760  0.1589  0.7015
 9301SOL    HW139365   1.034   2.474   7.932  0.1981 -1.1766 -2.4355
 9301SOL    HW239366   0.950   2.521   7.827  0.2893  1.8966 -0.0400
 9302SOL     OW39367   3.918   1.859   6.319  0.1856 -1.1953  0.1362
 9302SOL    HW139368   3.915   1.786   6.380  0.5727 -0.2289  1.3061
 9302SOL    HW239369   3.824   1.873   6.307  0.1939 -1.1951  0.0662
 9303SOL     OW39370   2.712   1.441   1.812 -0.4612 -0.6109  0.3759
 9303SOL    HW139371   2.629   1.467   1.773 -1.4286 -4.8447 -0.3092
 9303SOL    HW239372   2.758   1.415   1.732 -0.2855  2.1501 -0.4175
 9304SOL     OW39373   0.842   3.232   2.323 -0.1046  0.6038 -0.0998
 9304SOL    HW139374   0.922   3.270   2.287  0.8995 -1.9273 -0.5842
 9304SOL    HW239375   0.785   3.306   2.304 -0.3731 -0.4637 -3.4671
 9305SOL     OW39376   0.471   4.524   3.569 -0.2439 -0.3998  0.2937
 9305SOL    HW139377   0.565   4.534   3.580 -0.2992 -0.0375  0.4409
 9305SOL    HW239378   0.442   4.501   3.658 -3.3043 -0.2876 -0.6628
 9306SOL     OW39379   2.099   4.121   3.745  0.3920  0.2091  0.1500
 9306SOL    HW139380   2.175   4.176   3.730  0.0211  0.4335 -0.9551
 9306SOL    HW239381   2.103   4.113   3.840 -0.1473 -1.1343  0.0624
 9307SOL     OW39382   0.134   2.120   0.330  0.0764  0.2469 -1.0859
 9307SOL    HW139383   0.103   2.200   0.373 -1.2004 -1.1526  0.5929
 9307SOL    HW239384   0.060   2.062   0.349  0.1981  0.0549 -1.2038
 9308SOL     OW39385   3.524   2.603  10.877 -0.3225 -0.3145  0.3367
 9308SOL    HW139386   3.442   2.566  10.843  1.0657 -2.6433 -0.4342
 9308SOL    HW239387   3.560   2.611  10.789 -0.5743  0.8372  0.3288
 9309SOL     OW39388   1.525   2.512  16.692  0.1523  0.1693 -0.2794
 9309SOL    HW139389   1.541   2.525  16.599  0.5772  2.6848  0.1612
 9309SOL    HW239390   1.489   2.596  16.722 -0.4971  0.1121 -0.8895
 9310SOL     OW39391   3.017   2.588  10.010 -0.5694 -0.3189 -0.2295
 9310SOL    HW139392   3.068   2.571  10.089 -1.4122  0.3084  0.4523
 9310SOL    HW239393   3.075   2.543   9.949 -1.7959 -0.1909 -1.5027
 9311SOL     OW39394   2.751   3.703   7.648  0.4443  0.2515  0.7153
 9311SOL    HW139395   2.731   3.622   7.602 -1.0018  1.0611 -0.0929
 9311SOL    HW239396   2.667   3.748   7.662  0.7898  0.6268  1.6038
 9312SOL     OW39397   3.994   2.309  11.988 -0.0185 -0.5722 -0.1764
 9312SOL    HW139398   3.974   2.229  12.037  0.7705 -1.7874 -1.8800
 9312SOL    HW239399   4.088   2.301  11.978  0.1815  1.4214  0.0001
 9313SOL     OW39400   2.116   1.703   4.692 -0.3683 -0.2446  0.3398
 9313SOL    HW139401   2.179   1.641   4.656 -1.6998 -0.7272 -1.1396
 9313SOL    HW239402   2.160   1.754   4.761 -3.2882  2.1522  0.4394
 9314SOL     OW39403   3.264   2.597   5.431 -0.8538  0.0807 -0.0190
 9314SOL    HW139404   3.256   2.679   5.479 -1.5561  0.0128 -0.0146
 9314SOL    HW239405   3.359   2.583   5.436 -1.1173 -1.1497  1.6634
 9315SOL     OW39406   1.556   0.799   7.279  0.5215  0.2632 -0.5726
 9315SOL    HW139407   1.484   0.862   7.274 -0.2162 -0.6487 -1.3510
 9315SOL    HW239408   1.584   0.809   7.370  0.3239  0.4695 -0.5353
 9316SOL     OW39409   4.206   2.534  15.338 -0.7596  0.0179 -0.0785
 9316SOL    HW139410   4.145   2.514  15.409 -0.5129 -1.4091 -0.2589
 9316SOL    HW239411   4.282   2.576  15.379  0.4129 -0.5225 -1.6975
 9317SOL     OW39412   0.985   1.980  10.115 -0.1465  0.6592  0.1446
 9317SOL    HW139413   0.992   1.914  10.046 -0.7019  0.4499  0.2874
 9317SOL    HW239414   1.063   2.034  10.105  0.8479 -0.7353  0.3237
 9318SOL     OW39415   0.394   3.414   5.261  1.0124 -0.2496  0.1977
 9318SOL    HW139416   0.445   3.366   5.327 -0.1792 -1.1666  0.4612
 9318SOL    HW239417   0.396   3.352   5.188 -3.2788  0.2726 -0.3497
 9319SOL     OW39418   4.561   3.089  13.958  0.5013 -0.5189 -0.1371
 9319SOL    HW139419   4.467   3.071  13.959  0.8019 -2.2896 -2.4280
 9319SOL    HW239420   4.572   3.168  14.010 -1.6948 -1.6661  2.0659
 9320SOL     OW39421   2.652   4.481   7.684  0.6979  0.4957  0.4837
 9320SOL    HW139422   2.646   4.544   7.612 -1.7596  0.5710  0.7422
 9320SOL    HW239423   2.663   4.543   7.756 -0.4252  3.1066 -1.6028
 9321SOL     OW39424   2.599   2.399   6.869 -0.5721  0.1773 -0.3299
 9321SOL    HW139425   2.655   2.322   6.878  0.8395  1.2462 -0.0872
 9321SOL    HW239426   2.653   2.470   6.903  0.7900 -0.2998 -1.4984
 9322SOL     OW39427   2.067   0.354  10.177  0.2549  0.4747 -0.0982
 9322SOL    HW139428   2.082   0.261  10.158 -0.6917  0.1568  0.7093
 9322SOL    HW239429   1.978   0.357  10.140  0.1806 -1.3460 -0.0573
 9323SOL     OW39430   0.282   3.150   6.471  0.1637 -0.0409 -0.8564
 9323SOL    HW139431   0.319   3.219   6.526  0.4847 -1.2709  0.4792
 9323SOL    HW239432   0.292   3.192   6.386 -1.4722 -0.9203 -1.4977
 9324SOL     OW39433   1.907   0.558   4.595 -0.1580  0.2086 -0.1274
 9324SOL    HW139434   1.836   0.498   4.573  0.3823 -0.7037  0.5684
 9324SOL    HW239435   1.876   0.599   4.676 -1.4279  2.3171 -1.6856
 9325SOL     OW39436   1.035   1.514  10.820 -0.6491  0.0031  0.1060
 9325SOL    HW139437   1.042   1.609  10.830  0.1327 -0.0019 -0.4530
 9325SOL    HW239438   1.093   1.494  10.747  1.0982  0.6122  1.3265
 9326SOL     OW39439   1.082   0.009   6.767  0.3701 -0.2239  0.5750
 9326SOL    HW139440   1.014   0.061   6.812 -1.4740 -2.6069  0.5169
 9326SOL    HW239441   1.028   4.689   6.701  2.0838  0.9775 -1.5891
 9327SOL     OW39442   4.317   4.555   7.787  0.0247  0.3289  0.7874
 9327SOL    HW139443   4.323   4.525   7.878  1.9131 -1.3426  0.1072
 9327SOL    HW239444   4.408   4.537   7.766 -0.0171  0.4055  0.5401
 9328SOL     OW39445   0.671   4.269   3.657  0.6774 -0.1972 -0.1277
 9328SOL    HW139446   0.594   4.302   3.704  1.4805  2.4784 -0.6426
 9328SOL    HW239447   0.704   4.214   3.728  1.2428 -1.0750 -1.0823
 9329SOL     OW39448   1.652   0.121  12.591 -0.4979 -0.3311  0.3933
 9329SOL    HW139449   1.694   0.088  12.511 -0.2099 -0.9835  0.8174
 9329SOL    HW239450   1.564   0.131  12.555  0.0973 -0.2306 -1.0552
 9330SOL     OW39451   0.513   4.097   8.092  0.4342 -0.1911  0.6375
 9330SOL    HW139452   0.498   4.005   8.117  1.7614 -0.4982  0.3143
 9330SOL    HW239453   0.607   4.099   8.076  0.1208  0.8666 -1.0045
 9331SOL     OW39454   3.457   3.965   0.951 -0.2200 -0.0883  0.3433
 9331SOL    HW139455   3.382   3.908   0.970  0.5148 -2.2436 -3.4016
 9331SOL    HW239456   3.474   3.934   0.862  2.0487 -1.2289  1.1876
 9332SOL     OW39457   2.158   4.400   0.594  0.3066 -0.1877  0.0165
 9332SOL    HW139458   2.171   4.317   0.549 -0.6915  1.1308 -2.7057
 9332SOL    HW239459   2.209   4.400   0.676 -1.3366  1.2200  1.0273
 9333SOL     OW39460   0.299   0.279  15.224  0.1102 -0.1725  0.1097
 9333SOL    HW139461   0.264   0.315  15.143 -1.1389  0.5874  0.9975
 9333SOL    HW239462   0.215   0.271  15.269  0.7692 -2.4107  0.9634
 9334SOL     OW39463   2.446   2.202   8.829  0.4913 -0.2207  0.2629
 9334SOL    HW139464   2.408   2.208   8.917 -2.2911 -0.0964 -0.9419
 9334SOL    HW239465   2.487   2.288   8.818 -1.4658  0.8397  1.2868
 9335SOL     OW39466   1.603   3.760  13.954  0.2889 -0.4903 -0.1371
 9335SOL    HW139467   1.550   3.835  13.927 -1.7307 -1.6025  0.6643
 9335SOL    HW239468   1.632   3.774  14.044 -0.2555  1.5359 -0.2770
 9336SOL     OW39469   2.147   1.875   5.613  0.3744 -0.7473  0.1853
 9336SOL    HW139470   2.068   1.926   5.628 -0.1336 -2.0637  2.0545
 9336SOL    HW239471   2.205   1.902   5.684  0.3637  0.6027 -0.3234
 9337SOL     OW39472   1.233   3.718   4.715 -0.4061 -0.2791 -0.1746
 9337SOL    HW139473   1.165   3.731   4.782  0.5513  0.0974  0.7250
 9337SOL    HW239474   1.301   3.673   4.764 -0.8336  1.6756  2.2955
 9338SOL     OW39475   1.622   0.191  12.200 -0.4655 -0.0160 -0.3054
 9338SOL    HW139476   1.552   0.214  12.261  1.1219  1.5830  0.9044
 9338SOL    HW239477   1.658   0.109  12.233  0.8494  0.3710 -0.7641
 9339SOL     OW39478   3.582   2.487   7.216 -0.0466 -0.2169 -0.3969
 9339SOL    HW139479   3.563   2.489   7.310  0.2745  2.6904 -0.3897
 9339SOL    HW239480   3.507   2.436   7.186 -0.4464  0.4509 -0.5149
 9340SOL     OW39481   2.864   1.658   3.408  0.8322 -0.3414 -0.1497
 9340SOL    HW139482   2.912   1.586   3.448  1.0822  0.7999  1.6037
 9340SOL    HW239483   2.930   1.714   3.368 -0.1500  0.2136 -1.0046
 9341SOL     OW39484   0.907   1.480   4.836  0.1527 -0.0879  0.3538
 9341SOL    HW139485   0.981   1.520   4.791 -1.4296  2.2623 -0.1860
 9341SOL    HW239486   0.942   1.401   4.878 -0.1687  0.4803  1.6856
 9342SOL     OW39487   3.621   0.525  17.517 -0.4802  0.6850  0.2251
 9342SOL    HW139488   3.700   0.578  17.505 -0.5166  0.3028 -1.6429
 9342SOL    HW239489   3.556   0.589  17.545 -2.4789 -0.7815 -1.1041
 9343SOL     OW39490   1.482   4.306   3.674 -1.1296  0.0349 -0.8311
 9343SOL    HW139491   1.575   4.325   3.665 -0.8886 -0.2124  1.1798
 9343SOL    HW239492   1.468   4.246   3.601  0.4421  1.6425 -2.4503
 9344SOL     OW39493   3.382   3.579   6.063  0.1996  0.2850 -0.5491
 9344SOL    HW139494   3.296   3.539   6.077 -0.3087  1.1044 -1.4205
 9344SOL    HW239495   3.356   3.666   6.035 -0.5249  0.1666 -0.2498
 9345SOL     OW39496   0.338   0.845  11.672  0.2813 -0.0288  0.0996
 9345SOL    HW139497   0.340   0.921  11.730  1.2164  0.3931 -0.4762
 9345SOL    HW239498   0.319   0.882  11.586 -2.7184  1.6191  1.4809
 9346SOL     OW39499   0.270   4.364   1.545 -0.8538  0.5276  1.0060
 9346SOL    HW139500   0.182   4.334   1.525 -0.7127  0.0056  1.1822
 9346SOL    HW239501   0.246   4.440   1.599  0.1633  1.3822  0.2655
 9347SOL     OW39502   4.371   3.364   9.233 -0.0797 -0.0787 -0.1105
 9347SOL    HW139503   4.300   3.413   9.192  0.8067  1.0098 -0.3392
 9347SOL    HW239504   4.447   3.396   9.184 -0.7985 -1.0116 -1.8347
 9348SOL     OW39505   3.374   3.175   4.283  0.5697  0.3561  0.0590
 9348SOL    HW139506   3.391   3.139   4.196 -4.6451 -1.1642 -0.3304
 9348SOL    HW239507   3.454   3.225   4.297  0.8813 -0.0725 -0.1988
 9349SOL     OW39508   2.404   1.826   8.732 -0.1530 -0.2271  0.0676
 9349SOL    HW139509   2.388   1.764   8.803 -2.7251  1.0890  0.6070
 9349SOL    HW239510   2.487   1.799   8.691  0.6451  2.4042 -0.0888
 9350SOL     OW39511   1.095   1.304  14.667 -0.1317  0.3505 -0.4034
 9350SOL    HW139512   1.176   1.312  14.717 -1.0065 -0.7401  1.2062
 9350SOL    HW239513   1.115   1.269  14.580 -1.1098  2.0993 -1.3247
 9351SOL     OW39514   4.279   0.811  12.965  0.4888 -0.5124  0.2251
 9351SOL    HW139515   4.194   0.807  13.009  1.0875  1.7621  1.6322
 9351SOL    HW239516   4.255   0.843  12.878 -0.1918  1.4970  1.1501
 9352SOL     OW39517   4.590   3.036  17.126  0.2400 -0.8033 -0.5327
 9352SOL    HW139518   4.608   3.082  17.044  0.4828 -1.0786 -0.6341
 9352SOL    HW239519   4.566   2.950  17.093 -1.7539  0.0552 -1.3022
 9353SOL     OW39520   3.144   0.017   7.554 -0.1746  0.5639 -0.3748
 9353SOL    HW139521   3.069   4.719   7.608  0.2487 -1.1958 -0.4892
 9353SOL    HW239522   3.194   0.077   7.610 -0.3195  0.6976 -0.3885
 9354SOL     OW39523   2.501   4.436   7.139  0.0380 -0.0346  0.2236
 9354SOL    HW139524   2.530   4.412   7.227  1.3882  0.7257 -0.0166
 9354SOL    HW239525   2.543   4.522   7.135  1.6704 -0.9556 -2.6784
 9355SOL     OW39526   4.414   4.232   7.315  0.3904 -0.6094  0.2884
 9355SOL    HW139527   4.334   4.270   7.280  1.2769  0.6503 -0.4027
 9355SOL    HW239528   4.390   4.142   7.339  0.2299 -0.7537 -0.3943
 9356SOL     OW39529   0.712   0.039   6.174  0.3205 -0.4551  0.4056
 9356SOL    HW139530   0.793   0.021   6.223  1.9862  1.4914 -1.6273
 9356SOL    HW239531   0.660   4.685   6.195  0.8496 -0.9966 -0.2451
 9357SOL     OW39532   4.289   2.861  14.446  0.3178 -0.0549  0.4572
 9357SOL    HW139533   4.334   2.864  14.361 -0.3345  2.8630  0.1907
 9357SOL    HW239534   4.321   2.774  14.468 -0.7726 -0.5128  0.2578
 9358SOL     OW39535   0.405   0.274   6.430 -0.4080 -0.0216  0.2112
 9358SOL    HW139536   0.456   0.329   6.371  1.9991 -0.8941  1.4701
 9358SOL    HW239537   0.316   0.304   6.413 -0.1639  0.2567 -0.5471
 9359SOL     OW39538   3.266   0.438   2.883  0.3114 -0.3836  0.1371
 9359SOL    HW139539   3.187   0.398   2.846 -0.6845  0.1296  1.6912
 9359SOL    HW239540   3.282   0.377   2.954 -0.8871 -0.8538  0.0047
 9360SOL     OW39541   0.834   2.571   5.282 -0.4681  0.1494  0.7704
 9360SOL    HW139542   0.761   2.586   5.222 -0.5518 -3.1993  0.0736
 9360SOL    HW239543   0.788   2.580   5.366 -1.1867 -0.8381  0.4878
 9361SOL     OW39544   4.519   4.176   7.897 -0.3033 -0.3503 -0.5593
 9361SOL    HW139545   4.576   4.242   7.935  1.5326 -2.6160  0.6111
 9361SOL    HW239546   4.475   4.138   7.973  1.1007  0.1071  0.4907
 9362SOL     OW39547   2.809   0.068   4.379  0.2790  0.7118  0.4482
 9362SOL    HW139548   2.868   0.050   4.451 -1.3720 -0.7912  1.4094
 9362SOL    HW239549   2.764   0.142   4.421 -1.9661 -1.9291  2.7162
 9363SOL     OW39550   3.579   2.723   9.503 -0.0553 -0.5479 -0.0383
 9363SOL    HW139551   3.515   2.663   9.464 -0.5342  0.5062 -0.8762
 9363SOL    HW239552   3.580   2.703   9.596 -0.6646  0.8458  0.2770
 9364SOL     OW39553   1.252   2.654   8.565  0.1746 -0.0942  0.0456
 9364SOL    HW139554   1.273   2.684   8.476 -0.1155 -0.8165 -0.2631
 9364SOL    HW239555   1.340   2.637   8.600  0.7809  2.0752 -0.4128
 9365SOL     OW39556   3.256   4.525   3.573 -0.4589  0.1312 -0.4080
 9365SOL    HW139557   3.328   4.481   3.618  0.5667  0.6819 -1.5236
 9365SOL    HW239558   3.238   4.588   3.643  1.0402  2.3367 -2.0565
 9366SOL     OW39559   4.262   0.614  10.971  0.5089 -0.3562  0.6711
 9366SOL    HW139560   4.180   0.659  10.953  0.9409 -1.2355 -3.4070
 9366SOL    HW239561   4.318   0.638  10.897  2.5893 -0.2141  2.2742
 9367SOL     OW39562   2.093   0.299   2.990  0.6303  0.3165 -0.2856
 9367SOL    HW139563   2.106   0.329   2.900 -0.1977  1.0271 -0.1671
 9367SOL    HW239564   2.022   0.352   3.026  0.3034 -0.0358 -0.4105
 9368SOL     OW39565   4.178   0.853  16.261 -0.0224  0.6202 -0.2407
 9368SOL    HW139566   4.271   0.849  16.282 -0.0825  0.4584 -0.0009
 9368SOL    HW239567   4.139   0.786  16.317 -0.6827 -1.5020 -3.2355
 9369SOL     OW39568   2.910   1.225  10.113 -0.0230 -0.0111  0.1504
 9369SOL    HW139569   2.960   1.290  10.064 -2.0415  0.4373 -1.3151
 9369SOL    HW239570   2.951   1.225  10.200  0.1926 -0.5894  0.0466
 9370SOL     OW39571   3.433   1.018   3.546  0.5513  0.2179 -0.9831
 9370SOL    HW139572   3.403   1.099   3.504  1.2009  1.2035  0.4651
 9370SOL    HW239573   3.497   1.057   3.606  1.9717 -1.5457 -1.3283
 9371SOL     OW39574   1.129   2.811   0.684 -0.0305 -0.1875 -0.1169
 9371SOL    HW139575   1.141   2.878   0.617  3.2161 -0.5780  0.0961
 9371SOL    HW239576   1.204   2.828   0.741 -0.5407 -1.2868  0.8804
 9372SOL     OW39577   0.774   0.884  17.028  0.3074 -0.1645 -0.0903
 9372SOL    HW139578   0.685   0.918  17.024 -0.9307 -3.2226  0.8732
 9372SOL    HW239579   0.795   0.883  16.935 -0.7354 -0.3769 -0.3221
 9373SOL     OW39580   4.405   1.678   1.726  0.3861 -0.4218 -0.4529
 9373SOL    HW139581   4.310   1.664   1.733  0.1628  2.1152  1.4878
 9373SOL    HW239582   4.401   1.731   1.647  0.4319  3.0614  1.8635
 9374SOL     OW39583   4.250   0.288  15.500  0.1606 -0.6378  0.6062
 9374SOL    HW139584   4.155   0.301  15.489  0.5092  1.1842 -0.3113
 9374SOL    HW239585   4.261   0.378  15.533  0.3318 -0.1510 -0.7983
 9375SOL     OW39586   3.008   1.592  11.204  0.0399  0.3639 -0.0560
 9375SOL    HW139587   3.026   1.683  11.226  0.6436 -0.1819  1.7892
 9375SOL    HW239588   3.094   1.556  11.181 -0.2108  0.4224 -1.0526
 9376SOL     OW39589   4.046   1.422   7.097 -0.3281  0.1858 -0.4409
 9376SOL    HW139590   4.083   1.334   7.089 -0.5361  0.0131  0.5250
 9376SOL    HW239591   4.116   1.462   7.149 -1.5002  0.6318  0.7801
 9377SOL     OW39592   4.249   1.982   5.173  0.4610 -0.4889 -0.6228
 9377SOL    HW139593   4.229   2.011   5.084  1.4562 -1.5311 -1.1946
 9377SOL    HW239594   4.168   1.938   5.198 -1.0204  1.3394 -2.2130
 9378SOL     OW39595   3.862   2.814   2.028  0.7646  0.1548  0.6034
 9378SOL    HW139596   3.912   2.733   2.026 -1.5551 -1.2408 -1.4148
 9378SOL    HW239597   3.874   2.845   2.118 -0.9670  1.4092  0.4128
 9379SOL     OW39598   2.512   3.562   5.828 -0.1315 -0.5637  0.3104
 9379SOL    HW139599   2.562   3.601   5.756 -2.0700  1.2921 -0.0117
 9379SOL    HW239600   2.474   3.641   5.864 -1.0043 -0.9591  0.2507
 9380SOL     OW39601   1.146   0.910   4.935  0.1513 -0.1041  0.3698
 9380SOL    HW139602   1.186   0.824   4.923 -0.7007 -0.4924  0.3201
 9380SOL    HW239603   1.217   0.941   4.992  0.7891  0.5612 -0.7843
 9381SOL     OW39604   0.895   3.840   7.209  0.2575 -0.3619  0.3229
 9381SOL    HW139605   0.905   3.746   7.221  1.5967 -0.3775 -0.9311
 9381SOL    HW239606   0.943   3.857   7.128  0.5300  0.9340  0.7498
 9382SOL     OW39607   4.425   2.849  16.974  0.2240 -0.2109  0.4122
 9382SOL    HW139608   4.342   2.896  16.985  0.4303  0.0679  0.7704
 9382SOL    HW239609   4.455   2.886  16.891 -1.6642  0.2133 -0.0947
 9383SOL     OW39610   2.092   3.147  16.133  0.4106 -0.2776  0.4144
 9383SOL    HW139611   2.155   3.217  16.118  0.4750 -0.1132  1.4677
 9383SOL    HW239612   2.092   3.102  16.049  1.4825  1.4341 -0.5091
 9384SOL     OW39613   0.729   2.276   0.167 -0.2929  0.0914  0.1157
 9384SOL    HW139614   0.766   2.363   0.151 -0.4605  0.0817 -0.3300
 9384SOL    HW239615   0.641   2.296   0.198  1.0992  0.5526  3.8051
 9385SOL     OW39616   2.346   1.998   7.336 -0.4078 -0.0103  0.5484
 9385SOL    HW139617   2.278   2.052   7.375 -0.4916 -0.4127  0.9467
 9385SOL    HW239618   2.321   1.908   7.358  1.9349 -1.0474 -0.9869
 9386SOL     OW39619   2.724   1.657   1.506  0.2729 -0.4244  0.3279
 9386SOL    HW139620   2.812   1.694   1.509 -0.5473  1.6476 -1.5848
 9386SOL    HW239621   2.743   1.564   1.495  1.1458 -0.5103  2.4432
 9387SOL     OW39622   1.691   3.040   6.313 -0.2056  0.1299 -0.0003
 9387SOL    HW139623   1.667   3.098   6.385 -0.0580 -0.0353  0.1833
 9387SOL    HW239624   1.625   3.057   6.246  2.0989  0.9334 -2.0572
 9388SOL     OW39625   3.406   4.213   8.103 -0.3162 -0.2010  0.0518
 9388SOL    HW139626   3.429   4.306   8.093 -0.5476 -0.2474 -0.9232
 9388SOL    HW239627   3.375   4.218   8.194 -1.2219  2.5643 -0.3993
 9389SOL     OW39628   3.619   4.437  13.345 -0.5519 -0.1417 -0.5361
 9389SOL    HW139629   3.703   4.400  13.372 -0.1820  2.3818  1.8215
 9389SOL    HW239630   3.584   4.369  13.288  2.1993 -0.0935 -2.2962
 9390SOL     OW39631   2.652   0.160   7.182  0.3200 -0.3966 -0.1118
 9390SOL    HW139632   2.708   0.176   7.106  0.9350 -0.0247  0.4149
 9390SOL    HW239633   2.713   0.177   7.255  2.6961  2.1095 -2.6615
 9391SOL     OW39634   1.590   4.291   0.234 -0.4570  0.1170  0.3053
 9391SOL    HW139635   1.617   4.211   0.279  0.1739  1.7034  2.7272
 9391SOL    HW239636   1.528   4.251   0.173  0.5713  2.4937 -2.3347
 9392SOL     OW39637   0.240   2.993   2.543 -0.1062 -0.3212  0.3730
 9392SOL    HW139638   0.307   3.031   2.486 -0.7170  0.9607  0.5287
 9392SOL    HW239639   0.172   3.059   2.540 -0.6393 -1.0276 -2.4581
 9393SOL     OW39640   3.604   2.093  14.991  0.0802  1.0746  0.6351
 9393SOL    HW139641   3.556   2.010  14.985  1.6798  0.0393  2.4041
 9393SOL    HW239642   3.693   2.073  15.019  1.4820  0.6632 -4.1285
 9394SOL     OW39643   1.087   2.226  12.146 -0.1828 -0.0849 -0.9708
 9394SOL    HW139644   1.025   2.155  12.164 -2.0570  1.6036 -0.7832
 9394SOL    HW239645   1.127   2.236  12.232  0.8182  0.8038 -1.5439
 9395SOL     OW39646   2.597   3.412   8.832  0.4622  0.3473 -0.5327
 9395SOL    HW139647   2.528   3.392   8.768 -0.0138 -3.2964  1.1155
 9395SOL    HW239648   2.623   3.498   8.800  1.4202 -0.2529 -1.3570
 9396SOL     OW39649   4.166   1.441   2.034 -0.4634 -0.1632 -0.0560
 9396SOL    HW139650   4.195   1.350   2.027 -0.7184 -0.2854  0.4921
 9396SOL    HW239651   4.095   1.457   1.973  0.1474  0.2411 -0.6654
 9397SOL     OW39652   3.500   2.141   4.196 -0.2964  0.2695  0.3596
 9397SOL    HW139653   3.437   2.212   4.210 -0.4478 -0.0743  1.3866
 9397SOL    HW239654   3.445   2.071   4.231 -1.1386  1.0996  0.6949
 9398SOL     OW39655   2.914   3.138   5.237 -0.3200  0.3315  0.3548
 9398SOL    HW139656   2.887   3.147   5.328 -2.3230  1.1354 -0.3188
 9398SOL    HW239657   2.997   3.092   5.252 -0.9771 -0.4501  1.5509
 9399SOL     OW39658   0.053   4.719   6.988  0.2902  0.1505 -0.8640
 9399SOL    HW139659   0.057   0.030   6.899 -1.1226 -0.8186 -1.2967
 9399SOL    HW239660   0.009   4.635   6.974 -1.5900  1.0012 -0.0829
 9400SOL     OW39661   0.828   0.921   5.040 -0.1049  0.4023  0.9116
 9400SOL    HW139662   0.757   0.931   4.977 -1.4956 -0.3256  2.3349
 9400SOL    HW239663   0.903   0.901   4.985 -1.6170 -0.6004 -0.7871
 9401SOL     OW39664   3.106   3.052   3.864  0.3102 -0.7550  0.0117
 9401SOL    HW139665   3.030   3.006   3.900 -0.3593  1.1878  1.0670
 9401SOL    HW239666   3.175   3.009   3.914 -0.4963  0.2606  2.0063
 9402SOL     OW39667   3.351   3.539   0.957  0.2399 -0.3484 -0.0371
 9402SOL    HW139668   3.372   3.609   1.020  0.0761 -1.0989  0.8538
 9402SOL    HW239669   3.404   3.577   0.887 -2.0283 -1.6243 -2.4276
 9403SOL     OW39670   2.810   2.680   3.029  0.5009 -0.7093  0.0140
 9403SOL    HW139671   2.806   2.688   2.934  0.8805 -1.1537 -0.0388
 9403SOL    HW239672   2.724   2.714   3.053 -0.0916  0.0568 -3.2626
 9404SOL     OW39673   1.805   1.416   2.529 -0.1446  0.1680  0.2824
 9404SOL    HW139674   1.768   1.339   2.573 -1.7606  1.3050  0.9229
 9404SOL    HW239675   1.870   1.443   2.593 -0.5120  0.1494  0.6655
 9405SOL     OW39676   0.255   4.501  16.945 -0.0251 -0.4301  0.3454
 9405SOL    HW139677   0.288   4.441  16.878  0.0650 -1.8132  1.6258
 9405SOL    HW239678   0.166   4.520  16.917  0.5282  0.9510 -0.4942
 9406SOL     OW39679   1.153   3.981   8.849 -0.4430  0.2221 -0.4719
 9406SOL    HW139680   1.219   4.039   8.811  0.1865 -1.3019 -1.7035
 9406SOL    HW239681   1.176   3.984   8.942 -1.1757 -1.4770 -0.2329
 9407SOL     OW39682   4.222   1.663   3.395  0.3411 -0.1925  0.2946
 9407SOL    HW139683   4.185   1.673   3.307  1.1690 -0.5174 -0.0929
 9407SOL    HW239684   4.283   1.736   3.393 -0.4336  0.4472 -0.1299
 9408SOL     OW39685   1.431   2.378   9.043  0.0570  0.1594  0.2697
 9408SOL    HW139686   1.482   2.326   9.106  0.6625  0.0069 -0.3390
 9408SOL    HW239687   1.495   2.370   8.972  0.3910  1.6540  0.4121
 9409SOL     OW39688   4.399   1.126   7.411  0.2212 -0.0651  0.1130
 9409SOL    HW139689   4.431   1.190   7.348 -0.6620 -2.5542 -2.8820
 9409SOL    HW239690   4.378   1.179   7.488 -2.5787 -0.9634 -0.0418
 9410SOL     OW39691   3.426   3.881   0.365 -0.6197  0.1996  0.4780
 9410SOL    HW139692   3.475   3.957   0.335  0.9360 -1.9027 -2.2217
 9410SOL    HW239693   3.428   3.822   0.290 -1.9282 -0.2209  0.7656
 9411SOL     OW39694   2.896   3.338   1.546  0.3143 -0.2501  0.3417
 9411SOL    HW139695   2.989   3.342   1.524  0.3870  3.2026  1.1909
 9411SOL    HW239696   2.870   3.263   1.492 -3.3789  1.3390 -0.0918
 9412SOL     OW39697   1.440   3.325   9.418 -0.1028  0.1575  0.8937
 9412SOL    HW139698   1.399   3.411   9.430  0.1322  0.4949 -0.6416
 9412SOL    HW239699   1.378   3.270   9.466 -0.8218  0.0614 -0.1464
 9413SOL     OW39700   2.732   0.564   1.957 -0.0686  0.1375  0.0704
 9413SOL    HW139701   2.663   0.498   1.964 -0.1943  0.3455  0.7756
 9413SOL    HW239702   2.802   0.515   2.000 -1.8470 -1.6710  0.8984
 9414SOL     OW39703   4.314   1.132   9.914  0.5017 -0.0173  0.1004
 9414SOL    HW139704   4.292   1.045   9.881 -0.1243  0.0714  0.2975
 9414SOL    HW239705   4.300   1.114  10.007  3.8688  1.3882  0.8890
 9415SOL     OW39706   1.187   3.887   2.021 -0.4034  0.8037 -0.6366
 9415SOL    HW139707   1.211   3.883   1.928  1.1845 -0.0086 -0.1980
 9415SOL    HW239708   1.120   3.955   2.019 -2.1384 -0.9391 -2.2950
 9416SOL     OW39709   2.566   1.882  12.796  0.0288  0.4904 -0.2582
 9416SOL    HW139710   2.654   1.859  12.825 -0.3719  2.0534  2.2083
 9416SOL    HW239711   2.527   1.862  12.881  1.2891  0.3816  0.2957
 9417SOL     OW39712   3.400   1.138   9.289  0.1343 -0.0856  0.1834
 9417SOL    HW139713   3.403   1.208   9.355  1.5014 -0.9814  1.0751
 9417SOL    HW239714   3.309   1.144   9.262  1.0639 -1.2378 -3.2253
 9418SOL     OW39715   2.653   3.733  13.584  0.6301  0.1633  0.4024
 9418SOL    HW139716   2.581   3.674  13.559  2.5281 -2.8563  2.1029
 9418SOL    HW239717   2.715   3.677  13.631 -0.8629 -1.0155  0.9593
 9419SOL     OW39718   4.190   3.118   7.736  0.8459  0.2187 -0.0520
 9419SOL    HW139719   4.121   3.140   7.672  0.2512  0.5432  0.7097
 9419SOL    HW239720   4.144   3.048   7.783  1.3093  1.2556  1.9223
 9420SOL     OW39721   3.108   4.107  15.857  0.0746  0.2291 -0.2320
 9420SOL    HW139722   3.036   4.068  15.907 -0.6373  0.9661 -0.6828
 9420SOL    HW239723   3.148   4.157  15.929  0.2837 -0.5368  0.1928
 9421SOL     OW39724   2.704   1.822   1.788 -0.1689 -0.3298 -0.3109
 9421SOL    HW139725   2.739   1.867   1.864  1.4623 -1.1557 -0.5730
 9421SOL    HW239726   2.770   1.759   1.759  0.8261 -0.6805  2.7803
 9422SOL     OW39727   1.987   2.080  13.243 -0.3857 -0.0707  0.3611
 9422SOL    HW139728   1.984   1.985  13.242 -0.6791 -0.0568 -0.1219
 9422SOL    HW239729   1.921   2.104  13.178 -1.8641 -0.6863  1.6269
 9423SOL     OW39730   2.154   0.552   5.279  0.8385  0.4788 -0.0240
 9423SOL    HW139731   2.116   0.523   5.362 -0.4555 -2.4381 -1.6346
 9423SOL    HW239732   2.146   0.470   5.230 -0.0691  0.1420  0.6877
 9424SOL     OW39733   2.939   0.412   3.447  0.5233  0.0723 -0.0307
 9424SOL    HW139734   2.990   0.412   3.367 -2.7634  0.3676 -2.1376
 9424SOL    HW239735   3.009   0.408   3.512 -1.2613 -3.4933  1.6386
 9425SOL     OW39736   0.757   4.411   4.886 -0.7580 -0.1981 -0.4687
 9425SOL    HW139737   0.723   4.342   4.942 -1.1538 -0.5794 -1.1750
 9425SOL    HW239738   0.687   4.421   4.821  0.3578  1.9512 -1.3448
 9426SOL     OW39739   2.307   1.072   2.264 -0.6956 -0.3789 -0.2628
 9426SOL    HW139740   2.268   1.158   2.278 -1.7820 -1.1149  1.2094
 9426SOL    HW239741   2.276   1.048   2.176  0.4034 -0.9165 -0.5021
 9427SOL     OW39742   0.896   2.310   8.669 -0.1553  0.6239  0.4649
 9427SOL    HW139743   0.923   2.275   8.584 -1.3308 -1.5319  0.9653
 9427SOL    HW239744   0.948   2.390   8.673 -0.8934  1.1139  0.2188
 9428SOL     OW39745   3.827   1.851   6.662  0.1008 -0.0751 -0.5314
 9428SOL    HW139746   3.842   1.939   6.627 -0.2258  0.3504  0.3845
 9428SOL    HW239747   3.791   1.887   6.744  0.6370 -0.3924 -0.1545
 9429SOL     OW39748   1.446   0.861   5.019  0.1946 -0.1891  0.3239
 9429SOL    HW139749   1.434   0.881   4.926  0.3105 -0.9254  0.1462
 9429SOL    HW239750   1.517   0.797   5.020 -0.6496 -1.1306  0.8403
 9430SOL     OW39751   2.269   3.493   8.021  0.2630 -0.3816  0.2188
 9430SOL    HW139752   2.214   3.488   8.099  2.6826 -0.7415  1.8951
 9430SOL    HW239753   2.202   3.509   7.955  1.5090 -0.3151 -1.0211
 9431SOL     OW39754   0.389   4.702   1.816  0.0021  0.0265  0.3217
 9431SOL    HW139755   0.370   0.064   1.777 -1.0858 -0.6190 -0.5588
 9431SOL    HW239756   0.312   4.654   1.784 -0.0664  0.0565  0.4400
 9432SOL     OW39757   1.798   0.166  11.095  0.2002 -0.6870 -0.6777
 9432SOL    HW139758   1.822   0.199  11.009  0.8076  0.6688  0.0120
 9432SOL    HW239759   1.824   0.236  11.155  0.9613 -0.8871 -0.7691
 9433SOL     OW39760   2.528   1.984   1.953 -0.4547 -0.2544  0.3852
 9433SOL    HW139761   2.562   1.965   2.040  2.8787  1.8843 -0.4721
 9433SOL    HW239762   2.505   2.074   1.978 -0.0768  0.6988 -2.6137
 9434SOL     OW39763   3.549   3.562   2.636 -0.0516 -0.2658 -0.4756
 9434SOL    HW139764   3.594   3.640   2.670  1.6675 -1.6288  0.3924
 9434SOL    HW239765   3.460   3.592   2.651  0.0017 -0.8602  1.0782
 9435SOL     OW39766   4.182   0.495   3.108 -1.2155 -0.0470 -0.1564
 9435SOL    HW139767   4.149   0.423   3.054 -1.3112  0.9938 -1.4683
 9435SOL    HW239768   4.165   0.566   3.046  2.0589  3.1657  2.6009
 9436SOL     OW39769   4.336   2.854   2.143  0.2921 -0.0794 -0.0250
 9436SOL    HW139770   4.365   2.777   2.191  0.2819  0.1426  0.3413
 9436SOL    HW239771   4.282   2.810   2.077  0.5959  1.1289 -1.0826
 9437SOL     OW39772   3.389   0.669   3.564 -0.2112  0.1910  0.4103
 9437SOL    HW139773   3.472   0.686   3.519 -0.9838  2.3146 -0.2015
 9437SOL    HW239774   3.421   0.627   3.643  1.5625  2.2739  0.7896
 9438SOL     OW39775   0.608   1.949   5.117  0.8472  0.1881 -0.3561
 9438SOL    HW139776   0.666   1.954   5.193  1.4080 -0.1448 -0.7650
 9438SOL    HW239777   0.645   1.875   5.070 -1.7420 -1.4602  0.2191
 9439SOL     OW39778   4.159   2.255   0.182 -0.4163  0.6333  0.3439
 9439SOL    HW139779   4.180   2.292   0.096  0.5023 -0.8562 -0.0735
 9439SOL    HW239780   4.127   2.331   0.230 -1.6834 -0.9004  1.9218
 9440SOL     OW39781   0.214   0.231   7.833  0.6299 -0.1433  0.0279
 9440SOL    HW139782   0.258   0.314   7.850  2.0027 -0.9976  0.7120
 9440SOL    HW239783   0.271   0.171   7.784  0.6943 -0.9252  1.0559
 9441SOL     OW39784   4.094   0.606  14.908  0.1871  0.1886 -0.0022
 9441SOL    HW139785   4.185   0.596  14.880  0.9678  1.6707  2.0346
 9441SOL    HW239786   4.088   0.700  14.893 -1.0689  0.5850  3.0657
 9442SOL     OW39787   2.611   1.241   0.059  0.0980  0.4043  0.6219
 9442SOL    HW139788   2.570   1.246  17.667 -3.8971 -2.2239  2.3923
 9442SOL    HW239789   2.660   1.323   0.073  1.4362 -0.2306 -0.2711
 9443SOL     OW39790   1.137   3.497  13.113  0.3257 -0.4962 -0.3206
 9443SOL    HW139791   1.232   3.493  13.103  0.3166 -0.2216 -0.5207
 9443SOL    HW239792   1.119   3.413  13.154  4.0668 -0.3908  1.5367
 9444SOL     OW39793   1.908   2.400   5.078 -0.2671 -0.0535 -0.3545
 9444SOL    HW139794   1.903   2.307   5.058 -1.3161 -0.3865  1.4589
 9444SOL    HW239795   1.969   2.424   5.008 -0.6548  0.5159 -0.4949
 9445SOL     OW39796   4.170   1.730   2.104 -0.0631 -0.1619  0.1948
 9445SOL    HW139797   4.243   1.743   2.043  1.7328 -1.2791  2.0944
 9445SOL    HW239798   4.162   1.635   2.097  1.0121 -0.4586  2.8553
 9446SOL     OW39799   3.252   1.519  11.039  0.1153 -0.5442  0.6627
 9446SOL    HW139800   3.329   1.572  11.059 -0.1161  0.3943 -0.9366
 9446SOL    HW239801   3.268   1.447  11.100 -0.0926 -3.1670 -2.3271
 9447SOL     OW39802   0.112   0.210   8.086  0.5222 -0.7531 -0.0732
 9447SOL    HW139803   0.146   0.208   7.997 -0.7186 -0.7758 -0.5458
 9447SOL    HW239804   0.189   0.178   8.133  0.2245 -0.8131  0.3781
 9448SOL     OW39805   0.090   3.671  12.993  0.1012  0.1900 -0.5642
 9448SOL    HW139806   0.132   3.750  12.960 -1.8352  0.6312 -1.9959
 9448SOL    HW239807   4.720   3.695  12.994  0.5882  1.9388  0.6592
 9449SOL     OW39808   3.127   0.530   8.612 -0.2460  0.3631 -0.5299
 9449SOL    HW139809   3.209   0.491   8.580  0.3166  0.1347  1.1690
 9449SOL    HW239810   3.159   0.562   8.697  0.6705  2.0390 -1.5123
 9450SOL     OW39811   3.168   4.685   4.375 -0.3196 -0.3991 -0.1358
 9450SOL    HW139812   3.167   4.602   4.327  0.9271  0.9100 -2.3992
 9450SOL    HW239813   3.217   0.025   4.323  1.1050 -1.8901 -0.5853
 9451SOL     OW39814   1.334   3.756   8.230 -0.1739 -0.2617  0.8827
 9451SOL    HW139815   1.275   3.681   8.226 -2.0952  1.2736  0.4368
 9451SOL    HW239816   1.269   3.827   8.233 -0.8161 -0.7726 -1.1880
 9452SOL     OW39817   4.694   3.990   5.081 -0.6196 -0.3356  0.4943
 9452SOL    HW139818   0.028   4.026   5.014 -1.3011  1.8280  1.0873
 9452SOL    HW239819   4.650   3.921   5.031  0.7925 -0.6893 -0.2760
 9453SOL     OW39820   4.248   0.949   7.028 -0.7679 -0.0983 -0.8577
 9453SOL    HW139821   4.273   0.968   6.938 -0.4823  1.0719 -0.5238
 9453SOL    HW239822   4.234   0.855   7.013 -0.9742 -0.3255  0.7814
 9454SOL     OW39823   1.223   0.813  10.382 -0.3131 -0.5061  0.6340
 9454SOL    HW139824   1.294   0.865  10.419 -2.2975  2.2395  0.5759
 9454SOL    HW239825   1.241   0.730  10.425 -1.4254  0.7467  3.5506
 9455SOL     OW39826   3.711   2.280   4.063 -0.4654 -0.0136  0.3229
 9455SOL    HW139827   3.645   2.250   4.125 -2.1783  3.1071  0.0210
 9455SOL    HW239828   3.780   2.320   4.116  1.0804 -1.7052 -0.4083
 9456SOL     OW39829   1.745   1.712   6.358  0.2587 -0.8147  0.0191
 9456SOL    HW139830   1.764   1.703   6.451  0.3670  1.4961  0.2316
 9456SOL    HW239831   1.809   1.778   6.331 -2.2810  0.8983 -1.8334
 9457SOL     OW39832   2.731   2.854  13.159 -0.5000  0.1555  0.8227
 9457SOL    HW139833   2.794   2.813  13.100 -2.0128  0.2537 -0.8664
 9457SOL    HW239834   2.782   2.852  13.240 -2.1557 -1.0141  1.8292
 9458SOL     OW39835   2.177   4.277   9.583  0.1743  0.7540  0.0186
 9458SOL    HW139836   2.250   4.215   9.588  0.2338  0.6974 -1.3643
 9458SOL    HW239837   2.220   4.353   9.543 -0.4051  0.9467 -0.2386
 9459SOL     OW39838   1.346   0.469   4.432 -0.3531 -0.2432 -0.1189
 9459SOL    HW139839   1.340   0.454   4.526  0.0669  1.4121  0.1746
 9459SOL    HW239840   1.303   0.554   4.426  2.1990  1.1788  2.1625
 9460SOL     OW39841   3.970   4.359   2.906 -0.2678  0.1914  0.4170
 9460SOL    HW139842   3.882   4.362   2.944  0.2181  3.3051  1.2391
 9460SOL    HW239843   4.007   4.313   2.981  1.2260  0.4614 -0.1485
 9461SOL     OW39844   3.963   3.554   5.201 -0.9111  0.5745  1.2298
 9461SOL    HW139845   4.045   3.552   5.251 -1.6657 -0.4693  2.4168
 9461SOL    HW239846   3.904   3.507   5.259  0.4398 -0.0347  2.1214
 9462SOL     OW39847   3.834   1.153  17.231  0.4264  0.3856  0.5542
 9462SOL    HW139848   3.896   1.112  17.171 -0.3550  0.1695 -0.0991
 9462SOL    HW239849   3.805   1.225  17.176  0.8118 -0.3244 -0.5739
 9463SOL     OW39850   3.646   2.734   3.057 -0.2051 -0.5971  0.3684
 9463SOL    HW139851   3.636   2.749   3.151 -0.5313 -0.0845  0.2482
 9463SOL    HW239852   3.672   2.642   3.059 -0.8623 -0.7951 -0.7022
 9464SOL     OW39853   4.558   4.235   3.775  0.4968 -0.2574  0.0852
 9464SOL    HW139854   4.583   4.146   3.800 -1.9041 -1.2513 -1.0222
 9464SOL    HW239855   4.522   4.225   3.687  2.5482 -1.6765 -0.5878
 9465SOL     OW39856   0.727   1.892  10.162 -0.2726 -0.1022  0.6266
 9465SOL    HW139857   0.651   1.927  10.209 -0.8745 -0.4870 -0.0486
 9465SOL    HW239858   0.784   1.968  10.147 -2.0102  0.7374 -1.7925
 9466SOL     OW39859   4.716   3.980  15.296  0.3777 -0.7040 -0.1077
 9466SOL    HW139860   0.009   3.965  15.203  2.9653 -1.4223  0.4666
 9466SOL    HW239861   0.060   4.047  15.309  0.3455 -0.4674 -1.1830
 9467SOL     OW39862   3.786   1.344  17.429 -0.6754  0.2528  0.0590
 9467SOL    HW139863   3.696   1.318  17.446 -1.1222  1.0924 -0.9484
 9467SOL    HW239864   3.822   1.276  17.372  1.1227  0.0280  1.4584
 9468SOL     OW39865   2.013   3.326   4.515  0.2093 -0.2798 -0.0608
 9468SOL    HW139866   2.022   3.415   4.481 -2.5400  1.1655  2.9783
 9468SOL    HW239867   1.921   3.307   4.494  0.1186  0.0056  0.0644
 9469SOL     OW39868   3.176   1.468  10.411  0.2634 -0.0077 -0.3987
 9469SOL    HW139869   3.153   1.502  10.324 -0.3495  0.8660  0.1078
 9469SOL    HW239870   3.120   1.391  10.412  1.0698 -0.6111 -1.5976
 9470SOL     OW39871   3.797   4.410  10.810 -0.2574 -0.1049  0.3303
 9470SOL    HW139872   3.878   4.460  10.820  0.8143 -1.8826  0.5504
 9470SOL    HW239873   3.738   4.456  10.871 -1.4895 -0.5298 -0.5346
 9471SOL     OW39874   0.365   3.336   0.440  0.0076  0.3378 -0.4382
 9471SOL    HW139875   0.283   3.323   0.392  1.1929 -1.3152 -2.0157
 9471SOL    HW239876   0.370   3.431   0.444 -0.2440  0.4255 -1.9600
 9472SOL     OW39877   2.319   0.567   8.543 -0.1349 -0.1700 -0.0788
 9472SOL    HW139878   2.386   0.502   8.522 -1.3032 -0.2701 -3.4313
 9472SOL    HW239879   2.379   0.634   8.576 -1.0435 -0.1795  1.6086
 9473SOL     OW39880   1.676   3.571   3.158 -0.1715  0.2655 -0.7097
 9473SOL    HW139881   1.656   3.629   3.231 -0.1484  1.5369 -1.7179
 9473SOL    HW239882   1.772   3.572   3.160 -0.1995 -0.0483  0.8789
 9474SOL     OW39883   2.173   2.284  13.650  0.3463 -0.1562  0.2644
 9474SOL    HW139884   2.185   2.256  13.559  1.4241  0.5501  0.1942
 9474SOL    HW239885   2.246   2.233  13.685  0.8390 -0.0563 -0.6160
 9475SOL     OW39886   2.025   3.298   8.314 -0.1963 -0.1626 -0.3428
 9475SOL    HW139887   2.113   3.275   8.285 -0.4432 -0.2437 -1.0160
 9475SOL    HW239888   2.011   3.237   8.386  0.2667  0.0630 -0.0664
 9476SOL     OW39889   0.989   3.500   6.740 -0.2767  0.0947 -0.2721
 9476SOL    HW139890   0.928   3.568   6.767  0.4252  1.4629 -2.1765
 9476SOL    HW239891   1.065   3.513   6.797  1.1118 -0.9334 -1.8842
 9477SOL     OW39892   0.679   0.101   8.761  1.0543 -0.8410 -0.3993
 9477SOL    HW139893   0.699   0.193   8.748 -0.1208 -0.5482 -0.0821
 9477SOL    HW239894   0.763   0.075   8.800  0.2229 -1.7714  0.7720
 9478SOL     OW39895   2.415   0.486   3.694 -0.1072 -0.4072  0.4497
 9478SOL    HW139896   2.492   0.466   3.641 -0.8864  3.5700 -2.2025
 9478SOL    HW239897   2.451   0.550   3.755 -1.1463 -0.5052  1.1632
 9479SOL     OW39898   3.410   2.064   6.176 -0.2852 -0.6750 -0.3255
 9479SOL    HW139899   3.444   2.138   6.126 -0.3996 -0.5361 -0.1986
 9479SOL    HW239900   3.448   1.989   6.131 -1.3702 -1.8294  0.6683
 9480SOL     OW39901   2.310   3.188   8.394 -0.2131 -0.0283 -0.7059
 9480SOL    HW139902   2.277   3.189   8.304 -1.8203 -1.2122 -0.1413
 9480SOL    HW239903   2.353   3.272   8.380  0.8974 -0.4422  0.2614
 9481SOL     OW39904   0.950   0.012   5.394  0.4246 -0.2429 -0.1160
 9481SOL    HW139905   1.011   0.078   5.427  0.6095  0.1052 -1.1529
 9481SOL    HW239906   0.953   0.043   5.304 -1.9556  0.2830 -0.0284
 9482SOL     OW39907   3.285   0.097   2.676  0.4362  0.4815  0.4833
 9482SOL    HW139908   3.231   0.052   2.742 -0.1920 -0.4121 -0.6521
 9482SOL    HW239909   3.214   0.121   2.616  0.1312  0.3194  0.7720
 9483SOL     OW39910   1.098   3.139   5.549  0.3104 -0.6774  0.7418
 9483SOL    HW139911   1.061   3.067   5.600 -0.9132 -2.5528 -2.8019
 9483SOL    HW239912   1.179   3.145   5.600  1.6179 -2.3786 -1.1563
 9484SOL     OW39913   3.368   3.116  13.642 -0.0078  0.1381  0.4830
 9484SOL    HW139914   3.384   3.091  13.551 -0.9773  0.6409  0.1698
 9484SOL    HW239915   3.272   3.124  13.642 -0.0868 -0.8117  0.7439
 9485SOL     OW39916   2.383   2.854   5.123  0.5053  0.0568 -0.1876
 9485SOL    HW139917   2.388   2.795   5.198  2.4165  1.8429  1.0860
 9485SOL    HW239918   2.306   2.816   5.080  0.6876 -2.3529  1.6324
 9486SOL     OW39919   1.068   4.201   8.158  0.0044  0.2259  0.0171
 9486SOL    HW139920   1.102   4.130   8.103 -0.3344  0.0094  0.0863
 9486SOL    HW239921   0.999   4.230   8.098  0.8923  0.5598 -0.8416
 9487SOL     OW39922   4.633   2.862   5.357  0.1697  0.0539  0.0558
 9487SOL    HW139923   4.539   2.848   5.348  0.3996 -1.1922 -0.3804
 9487SOL    HW239924   4.664   2.783   5.313  0.5154 -0.3719  1.0754
 9488SOL     OW39925   2.064   4.204   5.420  0.1486 -0.0503 -0.2629
 9488SOL    HW139926   2.020   4.176   5.500  1.9709  0.9632  1.0972
 9488SOL    HW239927   1.989   4.208   5.361  0.1985 -1.5801 -0.4251
 9489SOL     OW39928   3.790   3.114   3.488  0.4370  0.0237  0.3540
 9489SOL    HW139929   3.712   3.131   3.435 -0.2064 -1.9429  0.6779
 9489SOL    HW239930   3.741   3.105   3.570 -0.0429  0.3737  0.1126
 9490SOL     OW39931   1.750   2.148   2.232  0.0210  0.5621  0.4949
 9490SOL    HW139932   1.830   2.195   2.206  0.0210  0.9158  1.1497
 9490SOL    HW239933   1.755   2.153   2.327  0.7482  0.5789  0.4594
 9491SOL     OW39934   0.596   1.003   7.011 -0.1503  0.0325 -0.0130
 9491SOL    HW139935   0.618   0.967   6.925 -0.2213 -2.3220  0.9458
 9491SOL    HW239936   0.541   0.930   7.041  0.0107  0.6685  1.8235
 9492SOL     OW39937   0.524   1.173   0.996  0.0330 -0.0387  0.2715
 9492SOL    HW139938   0.500   1.081   0.984 -1.0523  0.1273  1.2265
 9492SOL    HW239939   0.532   1.173   1.091 -0.6650  1.4361  0.3172
 9493SOL     OW39940   3.637   0.203   4.761 -0.1866 -0.3957 -0.0798
 9493SOL    HW139941   3.690   0.130   4.729  0.8011 -0.2348  1.1778
 9493SOL    HW239942   3.557   0.188   4.710  1.0423 -3.7572 -1.0440
 9494SOL     OW39943   0.130   4.123   8.364 -0.4802  0.1042 -0.5335
 9494SOL    HW139944   0.142   4.035   8.328  0.6788 -0.6343  1.6270
 9494SOL    HW239945   0.117   4.107   8.458 -2.2536  0.8849 -0.6625
 9495SOL     OW39946   2.265   1.321   4.587 -1.0064  0.6273  0.2785
 9495SOL    HW139947   2.243   1.403   4.543 -0.5616  1.3195  1.3400
 9495SOL    HW239948   2.220   1.338   4.670 -0.0234 -2.9271  1.5433
 9496SOL     OW39949   2.901   4.689   2.595 -0.1216  0.5249  0.6644
 9496SOL    HW139950   2.862   0.001   2.675 -0.0164  1.8937  0.1191
 9496SOL    HW239951   2.894   4.596   2.613  1.4192  0.0208 -1.3467
 9497SOL     OW39952   3.265   2.724   6.908  0.3131  0.0782  0.5871
 9497SOL    HW139953   3.178   2.752   6.936 -0.1156 -1.1833  0.5290
 9497SOL    HW239954   3.323   2.781   6.959  0.7699  0.5968 -0.5200
 9498SOL     OW39955   0.531   2.777   6.630  0.1463  0.3903  0.8083
 9498SOL    HW139956   0.488   2.698   6.600 -0.6733 -0.0538  3.1550
 9498SOL    HW239957   0.623   2.755   6.647  0.0806  0.9876  1.9124
 9499SOL     OW39958   3.835   4.716   9.282 -0.1341 -0.0837 -0.1997
 9499SOL    HW139959   3.780   4.679   9.352 -1.9291  2.8607 -0.0814
 9499SOL    HW239960   3.769   4.721   9.213  1.9509  0.7255 -2.1209
 9500SOL     OW39961   1.674   4.191   7.745  0.2243 -0.4446 -0.3237
 9500SOL    HW139962   1.667   4.260   7.680  2.4047 -0.3296 -0.4292
 9500SOL    HW239963   1.765   4.189   7.773  0.0521 -0.6542  0.2293
 9501SOL     OW39964   0.398   0.739   3.442 -0.1965  0.4638  0.2037
 9501SOL    HW139965   0.443   0.711   3.522 -0.9569 -2.5162 -0.4213
 9501SOL    HW239966   0.319   0.774   3.483 -0.2594 -0.4823  0.8925
 9502SOL     OW39967   3.621   0.361   3.563 -0.0283 -0.3226  0.2726
 9502SOL    HW139968   3.614   0.431   3.628 -0.7519  0.4935 -0.6793
 9502SOL    HW239969   3.627   0.282   3.617  1.0429 -0.9610 -0.7715
 9503SOL     OW39970   2.670   0.920   6.957 -0.0705  0.0956 -0.1226
 9503SOL    HW139971   2.619   0.866   6.896 -0.3022 -1.7401  1.6697
 9503SOL    HW239972   2.670   0.868   7.037  1.6075  0.3217  0.0160
 9504SOL     OW39973   1.788   3.281  12.572 -0.8239 -0.3567 -0.6499
 9504SOL    HW139974   1.873   3.278  12.527 -0.8273 -1.3283 -0.5778
 9504SOL    HW239975   1.781   3.376  12.581 -0.2777 -0.2688 -1.1679
 9505SOL     OW39976   1.585   2.484   2.870 -0.0096 -0.4868 -0.5487
 9505SOL    HW139977   1.572   2.392   2.848 -0.3219 -0.5787  0.0153
 9505SOL    HW239978   1.513   2.522   2.820  0.8475 -0.6829 -1.9257
 9506SOL     OW39979   2.155   4.068   2.723  0.8751 -0.1987 -0.3752
 9506SOL    HW139980   2.142   4.147   2.777 -2.1939 -0.9263 -0.0234
 9506SOL    HW239981   2.084   4.016   2.760  0.6927  1.1878  1.2336
 9507SOL     OW39982   3.945   0.545   3.629  0.3334  0.0037 -0.1192
 9507SOL    HW139983   4.020   0.542   3.571  0.1795  2.6132 -0.4579
 9507SOL    HW239984   3.986   0.551   3.715 -0.4122  1.0831  0.1635
 9508SOL     OW39985   4.689   1.753   2.300 -0.0608  0.2729 -0.0442
 9508SOL    HW139986   4.714   1.824   2.241  1.1202 -1.3393 -1.4766
 9508SOL    HW239987   4.602   1.778   2.332 -0.1892  1.1800 -1.1042
 9509SOL     OW39988   4.162   3.978  12.114  0.0614  0.5905  0.3760
 9509SOL    HW139989   4.088   4.019  12.159 -1.6830 -1.0414 -0.9900
 9509SOL    HW239990   4.184   4.043  12.047  2.2174  0.6289  1.1398
 9510SOL     OW39991   2.818   4.176  13.660  0.5283 -0.0087  0.0896
 9510SOL    HW139992   2.790   4.144  13.574  1.6578  0.3019 -0.3878
 9510SOL    HW239993   2.896   4.122  13.667 -0.2944 -1.3871 -1.3588
 9511SOL     OW39994   2.544   3.843   8.993  0.3571 -0.0289  0.3176
 9511SOL    HW139995   2.485   3.836   9.067 -1.7076  1.1972 -1.2100
 9511SOL    HW239996   2.628   3.812   9.027 -1.1693 -1.9982  2.2871
 9512SOL     OW39997   2.200   2.179   6.624  0.0810  0.3630  0.2029
 9512SOL    HW139998   2.162   2.095   6.649  0.7229  0.4525  1.4932
 9512SOL    HW239999   2.277   2.185   6.681  0.0192 -0.2075  0.3439
 9513SOL     OW40000   3.711   1.231   2.855 -0.3052 -0.1158  0.3770
 9513SOL    HW140001   3.740   1.287   2.783  0.5787  0.6411  1.3219
 9513SOL    HW240002   3.620   1.236   2.827 -0.5514 -2.1748  0.8387
 9514SOL     OW40003   0.586   3.775   5.706 -0.5941 -0.0668  0.9608
 9514SOL    HW140004   0.538   3.846   5.663  1.5660 -0.1701 -1.6668
 9514SOL    HW240005   0.628   3.825   5.776 -0.2978 -0.7543  1.2718
 9515SOL     OW40006   3.759   4.216   1.329 -0.3615 -0.2916 -0.1117
 9515SOL    HW140007   3.760   4.190   1.237  3.0838 -0.0445 -0.1204
 9515SOL    HW240008   3.758   4.310   1.311 -2.5774 -0.6114 -1.6617
 9516SOL     OW40009   0.199   1.299  16.827  0.2431  0.1061  0.1201
 9516SOL    HW140010   0.224   1.359  16.897 -3.6132  0.6037  1.0611
 9516SOL    HW240011   0.136   1.241  16.869  0.8098  2.2682  3.9059
 9517SOL     OW40012   0.612   3.381   8.072  0.1144 -0.3822 -0.1168
 9517SOL    HW140013   0.554   3.455   8.091  0.6234 -0.3111  1.1282
 9517SOL    HW240014   0.700   3.408   8.097 -0.5828  0.4539  1.4251
 9518SOL     OW40015   1.382   3.434   4.962  0.1085 -0.3274  0.3342
 9518SOL    HW140016   1.452   3.445   4.898 -1.2506 -0.1156 -1.1294
 9518SOL    HW240017   1.356   3.349   4.926  0.0032 -0.1317 -0.0535
 9519SOL     OW40018   1.915   0.697   6.854  0.0468  0.4465  0.4040
 9519SOL    HW140019   1.885   0.780   6.893  2.1063  1.0680  0.6395
 9519SOL    HW240020   1.864   0.630   6.900 -1.6362  0.6292 -1.1784
 9520SOL     OW40021   0.738   3.085   8.191 -0.9302 -0.0250 -0.3747
 9520SOL    HW140022   0.646   3.112   8.189 -1.3052 -1.2654  0.0015
 9520SOL    HW240023   0.748   3.059   8.282  1.2406  0.4244 -0.4941
 9521SOL     OW40024   4.493   4.216   7.034  0.0962  0.1096  0.3414
 9521SOL    HW140025   4.486   4.242   7.125 -0.9051  0.9692  0.0168
 9521SOL    HW240026   4.466   4.297   6.990 -1.0619 -1.1265 -1.2360
 9522SOL     OW40027   3.509   0.657   8.269  0.0676  0.3142 -0.4977
 9522SOL    HW140028   3.547   0.720   8.209 -1.0444  0.5527 -0.9634
 9522SOL    HW240029   3.583   0.599   8.284 -1.5274 -1.5208  0.2871
 9523SOL     OW40030   0.110   0.948   4.996 -0.0115  0.8985 -0.4995
 9523SOL    HW140031   0.117   0.896   4.915 -0.1121  2.2986 -1.3994
 9523SOL    HW240032   0.087   1.034   4.960  1.3795  0.9798 -1.1994
 9524SOL     OW40033   2.974   2.780   6.201  0.3108  1.1299 -0.5688
 9524SOL    HW140034   2.895   2.727   6.207  2.1160 -1.5988 -0.8107
 9524SOL    HW240035   2.966   2.827   6.284  2.7318  2.2346 -0.9739
 9525SOL     OW40036   0.368   4.072  14.757 -0.3562 -0.2241 -0.1191
 9525SOL    HW140037   0.396   3.987  14.722  0.4884  0.4716 -1.1306
 9525SOL    HW240038   0.454   4.094  14.791 -0.6048 -1.2471  1.1708
 9526SOL     OW40039   4.540   2.546   0.956  0.6361 -0.1684 -0.6599
 9526SOL    HW140040   4.470   2.608   0.975  2.6370  1.5834  0.9770
 9526SOL    HW240041   4.557   2.591   0.873 -0.7667  1.3387 -0.1164
 9527SOL     OW40042   3.280   4.408  12.425 -0.1703 -0.0971 -0.0930
 9527SOL    HW140043   3.196   4.363  12.429 -0.3913  0.4376  1.6599
 9527SOL    HW240044   3.290   4.467  12.500 -0.1521  1.0368 -0.9842
 9528SOL     OW40045   1.909   4.479   5.113  0.5549 -0.3854 -0.3129
 9528SOL    HW140046   1.876   4.556   5.160  0.9212 -0.2816 -0.2251
 9528SOL    HW240047   2.000   4.468   5.140  0.6720 -0.5740 -0.7927
 9529SOL     OW40048   2.986   3.107   0.061  0.4514 -0.8316 -0.3115
 9529SOL    HW140049   3.056   3.171   0.071 -0.2892 -0.2516  1.1082
 9529SOL    HW240050   2.982   3.112  17.660  0.8481  0.2085 -0.2670
 9530SOL     OW40051   2.609   1.612   3.971  0.6001 -0.0201 -0.0875
 9530SOL    HW140052   2.626   1.642   3.881 -1.0104 -2.1290 -1.0993
 9530SOL    HW240053   2.550   1.541   3.948  0.7916  0.2776 -1.4950
 9531SOL     OW40054   1.477   3.939   8.458 -0.0220  0.2148 -0.1490
 9531SOL    HW140055   1.432   3.950   8.542  1.9355  2.4942  0.5830
 9531SOL    HW240056   1.552   3.997   8.470 -0.3068  1.0899 -2.5043
 9532SOL     OW40057   3.493   3.477   7.017  0.3255 -0.1291 -0.8111
 9532SOL    HW140058   3.398   3.475   7.015  0.2681  1.4134  0.2377
 9532SOL    HW240059   3.521   3.553   7.068  0.8035 -1.7297  1.3117
 9533SOL     OW40060   0.713   1.080   1.728  0.5302 -0.4818 -0.3030
 9533SOL    HW140061   0.807   1.063   1.717  0.6093  0.8660 -1.8148
 9533SOL    HW240062   0.716   1.170   1.760 -1.2192 -0.8488  0.8814
 9534SOL     OW40063   3.629   0.105   0.058  0.4768 -0.2841 -0.7087
 9534SOL    HW140064   3.722   0.126   0.059  0.4961 -0.3960  0.1304
 9534SOL    HW240065   3.638   0.038  17.685 -2.6502 -1.6212  0.1863
 9535SOL     OW40066   1.555   0.558   6.408  0.3377 -0.1700 -0.4018
 9535SOL    HW140067   1.484   0.622   6.401  2.3893  1.9936 -1.5147
 9535SOL    HW240068   1.571   0.573   6.501  2.6513  0.8903 -0.9855
 9536SOL     OW40069   3.341   2.697   6.234  0.9964 -0.1302  0.2832
 9536SOL    HW140070   3.324   2.706   6.328 -1.9572 -3.3478  0.0541
 9536SOL    HW240071   3.307   2.608   6.224  1.2450 -0.3255  1.1478
 9537SOL     OW40072   3.786   3.374   4.949 -0.3393  0.0504  0.1876
 9537SOL    HW140073   3.702   3.351   4.911  0.0981 -2.1230  0.5334
 9537SOL    HW240074   3.821   3.297   4.994 -0.2947 -0.2478 -0.3531
 9538SOL     OW40075   3.954   1.828  11.602  0.1669  0.2254  0.2092
 9538SOL    HW140076   3.948   1.908  11.550  1.6516  1.0245  1.2757
 9538SOL    HW240077   3.953   1.772  11.524  1.6231 -1.4202  1.3588
 9539SOL     OW40078   0.330   3.062   8.830  0.3442  0.4753 -0.3950
 9539SOL    HW140079   0.250   3.028   8.789  0.4908 -0.3944  0.0214
 9539SOL    HW240080   0.296   3.143   8.867  0.0318  0.6935 -1.1753
 9540SOL     OW40081   3.134   4.550   6.647 -0.4406  0.1665  0.1464
 9540SOL    HW140082   3.127   4.645   6.641  0.3982  0.1748 -0.6400
 9540SOL    HW240083   3.095   4.526   6.563 -1.0954 -0.2510  0.5669
 9541SOL     OW40084   1.536   0.442   3.436 -0.9054 -0.1484 -0.0745
 9541SOL    HW140085   1.522   0.494   3.357  3.4000  0.6691 -0.2977
 9541SOL    HW240086   1.599   0.498   3.481 -1.7611  1.1534 -0.5096
 9542SOL     OW40087   2.986   4.172   4.374 -0.6374 -0.9659  0.3348
 9542SOL    HW140088   2.977   4.088   4.419 -0.3877 -0.2706  1.6981
 9542SOL    HW240089   2.898   4.195   4.347 -0.9512 -2.4228  0.1297
 9543SOL     OW40090   2.570   3.268   6.325  0.1631  0.3967  0.3888
 9543SOL    HW140091   2.601   3.257   6.235 -0.9146  1.1256 -0.0675
 9543SOL    HW240092   2.581   3.179   6.356 -2.1985 -0.0255 -0.0178
 9544SOL     OW40093   0.929   3.574   6.355 -0.1964  0.7085 -0.6374
 9544SOL    HW140094   0.889   3.661   6.363  0.1768  0.8769 -0.6314
 9544SOL    HW240095   0.916   3.548   6.264 -0.7533 -2.3307  0.2968
 9545SOL     OW40096   3.506   0.770   1.375  0.5346  0.5510  0.3309
 9545SOL    HW140097   3.489   0.736   1.463 -1.1262  1.8491  0.5255
 9545SOL    HW240098   3.471   0.700   1.321  0.8116  0.3173  0.4568
 9546SOL     OW40099   4.532   3.317   7.064  0.3309  0.5331  0.2538
 9546SOL    HW140100   4.617   3.350   7.090  0.5871  0.2646 -0.2421
 9546SOL    HW240101   4.559   3.227   7.042  1.8889  1.2875 -0.8974
 9547SOL     OW40102   3.617   4.239   2.946  0.2209  0.0511 -0.3736
 9547SOL    HW140103   3.666   4.305   2.995  2.8731 -1.4482 -1.0037
 9547SOL    HW240104   3.581   4.183   3.015  1.7914  0.2325  0.5970
 9548SOL     OW40105   1.694   3.022   1.603  0.1317 -0.0994 -0.1844
 9548SOL    HW140106   1.621   3.021   1.542  0.2378 -1.7005 -0.3032
 9548SOL    HW240107   1.756   2.970   1.551  1.7212  1.5133  0.1135
 9549SOL     OW40108   3.999   0.520   3.281  0.1953  0.0351 -0.4778
 9549SOL    HW140109   3.976   0.607   3.249 -1.6877  0.0847  1.0154
 9549SOL    HW240110   4.052   0.489   3.208 -0.8408  1.1789 -1.7040
 9550SOL     OW40111   3.864   2.346   3.808 -0.2040 -0.6943 -0.6009
 9550SOL    HW140112   3.949   2.362   3.768  0.8728  0.0607  2.0699
 9550SOL    HW240113   3.821   2.426   3.778  0.0679  0.1890  1.3870
 9551SOL     OW40114   1.166   1.930   1.162  0.1274  0.1158 -0.8310
 9551SOL    HW140115   1.121   1.872   1.223  0.1881 -1.0137 -1.8590
 9551SOL    HW240116   1.091   1.969   1.119 -1.4477  1.1547  2.8803
 9552SOL     OW40117   3.742   4.657   2.784 -0.0911  0.1791 -0.1080
 9552SOL    HW140118   3.759   0.028   2.783  0.0085  0.1672  0.4407
 9552SOL    HW240119   3.647   4.663   2.786 -0.3560 -4.0468 -0.3376
 9553SOL     OW40120   1.930   2.922   3.423  0.1313  0.0070 -0.0617
 9553SOL    HW140121   1.848   2.901   3.467 -1.8101  1.8808 -2.7801
 9553SOL    HW240122   1.980   2.849   3.459  0.2241 -0.7653 -1.7722
 9554SOL     OW40123   2.753   2.240   7.039  0.1167  0.0565 -0.1197
 9554SOL    HW140124   2.698   2.182   7.090 -0.0748  0.2921 -0.0589
 9554SOL    HW240125   2.756   2.316   7.098 -0.3366  0.1130 -0.1748
 9555SOL     OW40126   0.698   1.527   8.554  0.4986 -0.2479  0.1482
 9555SOL    HW140127   0.691   1.438   8.517  0.0689  0.6825 -2.0085
 9555SOL    HW240128   0.608   1.557   8.547  0.7585  0.6745  0.8970
 9556SOL     OW40129   2.530   1.067  15.746  0.2623  0.1357 -0.0267
 9556SOL    HW140130   2.591   1.081  15.673 -1.0565  1.2600 -0.9083
 9556SOL    HW240131   2.445   1.061  15.702 -0.5782  0.8153  1.4788
 9557SOL     OW40132   1.990   1.217   2.894 -0.2424  1.3866 -0.1358
 9557SOL    HW140133   2.066   1.169   2.860  0.1560  3.3100 -1.9654
 9557SOL    HW240134   1.929   1.144   2.891  0.9965  0.2190  2.6695
 9558SOL     OW40135   0.930   1.878   2.664  0.2913  0.2216  0.2655
 9558SOL    HW140136   1.023   1.855   2.661  0.1131 -0.5716  0.7365
 9558SOL    HW240137   0.933   1.971   2.644 -2.2681  0.0549 -0.9557
 9559SOL     OW40138   1.465   2.189  12.150 -0.3765 -0.1363  0.1546
 9559SOL    HW140139   1.371   2.207  12.156 -0.3430  0.5986 -1.3805
 9559SOL    HW240140   1.463   2.121  12.082 -0.5499  1.9684 -1.9628
 9560SOL     OW40141   1.122   1.516   5.859  0.5941  0.2075  0.0434
 9560SOL    HW140142   1.187   1.561   5.805  0.6828  0.8402  0.6816
 9560SOL    HW240143   1.048   1.575   5.874  0.5020 -0.4152  2.0121
 9561SOL     OW40144   2.935   4.449   1.793  0.3144 -0.2006  0.6644
 9561SOL    HW140145   2.955   4.517   1.729 -0.1526  0.2502  0.9968
 9561SOL    HW240146   2.978   4.381   1.741  0.3678 -0.4845  1.0728
 9562SOL     OW40147   3.497   0.126   0.713  0.0326  0.3993 -0.4815
 9562SOL    HW140148   3.561   0.178   0.761  1.6291 -2.8835  0.9642
 9562SOL    HW240149   3.554   0.060   0.672 -0.1753  0.4140 -0.7973
 9563SOL     OW40150   2.638   2.802   7.842  0.1393 -0.2625  0.4310
 9563SOL    HW140151   2.588   2.771   7.918 -0.8836  3.6883  1.3575
 9563SOL    HW240152   2.715   2.835   7.888  0.0131 -0.4300  0.7583
 9564SOL     OW40153   1.011   1.242  16.135  0.0361 -0.7824  0.0966
 9564SOL    HW140154   1.030   1.318  16.079  0.4908 -1.1851 -0.2889
 9564SOL    HW240155   0.915   1.245  16.142  0.1025  2.0898 -0.2369
 9565SOL     OW40156   4.711   2.900  11.426  0.0659  0.3147  0.3216
 9565SOL    HW140157   0.037   2.963  11.373  0.1556 -0.4390 -0.4871
 9565SOL    HW240158   4.618   2.917  11.412  0.2036  0.0960 -0.8473
 9566SOL     OW40159   1.720   0.474   7.546 -0.3481 -0.0589 -0.1871
 9566SOL    HW140160   1.786   0.543   7.533  0.0452 -0.8040 -2.1135
 9566SOL    HW240161   1.680   0.510   7.625  0.4333  1.1402 -0.3287
 9567SOL     OW40162   1.156   1.554   4.737 -0.0630  0.0996 -0.5623
 9567SOL    HW140163   1.237   1.582   4.695 -0.2866 -0.1616 -1.1702
 9567SOL    HW240164   1.181   1.464   4.758  1.9710  0.8725  0.3342
 9568SOL     OW40165   4.196   1.938   5.468  0.4203 -0.2040 -0.2284
 9568SOL    HW140166   4.273   1.981   5.505 -1.1451  2.1527  0.2790
 9568SOL    HW240167   4.212   1.960   5.377  0.2219 -0.7545 -0.3942
   4.72317   4.72317  17.69456
